
Running Job 1 of 1 Q_in.in
qchem Q_in.in_303237.0 /scratch/ari.fischer/qChem1516406.hpc-mn1/qchem303237/ 0
/usr/local/qchem-5.4.1/exe/qcprog.exe_s Q_in.in_303237.0 /scratch/ari.fischer/qChem1516406.hpc-mn1/qchem303237/
                  Welcome to Q-Chem
     A Quantum Leap Into The Future Of Chemistry


 Q-Chem 5.4, Q-Chem, Inc., Pleasanton, CA (2021)

 License issued to: Nanyang Technological University (site)

 E. Epifanovsky,  A. T. B. Gilbert,  Xintian Feng,  Joonho Lee,  Yuezhi Mao,  
 N. Mardirossian,  P. Pokhilko,  A. White,  M. Wormit,  M. P. Coons,  
 A. L. Dempwolff,  Zhengting Gan,  D. Hait,  P. R. Horn,  L. D. Jacobson,  
 I. Kaliman,  J. Kussmann,  A. W. Lange,  Ka Un Lao,  D. S. Levine,  Jie Liu,  
 S. C. McKenzie,  A. F. Morrison,  K. Nanda,  F. Plasser,  D. R. Rehn,  
 M. L. Vidal,  Zhi-Qiang You,  Ying Zhu,  B. Alam,  B. Albrecht,  
 A. Aldossary,  E. Alguire,  J. H. Andersen,  D. Barton,  K. Begam,  A. Behn,  
 Y. A. Bernard,  E. J. Berquist,  H. Burton,  A. Carreras,  K. Carter-Fenk,  
 R. Chakraborty,  A. D. Chien,  K. D. Closser,  V. Cofer-Shabica,  
 S. Dasgupta,  Jia Deng,  M. de Wergifosse,  M. Diedenhofen,  Hainam Do,  
 S. Ehlert,  Po-Tung Fang,  S. Fatehi,  Qingguo Feng,  T. Friedhoff,  
 J. Gayvert,  Qinghui Ge,  G. Gidofalvi,  M. Goldey,  J. Gomes,  
 C. Gonzalez-Espinoza,  S. Gulania,  A. Gunina,  M. W. D. Hanson-Heine,  
 P. H. P. Harbach,  A. W. Hauser,  M. F. Herbst,  M. Hernandez Vera,  
 M. Hodecker,  Z. C. Holden,  S. Houck,  Xunkun Huang,  Kerwin Hui,  
 B. C. Huynh,  M. Ivanov,  Hyunjun Ji,  Hanjie Jiang,  B. Kaduk,  S. Kaehler,  
 K. Khistyaev,  Jaehoon Kim,  P. Klunzinger,  Z. Koczor-Benda,  
 Joong Hoon Koh,  D. Kosenkov,  L. Koulias,  T. Kowalczyk,  C. M. Krauter,  
 K. Kue,  A. Kunitsa,  T. Kus,  A. Landau,  K. V. Lawler,  D. Lefrancois,  
 S. Lehtola,  Rain Li,  Yi-Pei Li,  Jiashu Liang,  M. Liebenthal,  
 Hung-Hsuan Lin,  You-Sheng Lin,  Fenglai Liu,  Kuan-Yu Liu,  
 M. Loipersberger,  A. Luenser,  A. Manjanath,  P. Manohar,  E. Mansoor,  
 S. F. Manzer,  Shan-Ping Mao,  A. V. Marenich,  T. Markovich,  S. Mason,  
 S. A. Maurer,  P. F. McLaughlin,  M. F. S. J. Menger,  J.-M. Mewes,  
 S. A. Mewes,  P. Morgante,  J. W. Mullinax,  K. J. Oosterbaan,  G. Paran,  
 Alexander C. Paul,  Suranjan K. Paul,  F. Pavosevic,  Zheng Pei,  S. Prager,  
 E. I. Proynov,  E. Ramos,  B. Rana,  A. E. Rask,  A. Rettig,  R. M. Richard,  
 F. Rob,  E. Rossomme,  T. Scheele,  M. Scheurer,  M. Schneider,  
 N. Sergueev,  S. M. Sharada,  W. Skomorowski,  D. W. Small,  C. J. Stein,  
 Yu-Chuan Su,  E. J. Sundstrom,  Zhen Tao,  J. Thirman,  T. Tsuchimochi,  
 N. M. Tubman,  S. P. Veccham,  O. Vydrov,  J. Wenzel,  J. Witte,  A. Yamada,  
 Kun Yao,  S. Yeganeh,  S. R. Yost,  A. Zech,  Igor Ying Zhang,  Xing Zhang,  
 Yu Zhang,  D. Zuev,  A. Aspuru-Guzik,  A. T. Bell,  N. A. Besley,  
 K. B. Bravaya,  B. R. Brooks,  D. Casanova,  Jeng-Da Chai,  S. Coriani,  
 C. J. Cramer,  A. E. DePrince, III,  R. A. DiStasio Jr.,  A. Dreuw,  
 B. D. Dunietz,  T. R. Furlani,  W. A. Goddard III,  S. Grimme,  
 S. Hammes-Schiffer,  T. Head-Gordon,  W. J. Hehre,  Chao-Ping Hsu,  
 T.-C. Jagau,  Yousung Jung,  A. Klamt,  Jing Kong,  D. S. Lambrecht,  
 WanZhen Liang,  N. J. Mayhall,  C. W. McCurdy,  J. B. Neaton,  
 C. Ochsenfeld,  J. A. Parkhill,  R. Peverati,  V. A. Rassolov,  Yihan Shao,  
 L. V. Slipchenko,  T. Stauch,  R. P. Steele,  J. E. Subotnik,  
 A. J. W. Thom,  A. Tkatchenko,  D. G. Truhlar,  T. Van Voorhis,  
 T. A. Wesolowski,  K. B. Whaley,  H. L. Woodcock III,  P. M. Zimmerman,  
 S. Faraji,  P. M. W. Gill,  M. Head-Gordon,  J. M. Herbert,  A. I. Krylov

 Additional authors for Version 5.4.1: 
 S. Kotaru,  Shaozhi Li,  Xiangyuan Li,  F. Matz,  A. Molle,  Haisheng Ren,  
 Yingli Su,  Hung-Yi Tsai,  C. Utku,  Fang Wang

 Contributors to earlier versions of Q-Chem not listed above: 
 R. D. Adamson,  B. Austin,  R. Baer,  J. Baker,  G. J. O. Beran,  
 K. Brandhorst,  S. T. Brown,  E. F. C. Byrd,  A. K. Chakraborty,  
 G. K. L. Chan,  Chun-Min Chang,  Yunqing Chen,  C.-L. Cheng,  
 Siu Hung Chien,  D. M. Chipman,  D. L. Crittenden,  H. Dachsel,  
 R. J. Doerksen,  A. D. Dutoi,  R. G. Edgar,  J. Fosso-Tande,  
 L. Fusti-Molnar,  D. Ghosh,  A. Ghysels,  A. Golubeva-Zadorozhnaya,  
 J. Gonthier,  M. S. Gordon,  S. R. Gwaltney,  G. Hawkins,  J. E. Herr,  
 A. Heyden,  S. Hirata,  E. G. Hohenstein,  G. Kedziora,  F. J. Keil,  
 C. Kelley,  Jihan Kim,  R. A. King,  R. Z. Khaliullin,  P. P. Korambath,  
 W. Kurlancheek,  A. Laurent,  A. M. Lee,  M. S. Lee,  S. V. Levchenko,  
 Ching Yeh Lin,  D. Liotard,  E. Livshits,  R. C. Lochan,  I. Lotan,  
 L. A. Martinez-Martinez,  P. E. Maslen,  N. Nair,  D. P. O'Neill,  
 D. Neuhauser,  E. Neuscamman,  C. M. Oana,  R. Olivares-Amaya,  R. Olson,  
 T. M. Perrine,  B. Peters,  P. A. Pieniazek,  A. Prociuk,  Y. M. Rhee,  
 J. Ritchie,  M. A. Rohrdanz,  E. Rosta,  N. J. Russ,  H. F. Schaefer III,  
 M. W. Schmidt,  N. E. Schultz,  S. Sharma,  N. Shenvi,  C. D. Sherrill,  
 A. C. Simmonett,  A. Sodt,  T. Stein,  D. Stuck,  K. S. Thanthiriwatte,  
 V. Vanovschi,  L. Vogt,  Tao Wang,  A. Warshel,  M. A. Watson,  
 C. F. Williams,  Q. Wu,  X. Xu,  Jun Yang,  W. Zhang,  Yan Zhao

 Please cite Q-Chem as follows:
 Y. Shao et al., Mol. Phys. 113, 184-215 (2015)
 DOI: 10.1080/00268976.2014.952696

 Q-Chem 5.4.1 for Intel X86 EM64T Linux

 Parts of Q-Chem use Armadillo 9.800.1 (Horizon Scraper).
 http://arma.sourceforge.net/

 Q-Chem begins on Fri Apr 21 17:23:12 2023  

 Host: 
0

     Scratch files written to /scratch/ari.fischer/qChem1516406.hpc-mn1/qchem303237//
 Aug1521 |scratch|qcdevops|jenkins|workspace|build_RNUM 8249   
 Processing $rem in /usr/local/qchem-5.4.1/config/preferences:
 Processing $rem in /home/ari.fischer/.qchemrc:
 Symmetry turned off for PCM/SM12/SMD calculation


!!********************************************.
!!******************Warning*******************.
!!Desired Analytical derivatives not available.
!!Finite difference job might take a long time.
!!********************************************.
!!********************************************.


 2-order derivative to be evaluated numerically with 1-order analytical derivatives

 Checking the input file for inconsistencies... 	...done.

--------------------------------------------------------------
User input:
--------------------------------------------------------------
$molecule
0 2
C        -0.9436581337    0.0860394391    0.6234710336
C        -2.4056802964    0.3902049849    0.7805805413
O        -2.8737847661    1.4452939148   -0.0428781804
C        -0.1316597216    0.7348064439   -0.2066019563
C         1.3415439045    0.4335822348   -0.2649963011
O         1.8868343179    0.6330994534   -1.5664206153
C         1.6258658808   -1.0033300086    0.1154062341
O         3.0564473070   -1.1629020049    0.3872790507
O         3.4140570656   -0.5849732868    1.4986751960
C         0.8056876349   -1.4898680213    1.2682546238
C        -0.4084578730   -0.9923546872    1.4743320918
H        -2.5999091882    0.6904718219    1.8115391260
H        -2.9811320352   -0.5233354863    0.6020676084
H        -2.7926376056    1.1696326153   -0.9626230012
H        -0.4786145655    1.5625807519   -0.8124799326
H         1.8595916080    1.0833454942    0.4512619328
H         1.8534259002    1.5750753880   -1.7666839295
H         1.2037628140   -2.3063723506    1.8553830285
H        -1.0390528941   -1.3888852290    2.2603867800
H         1.4883929464   -1.6499345671   -0.7551508307
$end

$rem
BASIS = 6-311++G(2df,2p)
GUI = 2
JOB_TYPE = Frequency
METHOD = wB97M-V
SOLVENT_METHOD = SMD
SCF_ALGORITHM = DIIS_GDM
MAX_SCF_CYCLES = 400
SCF_CONVERGENCE = 7
THRESH = 12
UNRESTRICTED = 1
SYMMETRY_IGNORE = 1
$end
--------------------------------------------------------------
 ----------------------------------------------------------------
             Standard Nuclear Orientation (Angstroms)
    I     Atom           X                Y                Z
 ----------------------------------------------------------------
    1      C      -0.9436581337     0.0860394391     0.6234710336
    2      C      -2.4056802964     0.3902049849     0.7805805413
    3      O      -2.8737847661     1.4452939148    -0.0428781804
    4      C      -0.1316597216     0.7348064439    -0.2066019563
    5      C       1.3415439045     0.4335822348    -0.2649963011
    6      O       1.8868343179     0.6330994534    -1.5664206153
    7      C       1.6258658808    -1.0033300086     0.1154062341
    8      O       3.0564473070    -1.1629020049     0.3872790507
    9      O       3.4140570656    -0.5849732868     1.4986751960
   10      C       0.8056876349    -1.4898680213     1.2682546238
   11      C      -0.4084578730    -0.9923546872     1.4743320918
   12      H      -2.5999091882     0.6904718219     1.8115391260
   13      H      -2.9811320352    -0.5233354863     0.6020676084
   14      H      -2.7926376056     1.1696326153    -0.9626230012
   15      H      -0.4786145655     1.5625807519    -0.8124799326
   16      H       1.8595916080     1.0833454942     0.4512619328
   17      H       1.8534259002     1.5750753880    -1.7666839295
   18      H       1.2037628140    -2.3063723506     1.8553830285
   19      H      -1.0390528941    -1.3888852290     2.2603867800
   20      H       1.4883929464    -1.6499345671    -0.7551508307
 ----------------------------------------------------------------
 Nuclear Repulsion Energy =         622.62707877 hartrees
 There are       42 alpha and       41 beta electrons
 Requested basis set is 6-311++G(2df,2p)
 There are 142 shells and 464 basis functions

 Total QAlloc Memory Limit 288000 MB
 Mega-Array Size       188 MB
 MEM_STATIC part       192 MB
 
 Citation of the SMD model:
 Marenich, A.V.; Cramer, C.J.; Truhlar, D.G.
 J. Phys. Chem. B 2009, 113, 6378-6396.
 iSolventCode=           1
 Solvent: water                                                           
 
 vradii
            1           2           3           4           5           6
    1   1.8500000   1.8500000   1.5200000   1.8500000   1.8500000   1.5200000
            7           8           9          10          11          12
    1   1.8500000   1.5200000   1.5200000   1.8500000   1.8500000   1.2000000
           13          14          15          16          17          18
    1   1.2000000   1.2000000   1.2000000   1.2000000   1.2000000   1.2000000
           19          20
    1   1.2000000   1.2000000
 Changing PCM_VDW_RADII to SMD_RADIUS
 Discretize the solute cavity surface with Lebedev spheres
	Using 110 Lebedev grid points for each H atom
	Using 194 Lebedev grid points for other atoms
	Atomic van der Waals radii will be scaled by 1.20
 Remove points where switching function is < 1.0e-08
 Keep 1499 surface tesserae and discard 1625 interior tesserae
 Molecular Surface Area = 173.705 Angst**2
 A cutoff of  1.0D-12 yielded   8814 shell pairs
 There are     93322 function pairs (    115892 Cartesian)
 Smallest overlap matrix eigenvalue = 1.84E-06
 Guess from superposition of atomic densities
 Warning:  Energy on first SCF cycle will be non-variational
 SAD guess density has 83.000000 electrons

 -----------------------------------------------------------------------
  General SCF calculation program by
  Eric Jon Sundstrom, Paul Horn, Yuezhi Mao, Dmitri Zuev, Alec White,
  David Stuck, Shaama M.S., Shane Yost, Joonho Lee, David Small,
  Daniel Levine, Susi Lehtola, Hugh Burton, Evgeny Epifanovsky,
  Bang C. Huynh
 -----------------------------------------------------------------------
 Exchange:     0.1500 Hartree-Fock + 1.0000 wB97M-V + LR-HF
 Correlation:  1.0000 wB97M-V
 Using SG-2 standard quadrature grid
 Nonlocal Correlation:  VV10 with C = 0.0100 and b = 6.00 and scale = 1.00000
 Grid used for NLC:  SG-1 standard quadrature
 using 8 threads for integral computing
 -------------------------------------------------------
 OpenMP Integral computing Module                
 Release: version 1.0, May 2013, Q-Chem Inc. Pittsburgh 
 -------------------------------------------------------
 
 Citation of the SMD model:
 Marenich, A.V.; Cramer, C.J.; Truhlar, D.G.
 J. Phys. Chem. B 2009, 113, 6378-6396.
 iSolventCode=           1
 Solvent: water                                                           
 
 vradii
            1           2           3           4           5           6
    1   1.8500000   1.8500000   1.5200000   1.8500000   1.8500000   1.5200000
            7           8           9          10          11          12
    1   1.8500000   1.5200000   1.5200000   1.8500000   1.8500000   1.2000000
           13          14          15          16          17          18
    1   1.2000000   1.2000000   1.2000000   1.2000000   1.2000000   1.2000000
           19          20
    1   1.2000000   1.2000000
 -------------------------------------------------------
 OpenMP BLAS3 based DFT computing Module                
 Release: version 1.0, May 2013, Q-Chem Inc. Pittsburgh 
 -------------------------------------------------------
 A unrestricted SCF calculation will be
 performed using DIIS, GDM
 SCF converges when RMS gradient is below 1.0e-07
 ---------------------------------------
  Cycle       Energy         DIIS error
 ---------------------------------------
    1    -575.7914253339      1.17e-02  
    2    -572.7517575319      1.23e-03  Done DIIS. Switching to GDM
 ---------------------------------------
  Cycle       Energy        RMS Gradient
 ---------------------------------------
    1    -572.7517575319      7.98e-02   Descent step
    2    -572.8726776349      5.09e-02   Normal BFGS step
    3    -572.8920713939      3.61e-02   Normal BFGS step
    4    -572.8961150007      1.28e-02   Normal BFGS step
    5    -572.8975637362      7.64e-03   Normal BFGS step
    6    -572.8978937976      3.84e-03   Normal BFGS step
    7    -572.8979896163      1.85e-03   Normal BFGS step
    8    -572.8980098306      1.13e-03   Normal BFGS step
    9    -572.8980159669      9.08e-04   Normal BFGS step
   10    -572.8980186905      6.56e-04   Normal BFGS step
   11    -572.8980199905      4.47e-04   Normal BFGS step
   12    -572.8980212952      4.17e-04   Normal BFGS step
   13    -572.8980219536      2.28e-04   Normal BFGS step
   14    -572.8980221441      5.93e-05   Normal BFGS step
   15    -572.8980221752      2.54e-05   Normal BFGS step
   16    -572.8980221834      7.28e-06   Normal BFGS step
   17    -572.8980221844      8.48e-06   Normal BFGS step
   18    -572.8980221848      4.49e-06   Normal BFGS step
   19    -572.8980221850      2.62e-06   Normal BFGS step
   20    -572.8980221851      1.53e-06   Normal BFGS step
   21    -572.8980221851      5.87e-07   Normal BFGS step
   22    -572.8980221851      3.02e-07   Normal BFGS step
   23    -572.8980221851      1.38e-07   Normal BFGS step
   24    -572.8980221851      3.47e-08  Convergence criterion met
 ---------------------------------------
 SCF time:   CPU 3661.20s  wall 466.00s 
<S^2> =          0.754053734
(3)  G-ENP(liq) elect-nuc-pol free energy of system     -572.898022185 a.u.
(4)  G-CDS(liq) cavity-dispersion-solvent structure 
     free energy                                                3.0898 kcal/mol
(6)  G-S(liq) free energy of system                     -572.893098204 a.u.
 SCF   energy in the final basis set =     -572.8930982036
 Total energy in the final basis set =     -572.8930982036
 
 --------------------------------------------------------------
 
                    Orbital Energies (a.u.)
 --------------------------------------------------------------
 
 Alpha MOs
 -- Occupied --
-19.4646 -19.4173 -19.3430 -19.3395 -10.4140 -10.4074 -10.3891 -10.3565
-10.3544 -10.3523 -10.3419  -1.3452  -1.1653  -1.1592  -1.0262  -0.9722
 -0.8845  -0.8703  -0.8018  -0.7462  -0.7164  -0.6575  -0.6522  -0.6368
 -0.6318  -0.6131  -0.5952  -0.5758  -0.5548  -0.5382  -0.5344  -0.5151
 -0.4975  -0.4739  -0.4656  -0.4461  -0.4185  -0.4068  -0.3986  -0.3919
 -0.3887  -0.3203
 -- Virtual --
  0.0238   0.0333   0.0372   0.0399   0.0402   0.0559   0.0590   0.0632
  0.0711   0.0853   0.0973   0.1102   0.1124   0.1208   0.1262   0.1346
  0.1368   0.1481   0.1495   0.1531   0.1562   0.1653   0.1662   0.1685
  0.1738   0.1773   0.1816   0.1870   0.1941   0.1993   0.2039   0.2062
  0.2189   0.2235   0.2249   0.2305   0.2389   0.2501   0.2556   0.2674
  0.2734   0.2798   0.2844   0.2874   0.2998   0.3003   0.3024   0.3119
  0.3206   0.3214   0.3282   0.3346   0.3460   0.3497   0.3576   0.3619
  0.3710   0.3752   0.3816   0.3887   0.3910   0.3955   0.4010   0.4081
  0.4089   0.4105   0.4251   0.4448   0.4509   0.4644   0.4692   0.4881
  0.4960   0.5272   0.5390   0.5547   0.5647   0.5837   0.5983   0.6013
  0.6105   0.6216   0.6326   0.6361   0.6410   0.6468   0.6569   0.6626
  0.6774   0.6858   0.6927   0.7014   0.7124   0.7171   0.7249   0.7431
  0.7512   0.7529   0.7628   0.7646   0.7796   0.7846   0.7992   0.8092
  0.8145   0.8322   0.8463   0.8481   0.8616   0.8818   0.8867   0.9027
  0.9247   0.9472   0.9594   0.9742   0.9929   1.0010   1.0275   1.0427
  1.0491   1.0590   1.0711   1.0792   1.0933   1.1032   1.1237   1.1267
  1.1474   1.1576   1.1595   1.1704   1.1879   1.1904   1.2090   1.2129
  1.2237   1.2393   1.2469   1.2551   1.2572   1.2703   1.2749   1.2857
  1.3027   1.3065   1.3174   1.3298   1.3459   1.3572   1.3642   1.3694
  1.4013   1.4041   1.4139   1.4307   1.4348   1.4516   1.4653   1.4746
  1.4904   1.4998   1.5230   1.5294   1.5345   1.5373   1.5526   1.5591
  1.5756   1.6045   1.6133   1.6165   1.6348   1.6566   1.6617   1.6652
  1.6739   1.6926   1.7070   1.7113   1.7353   1.7470   1.7689   1.8024
  1.8142   1.8297   1.8444   1.8499   1.9064   1.9293   1.9433   1.9639
  2.0041   2.0503   2.0602   2.1000   2.1350   2.1454   2.1654   2.2406
  2.2554   2.2669   2.3046   2.3381   2.3750   2.3955   2.4369   2.4578
  2.4670   2.5427   2.6444   2.6483   2.6701   2.6849   2.7256   2.7370
  2.7626   2.7843   2.8080   2.8186   2.8328   2.8545   2.8707   2.8942
  2.8988   2.9081   2.9201   2.9288   2.9410   2.9703   2.9782   2.9918
  3.0120   3.0325   3.0389   3.0393   3.0543   3.0800   3.1005   3.1337
  3.1475   3.1717   3.1820   3.2015   3.2161   3.2310   3.2554   3.2757
  3.2919   3.3175   3.3290   3.3364   3.3503   3.3696   3.3983   3.4058
  3.4181   3.4312   3.4401   3.4493   3.4554   3.4911   3.5023   3.5283
  3.5397   3.5475   3.5662   3.5935   3.6052   3.6255   3.6570   3.6634
  3.6696   3.6851   3.7008   3.7169   3.7348   3.7504   3.7722   3.7752
  3.7791   3.8066   3.8174   3.8288   3.8449   3.8541   3.8710   3.8867
  3.9026   3.9199   3.9342   3.9508   3.9751   4.0047   4.0319   4.0393
  4.0805   4.0881   4.0926   4.0975   4.1439   4.1549   4.1768   4.2013
  4.2120   4.2352   4.2414   4.2523   4.2684   4.2895   4.3054   4.3298
  4.3401   4.3553   4.3647   4.4051   4.4117   4.4409   4.4595   4.4952
  4.5025   4.5153   4.5380   4.5939   4.6001   4.6050   4.6147   4.6572
  4.6672   4.6798   4.7196   4.7421   4.7520   4.7838   4.8022   4.8409
  4.8892   4.9076   4.9239   4.9461   4.9577   5.0477   5.0733   5.1013
  5.1049   5.1197   5.1482   5.1922   5.2043   5.2536   5.2756   5.2894
  5.2993   5.3153   5.3185   5.3233   5.3619   5.3764   5.4016   5.4206
  5.4318   5.4925   5.5039   5.5417   5.5706   5.5855   5.6011   5.6301
  5.6609   5.6709   5.6873   5.7006   5.7078   5.7587   5.7915   5.8500
  5.9229   5.9637   5.9891   6.0387   6.0423   6.0913   6.2453   6.4732
  6.4785   6.6079   6.6511   6.6599   6.8628   6.8922   6.9850   7.0982
  7.1061   7.1333   7.2135   7.2625   7.3173   7.3267   7.3289   7.3610
  7.3661   7.3971   7.4286   7.4372   7.6502   7.7064   7.7926   7.8168
  7.8313   8.0263   8.0978  24.3242  24.6124  24.7345  24.8188  24.8343
 25.2070  25.3538  50.4267  50.5536  50.5948  50.6388
 
 Beta MOs
 -- Occupied --
-19.4541 -19.3988 -19.3430 -19.3395 -10.4143 -10.4071 -10.3891 -10.3565
-10.3541 -10.3523 -10.3419  -1.3189  -1.1650  -1.1592  -1.0049  -0.9621
 -0.8802  -0.8677  -0.7982  -0.7424  -0.7126  -0.6537  -0.6450  -0.6307
 -0.6207  -0.5885  -0.5848  -0.5703  -0.5441  -0.5359  -0.5150  -0.5108
 -0.4941  -0.4699  -0.4632  -0.4350  -0.4177  -0.3981  -0.3902  -0.3862
 -0.3203
 -- Virtual --
 -0.0327   0.0239   0.0341   0.0376   0.0402   0.0406   0.0561   0.0593
  0.0634   0.0714   0.0854   0.0982   0.1108   0.1129   0.1214   0.1266
  0.1352   0.1380   0.1483   0.1501   0.1534   0.1570   0.1654   0.1666
  0.1689   0.1744   0.1788   0.1819   0.1873   0.1944   0.1997   0.2062
  0.2080   0.2194   0.2246   0.2261   0.2314   0.2405   0.2505   0.2560
  0.2739   0.2754   0.2811   0.2846   0.2883   0.3003   0.3021   0.3027
  0.3141   0.3216   0.3226   0.3295   0.3356   0.3470   0.3522   0.3581
  0.3649   0.3717   0.3777   0.3821   0.3892   0.3916   0.3964   0.4019
  0.4090   0.4095   0.4114   0.4256   0.4454   0.4518   0.4661   0.4700
  0.4887   0.4968   0.5278   0.5396   0.5551   0.5651   0.5843   0.5986
  0.6017   0.6110   0.6218   0.6327   0.6363   0.6410   0.6470   0.6572
  0.6628   0.6778   0.6861   0.6931   0.7014   0.7125   0.7175   0.7250
  0.7437   0.7515   0.7532   0.7631   0.7652   0.7800   0.7847   0.8000
  0.8094   0.8150   0.8325   0.8467   0.8482   0.8618   0.8822   0.8871
  0.9030   0.9262   0.9474   0.9602   0.9745   0.9945   1.0011   1.0283
  1.0460   1.0504   1.0596   1.0720   1.0819   1.0942   1.1053   1.1242
  1.1311   1.1509   1.1584   1.1630   1.1730   1.1896   1.1980   1.2124
  1.2205   1.2370   1.2418   1.2491   1.2590   1.2611   1.2740   1.2778
  1.2942   1.3041   1.3089   1.3180   1.3309   1.3472   1.3584   1.3655
  1.3710   1.4019   1.4063   1.4148   1.4321   1.4360   1.4539   1.4677
  1.4762   1.4921   1.5004   1.5241   1.5312   1.5379   1.5389   1.5571
  1.5596   1.5770   1.6055   1.6186   1.6217   1.6370   1.6585   1.6667
  1.6713   1.6759   1.6959   1.7153   1.7171   1.7451   1.7582   1.7719
  1.8059   1.8206   1.8323   1.8462   1.8574   1.9098   1.9333   1.9456
  1.9650   2.0052   2.0543   2.0628   2.1030   2.1364   2.1518   2.1681
  2.2427   2.2608   2.2708   2.3157   2.3547   2.3752   2.3969   2.4386
  2.4616   2.4688   2.5430   2.6457   2.6518   2.6724   2.6852   2.7273
  2.7374   2.7651   2.7846   2.8083   2.8188   2.8334   2.8548   2.8710
  2.8945   2.8990   2.9081   2.9203   2.9291   2.9411   2.9706   2.9783
  2.9923   3.0125   3.0328   3.0394   3.0395   3.0552   3.0807   3.1006
  3.1341   3.1480   3.1719   3.1823   3.2016   3.2165   3.2313   3.2558
  3.2760   3.2923   3.3177   3.3293   3.3368   3.3505   3.3699   3.3985
  3.4062   3.4186   3.4314   3.4404   3.4496   3.4557   3.4915   3.5025
  3.5285   3.5400   3.5480   3.5664   3.5937   3.6055   3.6259   3.6575
  3.6638   3.6699   3.6852   3.7008   3.7172   3.7349   3.7507   3.7725
  3.7755   3.7793   3.8069   3.8177   3.8290   3.8452   3.8542   3.8714
  3.8875   3.9032   3.9201   3.9343   3.9511   3.9755   4.0047   4.0323
  4.0397   4.0806   4.0886   4.0929   4.0978   4.1441   4.1552   4.1773
  4.2018   4.2127   4.2355   4.2416   4.2534   4.2690   4.2900   4.3061
  4.3299   4.3404   4.3555   4.3657   4.4052   4.4120   4.4419   4.4599
  4.4959   4.5030   4.5163   4.5387   4.5999   4.6022   4.6144   4.6273
  4.6603   4.6690   4.6822   4.7277   4.7445   4.7554   4.7855   4.8128
  4.8433   4.8974   4.9171   4.9250   4.9498   4.9700   5.0572   5.0947
  5.1188   5.1518   5.1603   5.1994   5.2158   5.2298   5.2764   5.2907
  5.3051   5.3086   5.3190   5.3321   5.3374   5.3640   5.3822   5.4128
  5.4328   5.4386   5.4937   5.5195   5.5424   5.5775   5.5885   5.6039
  5.6354   5.6613   5.6720   5.6892   5.7033   5.7094   5.7607   5.8025
  5.8673   5.9247   5.9647   5.9898   6.0402   6.0432   6.0916   6.2465
  6.4883   6.5238   6.6201   6.6512   6.6613   6.9461   6.9702   7.0469
  7.0984   7.1229   7.1600   7.2405   7.2915   7.3173   7.3279   7.3301
  7.3636   7.3806   7.4205   7.4417   7.4760   7.6502   7.7090   7.7927
  7.8207   7.8400   8.0387   8.1191  24.3242  24.6125  24.7343  24.8190
 24.8343  25.2070  25.3538  50.4388  50.5631  50.5948  50.6396
 --------------------------------------------------------------
 
          Ground-State Mulliken Net Atomic Charges

     Atom                 Charge (a.u.)    Spin (a.u.)
  --------------------------------------------------------
      1 C                     0.386322       0.004810
      2 C                    -0.407919       0.000014
      3 O                    -0.447288      -0.000020
      4 C                    -0.501875      -0.003367
      5 C                    -0.255187       0.007980
      6 O                    -0.422352       0.002362
      7 C                    -0.204467      -0.003502
      8 O                     0.072242       0.315240
      9 O                    -0.220722       0.665949
     10 C                     0.023783       0.016929
     11 C                    -0.523733      -0.006983
     12 H                     0.215255       0.000188
     13 H                     0.230791       0.000079
     14 H                     0.334282       0.000012
     15 H                     0.264941       0.000515
     16 H                     0.250434      -0.002480
     17 H                     0.337927       0.000076
     18 H                     0.319003      -0.000434
     19 H                     0.294640       0.000619
     20 H                     0.253922       0.002012
  --------------------------------------------------------
  Sum of atomic charges =    -0.000000
  Sum of spin   charges =     1.000000

 -----------------------------------------------------------------
                    Cartesian Multipole Moments
 -----------------------------------------------------------------
    Charge (ESU x 10^10)
                -0.0000
    Dipole Moment (Debye)
         X      -3.7962      Y      -0.5642      Z      -0.8866
       Tot       3.9389
    Quadrupole Moments (Debye-Ang)
        XX     -83.8231     XY      10.3969     YY     -61.1298
        XZ      -3.0967     YZ      -6.0792     ZZ     -64.4488
    Octopole Moments (Debye-Ang^2)
       XXX    -136.2990    XXY       3.0524    XYY      -2.2575
       YYY      16.6708    XXZ     -42.7341    XYZ       2.4053
       YYZ     -29.9794    XZZ     -52.3210    YZZ      11.6094
       ZZZ     -67.9715
    Hexadecapole Moments (Debye-Ang^3)
      XXXX   -2015.4586   XXXY     321.4517   XXYY    -378.9589
      XYYY     227.1840   YYYY    -431.8633   XXXZ     -56.5701
      XXYZ      27.3494   XYYZ      -7.7697   YYYZ      81.4515
      XXZZ    -368.4942   XYZZ      68.1716   YYZZ    -114.8974
      XZZZ     -24.6730   YZZZ      88.8190   ZZZZ    -460.0813
 -----------------------------------------------------------------
 Calculating analytic gradient of the SCF energy
 Gradient of CDS energy
            1           2           3           4           5           6
    1  -0.0000169  -0.0009680   0.0003413  -0.0001150   0.0002470  -0.0000869
    2  -0.0000046   0.0003485  -0.0001715   0.0001943  -0.0000611  -0.0002059
    3  -0.0000644   0.0000762   0.0001264  -0.0000511  -0.0001275   0.0002149
            7           8           9          10          11          12
    1   0.0001861   0.0000233   0.0000621   0.0001118  -0.0001644   0.0001724
    2   0.0000282   0.0000559  -0.0000163  -0.0002583  -0.0001162   0.0000742
    3  -0.0000962   0.0000410  -0.0000389   0.0001585   0.0002785   0.0001599
           13          14          15          16          17          18
    1   0.0001393  -0.0002849  -0.0000793   0.0001256   0.0002042   0.0001626
    2  -0.0002228   0.0001727   0.0000691   0.0000486   0.0003276  -0.0001290
    3  -0.0000489  -0.0004124  -0.0000096   0.0001362  -0.0003410   0.0000933
           19          20
    1  -0.0001107   0.0000505
    2  -0.0000427  -0.0000910
    3   0.0001200  -0.0002148
 Gradient of SCF Energy
            1           2           3           4           5           6
    1  -0.0042970   0.0068070  -0.0037505   0.0120723  -0.0057416   0.0042100
    2  -0.0065055   0.0104418   0.0078287   0.0015235  -0.0059319  -0.0164232
    3   0.0046836  -0.0110745   0.0162755  -0.0006667  -0.0031254  -0.0005104
            7           8           9          10          11          12
    1   0.0095391   0.0003930  -0.0003297  -0.0012813  -0.0045466  -0.0007086
    2   0.0048746   0.0000791   0.0000159   0.0050745   0.0018517  -0.0012914
    3   0.0098470  -0.0019263   0.0013182  -0.0101778   0.0011320   0.0068115
           13          14          15          16          17          18
    1  -0.0041100   0.0023987  -0.0020414   0.0009415  -0.0024327   0.0014441
    2  -0.0078179  -0.0061270   0.0069881   0.0043743   0.0152070  -0.0057650
    3  -0.0011374  -0.0134768  -0.0064398   0.0017854  -0.0011848   0.0035640
           19          20
    1  -0.0069022  -0.0016638
    2  -0.0040820  -0.0043155
    3   0.0076325  -0.0033296
 Max gradient component =       1.642E-02
 RMS gradient           =       6.456E-03
 Computing fast CPCM-SWIG gradient
 Updating gradient with PCM contributions...
 -- total gradient after adding PCM contribution --
---------------------------------------------------
  Atom         X              Y              Z     
---------------------------------------------------
   1      -0.000009       0.000025       0.000006
   2       0.000027       0.000001       0.000028
   3      -0.000019       0.000022       0.000032
   4      -0.000027      -0.000031       0.000003
   5       0.000008       0.000012       0.000003
   6       0.000013      -0.000010       0.000003
   7      -0.000021      -0.000001      -0.000013
   8      -0.000005      -0.000050      -0.000083
   9       0.000011       0.000023       0.000049
  10      -0.000016      -0.000007       0.000001
  11       0.000036      -0.000023       0.000001
  12       0.000008      -0.000026       0.000022
  13      -0.000008      -0.000004      -0.000009
  14       0.000003       0.000011      -0.000018
  15       0.000012       0.000022       0.000010
  16       0.000002      -0.000006       0.000008
  17      -0.000018       0.000045      -0.000006
  18       0.000008      -0.000007      -0.000015
  19      -0.000001      -0.000005      -0.000005
  20      -0.000002       0.000011      -0.000015
---------------------------------------------------
 Number of fixed atoms: 0
 Gradient time:  CPU 462.80 s  wall 66.16 s
 ######################################################
 ######################################################
 # Starting finite difference calculation for IDERIV  #
 Finite diff step size:  1.88973e-03 a.u.
 ----------------------------------------------------------------
             Standard Nuclear Orientation (Angstroms)
    I     Atom           X                Y                Z
 ----------------------------------------------------------------
    1      C      -0.9426581337     0.0860394391     0.6234710336
    2      C      -2.4056802964     0.3902049849     0.7805805413
    3      O      -2.8737847661     1.4452939148    -0.0428781804
    4      C      -0.1316597216     0.7348064439    -0.2066019563
    5      C       1.3415439045     0.4335822348    -0.2649963011
    6      O       1.8868343179     0.6330994534    -1.5664206153
    7      C       1.6258658808    -1.0033300086     0.1154062341
    8      O       3.0564473070    -1.1629020049     0.3872790507
    9      O       3.4140570656    -0.5849732868     1.4986751960
   10      C       0.8056876349    -1.4898680213     1.2682546238
   11      C      -0.4084578730    -0.9923546872     1.4743320918
   12      H      -2.5999091882     0.6904718219     1.8115391260
   13      H      -2.9811320352    -0.5233354863     0.6020676084
   14      H      -2.7926376056     1.1696326153    -0.9626230012
   15      H      -0.4786145655     1.5625807519    -0.8124799326
   16      H       1.8595916080     1.0833454942     0.4512619328
   17      H       1.8534259002     1.5750753880    -1.7666839295
   18      H       1.2037628140    -2.3063723506     1.8553830285
   19      H      -1.0390528941    -1.3888852290     2.2603867800
   20      H       1.4883929464    -1.6499345671    -0.7551508307
 ----------------------------------------------------------------
 Nuclear Repulsion Energy =         622.63616432 hartrees
 There are       42 alpha and       41 beta electrons
 Discretize the solute cavity surface with Lebedev spheres
	Using 110 Lebedev grid points for each H atom
	Using 194 Lebedev grid points for other atoms
	Atomic van der Waals radii will be scaled by 1.20
 Remove points where switching function is < 1.0e-08
 Keep 1501 surface tesserae and discard 1623 interior tesserae
 Molecular Surface Area = 173.706 Angst**2
 Requested basis set is 6-311++G(2df,2p)
 There are 142 shells and 464 basis functions
 A cutoff of  1.0D-12 yielded   8814 shell pairs
 There are     93322 function pairs (    115892 Cartesian)
 Smallest overlap matrix eigenvalue = 1.84E-06
 Guess MOs from SCF MO coefficient file

 -----------------------------------------------------------------------
  General SCF calculation program by
  Eric Jon Sundstrom, Paul Horn, Yuezhi Mao, Dmitri Zuev, Alec White,
  David Stuck, Shaama M.S., Shane Yost, Joonho Lee, David Small,
  Daniel Levine, Susi Lehtola, Hugh Burton, Evgeny Epifanovsky,
  Bang C. Huynh
 -----------------------------------------------------------------------
 Exchange:     0.1500 Hartree-Fock + 1.0000 wB97M-V + LR-HF
 Correlation:  1.0000 wB97M-V
 Using SG-2 standard quadrature grid
 Nonlocal Correlation:  VV10 with C = 0.0100 and b = 6.00 and scale = 1.00000
 Grid used for NLC:  SG-1 standard quadrature
 
 Citation of the SMD model:
 Marenich, A.V.; Cramer, C.J.; Truhlar, D.G.
 J. Phys. Chem. B 2009, 113, 6378-6396.
 iSolventCode=           1
 Solvent: water                                                           
 
 vradii
            1           2           3           4           5           6
    1   1.8500000   1.8500000   1.5200000   1.8500000   1.8500000   1.5200000
            7           8           9          10          11          12
    1   1.8500000   1.5200000   1.5200000   1.8500000   1.8500000   1.2000000
           13          14          15          16          17          18
    1   1.2000000   1.2000000   1.2000000   1.2000000   1.2000000   1.2000000
           19          20
    1   1.2000000   1.2000000
 -------------------------------------------------------
 OpenMP BLAS3 based DFT computing Module                
 Release: version 1.0, May 2013, Q-Chem Inc. Pittsburgh 
 -------------------------------------------------------
 A unrestricted SCF calculation will be
 performed using Roothaan-Hall, DIIS, GDM
 SCF converges when RMS gradient is below 1.0e-07
 ---------------------------------------
  Cycle       Energy         DIIS error
 ---------------------------------------
    1    -572.8621378677      1.71e-04  Roothaan Step
 ---------------------------------------
  Cycle       Energy         DIIS error
 ---------------------------------------
    1    -572.8924455349      1.84e-04  
    2    -572.8964239553      1.44e-04  Done DIIS. Switching to GDM
 ---------------------------------------
  Cycle       Energy        RMS Gradient
 ---------------------------------------
    1    -572.8964239553      5.78e-03   Normal BFGS step
    2    -572.8963343293      1.03e-02  Line search: overstep
    3    -572.8978708243      2.20e-03   Normal BFGS step
    4    -572.8979912117      8.72e-04   Normal BFGS step
    5    -572.8980103640      1.39e-03   Normal BFGS step
    6    -572.8980197366      1.28e-04   Normal BFGS step
    7    -572.8980205751      1.49e-04   Normal BFGS step
    8    -572.8980208552      1.13e-04   Normal BFGS step
    9    -572.8980209663      4.70e-05   Normal BFGS step
   10    -572.8980209866      3.60e-05   Normal BFGS step
   11    -572.8980209922      3.13e-05   Normal BFGS step
   12    -572.8980209952      2.51e-05   Normal BFGS step
   13    -572.8980209987      1.25e-05   Normal BFGS step
   14    -572.8980210002      4.19e-06   Normal BFGS step
   15    -572.8980210007      2.73e-06   Normal BFGS step
   16    -572.8980210008      8.77e-07   Normal BFGS step
   17    -572.8980210008      2.59e-07   Normal BFGS step
   18    -572.8980210008      3.47e-07   Normal BFGS step
   19    -572.8980210008      1.71e-07   Normal BFGS step
  GDM::WARNING energy changes are now smaller than effective accuracy.
  GDM::        calculation will continue, but THRESH should be increased
  GDM::        or SCF_CONVERGENCE decreased. 
  GDM::        effective_thresh = 9.62e-09
   20    -572.8980210007      1.46e-07   Normal BFGS step
   21    -572.8980210008      9.23e-08  Convergence criterion met
 ---------------------------------------
 SCF time:   CPU 3372.21s  wall 430.00s 
<S^2> =          0.754053699
(3)  G-ENP(liq) elect-nuc-pol free energy of system     -572.898021001 a.u.
(4)  G-CDS(liq) cavity-dispersion-solvent structure 
     free energy                                                3.0898 kcal/mol
(6)  G-S(liq) free energy of system                     -572.893097050 a.u.
 SCF   energy in the final basis set =     -572.8930970497
 Total energy in the final basis set =     -572.8930970497
 
 --------------------------------------------------------------
 
                    Orbital Energies (a.u.)
 --------------------------------------------------------------
 
 Alpha MOs
 -- Occupied --
-19.4646 -19.4173 -19.3430 -19.3395 -10.4140 -10.4074 -10.3892 -10.3564
-10.3544 -10.3522 -10.3418  -1.3452  -1.1653  -1.1592  -1.0262  -0.9722
 -0.8845  -0.8703  -0.8017  -0.7462  -0.7165  -0.6575  -0.6522  -0.6368
 -0.6318  -0.6131  -0.5952  -0.5758  -0.5548  -0.5383  -0.5344  -0.5151
 -0.4975  -0.4739  -0.4656  -0.4461  -0.4185  -0.4068  -0.3986  -0.3919
 -0.3887  -0.3204
 -- Virtual --
  0.0238   0.0334   0.0372   0.0399   0.0402   0.0559   0.0590   0.0632
  0.0711   0.0853   0.0973   0.1102   0.1124   0.1208   0.1262   0.1346
  0.1368   0.1481   0.1495   0.1531   0.1562   0.1653   0.1662   0.1685
  0.1738   0.1773   0.1816   0.1870   0.1941   0.1993   0.2039   0.2062
  0.2189   0.2235   0.2249   0.2305   0.2389   0.2501   0.2556   0.2674
  0.2733   0.2798   0.2844   0.2874   0.2998   0.3002   0.3024   0.3119
  0.3206   0.3214   0.3282   0.3346   0.3460   0.3497   0.3576   0.3619
  0.3710   0.3752   0.3816   0.3886   0.3910   0.3955   0.4010   0.4081
  0.4089   0.4105   0.4251   0.4448   0.4508   0.4645   0.4692   0.4881
  0.4960   0.5272   0.5391   0.5547   0.5647   0.5837   0.5983   0.6013
  0.6106   0.6216   0.6326   0.6361   0.6410   0.6468   0.6569   0.6626
  0.6774   0.6858   0.6927   0.7014   0.7124   0.7171   0.7250   0.7432
  0.7512   0.7530   0.7628   0.7646   0.7796   0.7846   0.7993   0.8092
  0.8145   0.8322   0.8464   0.8481   0.8616   0.8818   0.8867   0.9028
  0.9247   0.9472   0.9594   0.9742   0.9930   1.0011   1.0275   1.0427
  1.0491   1.0590   1.0711   1.0792   1.0933   1.1032   1.1237   1.1267
  1.1473   1.1576   1.1595   1.1704   1.1879   1.1903   1.2090   1.2130
  1.2237   1.2393   1.2469   1.2551   1.2572   1.2703   1.2749   1.2857
  1.3027   1.3065   1.3174   1.3298   1.3459   1.3573   1.3643   1.3695
  1.4013   1.4041   1.4139   1.4306   1.4347   1.4516   1.4653   1.4746
  1.4904   1.4999   1.5231   1.5295   1.5345   1.5373   1.5526   1.5591
  1.5755   1.6045   1.6133   1.6166   1.6349   1.6566   1.6618   1.6652
  1.6740   1.6925   1.7070   1.7113   1.7353   1.7470   1.7689   1.8024
  1.8142   1.8297   1.8444   1.8499   1.9064   1.9294   1.9433   1.9639
  2.0040   2.0503   2.0602   2.1000   2.1350   2.1454   2.1654   2.2406
  2.2553   2.2669   2.3046   2.3381   2.3750   2.3953   2.4368   2.4577
  2.4670   2.5427   2.6444   2.6483   2.6700   2.6849   2.7256   2.7370
  2.7626   2.7843   2.8079   2.8186   2.8329   2.8544   2.8707   2.8942
  2.8988   2.9081   2.9201   2.9287   2.9411   2.9703   2.9782   2.9916
  3.0120   3.0325   3.0388   3.0394   3.0543   3.0798   3.1006   3.1339
  3.1475   3.1717   3.1820   3.2016   3.2162   3.2309   3.2554   3.2757
  3.2918   3.3176   3.3290   3.3367   3.3503   3.3695   3.3983   3.4058
  3.4182   3.4313   3.4402   3.4494   3.4554   3.4912   3.5022   3.5283
  3.5396   3.5474   3.5662   3.5936   3.6052   3.6256   3.6569   3.6635
  3.6695   3.6851   3.7008   3.7171   3.7348   3.7503   3.7722   3.7753
  3.7791   3.8065   3.8175   3.8288   3.8449   3.8540   3.8710   3.8866
  3.9027   3.9200   3.9343   3.9509   3.9751   4.0047   4.0321   4.0393
  4.0804   4.0880   4.0925   4.0972   4.1437   4.1548   4.1768   4.2013
  4.2119   4.2353   4.2414   4.2524   4.2685   4.2895   4.3054   4.3298
  4.3401   4.3554   4.3648   4.4052   4.4118   4.4409   4.4595   4.4951
  4.5027   4.5154   4.5381   4.5939   4.6000   4.6051   4.6145   4.6572
  4.6672   4.6798   4.7196   4.7424   4.7520   4.7838   4.8024   4.8412
  4.8896   4.9076   4.9242   4.9461   4.9580   5.0478   5.0733   5.1013
  5.1049   5.1198   5.1483   5.1922   5.2045   5.2536   5.2756   5.2895
  5.2992   5.3153   5.3184   5.3234   5.3619   5.3765   5.4017   5.4206
  5.4319   5.4924   5.5039   5.5415   5.5706   5.5857   5.6011   5.6300
  5.6609   5.6709   5.6872   5.7006   5.7079   5.7588   5.7915   5.8499
  5.9229   5.9638   5.9894   6.0387   6.0423   6.0912   6.2461   6.4732
  6.4785   6.6079   6.6509   6.6600   6.8628   6.8922   6.9850   7.0982
  7.1061   7.1333   7.2135   7.2625   7.3173   7.3267   7.3288   7.3610
  7.3661   7.3971   7.4286   7.4372   7.6501   7.7065   7.7925   7.8168
  7.8313   8.0263   8.0978  24.3237  24.6125  24.7346  24.8188  24.8331
 25.2080  25.3553  50.4267  50.5536  50.5947  50.6389
 
 Beta MOs
 -- Occupied --
-19.4541 -19.3988 -19.3430 -19.3395 -10.4143 -10.4070 -10.3892 -10.3564
-10.3541 -10.3523 -10.3418  -1.3189  -1.1650  -1.1592  -1.0049  -0.9621
 -0.8802  -0.8677  -0.7981  -0.7424  -0.7126  -0.6537  -0.6450  -0.6306
 -0.6207  -0.5885  -0.5847  -0.5703  -0.5441  -0.5360  -0.5150  -0.5108
 -0.4941  -0.4699  -0.4632  -0.4351  -0.4177  -0.3981  -0.3901  -0.3862
 -0.3204
 -- Virtual --
 -0.0327   0.0239   0.0341   0.0376   0.0402   0.0406   0.0561   0.0593
  0.0634   0.0714   0.0854   0.0982   0.1108   0.1129   0.1214   0.1266
  0.1352   0.1380   0.1483   0.1501   0.1534   0.1570   0.1654   0.1666
  0.1689   0.1744   0.1788   0.1819   0.1873   0.1944   0.1997   0.2062
  0.2080   0.2194   0.2246   0.2261   0.2314   0.2405   0.2505   0.2561
  0.2739   0.2754   0.2811   0.2846   0.2883   0.3003   0.3021   0.3027
  0.3141   0.3216   0.3226   0.3295   0.3356   0.3470   0.3522   0.3581
  0.3649   0.3717   0.3777   0.3821   0.3891   0.3916   0.3964   0.4019
  0.4090   0.4095   0.4114   0.4256   0.4454   0.4518   0.4661   0.4700
  0.4888   0.4968   0.5278   0.5397   0.5552   0.5651   0.5843   0.5986
  0.6017   0.6110   0.6219   0.6327   0.6363   0.6410   0.6470   0.6572
  0.6628   0.6778   0.6861   0.6931   0.7014   0.7125   0.7174   0.7250
  0.7438   0.7516   0.7532   0.7631   0.7653   0.7800   0.7848   0.8000
  0.8095   0.8150   0.8325   0.8468   0.8482   0.8618   0.8822   0.8871
  0.9030   0.9263   0.9474   0.9602   0.9745   0.9945   1.0012   1.0284
  1.0459   1.0504   1.0596   1.0720   1.0819   1.0942   1.1053   1.1242
  1.1312   1.1508   1.1584   1.1630   1.1730   1.1897   1.1979   1.2124
  1.2205   1.2370   1.2419   1.2492   1.2590   1.2612   1.2740   1.2778
  1.2941   1.3041   1.3089   1.3180   1.3309   1.3472   1.3584   1.3655
  1.3710   1.4019   1.4062   1.4148   1.4320   1.4359   1.4540   1.4677
  1.4762   1.4921   1.5005   1.5242   1.5312   1.5380   1.5388   1.5571
  1.5596   1.5769   1.6055   1.6186   1.6217   1.6370   1.6585   1.6668
  1.6714   1.6759   1.6959   1.7153   1.7171   1.7451   1.7582   1.7719
  1.8059   1.8206   1.8323   1.8462   1.8574   1.9099   1.9334   1.9455
  1.9650   2.0050   2.0543   2.0628   2.1030   2.1364   2.1518   2.1681
  2.2427   2.2607   2.2708   2.3157   2.3547   2.3752   2.3967   2.4386
  2.4616   2.4688   2.5430   2.6458   2.6518   2.6723   2.6852   2.7273
  2.7375   2.7651   2.7846   2.8082   2.8188   2.8334   2.8547   2.8710
  2.8945   2.8990   2.9081   2.9202   2.9291   2.9411   2.9706   2.9783
  2.9921   3.0125   3.0327   3.0393   3.0397   3.0552   3.0806   3.1007
  3.1342   3.1480   3.1720   3.1823   3.2017   3.2166   3.2313   3.2558
  3.2760   3.2922   3.3177   3.3293   3.3370   3.3504   3.3698   3.3985
  3.4061   3.4188   3.4314   3.4405   3.4497   3.4556   3.4916   3.5024
  3.5285   3.5399   3.5480   3.5664   3.5938   3.6055   3.6260   3.6575
  3.6639   3.6698   3.6852   3.7008   3.7174   3.7349   3.7505   3.7725
  3.7755   3.7794   3.8068   3.8178   3.8289   3.8451   3.8542   3.8715
  3.8874   3.9033   3.9202   3.9344   3.9512   3.9755   4.0048   4.0325
  4.0397   4.0805   4.0886   4.0928   4.0974   4.1439   4.1551   4.1772
  4.2017   4.2126   4.2356   4.2416   4.2535   4.2690   4.2900   4.3061
  4.3300   4.3404   4.3556   4.3658   4.4053   4.4121   4.4419   4.4599
  4.4958   4.5032   4.5164   4.5388   4.5998   4.6024   4.6142   4.6274
  4.6604   4.6690   4.6821   4.7277   4.7448   4.7554   4.7856   4.8130
  4.8436   4.8978   4.9171   4.9254   4.9499   4.9703   5.0574   5.0946
  5.1190   5.1518   5.1603   5.1997   5.2158   5.2299   5.2764   5.2907
  5.3051   5.3086   5.3189   5.3321   5.3374   5.3640   5.3822   5.4129
  5.4329   5.4386   5.4936   5.5195   5.5422   5.5775   5.5886   5.6039
  5.6353   5.6613   5.6720   5.6891   5.7033   5.7095   5.7608   5.8025
  5.8672   5.9247   5.9648   5.9900   6.0402   6.0432   6.0916   6.2474
  6.4883   6.5238   6.6201   6.6510   6.6614   6.9461   6.9702   7.0469
  7.0983   7.1229   7.1600   7.2404   7.2915   7.3173   7.3279   7.3301
  7.3636   7.3807   7.4205   7.4417   7.4760   7.6501   7.7091   7.7926
  7.8207   7.8400   8.0387   8.1191  24.3237  24.6125  24.7344  24.8190
 24.8332  25.2080  25.3554  50.4388  50.5631  50.5948  50.6396
 --------------------------------------------------------------
 
          Ground-State Mulliken Net Atomic Charges

     Atom                 Charge (a.u.)    Spin (a.u.)
  --------------------------------------------------------
      1 C                     0.387076       0.004800
      2 C                    -0.408234       0.000012
      3 O                    -0.447247      -0.000020
      4 C                    -0.501974      -0.003354
      5 C                    -0.255398       0.007980
      6 O                    -0.422424       0.002362
      7 C                    -0.204590      -0.003499
      8 O                     0.072253       0.315239
      9 O                    -0.220705       0.665949
     10 C                     0.024062       0.016924
     11 C                    -0.524015      -0.006977
     12 H                     0.215265       0.000188
     13 H                     0.230754       0.000078
     14 H                     0.334281       0.000012
     15 H                     0.264945       0.000514
     16 H                     0.250478      -0.002481
     17 H                     0.337926       0.000076
     18 H                     0.318991      -0.000435
     19 H                     0.294647       0.000619
     20 H                     0.253909       0.002012
  --------------------------------------------------------
  Sum of atomic charges =    -0.000000
  Sum of spin   charges =     1.000000

 -----------------------------------------------------------------
                    Cartesian Multipole Moments
 -----------------------------------------------------------------
    Charge (ESU x 10^10)
                -0.0000
    Dipole Moment (Debye)
         X      -3.7949      Y      -0.5644      Z      -0.8870
       Tot       3.9379
    Quadrupole Moments (Debye-Ang)
        XX     -83.8287     XY      10.3974     YY     -61.1277
        XZ      -3.0940     YZ      -6.0808     ZZ     -64.4470
    Octopole Moments (Debye-Ang^2)
       XXX    -136.3031    XXY       3.0502    XYY      -2.2634
       YYY      16.6721    XXZ     -42.7382    XYZ       2.4086
       YYZ     -29.9790    XZZ     -52.3247    YZZ      11.6056
       ZZZ     -67.9686
    Hexadecapole Moments (Debye-Ang^3)
      XXXX   -2015.4427   XXXY     321.4501   XXYY    -378.9560
      XYYY     227.1886   YYYY    -431.8552   XXXZ     -56.5602
      XXYZ      27.3467   XYYZ      -7.7747   YYYZ      81.4477
      XXZZ    -368.4967   XYZZ      68.1775   YYZZ    -114.8917
      XZZZ     -24.6735   YZZZ      88.8076   ZZZZ    -460.0669
 -----------------------------------------------------------------
 Calculating analytic gradient of the SCF energy
 Gradient of CDS energy
            1           2           3           4           5           6
    1  -0.0000153  -0.0009691   0.0003413  -0.0001153   0.0002469  -0.0000869
    2  -0.0000047   0.0003484  -0.0001715   0.0001941  -0.0000610  -0.0002059
    3  -0.0000645   0.0000762   0.0001263  -0.0000510  -0.0001274   0.0002149
            7           8           9          10          11          12
    1   0.0001861   0.0000233   0.0000621   0.0001118  -0.0001647   0.0001724
    2   0.0000282   0.0000559  -0.0000163  -0.0002583  -0.0001159   0.0000742
    3  -0.0000962   0.0000410  -0.0000389   0.0001586   0.0002783   0.0001598
           13          14          15          16          17          18
    1   0.0001393  -0.0002850  -0.0000793   0.0001256   0.0002042   0.0001626
    2  -0.0002227   0.0001729   0.0000692   0.0000486   0.0003276  -0.0001290
    3  -0.0000488  -0.0004124  -0.0000096   0.0001362  -0.0003410   0.0000933
           19          20
    1  -0.0001107   0.0000505
    2  -0.0000427  -0.0000910
    3   0.0001200  -0.0002148
 Gradient of SCF Energy
            1           2           3           4           5           6
    1  -0.0030477   0.0064014  -0.0037732   0.0115747  -0.0057796   0.0041993
    2  -0.0064463   0.0104741   0.0078463   0.0012943  -0.0059674  -0.0164226
    3   0.0043441  -0.0110310   0.0162699  -0.0003533  -0.0030917  -0.0005024
            7           8           9          10          11          12
    1   0.0095395   0.0003937  -0.0003293  -0.0012989  -0.0047845  -0.0007260
    2   0.0048696   0.0000784   0.0000165   0.0051287   0.0019508  -0.0012942
    3   0.0098470  -0.0019262   0.0013178  -0.0102180   0.0010872   0.0068136
           13          14          15          16          17          18
    1  -0.0041502   0.0024023  -0.0020180   0.0009382  -0.0024338   0.0014390
    2  -0.0078089  -0.0061269   0.0070047   0.0043759   0.0152093  -0.0057572
    3  -0.0011226  -0.0134786  -0.0064548   0.0017873  -0.0011853   0.0035730
           19          20
    1  -0.0068837  -0.0016630
    2  -0.0041099  -0.0043151
    3   0.0076566  -0.0033325
 Max gradient component =       1.642E-02
 RMS gradient           =       6.423E-03
 Computing fast CPCM-SWIG gradient
 Updating gradient with PCM contributions...
 -- total gradient after adding PCM contribution --
---------------------------------------------------
  Atom         X              Y              Z     
---------------------------------------------------
   1       0.001230       0.000085      -0.000330
   2      -0.000368       0.000044       0.000059
   3      -0.000041       0.000040       0.000025
   4      -0.000536      -0.000255       0.000321
   5      -0.000030      -0.000021       0.000037
   6       0.000001      -0.000009       0.000011
   7      -0.000022      -0.000009      -0.000016
   8      -0.000004      -0.000051      -0.000083
   9       0.000011       0.000023       0.000048
  10      -0.000037       0.000049      -0.000035
  11      -0.000187       0.000062      -0.000045
  12      -0.000010      -0.000028       0.000030
  13      -0.000048      -0.000000       0.000004
  14       0.000005       0.000011      -0.000019
  15       0.000035       0.000033      -0.000000
  16      -0.000001      -0.000005       0.000009
  17      -0.000018       0.000046      -0.000006
  18       0.000003       0.000001      -0.000008
  19       0.000017      -0.000029       0.000015
  20      -0.000000       0.000012      -0.000016
---------------------------------------------------
 Number of fixed atoms: 0
 Gradient time:  CPU 465.15 s  wall 67.37 s
 ----------------------------------------------------------------
             Standard Nuclear Orientation (Angstroms)
    I     Atom           X                Y                Z
 ----------------------------------------------------------------
    1      C      -0.9446581337     0.0860394391     0.6234710336
    2      C      -2.4056802964     0.3902049849     0.7805805413
    3      O      -2.8737847661     1.4452939148    -0.0428781804
    4      C      -0.1316597216     0.7348064439    -0.2066019563
    5      C       1.3415439045     0.4335822348    -0.2649963011
    6      O       1.8868343179     0.6330994534    -1.5664206153
    7      C       1.6258658808    -1.0033300086     0.1154062341
    8      O       3.0564473070    -1.1629020049     0.3872790507
    9      O       3.4140570656    -0.5849732868     1.4986751960
   10      C       0.8056876349    -1.4898680213     1.2682546238
   11      C      -0.4084578730    -0.9923546872     1.4743320918
   12      H      -2.5999091882     0.6904718219     1.8115391260
   13      H      -2.9811320352    -0.5233354863     0.6020676084
   14      H      -2.7926376056     1.1696326153    -0.9626230012
   15      H      -0.4786145655     1.5625807519    -0.8124799326
   16      H       1.8595916080     1.0833454942     0.4512619328
   17      H       1.8534259002     1.5750753880    -1.7666839295
   18      H       1.2037628140    -2.3063723506     1.8553830285
   19      H      -1.0390528941    -1.3888852290     2.2603867800
   20      H       1.4883929464    -1.6499345671    -0.7551508307
 ----------------------------------------------------------------
 Nuclear Repulsion Energy =         622.61800849 hartrees
 There are       42 alpha and       41 beta electrons
 Discretize the solute cavity surface with Lebedev spheres
	Using 110 Lebedev grid points for each H atom
	Using 194 Lebedev grid points for other atoms
	Atomic van der Waals radii will be scaled by 1.20
 Remove points where switching function is < 1.0e-08
 Keep 1499 surface tesserae and discard 1625 interior tesserae
 Molecular Surface Area = 173.704 Angst**2
 Requested basis set is 6-311++G(2df,2p)
 There are 142 shells and 464 basis functions
 A cutoff of  1.0D-12 yielded   8814 shell pairs
 There are     93322 function pairs (    115892 Cartesian)
 Smallest overlap matrix eigenvalue = 1.84E-06
 Guess MOs from SCF MO coefficient file

 -----------------------------------------------------------------------
  General SCF calculation program by
  Eric Jon Sundstrom, Paul Horn, Yuezhi Mao, Dmitri Zuev, Alec White,
  David Stuck, Shaama M.S., Shane Yost, Joonho Lee, David Small,
  Daniel Levine, Susi Lehtola, Hugh Burton, Evgeny Epifanovsky,
  Bang C. Huynh
 -----------------------------------------------------------------------
 Exchange:     0.1500 Hartree-Fock + 1.0000 wB97M-V + LR-HF
 Correlation:  1.0000 wB97M-V
 Using SG-2 standard quadrature grid
 Nonlocal Correlation:  VV10 with C = 0.0100 and b = 6.00 and scale = 1.00000
 Grid used for NLC:  SG-1 standard quadrature
 
 Citation of the SMD model:
 Marenich, A.V.; Cramer, C.J.; Truhlar, D.G.
 J. Phys. Chem. B 2009, 113, 6378-6396.
 iSolventCode=           1
 Solvent: water                                                           
 
 vradii
            1           2           3           4           5           6
    1   1.8500000   1.8500000   1.5200000   1.8500000   1.8500000   1.5200000
            7           8           9          10          11          12
    1   1.8500000   1.5200000   1.5200000   1.8500000   1.8500000   1.2000000
           13          14          15          16          17          18
    1   1.2000000   1.2000000   1.2000000   1.2000000   1.2000000   1.2000000
           19          20
    1   1.2000000   1.2000000
 -------------------------------------------------------
 OpenMP BLAS3 based DFT computing Module                
 Release: version 1.0, May 2013, Q-Chem Inc. Pittsburgh 
 -------------------------------------------------------
 A unrestricted SCF calculation will be
 performed using Roothaan-Hall, DIIS, GDM
 SCF converges when RMS gradient is below 1.0e-07
 ---------------------------------------
  Cycle       Energy         DIIS error
 ---------------------------------------
    1    -572.8621334027      1.71e-04  Roothaan Step
 ---------------------------------------
  Cycle       Energy         DIIS error
 ---------------------------------------
    1    -572.8924403180      1.84e-04  
    2    -572.8964222778      1.44e-04  Done DIIS. Switching to GDM
 ---------------------------------------
  Cycle       Energy        RMS Gradient
 ---------------------------------------
    1    -572.8964222778      5.88e-03   Normal BFGS step
    2    -572.8963312336      1.05e-02  Line search: overstep
    3    -572.8978704633      2.23e-03   Normal BFGS step
    4    -572.8979910974      8.75e-04   Normal BFGS step
    5    -572.8980103937      1.39e-03   Normal BFGS step
    6    -572.8980197599      1.28e-04   Normal BFGS step
    7    -572.8980206037      1.50e-04   Normal BFGS step
    8    -572.8980208833      1.14e-04   Normal BFGS step
    9    -572.8980209945      4.70e-05   Normal BFGS step
   10    -572.8980210146      3.61e-05   Normal BFGS step
   11    -572.8980210201      3.15e-05   Normal BFGS step
   12    -572.8980210231      2.53e-05   Normal BFGS step
   13    -572.8980210265      1.27e-05   Normal BFGS step
   14    -572.8980210280      4.13e-06   Normal BFGS step
   15    -572.8980210285      2.67e-06   Normal BFGS step
   16    -572.8980210285      9.19e-07   Normal BFGS step
   17    -572.8980210285      2.57e-07   Normal BFGS step
   18    -572.8980210286      3.47e-07   Normal BFGS step
   19    -572.8980210286      1.72e-07   Normal BFGS step
  GDM::WARNING energy changes are now smaller than effective accuracy.
  GDM::        calculation will continue, but THRESH should be increased
  GDM::        or SCF_CONVERGENCE decreased. 
  GDM::        effective_thresh = 3.51e-09
   20    -572.8980210285      1.49e-07   Normal BFGS step
   21    -572.8980210285      8.97e-08  Convergence criterion met
 ---------------------------------------
 SCF time:   CPU 3359.87s  wall 428.00s 
<S^2> =          0.754053772
(3)  G-ENP(liq) elect-nuc-pol free energy of system     -572.898021029 a.u.
(4)  G-CDS(liq) cavity-dispersion-solvent structure 
     free energy                                                3.0899 kcal/mol
(6)  G-S(liq) free energy of system                     -572.893097014 a.u.
 SCF   energy in the final basis set =     -572.8930970136
 Total energy in the final basis set =     -572.8930970136
 
 --------------------------------------------------------------
 
                    Orbital Energies (a.u.)
 --------------------------------------------------------------
 
 Alpha MOs
 -- Occupied --
-19.4646 -19.4173 -19.3430 -19.3395 -10.4140 -10.4074 -10.3891 -10.3566
-10.3544 -10.3523 -10.3419  -1.3452  -1.1653  -1.1592  -1.0262  -0.9721
 -0.8846  -0.8703  -0.8019  -0.7462  -0.7164  -0.6575  -0.6522  -0.6368
 -0.6318  -0.6132  -0.5952  -0.5759  -0.5548  -0.5382  -0.5344  -0.5152
 -0.4975  -0.4739  -0.4656  -0.4460  -0.4185  -0.4068  -0.3986  -0.3920
 -0.3888  -0.3203
 -- Virtual --
  0.0238   0.0333   0.0372   0.0399   0.0403   0.0559   0.0590   0.0632
  0.0711   0.0853   0.0973   0.1102   0.1124   0.1208   0.1262   0.1346
  0.1368   0.1481   0.1495   0.1531   0.1562   0.1653   0.1662   0.1685
  0.1738   0.1773   0.1816   0.1870   0.1941   0.1993   0.2039   0.2062
  0.2189   0.2235   0.2248   0.2305   0.2389   0.2500   0.2556   0.2674
  0.2734   0.2798   0.2844   0.2874   0.2998   0.3003   0.3024   0.3119
  0.3206   0.3214   0.3282   0.3346   0.3460   0.3497   0.3576   0.3619
  0.3710   0.3752   0.3816   0.3887   0.3911   0.3955   0.4010   0.4081
  0.4089   0.4105   0.4251   0.4448   0.4509   0.4644   0.4693   0.4881
  0.4959   0.5273   0.5390   0.5546   0.5647   0.5837   0.5984   0.6013
  0.6105   0.6216   0.6326   0.6361   0.6410   0.6468   0.6568   0.6626
  0.6775   0.6858   0.6927   0.7014   0.7124   0.7172   0.7249   0.7431
  0.7511   0.7529   0.7628   0.7646   0.7796   0.7845   0.7992   0.8092
  0.8144   0.8321   0.8463   0.8480   0.8616   0.8818   0.8867   0.9027
  0.9246   0.9472   0.9594   0.9742   0.9929   1.0010   1.0274   1.0428
  1.0491   1.0590   1.0711   1.0792   1.0933   1.1032   1.1237   1.1267
  1.1474   1.1576   1.1596   1.1704   1.1878   1.1904   1.2090   1.2129
  1.2237   1.2392   1.2469   1.2551   1.2572   1.2703   1.2749   1.2857
  1.3026   1.3065   1.3174   1.3298   1.3459   1.3572   1.3642   1.3694
  1.4013   1.4041   1.4139   1.4307   1.4349   1.4516   1.4653   1.4746
  1.4904   1.4998   1.5229   1.5294   1.5345   1.5374   1.5526   1.5591
  1.5756   1.6045   1.6133   1.6165   1.6348   1.6565   1.6616   1.6651
  1.6738   1.6926   1.7070   1.7113   1.7354   1.7470   1.7689   1.8024
  1.8142   1.8297   1.8444   1.8500   1.9063   1.9293   1.9434   1.9639
  2.0043   2.0503   2.0602   2.1000   2.1351   2.1454   2.1655   2.2406
  2.2555   2.2669   2.3046   2.3381   2.3750   2.3957   2.4369   2.4578
  2.4670   2.5428   2.6443   2.6482   2.6702   2.6849   2.7256   2.7369
  2.7626   2.7844   2.8080   2.8186   2.8328   2.8546   2.8707   2.8942
  2.8988   2.9081   2.9202   2.9288   2.9409   2.9703   2.9781   2.9919
  3.0120   3.0326   3.0390   3.0392   3.0543   3.0802   3.1003   3.1336
  3.1476   3.1716   3.1820   3.2013   3.2161   3.2310   3.2554   3.2756
  3.2920   3.3175   3.3290   3.3361   3.3503   3.3697   3.3982   3.4059
  3.4179   3.4312   3.4401   3.4493   3.4555   3.4910   3.5024   3.5284
  3.5398   3.5475   3.5661   3.5934   3.6051   3.6254   3.6570   3.6634
  3.6696   3.6851   3.7008   3.7167   3.7347   3.7505   3.7721   3.7751
  3.7790   3.8067   3.8174   3.8288   3.8450   3.8541   3.8710   3.8868
  3.9025   3.9198   3.9340   3.9507   3.9752   4.0046   4.0317   4.0393
  4.0806   4.0881   4.0927   4.0979   4.1440   4.1549   4.1769   4.2014
  4.2120   4.2351   4.2414   4.2522   4.2684   4.2894   4.3055   4.3298
  4.3401   4.3553   4.3647   4.4050   4.4116   4.4409   4.4596   4.4953
  4.5024   4.5153   4.5380   4.5939   4.6001   4.6048   4.6149   4.6572
  4.6671   4.6798   4.7195   4.7418   4.7521   4.7837   4.8020   4.8406
  4.8889   4.9076   4.9235   4.9461   4.9574   5.0475   5.0733   5.1012
  5.1049   5.1196   5.1480   5.1921   5.2041   5.2535   5.2755   5.2894
  5.2994   5.3152   5.3185   5.3233   5.3619   5.3763   5.4016   5.4206
  5.4318   5.4925   5.5038   5.5419   5.5706   5.5854   5.6011   5.6301
  5.6609   5.6709   5.6873   5.7006   5.7077   5.7587   5.7915   5.8500
  5.9229   5.9636   5.9889   6.0387   6.0423   6.0913   6.2444   6.4732
  6.4785   6.6079   6.6513   6.6599   6.8628   6.8922   6.9850   7.0983
  7.1061   7.1333   7.2135   7.2625   7.3174   7.3267   7.3289   7.3611
  7.3661   7.3971   7.4286   7.4372   7.6503   7.7064   7.7926   7.8168
  7.8313   8.0263   8.0978  24.3246  24.6124  24.7345  24.8188  24.8355
 25.2060  25.3522  50.4267  50.5536  50.5948  50.6388
 
 Beta MOs
 -- Occupied --
-19.4541 -19.3988 -19.3430 -19.3395 -10.4143 -10.4071 -10.3891 -10.3565
-10.3541 -10.3523 -10.3420  -1.3189  -1.1650  -1.1592  -1.0049  -0.9621
 -0.8803  -0.8678  -0.7982  -0.7424  -0.7126  -0.6537  -0.6449  -0.6307
 -0.6207  -0.5885  -0.5848  -0.5703  -0.5442  -0.5359  -0.5151  -0.5108
 -0.4941  -0.4698  -0.4632  -0.4350  -0.4176  -0.3980  -0.3902  -0.3862
 -0.3203
 -- Virtual --
 -0.0327   0.0239   0.0341   0.0375   0.0402   0.0406   0.0561   0.0593
  0.0634   0.0714   0.0854   0.0982   0.1108   0.1129   0.1213   0.1266
  0.1352   0.1380   0.1483   0.1501   0.1533   0.1569   0.1654   0.1666
  0.1689   0.1744   0.1788   0.1819   0.1873   0.1944   0.1997   0.2062
  0.2080   0.2194   0.2246   0.2261   0.2314   0.2405   0.2505   0.2560
  0.2739   0.2754   0.2811   0.2846   0.2883   0.3003   0.3021   0.3028
  0.3140   0.3216   0.3226   0.3295   0.3356   0.3470   0.3522   0.3581
  0.3649   0.3717   0.3777   0.3821   0.3892   0.3916   0.3964   0.4019
  0.4090   0.4095   0.4114   0.4256   0.4454   0.4518   0.4661   0.4700
  0.4887   0.4967   0.5279   0.5396   0.5551   0.5651   0.5843   0.5986
  0.6017   0.6109   0.6218   0.6327   0.6363   0.6410   0.6471   0.6572
  0.6628   0.6778   0.6861   0.6931   0.7014   0.7125   0.7175   0.7250
  0.7437   0.7515   0.7531   0.7631   0.7652   0.7800   0.7847   0.7999
  0.8094   0.8149   0.8325   0.8467   0.8481   0.8618   0.8822   0.8871
  0.9030   0.9262   0.9474   0.9602   0.9745   0.9945   1.0011   1.0282
  1.0460   1.0504   1.0596   1.0720   1.0819   1.0942   1.1053   1.1242
  1.1311   1.1509   1.1584   1.1630   1.1730   1.1896   1.1980   1.2125
  1.2204   1.2370   1.2418   1.2491   1.2590   1.2611   1.2740   1.2778
  1.2942   1.3040   1.3089   1.3180   1.3309   1.3472   1.3584   1.3654
  1.3710   1.4020   1.4063   1.4148   1.4321   1.4361   1.4539   1.4677
  1.4762   1.4921   1.5004   1.5239   1.5312   1.5379   1.5389   1.5571
  1.5596   1.5770   1.6056   1.6186   1.6217   1.6369   1.6584   1.6667
  1.6713   1.6758   1.6960   1.7153   1.7171   1.7452   1.7582   1.7718
  1.8058   1.8206   1.8323   1.8462   1.8574   1.9098   1.9332   1.9456
  1.9650   2.0053   2.0543   2.0628   2.1031   2.1365   2.1518   2.1682
  2.2427   2.2609   2.2708   2.3157   2.3547   2.3752   2.3971   2.4387
  2.4616   2.4688   2.5430   2.6457   2.6517   2.6726   2.6853   2.7273
  2.7373   2.7651   2.7847   2.8084   2.8188   2.8333   2.8549   2.8710
  2.8945   2.8990   2.9082   2.9203   2.9291   2.9410   2.9706   2.9782
  2.9924   3.0125   3.0328   3.0394   3.0395   3.0552   3.0809   3.1004
  3.1340   3.1481   3.1719   3.1823   3.2015   3.2164   3.2314   3.2558
  3.2759   3.2924   3.3176   3.3293   3.3365   3.3505   3.3700   3.3984
  3.4063   3.4184   3.4313   3.4404   3.4495   3.4557   3.4914   3.5026
  3.5286   3.5400   3.5481   3.5663   3.5936   3.6054   3.6258   3.6575
  3.6637   3.6699   3.6852   3.7008   3.7170   3.7348   3.7508   3.7724
  3.7754   3.7793   3.8070   3.8177   3.8290   3.8452   3.8543   3.8714
  3.8877   3.9031   3.9201   3.9341   3.9511   3.9755   4.0046   4.0321
  4.0397   4.0807   4.0886   4.0930   4.0982   4.1442   4.1552   4.1773
  4.2018   4.2128   4.2354   4.2416   4.2533   4.2690   4.2899   4.3061
  4.3299   4.3404   4.3554   4.3656   4.4051   4.4119   4.4419   4.4600
  4.4960   4.5029   4.5162   4.5387   4.6000   4.6021   4.6146   4.6273
  4.6603   4.6690   4.6822   4.7277   4.7442   4.7554   4.7854   4.8127
  4.8430   4.8970   4.9171   4.9246   4.9498   4.9697   5.0571   5.0947
  5.1186   5.1517   5.1602   5.1991   5.2158   5.2298   5.2763   5.2907
  5.3052   5.3085   5.3190   5.3320   5.3374   5.3640   5.3821   5.4128
  5.4328   5.4386   5.4937   5.5195   5.5425   5.5775   5.5883   5.6040
  5.6355   5.6612   5.6720   5.6892   5.7034   5.7093   5.7607   5.8025
  5.8674   5.9247   5.9646   5.9895   6.0403   6.0432   6.0917   6.2457
  6.4883   6.5238   6.6201   6.6514   6.6613   6.9461   6.9702   7.0469
  7.0984   7.1229   7.1600   7.2405   7.2915   7.3174   7.3279   7.3301
  7.3636   7.3806   7.4205   7.4416   7.4760   7.6503   7.7090   7.7928
  7.8207   7.8400   8.0387   8.1191  24.3246  24.6124  24.7343  24.8190
 24.8355  25.2060  25.3523  50.4388  50.5631  50.5948  50.6396
 --------------------------------------------------------------
 
          Ground-State Mulliken Net Atomic Charges

     Atom                 Charge (a.u.)    Spin (a.u.)
  --------------------------------------------------------
      1 C                     0.385564       0.004821
      2 C                    -0.407603       0.000017
      3 O                    -0.447329      -0.000020
      4 C                    -0.501771      -0.003380
      5 C                    -0.254978       0.007980
      6 O                    -0.422279       0.002362
      7 C                    -0.204342      -0.003505
      8 O                     0.072231       0.315241
      9 O                    -0.220739       0.665949
     10 C                     0.023502       0.016935
     11 C                    -0.523452      -0.006988
     12 H                     0.215245       0.000189
     13 H                     0.230828       0.000079
     14 H                     0.334283       0.000012
     15 H                     0.264937       0.000515
     16 H                     0.250390      -0.002480
     17 H                     0.337928       0.000076
     18 H                     0.319015      -0.000434
     19 H                     0.294633       0.000619
     20 H                     0.253936       0.002012
  --------------------------------------------------------
  Sum of atomic charges =    -0.000000
  Sum of spin   charges =     1.000000

 -----------------------------------------------------------------
                    Cartesian Multipole Moments
 -----------------------------------------------------------------
    Charge (ESU x 10^10)
                -0.0000
    Dipole Moment (Debye)
         X      -3.7974      Y      -0.5639      Z      -0.8862
       Tot       3.9400
    Quadrupole Moments (Debye-Ang)
        XX     -83.8176     XY      10.3965     YY     -61.1318
        XZ      -3.0995     YZ      -6.0777     ZZ     -64.4506
    Octopole Moments (Debye-Ang^2)
       XXX    -136.2949    XXY       3.0546    XYY      -2.2517
       YYY      16.6695    XXZ     -42.7300    XYZ       2.4019
       YYZ     -29.9797    XZZ     -52.3173    YZZ      11.6132
       ZZZ     -67.9743
    Hexadecapole Moments (Debye-Ang^3)
      XXXX   -2015.4745   XXXY     321.4532   XXYY    -378.9618
      XYYY     227.1793   YYYY    -431.8714   XXXZ     -56.5800
      XXYZ      27.3521   XYYZ      -7.7647   YYYZ      81.4552
      XXZZ    -368.4916   XYZZ      68.1656   YYZZ    -114.9030
      XZZZ     -24.6726   YZZZ      88.8304   ZZZZ    -460.0956
 -----------------------------------------------------------------
 Calculating analytic gradient of the SCF energy
 Gradient of CDS energy
            1           2           3           4           5           6
    1  -0.0000184  -0.0009670   0.0003412  -0.0001149   0.0002470  -0.0000868
    2  -0.0000044   0.0003487  -0.0001715   0.0001945  -0.0000611  -0.0002059
    3  -0.0000642   0.0000762   0.0001265  -0.0000514  -0.0001275   0.0002149
            7           8           9          10          11          12
    1   0.0001862   0.0000233   0.0000621   0.0001119  -0.0001642   0.0001724
    2   0.0000282   0.0000559  -0.0000163  -0.0002583  -0.0001166   0.0000743
    3  -0.0000962   0.0000410  -0.0000389   0.0001585   0.0002787   0.0001600
           13          14          15          16          17          18
    1   0.0001393  -0.0002849  -0.0000793   0.0001256   0.0002042   0.0001626
    2  -0.0002229   0.0001726   0.0000691   0.0000486   0.0003276  -0.0001290
    3  -0.0000491  -0.0004124  -0.0000096   0.0001362  -0.0003410   0.0000933
           19          20
    1  -0.0001108   0.0000505
    2  -0.0000426  -0.0000910
    3   0.0001199  -0.0002148
 Gradient of SCF Energy
            1           2           3           4           5           6
    1  -0.0055479   0.0072150  -0.0037278   0.0125692  -0.0057038   0.0042206
    2  -0.0065631   0.0104090   0.0078112   0.0017516  -0.0058964  -0.0164238
    3   0.0050222  -0.0111182   0.0162810  -0.0009789  -0.0031590  -0.0005184
            7           8           9          10          11          12
    1   0.0095386   0.0003923  -0.0003301  -0.0012638  -0.0043088  -0.0006911
    2   0.0048797   0.0000798   0.0000153   0.0050203   0.0017529  -0.0012885
    3   0.0098469  -0.0019263   0.0013186  -0.0101376   0.0011765   0.0068094
           13          14          15          16          17          18
    1  -0.0040698   0.0023951  -0.0020647   0.0009448  -0.0024317   0.0014492
    2  -0.0078268  -0.0061271   0.0069715   0.0043726   0.0152047  -0.0057728
    3  -0.0011522  -0.0134750  -0.0064249   0.0017836  -0.0011844   0.0035551
           19          20
    1  -0.0069208  -0.0016646
    2  -0.0040541  -0.0043160
    3   0.0076084  -0.0033267
 Max gradient component =       1.642E-02
 RMS gradient           =       6.495E-03
 Computing fast CPCM-SWIG gradient
 Updating gradient with PCM contributions...
 -- total gradient after adding PCM contribution --
---------------------------------------------------
  Atom         X              Y              Z     
---------------------------------------------------
   1      -0.001250      -0.000034       0.000341
   2       0.000424      -0.000042      -0.000003
   3       0.000002       0.000004       0.000038
   4       0.000482       0.000192      -0.000314
   5       0.000046       0.000045      -0.000031
   6       0.000026      -0.000012      -0.000004
   7      -0.000020       0.000007      -0.000009
   8      -0.000006      -0.000050      -0.000084
   9       0.000011       0.000022       0.000049
  10       0.000004      -0.000064       0.000037
  11       0.000259      -0.000108       0.000046
  12       0.000026      -0.000025       0.000014
  13       0.000033      -0.000008      -0.000022
  14       0.000001       0.000010      -0.000016
  15      -0.000012       0.000011       0.000020
  16       0.000005      -0.000007       0.000007
  17      -0.000019       0.000044      -0.000005
  18       0.000013      -0.000015      -0.000023
  19      -0.000020       0.000020      -0.000025
  20      -0.000003       0.000009      -0.000014
---------------------------------------------------
 Number of fixed atoms: 0
 Gradient time:  CPU 479.83 s  wall 70.75 s
 ----------------------------------------------------------------
             Standard Nuclear Orientation (Angstroms)
    I     Atom           X                Y                Z
 ----------------------------------------------------------------
    1      C      -0.9436581337     0.0870394391     0.6234710336
    2      C      -2.4056802964     0.3902049849     0.7805805413
    3      O      -2.8737847661     1.4452939148    -0.0428781804
    4      C      -0.1316597216     0.7348064439    -0.2066019563
    5      C       1.3415439045     0.4335822348    -0.2649963011
    6      O       1.8868343179     0.6330994534    -1.5664206153
    7      C       1.6258658808    -1.0033300086     0.1154062341
    8      O       3.0564473070    -1.1629020049     0.3872790507
    9      O       3.4140570656    -0.5849732868     1.4986751960
   10      C       0.8056876349    -1.4898680213     1.2682546238
   11      C      -0.4084578730    -0.9923546872     1.4743320918
   12      H      -2.5999091882     0.6904718219     1.8115391260
   13      H      -2.9811320352    -0.5233354863     0.6020676084
   14      H      -2.7926376056     1.1696326153    -0.9626230012
   15      H      -0.4786145655     1.5625807519    -0.8124799326
   16      H       1.8595916080     1.0833454942     0.4512619328
   17      H       1.8534259002     1.5750753880    -1.7666839295
   18      H       1.2037628140    -2.3063723506     1.8553830285
   19      H      -1.0390528941    -1.3888852290     2.2603867800
   20      H       1.4883929464    -1.6499345671    -0.7551508307
 ----------------------------------------------------------------
 Nuclear Repulsion Energy =         622.62720145 hartrees
 There are       42 alpha and       41 beta electrons
 Discretize the solute cavity surface with Lebedev spheres
	Using 110 Lebedev grid points for each H atom
	Using 194 Lebedev grid points for other atoms
	Atomic van der Waals radii will be scaled by 1.20
 Remove points where switching function is < 1.0e-08
 Keep 1501 surface tesserae and discard 1623 interior tesserae
 Molecular Surface Area = 173.705 Angst**2
 Requested basis set is 6-311++G(2df,2p)
 There are 142 shells and 464 basis functions
 A cutoff of  1.0D-12 yielded   8814 shell pairs
 There are     93322 function pairs (    115892 Cartesian)
 Smallest overlap matrix eigenvalue = 1.84E-06
 Guess MOs from SCF MO coefficient file

 -----------------------------------------------------------------------
  General SCF calculation program by
  Eric Jon Sundstrom, Paul Horn, Yuezhi Mao, Dmitri Zuev, Alec White,
  David Stuck, Shaama M.S., Shane Yost, Joonho Lee, David Small,
  Daniel Levine, Susi Lehtola, Hugh Burton, Evgeny Epifanovsky,
  Bang C. Huynh
 -----------------------------------------------------------------------
 Exchange:     0.1500 Hartree-Fock + 1.0000 wB97M-V + LR-HF
 Correlation:  1.0000 wB97M-V
 Using SG-2 standard quadrature grid
 Nonlocal Correlation:  VV10 with C = 0.0100 and b = 6.00 and scale = 1.00000
 Grid used for NLC:  SG-1 standard quadrature
 
 Citation of the SMD model:
 Marenich, A.V.; Cramer, C.J.; Truhlar, D.G.
 J. Phys. Chem. B 2009, 113, 6378-6396.
 iSolventCode=           1
 Solvent: water                                                           
 
 vradii
            1           2           3           4           5           6
    1   1.8500000   1.8500000   1.5200000   1.8500000   1.8500000   1.5200000
            7           8           9          10          11          12
    1   1.8500000   1.5200000   1.5200000   1.8500000   1.8500000   1.2000000
           13          14          15          16          17          18
    1   1.2000000   1.2000000   1.2000000   1.2000000   1.2000000   1.2000000
           19          20
    1   1.2000000   1.2000000
 -------------------------------------------------------
 OpenMP BLAS3 based DFT computing Module                
 Release: version 1.0, May 2013, Q-Chem Inc. Pittsburgh 
 -------------------------------------------------------
 A unrestricted SCF calculation will be
 performed using Roothaan-Hall, DIIS, GDM
 SCF converges when RMS gradient is below 1.0e-07
 ---------------------------------------
  Cycle       Energy         DIIS error
 ---------------------------------------
    1    -572.8621376508      1.71e-04  Roothaan Step
 ---------------------------------------
  Cycle       Energy         DIIS error
 ---------------------------------------
    1    -572.8924460093      1.84e-04  
    2    -572.8964237567      1.44e-04  Done DIIS. Switching to GDM
 ---------------------------------------
  Cycle       Energy        RMS Gradient
 ---------------------------------------
    1    -572.8964237567      5.89e-03   Normal BFGS step
    2    -572.8963336879      1.05e-02  Line search: overstep
    3    -572.8978711051      2.23e-03   Normal BFGS step
    4    -572.8979915226      8.72e-04   Normal BFGS step
    5    -572.8980106926      1.40e-03   Normal BFGS step
    6    -572.8980200702      1.28e-04   Normal BFGS step
    7    -572.8980209089      1.51e-04   Normal BFGS step
    8    -572.8980211890      1.14e-04   Normal BFGS step
    9    -572.8980213002      4.73e-05   Normal BFGS step
   10    -572.8980213204      3.62e-05   Normal BFGS step
   11    -572.8980213260      3.16e-05   Normal BFGS step
   12    -572.8980213290      2.53e-05   Normal BFGS step
   13    -572.8980213325      1.27e-05   Normal BFGS step
   14    -572.8980213340      4.20e-06   Normal BFGS step
   15    -572.8980213345      2.68e-06   Normal BFGS step
   16    -572.8980213345      8.63e-07   Normal BFGS step
   17    -572.8980213346      2.43e-07   Normal BFGS step
   18    -572.8980213346      3.35e-07   Normal BFGS step
   19    -572.8980213346      1.68e-07   Normal BFGS step
  GDM::WARNING energy changes are now smaller than effective accuracy.
  GDM::        calculation will continue, but THRESH should be increased
  GDM::        or SCF_CONVERGENCE decreased. 
  GDM::        effective_thresh = 6.03e-09
   20    -572.8980213345      1.41e-07   Normal BFGS step
   21    -572.8980213346      9.05e-08  Convergence criterion met
 ---------------------------------------
 SCF time:   CPU 3371.64s  wall 430.00s 
<S^2> =          0.754053523
[...]
 Force Cnst:      1.6688                 1.4947                 1.2033
 Red. Mass:       1.9686                 1.6952                 1.3520
 IR Active:          YES                    YES                    YES
 IR Intens:       65.559                  6.449                 13.478
 Raman Active:       YES                    YES                    YES
               X      Y      Z        X      Y      Z        X      Y      Z
 C         -0.149  0.102  0.011    0.007 -0.003 -0.006   -0.070 -0.019 -0.032
 C          0.087 -0.099  0.011    0.000 -0.005  0.008    0.060 -0.064  0.099
 O         -0.033  0.095 -0.059    0.001  0.001 -0.002    0.005  0.029 -0.048
 C         -0.058 -0.049  0.034   -0.001  0.012  0.017   -0.027  0.003  0.010
 C          0.053  0.014 -0.046    0.000  0.014  0.021    0.032  0.001 -0.019
 O         -0.009  0.006  0.034    0.011 -0.010  0.003   -0.007  0.006  0.014
 C         -0.002  0.012 -0.010    0.052 -0.129 -0.014   -0.004  0.011 -0.004
 O         -0.004  0.002  0.001   -0.053 -0.032 -0.091    0.000  0.003  0.003
 O          0.000 -0.001 -0.001    0.045  0.055  0.108   -0.001 -0.002 -0.003
 C          0.025 -0.050  0.029    0.017  0.023 -0.023   -0.001 -0.013  0.009
 C         -0.011  0.008  0.000   -0.026  0.003  0.014    0.002  0.005  0.005
 H          0.605 -0.356  0.184   -0.045  0.028 -0.010   -0.355  0.192 -0.058
 H          0.046 -0.070  0.049    0.022 -0.021  0.015    0.427 -0.320  0.184
 H          0.148 -0.346  0.077   -0.020  0.044 -0.016   -0.248  0.547 -0.219
 H          0.169  0.044  0.031   -0.005 -0.023 -0.032    0.212  0.019 -0.105
 H          0.100 -0.009 -0.062   -0.157  0.558 -0.376    0.024 -0.019  0.008
 H          0.063 -0.031 -0.136   -0.123  0.044  0.269    0.051 -0.021 -0.112
 H          0.325 -0.048 -0.159    0.276 -0.003 -0.227    0.032 -0.020 -0.022
 H         -0.060  0.046 -0.011   -0.230  0.164 -0.065    0.010 -0.017  0.002
 H         -0.009 -0.132  0.097   -0.398  0.004 -0.054   -0.003 -0.036  0.032
 TransDip   0.164 -0.198  0.031    0.010 -0.002  0.081    0.034  0.046 -0.103

 Mode:                34                     35                     36
 Frequency:      1238.08                1294.77                1321.80
 Force Cnst:      1.8712                 1.3424                 1.6861
 Red. Mass:       2.0719                 1.3591                 1.6380
 IR Active:          YES                    YES                    YES
 IR Intens:       22.229                  3.621                 96.334
 Raman Active:       YES                    YES                    YES
               X      Y      Z        X      Y      Z        X      Y      Z
 C          0.003 -0.008  0.008    0.016 -0.083  0.083    0.016 -0.049  0.048
 C         -0.001  0.007 -0.008    0.033  0.015 -0.018    0.033  0.000 -0.010
 O         -0.000 -0.004  0.004   -0.011 -0.011  0.007   -0.009 -0.007  0.004
 C         -0.010  0.003 -0.009   -0.091  0.013 -0.012   -0.066  0.043 -0.001
 C         -0.018 -0.033 -0.032    0.014  0.022  0.008    0.091 -0.082 -0.053
 O         -0.015  0.019  0.008    0.006 -0.006  0.009   -0.027  0.041  0.030
 C          0.090  0.088 -0.012    0.006  0.039 -0.049   -0.029 -0.087  0.098
 O         -0.058 -0.073 -0.134    0.003  0.010  0.020    0.010  0.022  0.022
 O          0.049  0.075  0.145   -0.003 -0.008 -0.014   -0.006 -0.010 -0.022
 C         -0.014 -0.034  0.003    0.002 -0.003 -0.023    0.001  0.040 -0.017
 C          0.007 -0.002  0.001    0.026 -0.009 -0.007    0.003  0.006 -0.011
 H          0.008 -0.007 -0.002   -0.056 -0.004 -0.027   -0.055  0.002 -0.026
 H         -0.032  0.029 -0.017   -0.182  0.166 -0.079   -0.183  0.151 -0.063
 H          0.009 -0.027  0.012   -0.010 -0.039  0.016    0.000 -0.030  0.012
 H          0.043  0.031  0.001    0.639  0.155 -0.244    0.196  0.067 -0.125
 H          0.110 -0.551  0.359    0.213  0.053 -0.169   -0.229  0.055  0.052
 H          0.183 -0.066 -0.395   -0.048  0.012  0.099    0.216 -0.070 -0.484
 H         -0.180 -0.002  0.160   -0.219  0.023  0.156    0.104  0.017 -0.128
 H          0.037  0.001  0.027   -0.222  0.227 -0.091   -0.079  0.071 -0.049
 H         -0.455  0.084  0.072   -0.113 -0.278  0.207   -0.066  0.543 -0.370
 TransDip   0.148  0.027 -0.014    0.048 -0.032  0.019    0.148  0.030 -0.276

 Mode:                37                     38                     39
 Frequency:      1341.57                1362.00                1384.78
 Force Cnst:      1.4463                 1.7471                 1.3556
 Red. Mass:       1.3639                 1.5985                 1.1998
 IR Active:          YES                    YES                    YES
 IR Intens:       27.267                 14.965                 19.507
 Raman Active:       YES                    YES                    YES
               X      Y      Z        X      Y      Z        X      Y      Z
 C          0.011 -0.005  0.005    0.000 -0.027  0.030   -0.001  0.022  0.000
 C         -0.012  0.005  0.005    0.032 -0.004  0.007    0.022  0.022  0.076
 O          0.001  0.000 -0.002   -0.006 -0.008 -0.004    0.008 -0.058 -0.045
 C          0.017 -0.036 -0.017   -0.023  0.011  0.003    0.023 -0.002 -0.006
 C         -0.124  0.034  0.012    0.067  0.028 -0.016   -0.020 -0.002  0.006
 O          0.012  0.021  0.023   -0.002 -0.019 -0.016    0.002  0.001  0.001
 C         -0.027 -0.046  0.068   -0.088  0.022  0.033    0.019  0.003 -0.015
 O         -0.000 -0.023 -0.037   -0.022 -0.060 -0.110    0.002  0.006  0.013
 O          0.002  0.013  0.023    0.013  0.041  0.075   -0.001 -0.005 -0.008
 C          0.007  0.030 -0.008   -0.020  0.007  0.029   -0.010 -0.009  0.014
 C         -0.005  0.002 -0.004    0.004  0.022 -0.027   -0.012  0.009 -0.006
 H          0.002 -0.007  0.011   -0.045 -0.034  0.003    0.176 -0.417  0.247
 H          0.034 -0.027  0.009   -0.158  0.132 -0.053   -0.380  0.345 -0.203
 H         -0.007  0.019 -0.008   -0.028  0.046 -0.021   -0.224  0.529 -0.229
 H          0.117  0.009 -0.006    0.154  0.036 -0.068   -0.058 -0.006  0.036
 H          0.722 -0.177 -0.421   -0.272  0.055  0.216    0.037 -0.003 -0.036
 H          0.054 -0.013 -0.132   -0.081  0.025  0.180    0.004 -0.001 -0.007
 H          0.084  0.014 -0.087    0.090 -0.004 -0.067    0.064 -0.005 -0.028
 H         -0.014  0.004 -0.013    0.113 -0.084  0.002    0.070 -0.058  0.026
 H          0.343  0.197 -0.176    0.813 -0.133  0.002   -0.102 -0.006  0.011
 TransDip  -0.147 -0.028  0.075   -0.019  0.113  0.047   -0.064  0.120 -0.039

 Mode:                40                     41                     42
 Frequency:      1413.62                1435.04                1444.98
 Force Cnst:      1.8211                 2.1597                 2.0646
 Red. Mass:       1.5468                 1.7800                 1.6782
 IR Active:          YES                    YES                    YES
 IR Intens:       46.113                  4.899                  9.886
 Raman Active:       YES                    YES                    YES
               X      Y      Z        X      Y      Z        X      Y      Z
 C          0.020 -0.018  0.005   -0.057  0.021 -0.000    0.071 -0.090  0.059
 C          0.084 -0.049 -0.006    0.088 -0.037 -0.001   -0.113  0.049 -0.002
 O         -0.019  0.018  0.014   -0.011  0.011  0.002    0.011 -0.009 -0.002
 C         -0.003  0.007 -0.010    0.036 -0.027  0.009   -0.038  0.011 -0.001
 C         -0.018 -0.035  0.034   -0.047  0.162 -0.090   -0.005  0.064 -0.039
 O          0.002  0.008  0.008    0.011 -0.045 -0.025    0.002 -0.021 -0.007
 C          0.045  0.033 -0.063    0.033 -0.087  0.058    0.045 -0.034 -0.004
 O         -0.000  0.007  0.015    0.007  0.012  0.022    0.002  0.011  0.016
 O         -0.000 -0.005 -0.008   -0.003 -0.008 -0.016   -0.001 -0.006 -0.011
 C         -0.077 -0.038  0.090    0.025  0.008 -0.022   -0.066 -0.010  0.057
 C         -0.043  0.078 -0.059   -0.012 -0.002  0.010   -0.031  0.070 -0.059
 H         -0.415  0.186 -0.172   -0.320  0.006 -0.088    0.454  0.034  0.105
 H         -0.301  0.188  0.042   -0.258  0.157  0.115    0.386 -0.227 -0.185
 H          0.075 -0.185  0.080    0.023 -0.071  0.028   -0.035  0.069 -0.029
 H         -0.006  0.010  0.004    0.132 -0.003 -0.018    0.284  0.064 -0.120
 H          0.121  0.076 -0.176    0.006 -0.398  0.412   -0.015 -0.155  0.183
 H          0.040 -0.014 -0.092   -0.198  0.061  0.450   -0.084  0.023  0.193
 H          0.355 -0.045 -0.201    0.062  0.001 -0.050    0.303 -0.017 -0.197
 H          0.421 -0.315  0.107   -0.066  0.040 -0.010    0.275 -0.187  0.050
 H         -0.115 -0.087  0.052   -0.196  0.221 -0.139   -0.143  0.091 -0.070
 TransDip   0.171 -0.132  0.025    0.035 -0.027  0.055    0.009  0.067 -0.075

 Mode:                43                     44                     45
 Frequency:      1492.28                1707.41                1758.29
 Force Cnst:      1.5012                14.7690                13.3850
 Red. Mass:       1.1442                 8.5986                 7.3483
 IR Active:          YES                    YES                    YES
 IR Intens:       15.858                  0.069                 14.079
 Raman Active:       YES                    YES                    YES
               X      Y      Z        X      Y      Z        X      Y      Z
 C          0.024 -0.029  0.018   -0.150 -0.207  0.230    0.341  0.178 -0.271
 C         -0.014  0.068 -0.071    0.031 -0.002 -0.009   -0.051 -0.008  0.026
 O          0.009  0.005 -0.003   -0.007  0.006 -0.001    0.008 -0.005 -0.001
 C         -0.007  0.009 -0.005    0.212  0.137 -0.176   -0.317 -0.162  0.231
 C          0.004 -0.005  0.002   -0.017 -0.031  0.017    0.051  0.015 -0.021
 O         -0.001  0.001  0.001   -0.009  0.009  0.002    0.008 -0.001 -0.004
 C          0.003  0.002 -0.004   -0.051  0.021  0.026   -0.035 -0.002  0.025
 O         -0.000  0.000  0.000   -0.009 -0.006  0.004   -0.008  0.000  0.001
 O          0.000 -0.000 -0.000   -0.000  0.001  0.003    0.001  0.001  0.002
 C         -0.013 -0.001  0.009    0.440 -0.149 -0.124    0.258 -0.074 -0.082
 C         -0.001  0.011 -0.011   -0.424  0.244 -0.007   -0.274  0.100  0.048
 H         -0.206 -0.616  0.110    0.094  0.005  0.002   -0.144 -0.019  0.007
 H          0.018 -0.146  0.726    0.100 -0.045 -0.026   -0.140  0.047  0.055
 H          0.014  0.018 -0.009    0.005 -0.014  0.003   -0.005  0.022 -0.005
 H          0.026  0.012 -0.021   -0.202  0.082 -0.070    0.374 -0.095  0.025
 H         -0.014  0.012 -0.000   -0.039  0.063 -0.031    0.052 -0.048  0.017
 H          0.004 -0.002 -0.008    0.018 -0.003 -0.052   -0.005  0.002  0.010
 H          0.035 -0.001 -0.024   -0.100 -0.175  0.309   -0.100 -0.102  0.198
 H          0.038 -0.020  0.001    0.031 -0.187  0.217    0.146 -0.289  0.239
 H         -0.002 -0.002 -0.001    0.010 -0.060  0.055   -0.000 -0.011  0.020
 TransDip  -0.123  0.029  0.015   -0.001  0.003  0.008    0.067  0.035 -0.093

 Mode:                46                     47                     48
 Frequency:      3009.94                3035.65                3073.79
 Force Cnst:      5.7710                 5.7876                 6.0314
 Red. Mass:       1.0812                 1.0660                 1.0835
 IR Active:          YES                    YES                    YES
 IR Intens:       22.785                 59.319                 12.990
 Raman Active:       YES                    YES                    YES
               X      Y      Z        X      Y      Z        X      Y      Z
 C          0.000  0.001 -0.001   -0.000 -0.001 -0.000    0.000 -0.000  0.000
 C         -0.000 -0.001 -0.000   -0.047 -0.054  0.012   -0.001 -0.001 -0.000
 O         -0.000 -0.000  0.000    0.001 -0.001  0.001    0.000 -0.000  0.000
 C         -0.002 -0.000 -0.000    0.001 -0.000 -0.000    0.000 -0.000  0.000
 C         -0.038 -0.051 -0.051    0.000  0.000  0.000   -0.004 -0.005 -0.006
 O          0.000  0.001 -0.001   -0.000  0.000  0.000    0.000  0.000  0.000
 C          0.000  0.005  0.005    0.000  0.000  0.001   -0.010 -0.050 -0.065
 O         -0.000 -0.000  0.000    0.000  0.000  0.000   -0.001 -0.000 -0.001
 O         -0.000  0.000  0.000   -0.000 -0.000 -0.000    0.001  0.000  0.001
 C         -0.000 -0.000  0.000   -0.000  0.000 -0.000    0.001  0.000 -0.001
 C          0.001 -0.001  0.000    0.000  0.000 -0.000   -0.001  0.001 -0.001
 H          0.000 -0.001 -0.001    0.051 -0.111 -0.330    0.000 -0.000 -0.001
 H          0.003  0.006  0.001    0.497  0.770  0.176    0.006  0.010  0.002
 H          0.000 -0.000 -0.000    0.003  0.004  0.005   -0.000  0.000  0.000
 H          0.002 -0.007  0.005   -0.002  0.006 -0.004   -0.000  0.002 -0.002
 H          0.475  0.599  0.632   -0.004 -0.005 -0.005    0.045  0.060  0.058
 H          0.005 -0.001 -0.003    0.000 -0.000 -0.000    0.001 -0.002  0.002
 H         -0.002  0.001 -0.000   -0.001  0.001 -0.000    0.004 -0.008  0.004
 H         -0.000 -0.000  0.000   -0.005 -0.002  0.005   -0.005 -0.005  0.004
 H         -0.014 -0.054 -0.077   -0.001 -0.006 -0.008    0.123  0.590  0.788
 TransDip  -0.053 -0.059 -0.130   -0.103 -0.198  0.104   -0.028 -0.055 -0.097

 Mode:                49                     50                     51
 Frequency:      3091.36                3186.05                3191.67
 Force Cnst:      6.1813                 6.5050                 6.5492
 Red. Mass:       1.0978                 1.0877                 1.0912
 IR Active:          YES                    YES                    YES
 IR Intens:       24.212                  9.058                  2.421
 Raman Active:       YES                    YES                    YES
               X      Y      Z        X      Y      Z        X      Y      Z
 C          0.000 -0.001 -0.001    0.001 -0.001  0.001    0.004  0.002 -0.003
 C         -0.001 -0.045 -0.079    0.000  0.000 -0.001    0.001 -0.001  0.000
 O         -0.000  0.001  0.001   -0.000  0.000  0.000    0.000  0.000 -0.000
 C         -0.000  0.000 -0.000    0.000 -0.001  0.001    0.024 -0.066  0.050
 C          0.000  0.000  0.000   -0.000  0.000  0.000   -0.002 -0.001  0.000
 O          0.000 -0.000 -0.000    0.000 -0.000 -0.000    0.000  0.000 -0.000
 C         -0.000  0.000  0.000    0.000  0.000  0.000   -0.000  0.001  0.000
 O          0.000  0.000  0.000   -0.000  0.000  0.000    0.000 -0.000  0.000
 O          0.000 -0.000 -0.000   -0.000 -0.000 -0.000   -0.000 -0.000  0.000
 C          0.000 -0.000  0.000    0.009 -0.024  0.018    0.001 -0.001  0.001
 C         -0.000  0.000  0.000    0.047  0.028 -0.057   -0.002 -0.000  0.001
 H         -0.174  0.265  0.883   -0.002  0.002  0.007   -0.003  0.002  0.006
 H          0.187  0.272  0.050   -0.003 -0.003 -0.001   -0.004 -0.003 -0.000
 H          0.006 -0.010 -0.012    0.000 -0.000 -0.000   -0.001 -0.000 -0.000
 H          0.002 -0.003  0.003   -0.005  0.012 -0.009   -0.320  0.759 -0.558
 H         -0.001 -0.001 -0.001    0.000 -0.001 -0.001    0.006  0.004  0.005
 H         -0.000  0.000 -0.000   -0.000  0.000  0.000    0.002  0.002 -0.002
 H          0.000 -0.001  0.000   -0.141  0.293 -0.213   -0.008  0.016 -0.012
 H          0.004  0.001 -0.004   -0.532 -0.338  0.666    0.017  0.009 -0.019
 H         -0.000 -0.002 -0.002   -0.001 -0.002 -0.002   -0.000 -0.002 -0.002
 TransDip  -0.004 -0.061 -0.145    0.044  0.044 -0.073    0.004 -0.038  0.032

 Mode:                52                     53                     54
 Frequency:      3210.38                3822.90                3828.95
 Force Cnst:      6.6673                 9.1829                 9.2128
 Red. Mass:       1.0980                 1.0665                 1.0666
 IR Active:          YES                    YES                    YES
 IR Intens:        3.896                100.731                138.999
 Raman Active:       YES                    YES                    YES
               X      Y      Z        X      Y      Z        X      Y      Z
 C         -0.000  0.001 -0.001   -0.000 -0.000  0.000    0.000 -0.000  0.000
 C         -0.000 -0.000  0.000    0.001 -0.001 -0.002   -0.000  0.000 -0.000
 O          0.000 -0.000  0.000    0.004 -0.016 -0.060   -0.000  0.000  0.001
 C         -0.001  0.002 -0.002    0.000  0.000 -0.000   -0.000  0.000 -0.000
 C          0.000  0.001 -0.000   -0.000 -0.000 -0.000    0.000 -0.001 -0.001
 O         -0.000 -0.000  0.000    0.000 -0.001  0.000    0.001 -0.061  0.015
 C          0.001 -0.000 -0.002   -0.000  0.000  0.000    0.000  0.000 -0.000
 O         -0.000  0.000  0.000    0.000 -0.000 -0.000   -0.000 -0.000 -0.000
 O          0.000 -0.000 -0.000    0.000 -0.000  0.000   -0.000  0.000 -0.000
 C          0.035 -0.062  0.042    0.000 -0.000  0.000    0.000  0.000 -0.000
 C         -0.026 -0.010  0.025    0.000  0.000 -0.000   -0.000 -0.000  0.000
 H          0.001 -0.001 -0.002   -0.001  0.004  0.014    0.000 -0.000 -0.000
 H          0.001  0.001  0.000    0.002 -0.002  0.003    0.000 -0.000 -0.000
 H         -0.000  0.000  0.000   -0.077  0.274  0.956    0.001 -0.003 -0.010
 H          0.010 -0.023  0.017   -0.000  0.000  0.001   -0.000 -0.002  0.002
 H         -0.001 -0.001  0.000    0.000  0.000  0.000    0.002  0.002 -0.002
 H         -0.000 -0.001  0.000   -0.000  0.010 -0.002   -0.028  0.973 -0.218
 H         -0.337  0.692 -0.501    0.000 -0.000 -0.000   -0.000  0.000 -0.000
 H          0.224  0.140 -0.278   -0.000 -0.000  0.000    0.000  0.000 -0.000
 H          0.000  0.005  0.009    0.000  0.000 -0.000    0.000  0.001  0.002
 TransDip  -0.009 -0.051  0.036    0.035  0.026  0.318    0.042  0.337 -0.164

 STANDARD THERMODYNAMIC QUANTITIES AT   298.15 K  AND     1.00 ATM

   This Molecule has  0 Imaginary Frequencies
   Zero point vibrational energy:       98.311 kcal/mol

   Atom    1 Element C  Has Mass   12.00000
   Atom    2 Element C  Has Mass   12.00000
   Atom    3 Element O  Has Mass   15.99491
   Atom    4 Element C  Has Mass   12.00000
   Atom    5 Element C  Has Mass   12.00000
   Atom    6 Element O  Has Mass   15.99491
   Atom    7 Element C  Has Mass   12.00000
   Atom    8 Element O  Has Mass   15.99491
   Atom    9 Element O  Has Mass   15.99491
   Atom   10 Element C  Has Mass   12.00000
   Atom   11 Element C  Has Mass   12.00000
   Atom   12 Element H  Has Mass    1.00783
   Atom   13 Element H  Has Mass    1.00783
   Atom   14 Element H  Has Mass    1.00783
   Atom   15 Element H  Has Mass    1.00783
   Atom   16 Element H  Has Mass    1.00783
   Atom   17 Element H  Has Mass    1.00783
   Atom   18 Element H  Has Mass    1.00783
   Atom   19 Element H  Has Mass    1.00783
   Atom   20 Element H  Has Mass    1.00783
   Molecular Mass:   157.050110 amu
   Principal axes and moments of inertia in amu*Bohr^2:
                             1           2           3
    Eigenvalues --      828.24447  2649.64988  3247.38001
          X               0.95766    -0.20057     0.20655
          Y              -0.28613    -0.58331     0.76019
          Z               0.03198     0.78710     0.61600
   Rotational Symmetry Number is   1
   The Molecule is an Asymmetric Top
   Translational Enthalpy:        0.889 kcal/mol
   Rotational Enthalpy:           0.889 kcal/mol
   Vibrational Enthalpy:        103.329 kcal/mol
   gas constant (RT):             0.592 kcal/mol
   Translational Entropy:        41.063  cal/mol.K
   Rotational Entropy:           30.345  cal/mol.K
   Vibrational Entropy:          30.870  cal/mol.K

   Total Enthalpy:              105.698 kcal/mol
   Total Entropy:               102.278  cal/mol.K
 Total job time:  59501.82s(wall), 460316.61s(cpu) 
 Sat Apr 22 09:54:53 2023

        *************************************************************
        *                                                           *
        *  Thank you very much for using Q-Chem.  Have a nice day.  *
        *                                                           *
        *************************************************************


