
Running Job 1 of 1 Q_in.in
qchem Q_in.in_111390.0 /scratch/ari.fischer/qChem1516133.hpc-mn1/qchem111390/ 0
/usr/local/qchem-5.4.1/exe/qcprog.exe_s Q_in.in_111390.0 /scratch/ari.fischer/qChem1516133.hpc-mn1/qchem111390/
                  Welcome to Q-Chem
     A Quantum Leap Into The Future Of Chemistry


 Q-Chem 5.4, Q-Chem, Inc., Pleasanton, CA (2021)

 License issued to: Nanyang Technological University (site)

 E. Epifanovsky,  A. T. B. Gilbert,  Xintian Feng,  Joonho Lee,  Yuezhi Mao,  
 N. Mardirossian,  P. Pokhilko,  A. White,  M. Wormit,  M. P. Coons,  
 A. L. Dempwolff,  Zhengting Gan,  D. Hait,  P. R. Horn,  L. D. Jacobson,  
 I. Kaliman,  J. Kussmann,  A. W. Lange,  Ka Un Lao,  D. S. Levine,  Jie Liu,  
 S. C. McKenzie,  A. F. Morrison,  K. Nanda,  F. Plasser,  D. R. Rehn,  
 M. L. Vidal,  Zhi-Qiang You,  Ying Zhu,  B. Alam,  B. Albrecht,  
 A. Aldossary,  E. Alguire,  J. H. Andersen,  D. Barton,  K. Begam,  A. Behn,  
 Y. A. Bernard,  E. J. Berquist,  H. Burton,  A. Carreras,  K. Carter-Fenk,  
 R. Chakraborty,  A. D. Chien,  K. D. Closser,  V. Cofer-Shabica,  
 S. Dasgupta,  Jia Deng,  M. de Wergifosse,  M. Diedenhofen,  Hainam Do,  
 S. Ehlert,  Po-Tung Fang,  S. Fatehi,  Qingguo Feng,  T. Friedhoff,  
 J. Gayvert,  Qinghui Ge,  G. Gidofalvi,  M. Goldey,  J. Gomes,  
 C. Gonzalez-Espinoza,  S. Gulania,  A. Gunina,  M. W. D. Hanson-Heine,  
 P. H. P. Harbach,  A. W. Hauser,  M. F. Herbst,  M. Hernandez Vera,  
 M. Hodecker,  Z. C. Holden,  S. Houck,  Xunkun Huang,  Kerwin Hui,  
 B. C. Huynh,  M. Ivanov,  Hyunjun Ji,  Hanjie Jiang,  B. Kaduk,  S. Kaehler,  
 K. Khistyaev,  Jaehoon Kim,  P. Klunzinger,  Z. Koczor-Benda,  
 Joong Hoon Koh,  D. Kosenkov,  L. Koulias,  T. Kowalczyk,  C. M. Krauter,  
 K. Kue,  A. Kunitsa,  T. Kus,  A. Landau,  K. V. Lawler,  D. Lefrancois,  
 S. Lehtola,  Rain Li,  Yi-Pei Li,  Jiashu Liang,  M. Liebenthal,  
 Hung-Hsuan Lin,  You-Sheng Lin,  Fenglai Liu,  Kuan-Yu Liu,  
 M. Loipersberger,  A. Luenser,  A. Manjanath,  P. Manohar,  E. Mansoor,  
 S. F. Manzer,  Shan-Ping Mao,  A. V. Marenich,  T. Markovich,  S. Mason,  
 S. A. Maurer,  P. F. McLaughlin,  M. F. S. J. Menger,  J.-M. Mewes,  
 S. A. Mewes,  P. Morgante,  J. W. Mullinax,  K. J. Oosterbaan,  G. Paran,  
 Alexander C. Paul,  Suranjan K. Paul,  F. Pavosevic,  Zheng Pei,  S. Prager,  
 E. I. Proynov,  E. Ramos,  B. Rana,  A. E. Rask,  A. Rettig,  R. M. Richard,  
 F. Rob,  E. Rossomme,  T. Scheele,  M. Scheurer,  M. Schneider,  
 N. Sergueev,  S. M. Sharada,  W. Skomorowski,  D. W. Small,  C. J. Stein,  
 Yu-Chuan Su,  E. J. Sundstrom,  Zhen Tao,  J. Thirman,  T. Tsuchimochi,  
 N. M. Tubman,  S. P. Veccham,  O. Vydrov,  J. Wenzel,  J. Witte,  A. Yamada,  
 Kun Yao,  S. Yeganeh,  S. R. Yost,  A. Zech,  Igor Ying Zhang,  Xing Zhang,  
 Yu Zhang,  D. Zuev,  A. Aspuru-Guzik,  A. T. Bell,  N. A. Besley,  
 K. B. Bravaya,  B. R. Brooks,  D. Casanova,  Jeng-Da Chai,  S. Coriani,  
 C. J. Cramer,  A. E. DePrince, III,  R. A. DiStasio Jr.,  A. Dreuw,  
 B. D. Dunietz,  T. R. Furlani,  W. A. Goddard III,  S. Grimme,  
 S. Hammes-Schiffer,  T. Head-Gordon,  W. J. Hehre,  Chao-Ping Hsu,  
 T.-C. Jagau,  Yousung Jung,  A. Klamt,  Jing Kong,  D. S. Lambrecht,  
 WanZhen Liang,  N. J. Mayhall,  C. W. McCurdy,  J. B. Neaton,  
 C. Ochsenfeld,  J. A. Parkhill,  R. Peverati,  V. A. Rassolov,  Yihan Shao,  
 L. V. Slipchenko,  T. Stauch,  R. P. Steele,  J. E. Subotnik,  
 A. J. W. Thom,  A. Tkatchenko,  D. G. Truhlar,  T. Van Voorhis,  
 T. A. Wesolowski,  K. B. Whaley,  H. L. Woodcock III,  P. M. Zimmerman,  
 S. Faraji,  P. M. W. Gill,  M. Head-Gordon,  J. M. Herbert,  A. I. Krylov

 Additional authors for Version 5.4.1: 
 S. Kotaru,  Shaozhi Li,  Xiangyuan Li,  F. Matz,  A. Molle,  Haisheng Ren,  
 Yingli Su,  Hung-Yi Tsai,  C. Utku,  Fang Wang

 Contributors to earlier versions of Q-Chem not listed above: 
 R. D. Adamson,  B. Austin,  R. Baer,  J. Baker,  G. J. O. Beran,  
 K. Brandhorst,  S. T. Brown,  E. F. C. Byrd,  A. K. Chakraborty,  
 G. K. L. Chan,  Chun-Min Chang,  Yunqing Chen,  C.-L. Cheng,  
 Siu Hung Chien,  D. M. Chipman,  D. L. Crittenden,  H. Dachsel,  
 R. J. Doerksen,  A. D. Dutoi,  R. G. Edgar,  J. Fosso-Tande,  
 L. Fusti-Molnar,  D. Ghosh,  A. Ghysels,  A. Golubeva-Zadorozhnaya,  
 J. Gonthier,  M. S. Gordon,  S. R. Gwaltney,  G. Hawkins,  J. E. Herr,  
 A. Heyden,  S. Hirata,  E. G. Hohenstein,  G. Kedziora,  F. J. Keil,  
 C. Kelley,  Jihan Kim,  R. A. King,  R. Z. Khaliullin,  P. P. Korambath,  
 W. Kurlancheek,  A. Laurent,  A. M. Lee,  M. S. Lee,  S. V. Levchenko,  
 Ching Yeh Lin,  D. Liotard,  E. Livshits,  R. C. Lochan,  I. Lotan,  
 L. A. Martinez-Martinez,  P. E. Maslen,  N. Nair,  D. P. O'Neill,  
 D. Neuhauser,  E. Neuscamman,  C. M. Oana,  R. Olivares-Amaya,  R. Olson,  
 T. M. Perrine,  B. Peters,  P. A. Pieniazek,  A. Prociuk,  Y. M. Rhee,  
 J. Ritchie,  M. A. Rohrdanz,  E. Rosta,  N. J. Russ,  H. F. Schaefer III,  
 M. W. Schmidt,  N. E. Schultz,  S. Sharma,  N. Shenvi,  C. D. Sherrill,  
 A. C. Simmonett,  A. Sodt,  T. Stein,  D. Stuck,  K. S. Thanthiriwatte,  
 V. Vanovschi,  L. Vogt,  Tao Wang,  A. Warshel,  M. A. Watson,  
 C. F. Williams,  Q. Wu,  X. Xu,  Jun Yang,  W. Zhang,  Yan Zhao

 Please cite Q-Chem as follows:
 Y. Shao et al., Mol. Phys. 113, 184-215 (2015)
 DOI: 10.1080/00268976.2014.952696

 Q-Chem 5.4.1 for Intel X86 EM64T Linux

 Parts of Q-Chem use Armadillo 9.800.1 (Horizon Scraper).
 http://arma.sourceforge.net/

 Q-Chem begins on Thu Apr 20 21:45:43 2023  

 Host: 
0

     Scratch files written to /scratch/ari.fischer/qChem1516133.hpc-mn1/qchem111390//
 Aug1521 |scratch|qcdevops|jenkins|workspace|build_RNUM 8249   
 Processing $rem in /usr/local/qchem-5.4.1/config/preferences:
 Processing $rem in /home/ari.fischer/.qchemrc:
 Symmetry turned off for PCM/SM12/SMD calculation

 Checking the input file for inconsistencies... 	...done.

--------------------------------------------------------------
User input:
--------------------------------------------------------------
$molecule
0 2
C        -0.9463699754    0.0898439325    0.6358873341
C        -2.4127847929    0.4080979661    0.7815991232
O        -2.8703969833    1.4187477940   -0.1025672800
C        -0.1320860893    0.7423599525   -0.1992344012
C         1.3461520094    0.4420744067   -0.2548864137
O         1.9048777634    0.6582304368   -1.5470530021
C         1.6200861147   -1.0083118104    0.1003514643
O         3.0541708161   -1.1838141263    0.3474989611
O         3.4223773537   -0.6073731015    1.4665744495
C         0.8103984908   -1.4966349623    1.2664484758
C        -0.4063329583   -0.9926883301    1.4851359518
H        -2.6055131956    0.7736781483    1.7970672130
H        -2.9975177667   -0.5157991037    0.6624189915
H        -2.7869885291    1.0627354768   -1.0024712890
H        -0.4883791731    1.5723024630   -0.8049089073
H         1.8629736965    1.0706614743    0.4890530297
H         1.8637761551    1.6130902012   -1.7194274077
H         1.2154071792   -2.3176039199    1.8512209384
H        -1.0340269867   -1.3872520489    2.2809681120
H         1.4611991714   -1.6401679488   -0.7828728435
$end

$rem
BASIS = 6-311++G(2df,2p)
GUI = 2
JOB_TYPE = Optimization
METHOD = wB97M-V
SCF_ALGORITHM = DIIS_GDM
MAX_SCF_CYCLES = 400
GEOM_OPT_MAX_CYCLES = 150
SCF_CONVERGENCE = 7
THRESH = 12
UNRESTRICTED = 1
Solvent_method = SMD
$end
--------------------------------------------------------------
 ----------------------------------------------------------------
             Standard Nuclear Orientation (Angstroms)
    I     Atom           X                Y                Z
 ----------------------------------------------------------------
    1      C      -0.9463699754     0.0898439325     0.6358873341
    2      C      -2.4127847929     0.4080979661     0.7815991232
    3      O      -2.8703969833     1.4187477940    -0.1025672800
    4      C      -0.1320860893     0.7423599525    -0.1992344012
    5      C       1.3461520094     0.4420744067    -0.2548864137
    6      O       1.9048777634     0.6582304368    -1.5470530021
    7      C       1.6200861147    -1.0083118104     0.1003514643
    8      O       3.0541708161    -1.1838141263     0.3474989611
    9      O       3.4223773537    -0.6073731015     1.4665744495
   10      C       0.8103984908    -1.4966349623     1.2664484758
   11      C      -0.4063329583    -0.9926883301     1.4851359518
   12      H      -2.6055131956     0.7736781483     1.7970672130
   13      H      -2.9975177667    -0.5157991037     0.6624189915
   14      H      -2.7869885291     1.0627354768    -1.0024712890
   15      H      -0.4883791731     1.5723024630    -0.8049089073
   16      H       1.8629736965     1.0706614743     0.4890530297
   17      H       1.8637761551     1.6130902012    -1.7194274077
   18      H       1.2154071792    -2.3176039199     1.8512209384
   19      H      -1.0340269867    -1.3872520489     2.2809681120
   20      H       1.4611991714    -1.6401679488    -0.7828728435
 ----------------------------------------------------------------
 Nuclear Repulsion Energy =         621.55121437 hartrees
 There are       42 alpha and       41 beta electrons
 Requested basis set is 6-311++G(2df,2p)
 There are 142 shells and 464 basis functions

 Total QAlloc Memory Limit 288000 MB
 Mega-Array Size       188 MB
 MEM_STATIC part       192 MB
 
 Citation of the SMD model:
 Marenich, A.V.; Cramer, C.J.; Truhlar, D.G.
 J. Phys. Chem. B 2009, 113, 6378-6396.
 iSolventCode=           1
 Solvent: water                                                           
 
 vradii
            1           2           3           4           5           6
    1   1.8500000   1.8500000   1.5200000   1.8500000   1.8500000   1.5200000
            7           8           9          10          11          12
    1   1.8500000   1.5200000   1.5200000   1.8500000   1.8500000   1.2000000
           13          14          15          16          17          18
    1   1.2000000   1.2000000   1.2000000   1.2000000   1.2000000   1.2000000
           19          20
    1   1.2000000   1.2000000
 Changing PCM_VDW_RADII to SMD_RADIUS
 Discretize the solute cavity surface with Lebedev spheres
	Using 110 Lebedev grid points for each H atom
	Using 194 Lebedev grid points for other atoms
	Atomic van der Waals radii will be scaled by 1.20
 Remove points where switching function is < 1.0e-08
 Keep 1504 surface tesserae and discard 1620 interior tesserae
 Molecular Surface Area = 174.058 Angst**2
 A cutoff of  1.0D-12 yielded   8818 shell pairs
 There are     93332 function pairs (    115899 Cartesian)
 Smallest overlap matrix eigenvalue = 1.95E-06

 Scale SEOQF with 1.000000e-01/1.000000e-01/1.000000e-01

 Standard Electronic Orientation quadrupole field applied
 Nucleus-field energy     =     0.0000000101 hartrees
 Guess from superposition of atomic densities
 Warning:  Energy on first SCF cycle will be non-variational
 SAD guess density has 83.000000 electrons

 -----------------------------------------------------------------------
  General SCF calculation program by
  Eric Jon Sundstrom, Paul Horn, Yuezhi Mao, Dmitri Zuev, Alec White,
  David Stuck, Shaama M.S., Shane Yost, Joonho Lee, David Small,
  Daniel Levine, Susi Lehtola, Hugh Burton, Evgeny Epifanovsky,
  Bang C. Huynh
 -----------------------------------------------------------------------
 Exchange:     0.1500 Hartree-Fock + 1.0000 wB97M-V + LR-HF
 Correlation:  1.0000 wB97M-V
 Using SG-2 standard quadrature grid
 Nonlocal Correlation:  VV10 with C = 0.0100 and b = 6.00 and scale = 1.00000
 Grid used for NLC:  SG-1 standard quadrature
 
 Citation of the SMD model:
 Marenich, A.V.; Cramer, C.J.; Truhlar, D.G.
 J. Phys. Chem. B 2009, 113, 6378-6396.
 iSolventCode=           1
 Solvent: water                                                           
 
 vradii
            1           2           3           4           5           6
    1   1.8500000   1.8500000   1.5200000   1.8500000   1.8500000   1.5200000
            7           8           9          10          11          12
    1   1.8500000   1.5200000   1.5200000   1.8500000   1.8500000   1.2000000
           13          14          15          16          17          18
    1   1.2000000   1.2000000   1.2000000   1.2000000   1.2000000   1.2000000
           19          20
    1   1.2000000   1.2000000
 using 8 threads for integral computing
 -------------------------------------------------------
 OpenMP Integral computing Module                
 Release: version 1.0, May 2013, Q-Chem Inc. Pittsburgh 
 -------------------------------------------------------
 -------------------------------------------------------
 OpenMP BLAS3 based DFT computing Module                
 Release: version 1.0, May 2013, Q-Chem Inc. Pittsburgh 
 -------------------------------------------------------
 A unrestricted SCF calculation will be
 performed using DIIS, GDM
 SCF converges when RMS gradient is below 1.0e-07
 ---------------------------------------
  Cycle       Energy         DIIS error
 ---------------------------------------
    1    -575.6874046651      1.16e-02  
    2    -572.7506414442      1.22e-03  Done DIIS. Switching to GDM
 ---------------------------------------
  Cycle       Energy        RMS Gradient
 ---------------------------------------
    1    -572.7506414442      8.37e-02   Descent step
    2    -572.8706802352      5.67e-02   Normal BFGS step
    3    -572.8908110182      4.13e-02   Normal BFGS step
    4    -572.8951886014      1.50e-02   Normal BFGS step
    5    -572.8968511957      8.42e-03   Normal BFGS step
    6    -572.8972421444      3.87e-03   Normal BFGS step
    7    -572.8973485308      1.93e-03   Normal BFGS step
    8    -572.8973720464      1.22e-03   Normal BFGS step
    9    -572.8973809801      9.51e-04   Normal BFGS step
   10    -572.8973847731      6.72e-04   Normal BFGS step
   11    -572.8973868739      4.52e-04   Normal BFGS step
   12    -572.8973888446      4.81e-04   Normal BFGS step
   13    -572.8973897943      2.42e-04   Normal BFGS step
   14    -572.8973900623      6.75e-05   Normal BFGS step
   15    -572.8973901051      2.82e-05   Normal BFGS step
   16    -572.8973901165      1.03e-05   Normal BFGS step
   17    -572.8973901181      1.14e-05   Normal BFGS step
   18    -572.8973901190      6.02e-06   Normal BFGS step
   19    -572.8973901193      3.42e-06   Normal BFGS step
   20    -572.8973901195      1.74e-06   Normal BFGS step
   21    -572.8973901195      8.37e-07   Normal BFGS step
   22    -572.8973901195      4.10e-07   Normal BFGS step
   23    -572.8973901195      2.03e-07   Normal BFGS step
   24    -572.8973901195      6.11e-08  Convergence criterion met
 ---------------------------------------
 SCF time:   CPU 3617.94s  wall 460.00s 
<S^2> =          0.754103560
(3)  G-ENP(liq) elect-nuc-pol free energy of system     -572.897390120 a.u.
(4)  G-CDS(liq) cavity-dispersion-solvent structure 
     free energy                                                3.1163 kcal/mol
(6)  G-S(liq) free energy of system                     -572.892424035 a.u.
 SCF   energy in the final basis set =     -572.8924240348
 Total energy in the final basis set =     -572.8924240348
 
 --------------------------------------------------------------
 
                    Orbital Energies (a.u.)
 --------------------------------------------------------------
 
 Alpha MOs
 -- Occupied --
-19.4647 -19.4184 -19.3445 -19.3408 -10.4151 -10.4085 -10.3906 -10.3584
-10.3565 -10.3545 -10.3436  -1.3401  -1.1650  -1.1586  -1.0255  -0.9704
 -0.8828  -0.8681  -0.7997  -0.7442  -0.7151  -0.6556  -0.6501  -0.6346
 -0.6308  -0.6114  -0.5942  -0.5738  -0.5532  -0.5372  -0.5335  -0.5139
 -0.4979  -0.4736  -0.4655  -0.4459  -0.4182  -0.4085  -0.3983  -0.3934
 -0.3889  -0.3196
 -- Virtual --
  0.0238   0.0330   0.0363   0.0393   0.0403   0.0560   0.0587   0.0628
  0.0711   0.0848   0.0970   0.1095   0.1130   0.1195   0.1261   0.1339
  0.1356   0.1480   0.1495   0.1530   0.1565   0.1647   0.1659   0.1682
  0.1737   0.1772   0.1810   0.1866   0.1934   0.1983   0.2030   0.2055
  0.2175   0.2228   0.2240   0.2303   0.2379   0.2500   0.2559   0.2639
  0.2724   0.2794   0.2838   0.2881   0.2989   0.3000   0.3017   0.3094
  0.3190   0.3210   0.3274   0.3342   0.3463   0.3489   0.3563   0.3609
  0.3709   0.3743   0.3818   0.3866   0.3892   0.3944   0.4001   0.4084
  0.4084   0.4099   0.4238   0.4439   0.4494   0.4626   0.4664   0.4858
  0.4960   0.5268   0.5389   0.5539   0.5641   0.5792   0.5953   0.6004
  0.6112   0.6170   0.6324   0.6352   0.6399   0.6451   0.6558   0.6605
  0.6745   0.6843   0.6916   0.7007   0.7100   0.7154   0.7239   0.7391
  0.7495   0.7520   0.7610   0.7631   0.7808   0.7824   0.7982   0.8086
  0.8153   0.8301   0.8438   0.8469   0.8601   0.8784   0.8857   0.9020
  0.9199   0.9457   0.9606   0.9731   0.9911   1.0045   1.0267   1.0426
  1.0488   1.0590   1.0675   1.0756   1.0933   1.1026   1.1200   1.1261
  1.1461   1.1532   1.1552   1.1698   1.1864   1.1906   1.2090   1.2110
  1.2214   1.2362   1.2431   1.2536   1.2579   1.2723   1.2737   1.2846
  1.3011   1.3107   1.3155   1.3268   1.3434   1.3549   1.3610   1.3665
  1.3979   1.4006   1.4094   1.4252   1.4339   1.4509   1.4628   1.4721
  1.4876   1.4941   1.5199   1.5262   1.5347   1.5364   1.5494   1.5556
  1.5716   1.6011   1.6114   1.6160   1.6327   1.6536   1.6581   1.6635
  1.6705   1.6894   1.7047   1.7078   1.7304   1.7442   1.7595   1.7968
  1.8085   1.8263   1.8430   1.8483   1.9043   1.9225   1.9370   1.9574
  2.0014   2.0497   2.0554   2.0993   2.1347   2.1354   2.1660   2.2389
  2.2560   2.2645   2.2982   2.3299   2.3777   2.3901   2.4400   2.4590
  2.4679   2.5476   2.6451   2.6512   2.6691   2.6853   2.7251   2.7397
  2.7580   2.7800   2.8036   2.8153   2.8292   2.8538   2.8685   2.8896
  2.8984   2.9065   2.9238   2.9277   2.9382   2.9672   2.9746   2.9872
  3.0105   3.0260   3.0350   3.0383   3.0508   3.0767   3.0992   3.1283
  3.1433   3.1680   3.1802   3.2029   3.2122   3.2241   3.2517   3.2717
  3.2901   3.3150   3.3291   3.3330   3.3491   3.3631   3.3943   3.4043
  3.4199   3.4300   3.4405   3.4464   3.4513   3.4852   3.5041   3.5202
  3.5382   3.5489   3.5607   3.5876   3.5984   3.6197   3.6536   3.6561
  3.6699   3.6824   3.7018   3.7177   3.7276   3.7481   3.7671   3.7722
  3.7764   3.8041   3.8143   3.8253   3.8427   3.8486   3.8643   3.8784
  3.8956   3.9139   3.9268   3.9412   3.9704   3.9952   4.0195   4.0328
  4.0719   4.0832   4.0874   4.0901   4.1324   4.1505   4.1688   4.1930
  4.2043   4.2222   4.2293   4.2465   4.2574   4.2829   4.2909   4.3210
  4.3269   4.3445   4.3541   4.3934   4.4013   4.4249   4.4515   4.4840
  4.4972   4.5060   4.5329   4.5819   4.5917   4.5975   4.6006   4.6468
  4.6546   4.6703   4.7099   4.7244   4.7407   4.7659   4.7894   4.8216
  4.8715   4.8946   4.9053   4.9371   4.9484   5.0389   5.0667   5.0963
  5.1025   5.1168   5.1444   5.1868   5.1978   5.2487   5.2724   5.2844
  5.2982   5.3137   5.3186   5.3201   5.3619   5.3630   5.3968   5.4202
  5.4253   5.4827   5.4994   5.5358   5.5587   5.5743   5.5978   5.6221
  5.6419   5.6526   5.6747   5.6848   5.6961   5.7417   5.7828   5.8333
  5.9051   5.9515   5.9651   6.0151   6.0212   6.0656   6.2134   6.4407
  6.4735   6.5706   6.6427   6.6587   6.8623   6.8908   6.9792   7.0975
  7.1005   7.1284   7.2036   7.2557   7.2772   7.3001   7.3380   7.3579
  7.3661   7.3973   7.4243   7.4345   7.6351   7.6961   7.7952   7.8148
  7.8299   8.0170   8.0774  24.3186  24.5927  24.7158  24.7987  24.8106
 25.1735  25.3142  50.4180  50.5486  50.5891  50.6359
 
 Beta MOs
 -- Occupied --
-19.4543 -19.3997 -19.3444 -19.3408 -10.4155 -10.4082 -10.3906 -10.3583
-10.3563 -10.3546 -10.3437  -1.3139  -1.1646  -1.1586  -1.0031  -0.9608
 -0.8786  -0.8657  -0.7962  -0.7405  -0.7112  -0.6519  -0.6427  -0.6293
 -0.6198  -0.5869  -0.5831  -0.5686  -0.5435  -0.5347  -0.5139  -0.5096
 -0.4943  -0.4692  -0.4630  -0.4341  -0.4173  -0.3976  -0.3905  -0.3879
 -0.3195
 -- Virtual --
 -0.0348   0.0239   0.0341   0.0367   0.0396   0.0405   0.0562   0.0590
  0.0630   0.0714   0.0849   0.0979   0.1101   0.1134   0.1201   0.1265
  0.1345   0.1369   0.1482   0.1500   0.1533   0.1574   0.1648   0.1662
  0.1686   0.1745   0.1788   0.1813   0.1869   0.1937   0.1988   0.2055
  0.2073   0.2182   0.2241   0.2250   0.2309   0.2399   0.2505   0.2566
  0.2710   0.2734   0.2808   0.2839   0.2889   0.3001   0.3012   0.3019
  0.3112   0.3202   0.3220   0.3285   0.3353   0.3474   0.3514   0.3567
  0.3638   0.3716   0.3767   0.3825   0.3871   0.3897   0.3953   0.4010
  0.4087   0.4094   0.4108   0.4243   0.4445   0.4503   0.4643   0.4672
  0.4865   0.4967   0.5274   0.5395   0.5543   0.5644   0.5799   0.5956
  0.6007   0.6116   0.6172   0.6324   0.6354   0.6400   0.6453   0.6561
  0.6607   0.6747   0.6846   0.6920   0.7008   0.7100   0.7157   0.7240
  0.7398   0.7499   0.7521   0.7612   0.7638   0.7812   0.7825   0.7988
  0.8089   0.8158   0.8304   0.8441   0.8472   0.8602   0.8787   0.8861
  0.9022   0.9214   0.9460   0.9614   0.9734   0.9925   1.0047   1.0276
  1.0460   1.0498   1.0594   1.0688   1.0782   1.0942   1.1045   1.1205
  1.1305   1.1496   1.1539   1.1582   1.1730   1.1882   1.1970   1.2133
  1.2176   1.2356   1.2388   1.2454   1.2586   1.2609   1.2754   1.2769
  1.2939   1.3036   1.3119   1.3161   1.3276   1.3446   1.3562   1.3623
  1.3681   1.3986   1.4026   1.4102   1.4267   1.4352   1.4532   1.4651
  1.4739   1.4891   1.4952   1.5209   1.5277   1.5363   1.5398   1.5536
  1.5562   1.5732   1.6023   1.6147   1.6230   1.6347   1.6553   1.6641
  1.6689   1.6733   1.6921   1.7109   1.7140   1.7413   1.7552   1.7626
  1.8005   1.8145   1.8297   1.8448   1.8565   1.9078   1.9267   1.9381
  1.9594   2.0026   2.0528   2.0588   2.1023   2.1359   2.1430   2.1684
  2.2414   2.2616   2.2681   2.3097   2.3459   2.3779   2.3912   2.4415
  2.4633   2.4691   2.5479   2.6467   2.6539   2.6716   2.6858   2.7266
  2.7401   2.7605   2.7804   2.8040   2.8156   2.8297   2.8542   2.8688
  2.8899   2.8986   2.9066   2.9240   2.9279   2.9383   2.9675   2.9746
  2.9876   3.0109   3.0262   3.0352   3.0388   3.0518   3.0775   3.0993
  3.1287   3.1439   3.1683   3.1804   3.2030   3.2128   3.2244   3.2521
  3.2720   3.2905   3.3151   3.3294   3.3334   3.3492   3.3635   3.3944
  3.4047   3.4205   3.4302   3.4409   3.4467   3.4515   3.4855   3.5044
  3.5205   3.5384   3.5494   3.5609   3.5877   3.5987   3.6200   3.6542
  3.6564   3.6704   3.6824   3.7019   3.7181   3.7275   3.7483   3.7674
  3.7724   3.7766   3.8045   3.8146   3.8255   3.8430   3.8488   3.8648
  3.8790   3.8962   3.9141   3.9270   3.9416   3.9708   3.9953   4.0198
  4.0332   4.0721   4.0836   4.0877   4.0904   4.1327   4.1508   4.1693
  4.1934   4.2051   4.2225   4.2295   4.2476   4.2580   4.2834   4.2914
  4.3212   4.3272   4.3447   4.3550   4.3936   4.4015   4.4259   4.4519
  4.4846   4.4976   4.5069   4.5336   4.5846   4.5926   4.6013   4.6221
  4.6478   4.6596   4.6726   4.7153   4.7274   4.7445   4.7675   4.8011
  4.8236   4.8780   4.9040   4.9064   4.9406   4.9630   5.0482   5.0862
  5.1082   5.1515   5.1618   5.1877   5.2166   5.2272   5.2727   5.2876
  5.3030   5.3073   5.3207   5.3263   5.3342   5.3628   5.3697   5.4079
  5.4251   5.4394   5.4837   5.5147   5.5366   5.5679   5.5770   5.5990
  5.6277   5.6424   5.6538   5.6762   5.6878   5.6974   5.7437   5.7936
  5.8495   5.9083   5.9521   5.9657   6.0155   6.0233   6.0661   6.2146
  6.4842   6.4896   6.5824   6.6427   6.6600   6.9457   6.9695   7.0422
  7.0976   7.1167   7.1551   7.2300   7.2737   7.2773   7.3146   7.3385
  7.3605   7.3787   7.4212   7.4389   7.4719   7.6351   7.6990   7.7953
  7.8200   7.8377   8.0291   8.0986  24.3186  24.5927  24.7156  24.7989
 24.8107  25.1735  25.3143  50.4302  50.5579  50.5891  50.6368
 --------------------------------------------------------------
 
          Ground-State Mulliken Net Atomic Charges

     Atom                 Charge (a.u.)    Spin (a.u.)
  --------------------------------------------------------
      1 C                     0.389045       0.005573
      2 C                    -0.401572       0.000123
      3 O                    -0.442367      -0.000017
      4 C                    -0.468609      -0.003876
      5 C                    -0.248347       0.008449
      6 O                    -0.422027       0.002440
      7 C                    -0.216136      -0.004186
      8 O                     0.066336       0.311059
      9 O                    -0.215242       0.669816
     10 C                     0.027391       0.018049
     11 C                    -0.565885      -0.007990
     12 H                     0.212817       0.000200
     13 H                     0.224387       0.000078
     14 H                     0.334508       0.000009
     15 H                     0.267309       0.000496
     16 H                     0.252493      -0.002414
     17 H                     0.338956       0.000073
     18 H                     0.317864      -0.000449
     19 H                     0.294288       0.000638
     20 H                     0.254790       0.001929
  --------------------------------------------------------
  Sum of atomic charges =    -0.000000
  Sum of spin   charges =     1.000000

 -----------------------------------------------------------------
                    Cartesian Multipole Moments
 -----------------------------------------------------------------
    Charge (ESU x 10^10)
                -0.0000
    Dipole Moment (Debye)
         X      -3.8432      Y      -0.5842      Z      -0.6741
       Tot       3.9453
    Quadrupole Moments (Debye-Ang)
        XX     -83.9477     XY      10.6531     YY     -61.2166
        XZ      -3.2077     YZ      -5.4048     ZZ     -64.3603
    Octopole Moments (Debye-Ang^2)
       XXX    -137.6084    XXY       3.1902    XYY      -2.1613
       YYY      17.7068    XXZ     -39.9735    XYZ       1.2547
       YYZ     -28.4977    XZZ     -52.3577    YZZ      11.0374
       ZZZ     -66.3421
    Hexadecapole Moments (Debye-Ang^3)
      XXXX   -2022.5791   XXXY     325.0575   XXYY    -381.2297
      XYYY     228.7942   YYYY    -433.8824   XXXZ     -56.8903
      XXYZ      32.4141   XYYZ     -10.5484   YYYZ      83.7701
      XXZZ    -366.9058   XYZZ      67.8388   YYZZ    -115.3085
      XZZZ     -20.9069   YZZZ      91.1291   ZZZZ    -456.1760
 -----------------------------------------------------------------
 Calculating analytic gradient of the SCF energy
 Gradient of CDS energy
            1           2           3           4           5           6
    1  -0.0000212  -0.0009715   0.0003356  -0.0001029   0.0002498  -0.0000863
    2   0.0000134   0.0002884  -0.0000990   0.0001937  -0.0000563  -0.0002118
    3  -0.0000665   0.0000945   0.0001003  -0.0000492  -0.0001332   0.0002049
            7           8           9          10          11          12
    1   0.0001900   0.0000257   0.0000610   0.0001159  -0.0001680   0.0001705
    2   0.0000253   0.0000594  -0.0000176  -0.0002602  -0.0001131   0.0001018
    3  -0.0000955   0.0000398  -0.0000390   0.0001598   0.0002850   0.0001606
           13          14          15          16          17          18
    1   0.0001426  -0.0002823  -0.0000891   0.0001254   0.0002056   0.0001660
    2  -0.0002348   0.0001320   0.0000749   0.0000432   0.0003344  -0.0001326
    3  -0.0000295  -0.0004227  -0.0000153   0.0001439  -0.0003308   0.0000937
           19          20
    1  -0.0001113   0.0000446
    2  -0.0000529  -0.0000883
    3   0.0001225  -0.0002234
 Gradient of SCF Energy
            1           2           3           4           5           6
    1  -0.0071497   0.0061731  -0.0046100   0.0135203  -0.0050435   0.0060152
    2  -0.0080872   0.0115904   0.0148983   0.0023673  -0.0020643  -0.0259006
    3   0.0071464  -0.0162945   0.0224100  -0.0029702  -0.0064576  -0.0016684
            7           8           9          10          11          12
    1   0.0106918   0.0008113   0.0003487   0.0028501  -0.0066840  -0.0017435
    2   0.0043483  -0.0039382   0.0037021   0.0040086   0.0036235   0.0006956
    3   0.0106963  -0.0092259   0.0075580  -0.0099025   0.0015301   0.0095093
           13          14          15          16          17          18
    1  -0.0061301   0.0036320  -0.0034521   0.0023406  -0.0036564   0.0028832
    2  -0.0111869  -0.0119286   0.0090540   0.0053655   0.0221629  -0.0081972
    3  -0.0002181  -0.0183351  -0.0077176   0.0048981  -0.0001245   0.0051677
           19          20
    1  -0.0088953  -0.0019016
    2  -0.0050833  -0.0054303
    3   0.0100247  -0.0060263
 Max gradient component =       2.590E-02
 RMS gradient           =       8.919E-03
 Computing fast CPCM-SWIG gradient
 Updating gradient with PCM contributions...
 -- total gradient after adding PCM contribution --
---------------------------------------------------
  Atom         X              Y              Z     
---------------------------------------------------
   1      -0.002808      -0.002042       0.003421
   2      -0.000659       0.001596      -0.004646
   3      -0.000826       0.005968       0.006958
   4       0.002296       0.001361      -0.002535
   5       0.000685       0.003376      -0.003273
   6       0.001588      -0.009605      -0.000643
   7       0.001147      -0.000084       0.000800
   8       0.000363      -0.004205      -0.007517
   9       0.000740       0.003792       0.006493
  10       0.004306      -0.001218       0.000009
  11      -0.003278       0.001495       0.000121
  12      -0.000965       0.001389       0.002704
  13      -0.001923      -0.003187       0.000355
  14       0.001340      -0.004638      -0.005621
  15      -0.001615       0.002468      -0.001565
  16       0.001497       0.001142       0.003032
  17      -0.001125       0.007125       0.000579
  18       0.001415      -0.002470       0.001633
  19      -0.002013      -0.001050       0.002326
  20      -0.000165      -0.001211      -0.002632
---------------------------------------------------
 Number of fixed atoms: 0
 Gradient time:  CPU 458.45 s  wall 65.66 s
 Geometry Optimization Parameters
   NAtoms,    NIC,     NZ,  NCons,   NDum,   NFix, NCnnct, MaxDiis
       20     141       0       0       0       0       0       0


** GEOMETRY OPTIMIZATION IN DELOCALIZED INTERNAL COORDINATES **
   Searching for a Minimum

   Optimization Cycle:   1

                       Coordinates (Angstroms)
     ATOM                X               Y               Z
      1  C        -0.9463699754    0.0898439325    0.6358873341
      2  C        -2.4127847929    0.4080979661    0.7815991232
      3  O        -2.8703969833    1.4187477940   -0.1025672800
      4  C        -0.1320860893    0.7423599525   -0.1992344012
      5  C         1.3461520094    0.4420744067   -0.2548864137
      6  O         1.9048777634    0.6582304368   -1.5470530021
      7  C         1.6200861147   -1.0083118104    0.1003514643
      8  O         3.0541708161   -1.1838141263    0.3474989611
      9  O         3.4223773537   -0.6073731015    1.4665744495
     10  C         0.8103984908   -1.4966349623    1.2664484758
     11  C        -0.4063329583   -0.9926883301    1.4851359518
     12  H        -2.6055131956    0.7736781483    1.7970672130
     13  H        -2.9975177667   -0.5157991037    0.6624189915
     14  H        -2.7869885291    1.0627354768   -1.0024712890
     15  H        -0.4883791731    1.5723024630   -0.8049089073
     16  H         1.8629736965    1.0706614743    0.4890530297
     17  H         1.8637761551    1.6130902012   -1.7194274077
     18  H         1.2154071792   -2.3176039199    1.8512209384
     19  H        -1.0340269867   -1.3872520489    2.2809681120
     20  H         1.4611991714   -1.6401679488   -0.7828728435
   Point Group: c1    Number of degrees of freedom:    54


   Energy is   -572.892424035


 Attempting to generate delocalized internal coordinates
 Initial Hessian constructed with Jon Baker's OPTIMIZE code

 54 Hessian modes will be used to form the next step
  Hessian Eigenvalues:
     0.006945    0.008172    0.009394    0.012433    0.013178    0.013388
     0.015529    0.017941    0.018380    0.021420    0.023983    0.043727
     0.049470    0.056455    0.058444    0.063258    0.074031    0.074238
     0.081480    0.119291    0.136320    0.142461    0.158848    0.159481
     0.159959    0.160000    0.160000    0.167803    0.201285    0.208761
     0.220754    0.232718    0.249976    0.250000    0.294289    0.304707
     0.313996    0.315918    0.333989    0.336971    0.339567    0.340098
     0.340898    0.350831    0.351067    0.352474    0.362513    0.418213
     0.426641    0.531012    0.531398    0.549331    0.569334    0.640823

 Minimum search - taking simple RFO step
 Searching for Lamda that Minimizes Along All modes
 Value Taken    Lamda =  -0.00123476
 Step Taken.  Stepsize is  0.087829

                             Maximum     Tolerance    Cnvgd?
         Gradient           0.008674      0.000300      NO
         Displacement       0.043847      0.001200      NO
         Energy change     *********      0.000001      NO


 New Cartesian Coordinates Obtained by Inverse Iteration

 Displacement from previous Coordinates is:  0.164201
 ----------------------------------------------------------------
             Standard Nuclear Orientation (Angstroms)
    I     Atom           X                Y                Z
 ----------------------------------------------------------------
    1      C      -0.9417487615     0.0890411521     0.6284456586
    2      C      -2.4042174063     0.3973268135     0.7806404885
    3      O      -2.8767192753     1.4183608979    -0.0836277969
    4      C      -0.1302336106     0.7393780733    -0.2012803024
    5      C       1.3428601906     0.4399407407    -0.2549688395
    6      O       1.8979214924     0.6588876073    -1.5484291736
    7      C       1.6180120605    -1.0038489784     0.1086031849
    8      O       3.0494584276    -1.1813753022     0.3612818911
    9      O       3.4285228497    -0.6202067641     1.4773311863
   10      C       0.8057262962    -1.4884048524     1.2674247176
   11      C      -0.4052310193    -0.9869191982     1.4795700460
   12      H      -2.5945371106     0.7372521471     1.8002530452
   13      H      -2.9790721817    -0.5232006012     0.6417203015
   14      H      -2.7992911180     1.1058484075    -0.9926496298
   15      H      -0.4811448151     1.5638065366    -0.8087867165
   16      H       1.8559379835     1.0764455792     0.4767987054
   17      H       1.8599383034     1.6032057689    -1.7398248734
   18      H       1.2055068017    -2.3041804876     1.8539809488
   19      H      -1.0317018770    -1.3792851904     2.2707854517
   20      H       1.4610350697    -1.6398954493    -0.7664657936
 ----------------------------------------------------------------
 Nuclear Repulsion Energy =         622.64505298 hartrees
 There are       42 alpha and       41 beta electrons
 Discretize the solute cavity surface with Lebedev spheres
	Using 110 Lebedev grid points for each H atom
	Using 194 Lebedev grid points for other atoms
	Atomic van der Waals radii will be scaled by 1.20
 Remove points where switching function is < 1.0e-08
 Keep 1505 surface tesserae and discard 1619 interior tesserae
 Molecular Surface Area = 173.729 Angst**2
 Applying Cartesian multipole field
    Component          Value
    ---------          -----
     (2,0,0)        1.00000E-11
     (0,2,0)        2.00000E-11
     (0,0,2)       -3.00000E-11
 Nucleus-field energy     =     0.0000000100 hartrees
 Requested basis set is 6-311++G(2df,2p)
 There are 142 shells and 464 basis functions
 A cutoff of  1.0D-12 yielded   8822 shell pairs
 There are     93351 function pairs (    115921 Cartesian)
 Smallest overlap matrix eigenvalue = 1.87E-06
 Guess MOs from SCF MO coefficient file

 -----------------------------------------------------------------------
  General SCF calculation program by
  Eric Jon Sundstrom, Paul Horn, Yuezhi Mao, Dmitri Zuev, Alec White,
  David Stuck, Shaama M.S., Shane Yost, Joonho Lee, David Small,
  Daniel Levine, Susi Lehtola, Hugh Burton, Evgeny Epifanovsky,
  Bang C. Huynh
 -----------------------------------------------------------------------
 Exchange:     0.1500 Hartree-Fock + 1.0000 wB97M-V + LR-HF
 Correlation:  1.0000 wB97M-V
 Using SG-2 standard quadrature grid
 Nonlocal Correlation:  VV10 with C = 0.0100 and b = 6.00 and scale = 1.00000
 Grid used for NLC:  SG-1 standard quadrature
 
 Citation of the SMD model:
 Marenich, A.V.; Cramer, C.J.; Truhlar, D.G.
 J. Phys. Chem. B 2009, 113, 6378-6396.
 iSolventCode=           1
 Solvent: water                                                           
 
 vradii
            1           2           3           4           5           6
    1   1.8500000   1.8500000   1.5200000   1.8500000   1.8500000   1.5200000
            7           8           9          10          11          12
    1   1.8500000   1.5200000   1.5200000   1.8500000   1.8500000   1.2000000
           13          14          15          16          17          18
    1   1.2000000   1.2000000   1.2000000   1.2000000   1.2000000   1.2000000
           19          20
    1   1.2000000   1.2000000
 -------------------------------------------------------
 OpenMP BLAS3 based DFT computing Module                
 Release: version 1.0, May 2013, Q-Chem Inc. Pittsburgh 
 -------------------------------------------------------
 A unrestricted SCF calculation will be
 performed using Roothaan-Hall, DIIS, GDM
 SCF converges when RMS gradient is below 1.0e-07
 ---------------------------------------
  Cycle       Energy         DIIS error
 ---------------------------------------
    1    -572.8616277151      1.88e-04  Roothaan Step
 ---------------------------------------
  Cycle       Energy         DIIS error
 ---------------------------------------
    1    -572.8923212828      1.84e-04  
    2    -572.8963854580      1.43e-04  Done DIIS. Switching to GDM
 ---------------------------------------
  Cycle       Energy        RMS Gradient
 ---------------------------------------
    1    -572.8963854580      5.74e-03   Normal BFGS step
    2    -572.8963139746      1.07e-02  Line search: overstep
    3    -572.8978280643      2.40e-03   Normal BFGS step
    4    -572.8979567035      8.85e-04   Normal BFGS step
    5    -572.8979764141      1.52e-03   Normal BFGS step
    6    -572.8979870328      1.58e-04   Normal BFGS step
    7    -572.8979879897      1.76e-04   Normal BFGS step
    8    -572.8979883570      1.27e-04   Normal BFGS step
    9    -572.8979884966      4.06e-05   Normal BFGS step
   10    -572.8979885109      1.46e-05   Normal BFGS step
   11    -572.8979885143      1.38e-05   Normal BFGS step
   12    -572.8979885149      1.20e-05   Normal BFGS step
   13    -572.8979885154      9.00e-06   Normal BFGS step
   14    -572.8979885158      4.94e-06   Normal BFGS step
   15    -572.8979885161      2.40e-06   Normal BFGS step
   16    -572.8979885161      1.30e-06   Normal BFGS step
   17    -572.8979885162      4.84e-07   Normal BFGS step
   18    -572.8979885162      1.31e-07   Normal BFGS step
   19    -572.8979885161      6.52e-08  Convergence criterion met
 ---------------------------------------
 SCF time:   CPU 3120.32s  wall 397.00s 
<S^2> =          0.754067416
(3)  G-ENP(liq) elect-nuc-pol free energy of system     -572.897988516 a.u.
(4)  G-CDS(liq) cavity-dispersion-solvent structure 
     free energy                                                3.0953 kcal/mol
(6)  G-S(liq) free energy of system                     -572.893055848 a.u.
 SCF   energy in the final basis set =     -572.8930558480
 Total energy in the final basis set =     -572.8930558480
 
 --------------------------------------------------------------
 
                    Orbital Energies (a.u.)
 --------------------------------------------------------------
 
 Alpha MOs
 -- Occupied --
-19.4645 -19.4177 -19.3431 -19.3396 -10.4141 -10.4074 -10.3892 -10.3563
-10.3543 -10.3521 -10.3417  -1.3435  -1.1652  -1.1588  -1.0266  -0.9726
 -0.8846  -0.8703  -0.8015  -0.7461  -0.7164  -0.6570  -0.6523  -0.6366
 -0.6319  -0.6128  -0.5951  -0.5751  -0.5545  -0.5386  -0.5347  -0.5147
 -0.4982  -0.4735  -0.4654  -0.4459  -0.4187  -0.4073  -0.3984  -0.3925
 -0.3888  -0.3201
 -- Virtual --
  0.0238   0.0335   0.0370   0.0395   0.0403   0.0560   0.0589   0.0631
  0.0712   0.0849   0.0972   0.1099   0.1130   0.1201   0.1262   0.1344
  0.1363   0.1482   0.1496   0.1534   0.1566   0.1651   0.1661   0.1684
  0.1739   0.1773   0.1813   0.1871   0.1938   0.1991   0.2038   0.2060
  0.2184   0.2232   0.2245   0.2305   0.2387   0.2502   0.2564   0.2667
  0.2728   0.2800   0.2847   0.2879   0.3001   0.3005   0.3025   0.3112
  0.3200   0.3215   0.3288   0.3350   0.3467   0.3495   0.3577   0.3615
  0.3718   0.3754   0.3819   0.3876   0.3905   0.3954   0.4010   0.4081
  0.4091   0.4100   0.4249   0.4454   0.4513   0.4634   0.4687   0.4882
  0.4960   0.5268   0.5409   0.5549   0.5650   0.5821   0.5978   0.6016
  0.6126   0.6196   0.6327   0.6361   0.6409   0.6467   0.6572   0.6625
  0.6763   0.6855   0.6933   0.7024   0.7118   0.7166   0.7253   0.7431
  0.7512   0.7538   0.7629   0.7645   0.7810   0.7846   0.7989   0.8095
  0.8161   0.8320   0.8461   0.8476   0.8614   0.8805   0.8870   0.9036
  0.9237   0.9463   0.9614   0.9748   0.9939   1.0029   1.0274   1.0433
  1.0496   1.0594   1.0697   1.0779   1.0939   1.1023   1.1221   1.1271
  1.1471   1.1565   1.1581   1.1713   1.1880   1.1909   1.2098   1.2123
  1.2229   1.2386   1.2455   1.2550   1.2587   1.2722   1.2743   1.2864
  1.3026   1.3096   1.3171   1.3298   1.3444   1.3567   1.3645   1.3683
  1.4011   1.4038   1.4140   1.4302   1.4356   1.4514   1.4657   1.4752
  1.4919   1.4988   1.5241   1.5302   1.5359   1.5370   1.5534   1.5601
  1.5751   1.6040   1.6142   1.6177   1.6358   1.6578   1.6621   1.6653
  1.6762   1.6923   1.7084   1.7107   1.7321   1.7463   1.7660   1.8004
  1.8126   1.8293   1.8469   1.8501   1.9061   1.9273   1.9427   1.9615
  2.0055   2.0508   2.0607   2.1013   2.1357   2.1416   2.1666   2.2411
  2.2544   2.2661   2.3032   2.3354   2.3754   2.3936   2.4388   2.4601
  2.4680   2.5416   2.6447   2.6491   2.6676   2.6873   2.7255   2.7424
  2.7602   2.7832   2.8065   2.8181   2.8324   2.8545   2.8717   2.8931
  2.8995   2.9083   2.9220   2.9294   2.9420   2.9696   2.9779   2.9895
  3.0122   3.0306   3.0383   3.0404   3.0557   3.0785   3.1012   3.1347
  3.1484   3.1716   3.1821   3.2044   3.2170   3.2307   3.2559   3.2751
  3.2920   3.3172   3.3303   3.3362   3.3522   3.3674   3.3982   3.4054
  3.4199   3.4315   3.4433   3.4480   3.4564   3.4903   3.5052   3.5270
  3.5395   3.5506   3.5658   3.5929   3.6048   3.6253   3.6567   3.6621
  3.6716   3.6858   3.7034   3.7196   3.7335   3.7512   3.7714   3.7777
  3.7782   3.8074   3.8167   3.8289   3.8459   3.8551   3.8703   3.8859
  3.9029   3.9187   3.9352   3.9504   3.9761   4.0012   4.0316   4.0409
  4.0810   4.0901   4.0936   4.0981   4.1429   4.1588   4.1748   4.2000
  4.2136   4.2322   4.2395   4.2518   4.2667   4.2932   4.3036   4.3314
  4.3400   4.3564   4.3671   4.4081   4.4117   4.4389   4.4607   4.4981
  4.5038   4.5175   4.5410   4.5933   4.6015   4.6058   4.6134   4.6595
  4.6676   4.6834   4.7208   4.7418   4.7497   4.7839   4.8015   4.8381
  4.8855   4.9055   4.9251   4.9457   4.9589   5.0482   5.0738   5.1000
  5.1040   5.1200   5.1483   5.1918   5.2031   5.2521   5.2753   5.2885
  5.2998   5.3160   5.3190   5.3234   5.3622   5.3783   5.4033   5.4199
  5.4329   5.4905   5.5025   5.5423   5.5703   5.5859   5.6002   5.6320
  5.6586   5.6710   5.6850   5.6991   5.7075   5.7600   5.7896   5.8507
  5.9210   5.9628   5.9878   6.0380   6.0405   6.0897   6.2445   6.4660
  6.4770   6.5990   6.6482   6.6630   6.8623   6.8914   6.9831   7.0990
  7.1041   7.1319   7.2099   7.2626   7.3134   7.3241   7.3287   7.3585
  7.3654   7.3964   7.4282   7.4369   7.6511   7.7096   7.7925   7.8173
  7.8311   8.0243   8.0913  24.3258  24.6122  24.7354  24.8191  24.8321
 25.2097  25.3541  50.4238  50.5524  50.5939  50.6391
 
 Beta MOs
 -- Occupied --
-19.4541 -19.3991 -19.3431 -19.3396 -10.4145 -10.4071 -10.3892 -10.3563
-10.3541 -10.3521 -10.3417  -1.3172  -1.1649  -1.1587  -1.0052  -0.9624
 -0.8804  -0.8677  -0.7979  -0.7424  -0.7125  -0.6533  -0.6450  -0.6305
 -0.6211  -0.5879  -0.5843  -0.5700  -0.5446  -0.5362  -0.5144  -0.5107
 -0.4949  -0.4692  -0.4630  -0.4348  -0.4178  -0.3979  -0.3903  -0.3867
 -0.3201
 -- Virtual --
 -0.0333   0.0239   0.0343   0.0374   0.0400   0.0406   0.0562   0.0592
  0.0633   0.0715   0.0850   0.0981   0.1105   0.1135   0.1207   0.1266
  0.1351   0.1375   0.1483   0.1502   0.1537   0.1574   0.1652   0.1664
  0.1688   0.1746   0.1788   0.1816   0.1874   0.1941   0.1995   0.2060
  0.2080   0.2190   0.2245   0.2255   0.2313   0.2404   0.2506   0.2568
  0.2738   0.2741   0.2815   0.2848   0.2887   0.3010   0.3020   0.3029
  0.3132   0.3209   0.3230   0.3299   0.3360   0.3478   0.3520   0.3581
  0.3645   0.3725   0.3777   0.3825   0.3881   0.3911   0.3962   0.4019
  0.4090   0.4097   0.4109   0.4254   0.4460   0.4523   0.4650   0.4695
  0.4888   0.4967   0.5274   0.5415   0.5553   0.5654   0.5827   0.5981
  0.6020   0.6131   0.6198   0.6328   0.6363   0.6409   0.6469   0.6575
  0.6627   0.6766   0.6857   0.6938   0.7024   0.7119   0.7169   0.7254
  0.7438   0.7516   0.7539   0.7631   0.7653   0.7814   0.7847   0.7996
  0.8098   0.8167   0.8323   0.8466   0.8477   0.8616   0.8809   0.8874
  0.9038   0.9252   0.9466   0.9621   0.9751   0.9954   1.0030   1.0282
  1.0468   1.0505   1.0599   1.0710   1.0804   1.0948   1.1043   1.1228
  1.1313   1.1508   1.1576   1.1610   1.1742   1.1898   1.1981   1.2137
  1.2193   1.2370   1.2412   1.2478   1.2596   1.2621   1.2756   1.2774
  1.2949   1.3045   1.3111   1.3177   1.3307   1.3455   1.3580   1.3658
  1.3699   1.4017   1.4059   1.4148   1.4316   1.4368   1.4539   1.4681
  1.4769   1.4935   1.4998   1.5249   1.5321   1.5378   1.5398   1.5577
  1.5606   1.5766   1.6051   1.6194   1.6231   1.6380   1.6600   1.6672
  1.6716   1.6785   1.6955   1.7145   1.7170   1.7421   1.7581   1.7687
  1.8041   1.8188   1.8320   1.8487   1.8577   1.9096   1.9317   1.9443
  1.9630   2.0066   2.0556   2.0625   2.1043   2.1368   2.1488   2.1691
  2.2431   2.2599   2.2699   2.3147   2.3517   2.3757   2.3950   2.4405
  2.4635   2.4701   2.5420   2.6458   2.6528   2.6701   2.6877   2.7270
  2.7428   2.7628   2.7835   2.8069   2.8184   2.8329   2.8548   2.8720
  2.8934   2.8997   2.9084   2.9221   2.9297   2.9421   2.9699   2.9780
  2.9899   3.0127   3.0308   3.0385   3.0409   3.0566   3.0793   3.1013
  3.1351   3.1490   3.1719   3.1824   3.2046   3.2175   3.2310   3.2563
  3.2754   3.2924   3.3174   3.3306   3.3366   3.3524   3.3677   3.3984
  3.4058   3.4205   3.4317   3.4437   3.4483   3.4565   3.4906   3.5055
  3.5272   3.5398   3.5512   3.5661   3.5931   3.6051   3.6256   3.6573
  3.6624   3.6720   3.6858   3.7034   3.7199   3.7336   3.7515   3.7716
  3.7779   3.7785   3.8077   3.8171   3.8291   3.8462   3.8552   3.8708
  3.8867   3.9035   3.9189   3.9353   3.9507   3.9764   4.0013   4.0320
  4.0413   4.0811   4.0906   4.0938   4.0985   4.1431   4.1590   4.1752
  4.2004   4.2143   4.2325   4.2397   4.2529   4.2673   4.2937   4.3042
  4.3316   4.3403   4.3565   4.3681   4.4083   4.4120   4.4399   4.4611
  4.4988   4.5042   4.5184   4.5417   4.5995   4.6043   4.6140   4.6269
  4.6621   4.6700   4.6856   4.7286   4.7441   4.7532   4.7858   4.8119
  4.8404   4.8932   4.9152   4.9262   4.9495   4.9717   5.0578   5.0961
  5.1164   5.1517   5.1613   5.1982   5.2150   5.2293   5.2750   5.2904
  5.3054   5.3092   5.3198   5.3315   5.3374   5.3647   5.3839   5.4144
  5.4334   5.4383   5.4916   5.5186   5.5430   5.5775   5.5888   5.6028
  5.6368   5.6590   5.6720   5.6872   5.7019   5.7090   5.7621   5.8004
  5.8676   5.9231   5.9637   5.9885   6.0394   6.0415   6.0901   6.2458
  6.4897   6.5133   6.6112   6.6482   6.6644   6.9457   6.9696   7.0452
  7.0992   7.1213   7.1579   7.2367   7.2914   7.3134   7.3261   7.3295
  7.3626   7.3783   7.4201   7.4412   7.4756   7.6511   7.7123   7.7926
  7.8208   7.8401   8.0365   8.1126  24.3258  24.6123  24.7352  24.8192
 24.8321  25.2097  25.3541  50.4360  50.5619  50.5939  50.6400
 --------------------------------------------------------------
 
          Ground-State Mulliken Net Atomic Charges

     Atom                 Charge (a.u.)    Spin (a.u.)
  --------------------------------------------------------
      1 C                     0.389605       0.005078
      2 C                    -0.407974       0.000108
      3 O                    -0.446749      -0.000021
      4 C                    -0.492951      -0.003471
      5 C                    -0.247363       0.008421
      6 O                    -0.424579       0.002367
      7 C                    -0.215817      -0.004164
      8 O                     0.068271       0.314127
      9 O                    -0.219195       0.666915
     10 C                     0.027727       0.017131
     11 C                    -0.536484      -0.007068
     12 H                     0.216155       0.000191
     13 H                     0.228688       0.000076
     14 H                     0.334080       0.000011
     15 H                     0.266309       0.000510
     16 H                     0.252736      -0.002447
     17 H                     0.338344       0.000079
     18 H                     0.318250      -0.000493
     19 H                     0.294680       0.000628
     20 H                     0.256266       0.002021
  --------------------------------------------------------
  Sum of atomic charges =    -0.000000
  Sum of spin   charges =     1.000000

 -----------------------------------------------------------------
                    Cartesian Multipole Moments
 -----------------------------------------------------------------
    Charge (ESU x 10^10)
                -0.0000
    Dipole Moment (Debye)
         X      -3.8466      Y      -0.5492      Z      -0.7579
       Tot       3.9589
    Quadrupole Moments (Debye-Ang)
        XX     -84.1044     XY      10.6099     YY     -61.1269
        XZ      -3.1307     YZ      -5.6354     ZZ     -64.2650
    Octopole Moments (Debye-Ang^2)
       XXX    -137.3382    XXY       3.6849    XYY      -2.5421
       YYY      17.7223    XXZ     -41.3276    XYZ       1.8684
       YYZ     -29.1677    XZZ     -52.4373    YZZ      11.5133
       ZZZ     -67.0882
    Hexadecapole Moments (Debye-Ang^3)
      XXXX   -2022.0985   XXXY     324.9763   XXYY    -380.3606
      XYYY     228.5021   YYYY    -431.6715   XXXZ     -57.2087
      XXYZ      30.8755   XYYZ      -9.8685   YYYZ      83.3960
      XXZZ    -366.8626   XYZZ      68.1632   YYZZ    -114.7507
      XZZZ     -23.3247   YZZZ      90.6620   ZZZZ    -455.6064
 -----------------------------------------------------------------
 Calculating analytic gradient of the SCF energy
 Gradient of CDS energy
            1           2           3           4           5           6
    1  -0.0000163  -0.0009589   0.0003254  -0.0001081   0.0002463  -0.0000885
    2   0.0000041   0.0002891  -0.0001153   0.0001924  -0.0000597  -0.0002093
    3  -0.0000624   0.0001040   0.0000914  -0.0000497  -0.0001300   0.0002110
            7           8           9          10          11          12
    1   0.0001885   0.0000250   0.0000607   0.0001124  -0.0001645   0.0001747
    2   0.0000265   0.0000572  -0.0000174  -0.0002581  -0.0001118   0.0000847
    3  -0.0000949   0.0000407  -0.0000385   0.0001583   0.0002802   0.0001577
           13          14          15          16          17          18
    1   0.0001427  -0.0002835  -0.0000830   0.0001253   0.0002056   0.0001631
    2  -0.0002236   0.0001559   0.0000704   0.0000463   0.0003322  -0.0001285
    3  -0.0000314  -0.0004202  -0.0000129   0.0001391  -0.0003355   0.0000920
           19          20
    1  -0.0001107   0.0000438
    2  -0.0000463  -0.0000888
    3   0.0001188  -0.0002176
 Gradient of SCF Energy
            1           2           3           4           5           6
    1  -0.0038693   0.0067107  -0.0038465   0.0121767  -0.0062238   0.0043394
    2  -0.0074206   0.0105177   0.0086961   0.0017623  -0.0054371  -0.0165254
    3   0.0048997  -0.0112523   0.0157531  -0.0009626  -0.0036370  -0.0004567
            7           8           9          10          11          12
    1   0.0090995  -0.0003319   0.0006958  -0.0015421  -0.0034771  -0.0006472
    2   0.0039129  -0.0007862   0.0009924   0.0051548   0.0021467  -0.0011240
    3   0.0104828  -0.0037117   0.0033813  -0.0101436   0.0007933   0.0071200
           13          14          15          16          17          18
    1  -0.0040120   0.0022134  -0.0021237   0.0007276  -0.0024597   0.0013396
    2  -0.0078954  -0.0067350   0.0065793   0.0041674   0.0157755  -0.0056600
    3  -0.0005965  -0.0139462  -0.0061475   0.0019803  -0.0013987   0.0035729
           19          20
    1  -0.0067786  -0.0019907
    2  -0.0040214  -0.0041000
    3   0.0076901  -0.0034207
 Max gradient component =       1.653E-02
 RMS gradient           =       6.540E-03
 Computing fast CPCM-SWIG gradient
 Updating gradient with PCM contributions...
 -- total gradient after adding PCM contribution --
---------------------------------------------------
  Atom         X              Y              Z     
---------------------------------------------------
   1       0.000434      -0.001059       0.000721
   2      -0.000068       0.000341       0.000237
   3      -0.000106       0.000403      -0.000102
   4       0.000340       0.000357      -0.000148
   5      -0.000254       0.000228      -0.000387
   6      -0.000050      -0.000178       0.000196
   7      -0.000508      -0.000694       0.000401
   8      -0.000753      -0.000991      -0.001893
   9       0.001027       0.001015       0.002208
  10      -0.000277       0.000016       0.000075
  11       0.000646       0.000058      -0.000707
  12       0.000053      -0.000171       0.000244
  13       0.000067       0.000015       0.000172
  14      -0.000100      -0.000073      -0.000799
  15      -0.000184      -0.000166       0.000139
  16      -0.000143      -0.000133       0.000109
  17       0.000042       0.000703      -0.000354
  18      -0.000081       0.000092      -0.000028
  19       0.000124       0.000053      -0.000051
  20      -0.000208       0.000181      -0.000029
---------------------------------------------------
 Number of fixed atoms: 0
 Gradient time:  CPU 462.25 s  wall 66.61 s
 Geometry Optimization Parameters
   NAtoms,    NIC,     NZ,  NCons,   NDum,   NFix, NCnnct, MaxDiis
       20     141       0       0       0       0       0       0

 Cartesian Hessian Update
 Hessian updated using BFGS update


** GEOMETRY OPTIMIZATION IN DELOCALIZED INTERNAL COORDINATES **
   Searching for a Minimum

   Optimization Cycle:   2

                       Coordinates (Angstroms)
     ATOM                X               Y               Z
      1  C        -0.9417487615    0.0890411521    0.6284456586
      2  C        -2.4042174063    0.3973268135    0.7806404885
      3  O        -2.8767192753    1.4183608979   -0.0836277969
      4  C        -0.1302336106    0.7393780733   -0.2012803024
      5  C         1.3428601906    0.4399407407   -0.2549688395
      6  O         1.8979214924    0.6588876073   -1.5484291736
      7  C         1.6180120605   -1.0038489784    0.1086031849
      8  O         3.0494584276   -1.1813753022    0.3612818911
      9  O         3.4285228497   -0.6202067641    1.4773311863
     10  C         0.8057262962   -1.4884048524    1.2674247176
     11  C        -0.4052310193   -0.9869191982    1.4795700460
     12  H        -2.5945371106    0.7372521471    1.8002530452
     13  H        -2.9790721817   -0.5232006012    0.6417203015
     14  H        -2.7992911180    1.1058484075   -0.9926496298
     15  H        -0.4811448151    1.5638065366   -0.8087867165
     16  H         1.8559379835    1.0764455792    0.4767987054
     17  H         1.8599383034    1.6032057689   -1.7398248734
     18  H         1.2055068017   -2.3041804876    1.8539809488
     19  H        -1.0317018770   -1.3792851904    2.2707854517
     20  H         1.4610350697   -1.6398954493   -0.7664657936
   Point Group: c1    Number of degrees of freedom:    54


   Energy is   -572.893055848

 Hessian updated using BFGS update

 54 Hessian modes will be used to form the next step
  Hessian Eigenvalues:
     0.006956    0.007986    0.009354    0.012434    0.013165    0.013387
     0.015529    0.017948    0.018381    0.021421    0.023979    0.043750
     0.049542    0.056480    0.058700    0.063155    0.073884    0.074370
     0.081397    0.119375    0.136942    0.142630    0.158344    0.159071
     0.159956    0.159997    0.165719    0.167810    0.201681    0.208894
     0.220018    0.232752    0.243497    0.254182    0.291821    0.305196
     0.314443    0.316142    0.334180    0.336940    0.339306    0.340288
     0.345037    0.350935    0.351939    0.356098    0.362766    0.418319
     0.427385    0.511324    0.531215    0.549447    0.577947    0.630426

 Minimum search - taking simple RFO step
 Searching for Lamda that Minimizes Along All modes
 Value Taken    Lamda =  -0.00005737
 Step Taken.  Stepsize is  0.050608

                             Maximum     Tolerance    Cnvgd?
         Gradient           0.001177      0.000300      NO
         Displacement       0.021885      0.001200      NO
         Energy change     -0.000632      0.000001      NO


 New Cartesian Coordinates Obtained by Inverse Iteration

 Displacement from previous Coordinates is:  0.103246
 ----------------------------------------------------------------
             Standard Nuclear Orientation (Angstroms)
    I     Atom           X                Y                Z
 ----------------------------------------------------------------
    1      C      -0.9429820528     0.0883575723     0.6257688178
    2      C      -2.4055619719     0.3923007000     0.7794939463
    3      O      -2.8770955615     1.4279851324    -0.0658773697
    4      C      -0.1306166946     0.7376546807    -0.2036574697
    5      C       1.3430078911     0.4377926168    -0.2570881152
    6      O       1.8963109909     0.6487176594    -1.5523184540
    7      C       1.6204713785    -1.0031604372     0.1107906382
    8      O       3.0512875235    -1.1757822208     0.3672757787
    9      O       3.4232526448    -0.6080056675     1.4794523064
   10      C       0.8058574849    -1.4866491825     1.2688535314
   11      C      -0.4067635441    -0.9871293477     1.4785521538
   12      H      -2.5985587478     0.7166308650     1.8031827667
   13      H      -2.9797622668    -0.5257445379     0.6236163504
   14      H      -2.7944631179     1.1327269249    -0.9790223186
   15      H      -0.4794352540     1.5614972126    -0.8131699074
   16      H       1.8576819597     1.0787664518     0.4694598668
   17      H       1.8584225562     1.5911966548    -1.7474176091
   18      H       1.2057493122    -2.3013870754     1.8567004099
   19      H      -1.0344795714    -1.3803394843     2.2683313788
   20      H       1.4686993408    -1.6432516172    -0.7621242018
 ----------------------------------------------------------------
 Nuclear Repulsion Energy =         622.84319255 hartrees
 There are       42 alpha and       41 beta electrons
 Discretize the solute cavity surface with Lebedev spheres
	Using 110 Lebedev grid points for each H atom
	Using 194 Lebedev grid points for other atoms
	Atomic van der Waals radii will be scaled by 1.20
 Remove points where switching function is < 1.0e-08
 Keep 1503 surface tesserae and discard 1621 interior tesserae
 Molecular Surface Area = 173.637 Angst**2
 Applying Cartesian multipole field
    Component          Value
    ---------          -----
     (2,0,0)        1.00000E-11
     (0,2,0)        2.00000E-11
     (0,0,2)       -3.00000E-11
 Nucleus-field energy     =     0.0000000100 hartrees
 Requested basis set is 6-311++G(2df,2p)
 There are 142 shells and 464 basis functions
 A cutoff of  1.0D-12 yielded   8821 shell pairs
 There are     93337 function pairs (    115907 Cartesian)
 Smallest overlap matrix eigenvalue = 1.86E-06
 Guess MOs from SCF MO coefficient file

 -----------------------------------------------------------------------
  General SCF calculation program by
  Eric Jon Sundstrom, Paul Horn, Yuezhi Mao, Dmitri Zuev, Alec White,
  David Stuck, Shaama M.S., Shane Yost, Joonho Lee, David Small,
  Daniel Levine, Susi Lehtola, Hugh Burton, Evgeny Epifanovsky,
  Bang C. Huynh
 -----------------------------------------------------------------------
 Exchange:     0.1500 Hartree-Fock + 1.0000 wB97M-V + LR-HF
 Correlation:  1.0000 wB97M-V
 Using SG-2 standard quadrature grid
 Nonlocal Correlation:  VV10 with C = 0.0100 and b = 6.00 and scale = 1.00000
 Grid used for NLC:  SG-1 standard quadrature
 
 Citation of the SMD model:
 Marenich, A.V.; Cramer, C.J.; Truhlar, D.G.
 J. Phys. Chem. B 2009, 113, 6378-6396.
 iSolventCode=           1
 Solvent: water                                                           
 
 vradii
            1           2           3           4           5           6
    1   1.8500000   1.8500000   1.5200000   1.8500000   1.8500000   1.5200000
            7           8           9          10          11          12
    1   1.8500000   1.5200000   1.5200000   1.8500000   1.8500000   1.2000000
           13          14          15          16          17          18
    1   1.2000000   1.2000000   1.2000000   1.2000000   1.2000000   1.2000000
           19          20
    1   1.2000000   1.2000000
 -------------------------------------------------------
 OpenMP BLAS3 based DFT computing Module                
 Release: version 1.0, May 2013, Q-Chem Inc. Pittsburgh 
 -------------------------------------------------------
 A unrestricted SCF calculation will be
 performed using Roothaan-Hall, DIIS, GDM
 SCF converges when RMS gradient is below 1.0e-07
 ---------------------------------------
  Cycle       Energy         DIIS error
 ---------------------------------------
    1    -572.8619121529      1.77e-04  Roothaan Step
 ---------------------------------------
  Cycle       Energy         DIIS error
 ---------------------------------------
    1    -572.8924365327      1.83e-04  
    2    -572.8964380264      1.43e-04  Done DIIS. Switching to GDM
 ---------------------------------------
  Cycle       Energy        RMS Gradient
 ---------------------------------------
    1    -572.8964380264      5.49e-03   Normal BFGS step
    2    -572.8963664142      1.01e-02  Line search: overstep
    3    -572.8978596793      2.23e-03   Normal BFGS step
    4    -572.8979815620      8.54e-04   Normal BFGS step
    5    -572.8980002326      1.43e-03   Normal BFGS step
    6    -572.8980098059      1.33e-04   Normal BFGS step
    7    -572.8980106528      1.57e-04   Normal BFGS step
    8    -572.8980109357      1.18e-04   Normal BFGS step
    9    -572.8980110435      4.48e-05   Normal BFGS step
   10    -572.8980110603      1.85e-05   Normal BFGS step
   11    -572.8980110638      1.69e-05   Normal BFGS step
   12    -572.8980110646      1.47e-05   Normal BFGS step
   13    -572.8980110654      1.03e-05   Normal BFGS step
   14    -572.8980110660      5.14e-06   Normal BFGS step
   15    -572.8980110663      1.97e-06   Normal BFGS step
   16    -572.8980110664      1.09e-06   Normal BFGS step
   17    -572.8980110664      3.27e-07   Normal BFGS step
   18    -572.8980110664      3.08e-07   Normal BFGS step
   19    -572.8980110664      1.61e-07   Normal BFGS step
  GDM::WARNING energy changes are now smaller than effective accuracy.
  GDM::        calculation will continue, but THRESH should be increased
  GDM::        or SCF_CONVERGENCE decreased. 
  GDM::        effective_thresh = 5.23e-09
   20    -572.8980110663      1.47e-07   Normal BFGS step
   21    -572.8980110664      7.47e-08  Convergence criterion met
 ---------------------------------------
 SCF time:   CPU 3331.55s  wall 424.00s 
<S^2> =          0.754053118
(3)  G-ENP(liq) elect-nuc-pol free energy of system     -572.898011066 a.u.
(4)  G-CDS(liq) cavity-dispersion-solvent structure 
     free energy                                                3.0899 kcal/mol
(6)  G-S(liq) free energy of system                     -572.893086929 a.u.
 SCF   energy in the final basis set =     -572.8930869286
 Total energy in the final basis set =     -572.8930869286
 
 --------------------------------------------------------------
 
                    Orbital Energies (a.u.)
 --------------------------------------------------------------
 
 Alpha MOs
 -- Occupied --
-19.4647 -19.4173 -19.3430 -19.3395 -10.4138 -10.4073 -10.3890 -10.3564
-10.3544 -10.3521 -10.3418  -1.3452  -1.1656  -1.1593  -1.0264  -0.9725
 -0.8845  -0.8703  -0.8017  -0.7462  -0.7165  -0.6575  -0.6524  -0.6369
 -0.6322  -0.6132  -0.5955  -0.5755  -0.5546  -0.5385  -0.5345  -0.5150
 -0.4981  -0.4739  -0.4656  -0.4459  -0.4186  -0.4069  -0.3985  -0.3920
 -0.3888  -0.3202
 -- Virtual --
  0.0238   0.0335   0.0371   0.0397   0.0403   0.0560   0.0589   0.0631
  0.0712   0.0851   0.0973   0.1100   0.1128   0.1205   0.1262   0.1345
  0.1365   0.1481   0.1496   0.1533   0.1564   0.1652   0.1662   0.1684
  0.1739   0.1774   0.1814   0.1871   0.1940   0.1992   0.2041   0.2060
  0.2186   0.2234   0.2247   0.2306   0.2389   0.2503   0.2562   0.2673
  0.2731   0.2801   0.2846   0.2878   0.3002   0.3004   0.3024   0.3117
  0.3204   0.3217   0.3287   0.3350   0.3463   0.3498   0.3577   0.3618
  0.3716   0.3754   0.3818   0.3880   0.3907   0.3955   0.4010   0.4079
  0.4092   0.4102   0.4250   0.4452   0.4513   0.4638   0.4689   0.4881
  0.4959   0.5271   0.5401   0.5545   0.5651   0.5827   0.5981   0.6016
  0.6118   0.6205   0.6327   0.6363   0.6412   0.6467   0.6571   0.6625
  0.6771   0.6857   0.6933   0.7024   0.7123   0.7169   0.7252   0.7431
  0.7512   0.7534   0.7630   0.7650   0.7806   0.7846   0.7993   0.8094
  0.8155   0.8319   0.8462   0.8477   0.8615   0.8812   0.8869   0.9035
  0.9245   0.9473   0.9611   0.9748   0.9940   1.0020   1.0277   1.0429
  1.0493   1.0593   1.0704   1.0785   1.0938   1.1028   1.1231   1.1272
  1.1472   1.1572   1.1586   1.1710   1.1882   1.1908   1.2098   1.2125
  1.2232   1.2391   1.2461   1.2548   1.2580   1.2713   1.2750   1.2862
  1.3026   1.3078   1.3168   1.3300   1.3451   1.3570   1.3647   1.3688
  1.4013   1.4041   1.4141   1.4305   1.4355   1.4520   1.4658   1.4751
  1.4916   1.4998   1.5239   1.5299   1.5362   1.5372   1.5540   1.5600
  1.5756   1.6042   1.6142   1.6175   1.6359   1.6578   1.6622   1.6657
  1.6759   1.6926   1.7084   1.7112   1.7335   1.7471   1.7675   1.8011
  1.8139   1.8300   1.8460   1.8503   1.9069   1.9281   1.9439   1.9628
  2.0051   2.0516   2.0607   2.1011   2.1354   2.1435   2.1667   2.2410
  2.2555   2.2674   2.3045   2.3375   2.3750   2.3948   2.4392   2.4603
  2.4677   2.5428   2.6446   2.6484   2.6692   2.6862   2.7260   2.7411
  2.7610   2.7838   2.8071   2.8187   2.8327   2.8544   2.8721   2.8939
  2.8996   2.9085   2.9210   2.9296   2.9416   2.9700   2.9783   2.9908
  3.0122   3.0312   3.0388   3.0400   3.0554   3.0799   3.1008   3.1348
  3.1484   3.1717   3.1824   3.2034   3.2170   3.2309   3.2556   3.2758
  3.2920   3.3180   3.3302   3.3365   3.3516   3.3692   3.3986   3.4055
  3.4194   3.4317   3.4422   3.4486   3.4562   3.4908   3.5046   3.5280
  3.5401   3.5499   3.5666   3.5931   3.6052   3.6255   3.6569   3.6627
  3.6718   3.6854   3.7026   3.7185   3.7339   3.7512   3.7718   3.7772
  3.7784   3.8070   3.8171   3.8288   3.8457   3.8550   3.8708   3.8871
  3.9033   3.9195   3.9348   3.9503   3.9758   4.0029   4.0317   4.0405
  4.0810   4.0904   4.0943   4.0980   4.1437   4.1581   4.1766   4.2009
  4.2131   4.2337   4.2400   4.2527   4.2687   4.2923   4.3048   4.3317
  4.3407   4.3561   4.3672   4.4082   4.4118   4.4398   4.4607   4.4976
  4.5042   4.5170   4.5402   4.5941   4.6015   4.6060   4.6144   4.6593
  4.6677   4.6824   4.7205   4.7422   4.7504   4.7843   4.8031   4.8398
  4.8866   4.9077   4.9245   4.9454   4.9584   5.0483   5.0741   5.1006
  5.1047   5.1206   5.1489   5.1921   5.2040   5.2532   5.2763   5.2890
  5.3003   5.3167   5.3194   5.3240   5.3629   5.3778   5.4034   5.4211
  5.4325   5.4927   5.5051   5.5428   5.5712   5.5868   5.6019   5.6327
  5.6606   5.6721   5.6878   5.7014   5.7085   5.7602   5.7929   5.8523
  5.9234   5.9645   5.9898   6.0398   6.0424   6.0913   6.2444   6.4742
  6.4800   6.6073   6.6521   6.6636   6.8635   6.8927   6.9856   7.0988
  7.1060   7.1330   7.2135   7.2640   7.3195   7.3278   7.3300   7.3606
  7.3665   7.3978   7.4285   7.4376   7.6506   7.7095   7.7931   7.8174
  7.8316   8.0266   8.0977  24.3256  24.6127  24.7357  24.8217  24.8352
 25.2086  25.3533  50.4267  50.5541  50.5952  50.6403
 
 Beta MOs
 -- Occupied --
-19.4542 -19.3988 -19.3430 -19.3395 -10.4142 -10.4069 -10.3890 -10.3564
-10.3541 -10.3522 -10.3419  -1.3189  -1.1653  -1.1593  -1.0051  -0.9623
 -0.8802  -0.8678  -0.7981  -0.7424  -0.7126  -0.6537  -0.6452  -0.6308
 -0.6212  -0.5884  -0.5847  -0.5702  -0.5444  -0.5360  -0.5149  -0.5109
 -0.4947  -0.4696  -0.4631  -0.4349  -0.4178  -0.3979  -0.3902  -0.3864
 -0.3202
 -- Virtual --
 -0.0328   0.0239   0.0342   0.0375   0.0401   0.0406   0.0561   0.0592
  0.0633   0.0714   0.0852   0.0982   0.1106   0.1133   0.1210   0.1265
  0.1351   0.1377   0.1483   0.1502   0.1536   0.1572   0.1653   0.1665
  0.1689   0.1746   0.1788   0.1816   0.1874   0.1943   0.1996   0.2061
  0.2082   0.2192   0.2246   0.2258   0.2314   0.2406   0.2508   0.2566
  0.2739   0.2748   0.2816   0.2847   0.2887   0.3009   0.3022   0.3028
  0.3138   0.3212   0.3232   0.3299   0.3361   0.3475   0.3523   0.3581
  0.3648   0.3722   0.3778   0.3824   0.3885   0.3913   0.3963   0.4019
  0.4090   0.4098   0.4111   0.4255   0.4458   0.4523   0.4653   0.4697
  0.4888   0.4966   0.5277   0.5407   0.5549   0.5655   0.5834   0.5984
  0.6019   0.6122   0.6207   0.6328   0.6365   0.6412   0.6469   0.6575
  0.6628   0.6774   0.6859   0.6937   0.7024   0.7123   0.7172   0.7253
  0.7437   0.7516   0.7536   0.7632   0.7657   0.7810   0.7847   0.8000
  0.8096   0.8160   0.8322   0.8467   0.8478   0.8617   0.8816   0.8873
  0.9038   0.9260   0.9475   0.9619   0.9751   0.9955   1.0021   1.0285
  1.0463   1.0504   1.0599   1.0715   1.0811   1.0946   1.1049   1.1238
  1.1313   1.1508   1.1582   1.1618   1.1738   1.1900   1.1981   1.2134
  1.2197   1.2369   1.2417   1.2484   1.2589   1.2619   1.2748   1.2780
  1.2947   1.3044   1.3095   1.3174   1.3310   1.3462   1.3583   1.3660
  1.3704   1.4019   1.4062   1.4150   1.4319   1.4367   1.4545   1.4682
  1.4767   1.4933   1.5006   1.5249   1.5318   1.5383   1.5398   1.5585
  1.5605   1.5771   1.6053   1.6192   1.6231   1.6381   1.6599   1.6673
  1.6721   1.6780   1.6958   1.7153   1.7173   1.7436   1.7585   1.7704
  1.8047   1.8200   1.8326   1.8478   1.8580   1.9105   1.9324   1.9457
  1.9641   2.0062   2.0558   2.0630   2.1042   2.1367   2.1504   2.1692
  2.2430   2.2610   2.2712   2.3161   2.3537   2.3753   2.3962   2.4409
  2.4636   2.4700   2.5431   2.6457   2.6521   2.6715   2.6866   2.7275
  2.7415   2.7636   2.7841   2.8075   2.8190   2.8332   2.8547   2.8724
  2.8942   2.8998   2.9087   2.9212   2.9299   2.9416   2.9704   2.9784
  2.9912   3.0127   3.0314   3.0391   3.0405   3.0564   3.0806   3.1009
  3.1352   3.1490   3.1719   3.1827   3.2036   3.2174   3.2313   3.2560
  3.2761   3.2924   3.3182   3.3305   3.3369   3.3518   3.3695   3.3987
  3.4059   3.4200   3.4318   3.4425   3.4488   3.4564   3.4912   3.5049
  3.5282   3.5404   3.5505   3.5668   3.5933   3.6055   3.6259   3.6575
  3.6630   3.6722   3.6855   3.7026   3.7188   3.7340   3.7515   3.7721
  3.7774   3.7786   3.8073   3.8175   3.8290   3.8459   3.8552   3.8713
  3.8879   3.9039   3.9197   3.9349   3.9506   3.9762   4.0029   4.0320
  4.0409   4.0812   4.0909   4.0946   4.0984   4.1439   4.1584   4.1771
  4.2013   4.2139   4.2340   4.2403   4.2538   4.2693   4.2928   4.3055
  4.3319   4.3411   4.3563   4.3682   4.4083   4.4121   4.4409   4.4611
  4.4982   4.5046   4.5180   4.5409   4.6004   4.6039   4.6147   4.6274
  4.6622   4.6699   4.6847   4.7284   4.7445   4.7539   4.7861   4.8136
  4.8421   4.8944   4.9174   4.9256   4.9491   4.9709   5.0580   5.0962
  5.1182   5.1517   5.1612   5.1988   5.2156   5.2298   5.2760   5.2909
  5.3058   5.3095   5.3202   5.3329   5.3380   5.3652   5.3836   5.4144
  5.4333   5.4394   5.4938   5.5209   5.5435   5.5784   5.5897   5.6046
  5.6378   5.6610   5.6732   5.6898   5.7041   5.7100   5.7622   5.8040
  5.8694   5.9254   5.9654   5.9905   6.0411   6.0435   6.0917   6.2456
  6.4916   6.5229   6.6195   6.6521   6.6650   6.9467   6.9707   7.0476
  7.0989   7.1225   7.1599   7.2404   7.2935   7.3195   7.3288   7.3313
  7.3635   7.3805   7.4213   7.4422   7.4757   7.6506   7.7123   7.7932
  7.8211   7.8404   8.0388   8.1190  24.3257  24.6127  24.7355  24.8219
 24.8352  25.2086  25.3534  50.4389  50.5636  50.5953  50.6411
 --------------------------------------------------------------
 
          Ground-State Mulliken Net Atomic Charges

     Atom                 Charge (a.u.)    Spin (a.u.)
  --------------------------------------------------------
      1 C                     0.387708       0.005012
      2 C                    -0.408329       0.000084
      3 O                    -0.446497      -0.000021
      4 C                    -0.498237      -0.003427
      5 C                    -0.250323       0.008264
      6 O                    -0.423332       0.002390
      7 C                    -0.212763      -0.004010
      8 O                     0.070132       0.314932
      9 O                    -0.219967       0.666048
     10 C                     0.027158       0.017227
     11 C                    -0.529237      -0.007092
     12 H                     0.215812       0.000192
     13 H                     0.229632       0.000078
     14 H                     0.333822       0.000011
     15 H                     0.265535       0.000507
     16 H                     0.252208      -0.002462
     17 H                     0.337891       0.000076
     18 H                     0.318443      -0.000468
     19 H                     0.294782       0.000626
     20 H                     0.255564       0.002033
  --------------------------------------------------------
  Sum of atomic charges =     0.000000
  Sum of spin   charges =     1.000000

 -----------------------------------------------------------------
                    Cartesian Multipole Moments
 -----------------------------------------------------------------
    Charge (ESU x 10^10)
                 0.0000
    Dipole Moment (Debye)
         X      -3.8221      Y      -0.5505      Z      -0.8102
       Tot       3.9456
    Quadrupole Moments (Debye-Ang)
        XX     -84.0377     XY      10.5222     YY     -61.1365
        XZ      -3.0878     YZ      -5.8153     ZZ     -64.3098
    Octopole Moments (Debye-Ang^2)
       XXX    -136.7800    XXY       3.4152    XYY      -2.4727
       YYY      17.3673    XXZ     -41.7433    XYZ       2.0967
       YYZ     -29.4847    XZZ     -52.2981    YZZ      11.5365
       ZZZ     -67.3554
    Hexadecapole Moments (Debye-Ang^3)
      XXXX   -2020.7477   XXXY     323.5933   XXYY    -379.7855
      XYYY     227.8818   YYYY    -431.3828   XXXZ     -56.3033
      XXYZ      29.3815   XYYZ      -8.7589   YYYZ      82.5144
      XXZZ    -367.3275   XYZZ      68.0795   YYZZ    -114.6321
      XZZZ     -23.2511   YZZZ      89.7306   ZZZZ    -456.1821
 -----------------------------------------------------------------
 Calculating analytic gradient of the SCF energy
 Gradient of CDS energy
            1           2           3           4           5           6
    1  -0.0000165  -0.0009899   0.0003536  -0.0001122   0.0002463  -0.0000879
    2  -0.0000000   0.0003528  -0.0001838   0.0001949  -0.0000606  -0.0002085
    3  -0.0000633   0.0000416   0.0001483  -0.0000497  -0.0001287   0.0002128
            7           8           9          10          11          12
    1   0.0001858   0.0000246   0.0000609   0.0001127  -0.0001646   0.0001726
    2   0.0000275   0.0000571  -0.0000173  -0.0002578  -0.0001133   0.0000829
    3  -0.0000969   0.0000402  -0.0000386   0.0001591   0.0002803   0.0001578
           13          14          15          16          17          18
    1   0.0001451  -0.0002814  -0.0000808   0.0001259   0.0002053   0.0001631
    2  -0.0002245   0.0001671   0.0000694   0.0000471   0.0003306  -0.0001283
    3  -0.0000300  -0.0004175  -0.0000116   0.0001380  -0.0003377   0.0000924
           19          20
    1  -0.0001105   0.0000479
    2  -0.0000445  -0.0000907
    3   0.0001194  -0.0002158
 Gradient of SCF Energy
            1           2           3           4           5           6
    1  -0.0040671   0.0066583  -0.0036901   0.0120824  -0.0058408   0.0043288
    2  -0.0068025   0.0101955   0.0078923   0.0016615  -0.0056434  -0.0161267
    3   0.0045990  -0.0114648   0.0159432  -0.0007418  -0.0032291  -0.0003101
            7           8           9          10          11          12
    1   0.0096747   0.0002696  -0.0004515  -0.0013565  -0.0043627  -0.0007633
    2   0.0047060  -0.0000039   0.0000897   0.0052338   0.0020522  -0.0009422
    3   0.0100928  -0.0023232   0.0013531  -0.0102254   0.0011134   0.0066155
           13          14          15          16          17          18
    1  -0.0040139   0.0023862  -0.0020749   0.0008616  -0.0025214   0.0013680
    2  -0.0077214  -0.0063635   0.0066414   0.0042451   0.0147667  -0.0055977
    3  -0.0008000  -0.0129019  -0.0063186   0.0018175  -0.0010320   0.0034946
           19          20
    1  -0.0068120  -0.0016753
    2  -0.0040369  -0.0042460
    3   0.0076202  -0.0033023
 Max gradient component =       1.613E-02
 RMS gradient           =       6.390E-03
 Computing fast CPCM-SWIG gradient
 Updating gradient with PCM contributions...
 -- total gradient after adding PCM contribution --
---------------------------------------------------
  Atom         X              Y              Z     
---------------------------------------------------
   1       0.000197      -0.000345       0.000167
   2      -0.000113      -0.000094      -0.000153
   3       0.000104      -0.000172      -0.000084
   4       0.000099       0.000191       0.000012
   5       0.000047       0.000133      -0.000059
   6      -0.000037       0.000248       0.000274
   7       0.000074       0.000005       0.000093
   8      -0.000124      -0.000173      -0.000463
   9      -0.000133       0.000097       0.000118
  10      -0.000092       0.000118       0.000006
  11      -0.000002       0.000066      -0.000233
  12      -0.000049       0.000129      -0.000210
  13       0.000070       0.000149       0.000121
  14      -0.000020       0.000069       0.000375
  15      -0.000057      -0.000218       0.000089
  16      -0.000032      -0.000085      -0.000016
  17      -0.000019      -0.000340       0.000081
  18      -0.000059       0.000137      -0.000096
  19       0.000083       0.000031      -0.000078
  20       0.000065       0.000054       0.000058
---------------------------------------------------
 Number of fixed atoms: 0
 Gradient time:  CPU 465.16 s  wall 66.96 s
 Geometry Optimization Parameters
   NAtoms,    NIC,     NZ,  NCons,   NDum,   NFix, NCnnct, MaxDiis
       20     141       0       0       0       0       0       0

 Cartesian Hessian Update
 Hessian updated using BFGS update


** GEOMETRY OPTIMIZATION IN DELOCALIZED INTERNAL COORDINATES **
[...]
    1   0.0001393  -0.0002849  -0.0000793   0.0001256   0.0002042   0.0001626
    2  -0.0002228   0.0001727   0.0000691   0.0000486   0.0003276  -0.0001290
    3  -0.0000489  -0.0004124  -0.0000096   0.0001362  -0.0003410   0.0000933
           19          20
    1  -0.0001107   0.0000505
    2  -0.0000427  -0.0000910
    3   0.0001200  -0.0002148
 Gradient of SCF Energy
            1           2           3           4           5           6
    1  -0.0042970   0.0068070  -0.0037505   0.0120723  -0.0057416   0.0042100
    2  -0.0065055   0.0104418   0.0078287   0.0015235  -0.0059319  -0.0164232
    3   0.0046836  -0.0110745   0.0162755  -0.0006667  -0.0031254  -0.0005104
            7           8           9          10          11          12
    1   0.0095391   0.0003930  -0.0003297  -0.0012813  -0.0045466  -0.0007086
    2   0.0048746   0.0000791   0.0000159   0.0050745   0.0018518  -0.0012914
    3   0.0098470  -0.0019262   0.0013182  -0.0101778   0.0011319   0.0068115
           13          14          15          16          17          18
    1  -0.0041100   0.0023987  -0.0020414   0.0009415  -0.0024327   0.0014441
    2  -0.0078179  -0.0061270   0.0069881   0.0043743   0.0152070  -0.0057650
    3  -0.0011374  -0.0134768  -0.0064398   0.0017854  -0.0011849   0.0035640
           19          20
    1  -0.0069022  -0.0016638
    2  -0.0040820  -0.0043156
    3   0.0076325  -0.0033296
 Max gradient component =       1.642E-02
 RMS gradient           =       6.456E-03
 Computing fast CPCM-SWIG gradient
 Updating gradient with PCM contributions...
 -- total gradient after adding PCM contribution --
---------------------------------------------------
  Atom         X              Y              Z     
---------------------------------------------------
   1      -0.000009       0.000025       0.000006
   2       0.000027       0.000001       0.000028
   3      -0.000019       0.000022       0.000032
   4      -0.000027      -0.000031       0.000003
   5       0.000008       0.000012       0.000003
   6       0.000013      -0.000010       0.000003
   7      -0.000021      -0.000001      -0.000013
   8      -0.000005      -0.000050      -0.000083
   9       0.000011       0.000023       0.000049
  10      -0.000016      -0.000007       0.000001
  11       0.000036      -0.000023       0.000001
  12       0.000008      -0.000026       0.000022
  13      -0.000008      -0.000004      -0.000009
  14       0.000003       0.000011      -0.000018
  15       0.000012       0.000022       0.000010
  16       0.000002      -0.000006       0.000008
  17      -0.000018       0.000045      -0.000006
  18       0.000008      -0.000007      -0.000015
  19      -0.000001      -0.000005      -0.000005
  20      -0.000002       0.000011      -0.000015
---------------------------------------------------
 Number of fixed atoms: 0
 Gradient time:  CPU 441.34 s  wall 62.90 s
 Geometry Optimization Parameters
   NAtoms,    NIC,     NZ,  NCons,   NDum,   NFix, NCnnct, MaxDiis
       20     141       0       0       0       0       0       0

 Cartesian Hessian Update
 Hessian updated using BFGS update


** GEOMETRY OPTIMIZATION IN DELOCALIZED INTERNAL COORDINATES **
   Searching for a Minimum

   Optimization Cycle:   7

                       Coordinates (Angstroms)
     ATOM                X               Y               Z
      1  C        -0.9436581337    0.0860394391    0.6234710336
      2  C        -2.4056802964    0.3902049849    0.7805805413
      3  O        -2.8737847661    1.4452939148   -0.0428781804
      4  C        -0.1316597216    0.7348064439   -0.2066019563
      5  C         1.3415439045    0.4335822348   -0.2649963011
      6  O         1.8868343179    0.6330994534   -1.5664206153
      7  C         1.6258658808   -1.0033300086    0.1154062341
      8  O         3.0564473070   -1.1629020049    0.3872790507
      9  O         3.4140570656   -0.5849732868    1.4986751960
     10  C         0.8056876349   -1.4898680213    1.2682546238
     11  C        -0.4084578730   -0.9923546872    1.4743320918
     12  H        -2.5999091882    0.6904718219    1.8115391260
     13  H        -2.9811320352   -0.5233354863    0.6020676084
     14  H        -2.7926376056    1.1696326153   -0.9626230012
     15  H        -0.4786145655    1.5625807519   -0.8124799326
     16  H         1.8595916080    1.0833454942    0.4512619328
     17  H         1.8534259002    1.5750753880   -1.7666839295
     18  H         1.2037628140   -2.3063723506    1.8553830285
     19  H        -1.0390528941   -1.3888852290    2.2603867800
     20  H         1.4883929464   -1.6499345671   -0.7551508307
   Point Group: c1    Number of degrees of freedom:    54


   Energy is   -572.893098204

 Hessian updated using BFGS update

 54 Hessian modes will be used to form the next step
  Hessian Eigenvalues:
     0.001920    0.005645    0.006968    0.011821    0.013090    0.013394
     0.015445    0.017854    0.018410    0.021419    0.023943    0.044209
     0.049652    0.057244    0.060013    0.063780    0.074001    0.075124
     0.081579    0.121065    0.137171    0.143403    0.155541    0.159006
     0.159978    0.160098    0.167465    0.169739    0.202946    0.212216
     0.218525    0.232598    0.238954    0.288074    0.302536    0.305897
     0.313169    0.316452    0.334393    0.337181    0.338903    0.340610
     0.345904    0.350961    0.351771    0.359320    0.374431    0.419026
     0.446287    0.531211    0.543113    0.549195    0.587387    0.651022

 Minimum search - taking simple RFO step
 Searching for Lamda that Minimizes Along All modes
 Value Taken    Lamda =  -0.00000023
 Step Taken.  Stepsize is  0.007203

                             Maximum     Tolerance    Cnvgd?
         Gradient           0.000047      0.000300     YES
         Displacement       0.002489      0.001200      NO
         Energy change     -0.000000      0.000001     YES

 Final energy is   -572.893098203744     


 ******************************
 **  OPTIMIZATION CONVERGED  **
 ******************************

                       Coordinates (Angstroms)
     ATOM                X               Y               Z
      1  C        -0.9436581337    0.0860394391    0.6234710336
      2  C        -2.4056802964    0.3902049849    0.7805805413
      3  O        -2.8737847661    1.4452939148   -0.0428781804
      4  C        -0.1316597216    0.7348064439   -0.2066019563
      5  C         1.3415439045    0.4335822348   -0.2649963011
      6  O         1.8868343179    0.6330994534   -1.5664206153
      7  C         1.6258658808   -1.0033300086    0.1154062341
      8  O         3.0564473070   -1.1629020049    0.3872790507
      9  O         3.4140570656   -0.5849732868    1.4986751960
     10  C         0.8056876349   -1.4898680213    1.2682546238
     11  C        -0.4084578730   -0.9923546872    1.4743320918
     12  H        -2.5999091882    0.6904718219    1.8115391260
     13  H        -2.9811320352   -0.5233354863    0.6020676084
     14  H        -2.7926376056    1.1696326153   -0.9626230012
     15  H        -0.4786145655    1.5625807519   -0.8124799326
     16  H         1.8595916080    1.0833454942    0.4512619328
     17  H         1.8534259002    1.5750753880   -1.7666839295
     18  H         1.2037628140   -2.3063723506    1.8553830285
     19  H        -1.0390528941   -1.3888852290    2.2603867800
     20  H         1.4883929464   -1.6499345671   -0.7551508307

Z-matrix Print:
$molecule
0 2
O 
O  1 1.302723
C  1 1.464903 2 112.215227
H  3 1.093099 1 101.899104 2 -172.650025 0
C  3 1.496152 1 110.911102 2 -54.874856 0
H  5 1.081602 3 117.516656 1 -31.378831 0
C  5 1.328208 3 119.924521 1 153.838613 0
H  7 1.082944 5 120.514439 3 175.437099 0
C  7 1.474224 5 121.085348 3 -3.077443 0
C  9 1.330136 7 119.692175 5 -11.918033 0
H  10 1.082902 9 121.762489 7 -177.087742 0
C  9 1.501569 7 116.184638 5 168.973842 0
H  12 1.091220 9 109.141118 7 59.985127 0
H  12 1.094334 9 109.015858 7 -56.410157 0
O  12 1.417892 9 114.293730 7 179.184808 0
H  15 0.963589 12 108.279777 9 64.773259 0
C  10 1.504817 9 121.615803 7 -2.419756 0
H  17 1.097083 10 108.565834 9 -90.198797 0
O  17 1.425080 10 112.458397 9 148.568503 0
H  19 0.963608 17 108.263545 10 67.115685 0
$end

 
 --------------------------------------------------------------
 
                    Orbital Energies (a.u.)
 --------------------------------------------------------------
 
 Alpha MOs
 -- Occupied --
-19.4646 -19.4173 -19.3430 -19.3395 -10.4140 -10.4074 -10.3891 -10.3565
-10.3544 -10.3523 -10.3419  -1.3452  -1.1653  -1.1592  -1.0262  -0.9722
 -0.8845  -0.8703  -0.8018  -0.7462  -0.7164  -0.6575  -0.6522  -0.6368
 -0.6318  -0.6131  -0.5952  -0.5758  -0.5548  -0.5382  -0.5344  -0.5151
 -0.4975  -0.4739  -0.4656  -0.4461  -0.4185  -0.4068  -0.3986  -0.3919
 -0.3887  -0.3203
 -- Virtual --
  0.0238   0.0333   0.0372   0.0399   0.0402   0.0559   0.0590   0.0632
  0.0711   0.0853   0.0973   0.1102   0.1124   0.1208   0.1262   0.1346
  0.1368   0.1481   0.1495   0.1531   0.1562   0.1653   0.1662   0.1685
  0.1738   0.1773   0.1816   0.1870   0.1941   0.1993   0.2039   0.2062
  0.2189   0.2235   0.2249   0.2305   0.2389   0.2501   0.2556   0.2674
  0.2734   0.2798   0.2844   0.2874   0.2998   0.3003   0.3024   0.3119
  0.3206   0.3214   0.3282   0.3346   0.3460   0.3497   0.3576   0.3619
  0.3710   0.3752   0.3816   0.3887   0.3910   0.3955   0.4010   0.4081
  0.4089   0.4105   0.4251   0.4448   0.4509   0.4644   0.4692   0.4881
  0.4960   0.5272   0.5390   0.5547   0.5647   0.5837   0.5983   0.6013
  0.6105   0.6216   0.6326   0.6361   0.6410   0.6468   0.6569   0.6626
  0.6774   0.6858   0.6927   0.7014   0.7124   0.7171   0.7249   0.7431
  0.7512   0.7529   0.7628   0.7646   0.7796   0.7846   0.7992   0.8092
  0.8145   0.8322   0.8463   0.8481   0.8616   0.8818   0.8867   0.9027
  0.9247   0.9472   0.9594   0.9742   0.9929   1.0010   1.0275   1.0427
  1.0491   1.0590   1.0711   1.0792   1.0933   1.1032   1.1237   1.1267
  1.1474   1.1576   1.1595   1.1704   1.1879   1.1904   1.2090   1.2129
  1.2237   1.2393   1.2469   1.2551   1.2572   1.2703   1.2749   1.2857
  1.3027   1.3065   1.3174   1.3298   1.3459   1.3572   1.3642   1.3694
  1.4013   1.4041   1.4139   1.4307   1.4348   1.4516   1.4653   1.4746
  1.4904   1.4998   1.5230   1.5294   1.5345   1.5373   1.5526   1.5591
  1.5756   1.6045   1.6133   1.6165   1.6348   1.6566   1.6617   1.6652
  1.6739   1.6926   1.7070   1.7113   1.7353   1.7470   1.7689   1.8024
  1.8142   1.8297   1.8444   1.8499   1.9064   1.9293   1.9433   1.9639
  2.0041   2.0503   2.0602   2.1000   2.1350   2.1454   2.1654   2.2406
  2.2554   2.2669   2.3046   2.3381   2.3750   2.3955   2.4369   2.4578
  2.4670   2.5427   2.6444   2.6483   2.6701   2.6849   2.7256   2.7370
  2.7626   2.7843   2.8080   2.8186   2.8328   2.8545   2.8707   2.8942
  2.8988   2.9081   2.9201   2.9288   2.9410   2.9703   2.9782   2.9918
  3.0120   3.0325   3.0389   3.0393   3.0543   3.0800   3.1005   3.1337
  3.1475   3.1717   3.1820   3.2015   3.2161   3.2310   3.2554   3.2757
  3.2919   3.3175   3.3290   3.3364   3.3503   3.3696   3.3983   3.4058
  3.4181   3.4312   3.4401   3.4493   3.4554   3.4911   3.5023   3.5283
  3.5397   3.5475   3.5662   3.5935   3.6052   3.6255   3.6570   3.6634
  3.6696   3.6851   3.7008   3.7169   3.7348   3.7504   3.7722   3.7752
  3.7791   3.8066   3.8174   3.8288   3.8449   3.8541   3.8710   3.8867
  3.9026   3.9199   3.9342   3.9508   3.9751   4.0047   4.0319   4.0393
  4.0805   4.0881   4.0926   4.0975   4.1439   4.1549   4.1768   4.2013
  4.2120   4.2352   4.2414   4.2523   4.2684   4.2895   4.3054   4.3298
  4.3401   4.3553   4.3647   4.4051   4.4117   4.4409   4.4595   4.4952
  4.5025   4.5153   4.5380   4.5939   4.6001   4.6050   4.6147   4.6572
  4.6672   4.6798   4.7196   4.7421   4.7520   4.7838   4.8022   4.8409
  4.8892   4.9076   4.9239   4.9461   4.9577   5.0477   5.0733   5.1013
  5.1049   5.1197   5.1482   5.1922   5.2043   5.2536   5.2756   5.2894
  5.2993   5.3153   5.3185   5.3233   5.3619   5.3764   5.4016   5.4206
  5.4318   5.4925   5.5039   5.5417   5.5706   5.5855   5.6011   5.6301
  5.6609   5.6709   5.6873   5.7006   5.7078   5.7587   5.7915   5.8500
  5.9229   5.9637   5.9891   6.0387   6.0423   6.0913   6.2453   6.4732
  6.4785   6.6079   6.6511   6.6599   6.8628   6.8922   6.9850   7.0982
  7.1061   7.1333   7.2135   7.2625   7.3173   7.3267   7.3289   7.3610
  7.3661   7.3971   7.4286   7.4372   7.6502   7.7064   7.7926   7.8168
  7.8313   8.0263   8.0978  24.3242  24.6124  24.7345  24.8188  24.8343
 25.2070  25.3538  50.4267  50.5536  50.5948  50.6388
 
 Beta MOs
 -- Occupied --
-19.4541 -19.3988 -19.3430 -19.3395 -10.4143 -10.4071 -10.3891 -10.3565
-10.3541 -10.3523 -10.3419  -1.3189  -1.1650  -1.1592  -1.0049  -0.9621
 -0.8802  -0.8677  -0.7982  -0.7424  -0.7126  -0.6537  -0.6450  -0.6307
 -0.6207  -0.5885  -0.5848  -0.5703  -0.5441  -0.5359  -0.5150  -0.5108
 -0.4941  -0.4699  -0.4632  -0.4350  -0.4177  -0.3981  -0.3902  -0.3862
 -0.3203
 -- Virtual --
 -0.0327   0.0239   0.0341   0.0376   0.0402   0.0406   0.0561   0.0593
  0.0634   0.0714   0.0854   0.0982   0.1108   0.1129   0.1214   0.1266
  0.1352   0.1380   0.1483   0.1501   0.1534   0.1570   0.1654   0.1666
  0.1689   0.1744   0.1788   0.1819   0.1873   0.1944   0.1997   0.2062
  0.2080   0.2194   0.2246   0.2261   0.2314   0.2405   0.2505   0.2560
  0.2739   0.2754   0.2811   0.2846   0.2883   0.3003   0.3021   0.3027
  0.3141   0.3216   0.3226   0.3295   0.3356   0.3470   0.3522   0.3581
  0.3649   0.3717   0.3777   0.3821   0.3892   0.3916   0.3964   0.4019
  0.4090   0.4095   0.4114   0.4256   0.4454   0.4518   0.4661   0.4700
  0.4887   0.4968   0.5278   0.5396   0.5551   0.5651   0.5843   0.5986
  0.6017   0.6110   0.6218   0.6327   0.6363   0.6410   0.6470   0.6572
  0.6628   0.6778   0.6861   0.6931   0.7014   0.7125   0.7175   0.7250
  0.7437   0.7515   0.7532   0.7631   0.7652   0.7800   0.7847   0.8000
  0.8094   0.8150   0.8325   0.8467   0.8482   0.8618   0.8822   0.8871
  0.9030   0.9262   0.9474   0.9602   0.9745   0.9945   1.0011   1.0283
  1.0460   1.0504   1.0596   1.0720   1.0819   1.0942   1.1053   1.1242
  1.1311   1.1509   1.1584   1.1630   1.1730   1.1896   1.1980   1.2124
  1.2205   1.2370   1.2418   1.2491   1.2590   1.2611   1.2740   1.2778
  1.2942   1.3041   1.3089   1.3180   1.3309   1.3472   1.3584   1.3655
  1.3710   1.4019   1.4063   1.4148   1.4321   1.4360   1.4539   1.4677
  1.4762   1.4921   1.5004   1.5241   1.5312   1.5379   1.5389   1.5571
  1.5596   1.5770   1.6055   1.6186   1.6217   1.6370   1.6585   1.6667
  1.6713   1.6759   1.6959   1.7153   1.7171   1.7451   1.7582   1.7719
  1.8059   1.8206   1.8323   1.8462   1.8574   1.9098   1.9333   1.9456
  1.9650   2.0052   2.0543   2.0628   2.1030   2.1364   2.1518   2.1681
  2.2427   2.2608   2.2708   2.3157   2.3547   2.3752   2.3969   2.4386
  2.4616   2.4688   2.5430   2.6457   2.6518   2.6724   2.6852   2.7273
  2.7374   2.7651   2.7846   2.8083   2.8188   2.8334   2.8548   2.8710
  2.8945   2.8990   2.9081   2.9203   2.9291   2.9411   2.9706   2.9783
  2.9923   3.0125   3.0328   3.0394   3.0395   3.0552   3.0807   3.1006
  3.1341   3.1480   3.1719   3.1823   3.2016   3.2165   3.2313   3.2558
  3.2760   3.2923   3.3177   3.3293   3.3368   3.3505   3.3699   3.3985
  3.4062   3.4186   3.4314   3.4404   3.4496   3.4557   3.4915   3.5025
  3.5285   3.5400   3.5480   3.5664   3.5937   3.6055   3.6259   3.6575
  3.6638   3.6699   3.6852   3.7008   3.7172   3.7349   3.7507   3.7725
  3.7755   3.7793   3.8069   3.8177   3.8290   3.8452   3.8542   3.8714
  3.8875   3.9032   3.9201   3.9343   3.9511   3.9755   4.0047   4.0323
  4.0397   4.0806   4.0886   4.0929   4.0978   4.1441   4.1552   4.1773
  4.2018   4.2127   4.2355   4.2416   4.2534   4.2690   4.2900   4.3061
  4.3299   4.3404   4.3555   4.3657   4.4052   4.4120   4.4419   4.4599
  4.4959   4.5030   4.5163   4.5387   4.5999   4.6022   4.6144   4.6273
  4.6603   4.6690   4.6822   4.7277   4.7445   4.7554   4.7855   4.8128
  4.8433   4.8974   4.9171   4.9250   4.9498   4.9700   5.0572   5.0947
  5.1188   5.1518   5.1603   5.1994   5.2158   5.2298   5.2764   5.2907
  5.3051   5.3086   5.3190   5.3321   5.3374   5.3640   5.3822   5.4128
  5.4328   5.4386   5.4937   5.5195   5.5424   5.5775   5.5885   5.6039
  5.6354   5.6613   5.6720   5.6892   5.7033   5.7094   5.7607   5.8025
  5.8673   5.9247   5.9647   5.9898   6.0402   6.0432   6.0916   6.2465
  6.4883   6.5238   6.6201   6.6512   6.6613   6.9461   6.9702   7.0469
  7.0984   7.1229   7.1600   7.2405   7.2915   7.3173   7.3279   7.3301
  7.3636   7.3806   7.4205   7.4417   7.4760   7.6502   7.7090   7.7927
  7.8207   7.8400   8.0387   8.1191  24.3242  24.6125  24.7343  24.8190
 24.8343  25.2070  25.3538  50.4388  50.5631  50.5948  50.6396
 --------------------------------------------------------------
 
          Ground-State Mulliken Net Atomic Charges

     Atom                 Charge (a.u.)    Spin (a.u.)
  --------------------------------------------------------
      1 C                     0.386321       0.004811
      2 C                    -0.407919       0.000014
      3 O                    -0.447288      -0.000020
      4 C                    -0.501874      -0.003367
      5 C                    -0.255187       0.007980
      6 O                    -0.422352       0.002362
      7 C                    -0.204466      -0.003502
      8 O                     0.072242       0.315240
      9 O                    -0.220722       0.665949
     10 C                     0.023783       0.016929
     11 C                    -0.523733      -0.006983
     12 H                     0.215255       0.000188
     13 H                     0.230791       0.000079
     14 H                     0.334282       0.000012
     15 H                     0.264941       0.000515
     16 H                     0.250434      -0.002480
     17 H                     0.337927       0.000076
     18 H                     0.319003      -0.000434
     19 H                     0.294640       0.000619
     20 H                     0.253922       0.002012
  --------------------------------------------------------
  Sum of atomic charges =    -0.000000
  Sum of spin   charges =     1.000000

 -----------------------------------------------------------------
                    Cartesian Multipole Moments
 -----------------------------------------------------------------
    Charge (ESU x 10^10)
                -0.0000
    Dipole Moment (Debye)
         X      -3.7962      Y      -0.5642      Z      -0.8866
       Tot       3.9389
    Quadrupole Moments (Debye-Ang)
        XX     -83.8231     XY      10.3969     YY     -61.1298
        XZ      -3.0967     YZ      -6.0792     ZZ     -64.4488
    Octopole Moments (Debye-Ang^2)
       XXX    -136.2990    XXY       3.0524    XYY      -2.2575
       YYY      16.6708    XXZ     -42.7341    XYZ       2.4053
       YYZ     -29.9794    XZZ     -52.3210    YZZ      11.6094
       ZZZ     -67.9715
    Hexadecapole Moments (Debye-Ang^3)
      XXXX   -2015.4586   XXXY     321.4517   XXYY    -378.9589
      XYYY     227.1840   YYYY    -431.8633   XXXZ     -56.5701
      XXYZ      27.3494   XYYZ      -7.7697   YYYZ      81.4515
      XXZZ    -368.4942   XYZZ      68.1716   YYZZ    -114.8974
      XZZZ     -24.6730   YZZZ      88.8190   ZZZZ    -460.0813
 -----------------------------------------------------------------
 Total job time:  3432.08s(wall), 26533.01s(cpu) 
 Thu Apr 20 22:42:55 2023

        *************************************************************
        *                                                           *
        *  Thank you very much for using Q-Chem.  Have a nice day.  *
        *                                                           *
        *************************************************************


