
Running Job 1 of 1 Q_in.in
qchem Q_in.in_198755.0 /scratch/ari.fischer/qChem2233437.hpc-mn1/qchem198755/ 0
/usr/local/qchem-5.4.1/exe/qcprog.exe_s Q_in.in_198755.0 /scratch/ari.fischer/qChem2233437.hpc-mn1/qchem198755/
                  Welcome to Q-Chem
     A Quantum Leap Into The Future Of Chemistry


 Q-Chem 5.4, Q-Chem, Inc., Pleasanton, CA (2021)

 License issued to: Nanyang Technological University (site)

 E. Epifanovsky,  A. T. B. Gilbert,  Xintian Feng,  Joonho Lee,  Yuezhi Mao,  
 N. Mardirossian,  P. Pokhilko,  A. White,  M. Wormit,  M. P. Coons,  
 A. L. Dempwolff,  Zhengting Gan,  D. Hait,  P. R. Horn,  L. D. Jacobson,  
 I. Kaliman,  J. Kussmann,  A. W. Lange,  Ka Un Lao,  D. S. Levine,  Jie Liu,  
 S. C. McKenzie,  A. F. Morrison,  K. Nanda,  F. Plasser,  D. R. Rehn,  
 M. L. Vidal,  Zhi-Qiang You,  Ying Zhu,  B. Alam,  B. Albrecht,  
 A. Aldossary,  E. Alguire,  J. H. Andersen,  D. Barton,  K. Begam,  A. Behn,  
 Y. A. Bernard,  E. J. Berquist,  H. Burton,  A. Carreras,  K. Carter-Fenk,  
 R. Chakraborty,  A. D. Chien,  K. D. Closser,  V. Cofer-Shabica,  
 S. Dasgupta,  Jia Deng,  M. de Wergifosse,  M. Diedenhofen,  Hainam Do,  
 S. Ehlert,  Po-Tung Fang,  S. Fatehi,  Qingguo Feng,  T. Friedhoff,  
 J. Gayvert,  Qinghui Ge,  G. Gidofalvi,  M. Goldey,  J. Gomes,  
 C. Gonzalez-Espinoza,  S. Gulania,  A. Gunina,  M. W. D. Hanson-Heine,  
 P. H. P. Harbach,  A. W. Hauser,  M. F. Herbst,  M. Hernandez Vera,  
 M. Hodecker,  Z. C. Holden,  S. Houck,  Xunkun Huang,  Kerwin Hui,  
 B. C. Huynh,  M. Ivanov,  Hyunjun Ji,  Hanjie Jiang,  B. Kaduk,  S. Kaehler,  
 K. Khistyaev,  Jaehoon Kim,  P. Klunzinger,  Z. Koczor-Benda,  
 Joong Hoon Koh,  D. Kosenkov,  L. Koulias,  T. Kowalczyk,  C. M. Krauter,  
 K. Kue,  A. Kunitsa,  T. Kus,  A. Landau,  K. V. Lawler,  D. Lefrancois,  
 S. Lehtola,  Rain Li,  Yi-Pei Li,  Jiashu Liang,  M. Liebenthal,  
 Hung-Hsuan Lin,  You-Sheng Lin,  Fenglai Liu,  Kuan-Yu Liu,  
 M. Loipersberger,  A. Luenser,  A. Manjanath,  P. Manohar,  E. Mansoor,  
 S. F. Manzer,  Shan-Ping Mao,  A. V. Marenich,  T. Markovich,  S. Mason,  
 S. A. Maurer,  P. F. McLaughlin,  M. F. S. J. Menger,  J.-M. Mewes,  
 S. A. Mewes,  P. Morgante,  J. W. Mullinax,  K. J. Oosterbaan,  G. Paran,  
 Alexander C. Paul,  Suranjan K. Paul,  F. Pavosevic,  Zheng Pei,  S. Prager,  
 E. I. Proynov,  E. Ramos,  B. Rana,  A. E. Rask,  A. Rettig,  R. M. Richard,  
 F. Rob,  E. Rossomme,  T. Scheele,  M. Scheurer,  M. Schneider,  
 N. Sergueev,  S. M. Sharada,  W. Skomorowski,  D. W. Small,  C. J. Stein,  
 Yu-Chuan Su,  E. J. Sundstrom,  Zhen Tao,  J. Thirman,  T. Tsuchimochi,  
 N. M. Tubman,  S. P. Veccham,  O. Vydrov,  J. Wenzel,  J. Witte,  A. Yamada,  
 Kun Yao,  S. Yeganeh,  S. R. Yost,  A. Zech,  Igor Ying Zhang,  Xing Zhang,  
 Yu Zhang,  D. Zuev,  A. Aspuru-Guzik,  A. T. Bell,  N. A. Besley,  
 K. B. Bravaya,  B. R. Brooks,  D. Casanova,  Jeng-Da Chai,  S. Coriani,  
 C. J. Cramer,  A. E. DePrince, III,  R. A. DiStasio Jr.,  A. Dreuw,  
 B. D. Dunietz,  T. R. Furlani,  W. A. Goddard III,  S. Grimme,  
 S. Hammes-Schiffer,  T. Head-Gordon,  W. J. Hehre,  Chao-Ping Hsu,  
 T.-C. Jagau,  Yousung Jung,  A. Klamt,  Jing Kong,  D. S. Lambrecht,  
 WanZhen Liang,  N. J. Mayhall,  C. W. McCurdy,  J. B. Neaton,  
 C. Ochsenfeld,  J. A. Parkhill,  R. Peverati,  V. A. Rassolov,  Yihan Shao,  
 L. V. Slipchenko,  T. Stauch,  R. P. Steele,  J. E. Subotnik,  
 A. J. W. Thom,  A. Tkatchenko,  D. G. Truhlar,  T. Van Voorhis,  
 T. A. Wesolowski,  K. B. Whaley,  H. L. Woodcock III,  P. M. Zimmerman,  
 S. Faraji,  P. M. W. Gill,  M. Head-Gordon,  J. M. Herbert,  A. I. Krylov

 Additional authors for Version 5.4.1: 
 S. Kotaru,  Shaozhi Li,  Xiangyuan Li,  F. Matz,  A. Molle,  Haisheng Ren,  
 Yingli Su,  Hung-Yi Tsai,  C. Utku,  Fang Wang

 Contributors to earlier versions of Q-Chem not listed above: 
 R. D. Adamson,  B. Austin,  R. Baer,  J. Baker,  G. J. O. Beran,  
 K. Brandhorst,  S. T. Brown,  E. F. C. Byrd,  A. K. Chakraborty,  
 G. K. L. Chan,  Chun-Min Chang,  Yunqing Chen,  C.-L. Cheng,  
 Siu Hung Chien,  D. M. Chipman,  D. L. Crittenden,  H. Dachsel,  
 R. J. Doerksen,  A. D. Dutoi,  R. G. Edgar,  J. Fosso-Tande,  
 L. Fusti-Molnar,  D. Ghosh,  A. Ghysels,  A. Golubeva-Zadorozhnaya,  
 J. Gonthier,  M. S. Gordon,  S. R. Gwaltney,  G. Hawkins,  J. E. Herr,  
 A. Heyden,  S. Hirata,  E. G. Hohenstein,  G. Kedziora,  F. J. Keil,  
 C. Kelley,  Jihan Kim,  R. A. King,  R. Z. Khaliullin,  P. P. Korambath,  
 W. Kurlancheek,  A. Laurent,  A. M. Lee,  M. S. Lee,  S. V. Levchenko,  
 Ching Yeh Lin,  D. Liotard,  E. Livshits,  R. C. Lochan,  I. Lotan,  
 L. A. Martinez-Martinez,  P. E. Maslen,  N. Nair,  D. P. O'Neill,  
 D. Neuhauser,  E. Neuscamman,  C. M. Oana,  R. Olivares-Amaya,  R. Olson,  
 T. M. Perrine,  B. Peters,  P. A. Pieniazek,  A. Prociuk,  Y. M. Rhee,  
 J. Ritchie,  M. A. Rohrdanz,  E. Rosta,  N. J. Russ,  H. F. Schaefer III,  
 M. W. Schmidt,  N. E. Schultz,  S. Sharma,  N. Shenvi,  C. D. Sherrill,  
 A. C. Simmonett,  A. Sodt,  T. Stein,  D. Stuck,  K. S. Thanthiriwatte,  
 V. Vanovschi,  L. Vogt,  Tao Wang,  A. Warshel,  M. A. Watson,  
 C. F. Williams,  Q. Wu,  X. Xu,  Jun Yang,  W. Zhang,  Yan Zhao

 Please cite Q-Chem as follows:
 Y. Shao et al., Mol. Phys. 113, 184-215 (2015)
 DOI: 10.1080/00268976.2014.952696

 Q-Chem 5.4.1 for Intel X86 EM64T Linux

 Parts of Q-Chem use Armadillo 9.800.1 (Horizon Scraper).
 http://arma.sourceforge.net/

 Q-Chem begins on Thu Jul 11 21:30:44 2024  

 Host: 
0

     Scratch files written to /scratch/ari.fischer/qChem2233437.hpc-mn1/qchem198755//
 Aug1521 |scratch|qcdevops|jenkins|workspace|build_RNUM 8249   
 Processing $rem in /usr/local/qchem-5.4.1/config/preferences:
 Processing $rem in /home/ari.fischer/.qchemrc:
 Symmetry turned off for PCM/SM12/SMD calculation

 Checking the input file for inconsistencies... 	...done.

--------------------------------------------------------------
User input:
--------------------------------------------------------------
$molecule
0 1
O         0.8989821311   -0.5189297164    0.1319078564
C         2.2722443095   -0.2496071578   -0.0405100190
C         2.7428694824    0.8353888722    0.8942707435
O         1.9233510258    1.3539882569    1.6592423723
C         4.1604639218    1.2155393730    0.8365069007
C         4.7371470679    2.1406739529    1.6175434312
C         4.1060663334    2.9938088171    2.7134335613
O         3.1180723298    3.8627305198    2.2073166935
O         3.6387599897    2.2093696724    3.7885485143
H         0.5943995370    0.1164563711    0.8082209930
H         2.4904547390    0.0736808728   -1.0693191718
H         2.8774198177   -1.1481364068    0.1472512763
H         4.7630682471    0.6893880500    0.1005225567
H         5.7998391241    2.3182400118    1.4655842436
H         4.8783281079    3.6382358249    3.1342149282
H         2.4217283034    3.2873737245    1.8379489612
H         2.9419603325    1.6345102615    3.4212790587
$end

$rem
BASIS = 6-311++G(2df,2p)
GUI = 2
JOB_TYPE = Optimization
METHOD = wB97M-V
SCF_ALGORITHM = DIIS_GDM
MAX_SCF_CYCLES = 400
GEOM_OPT_MAX_CYCLES = 150
SCF_CONVERGENCE = 7
THRESH = 12
Solvent_method = SMD
$end
--------------------------------------------------------------
 ----------------------------------------------------------------
             Standard Nuclear Orientation (Angstroms)
    I     Atom           X                Y                Z
 ----------------------------------------------------------------
    1      O       0.8989821311    -0.5189297164     0.1319078564
    2      C       2.2722443095    -0.2496071578    -0.0405100190
    3      C       2.7428694824     0.8353888722     0.8942707435
    4      O       1.9233510258     1.3539882569     1.6592423723
    5      C       4.1604639218     1.2155393730     0.8365069007
    6      C       4.7371470679     2.1406739529     1.6175434312
    7      C       4.1060663334     2.9938088171     2.7134335613
    8      O       3.1180723298     3.8627305198     2.2073166935
    9      O       3.6387599897     2.2093696724     3.7885485143
   10      H       0.5943995370     0.1164563711     0.8082209930
   11      H       2.4904547390     0.0736808728    -1.0693191718
   12      H       2.8774198177    -1.1481364068     0.1472512763
   13      H       4.7630682471     0.6893880500     0.1005225567
   14      H       5.7998391241     2.3182400118     1.4655842436
   15      H       4.8783281079     3.6382358249     3.1342149282
   16      H       2.4217283034     3.2873737245     1.8379489612
   17      H       2.9419603325     1.6345102615     3.4212790587
 ----------------------------------------------------------------
 Nuclear Repulsion Energy =         465.87166506 hartrees
 There are       35 alpha and       35 beta electrons
 Requested basis set is 6-311++G(2df,2p)
 There are 120 shells and 386 basis functions

 Total QAlloc Memory Limit 288000 MB
 Mega-Array Size       188 MB
 MEM_STATIC part       192 MB
 
 Citation of the SMD model:
 Marenich, A.V.; Cramer, C.J.; Truhlar, D.G.
 J. Phys. Chem. B 2009, 113, 6378-6396.
 iSolventCode=           1
 Solvent: water                                                           
 
 vradii
            1           2           3           4           5           6
    1   1.5200000   1.8500000   1.8500000   1.5200000   1.8500000   1.8500000
            7           8           9          10          11          12
    1   1.8500000   1.5200000   1.5200000   1.2000000   1.2000000   1.2000000
           13          14          15          16          17
    1   1.2000000   1.2000000   1.2000000   1.2000000   1.2000000
 Changing PCM_VDW_RADII to SMD_RADIUS
 Discretize the solute cavity surface with Lebedev spheres
	Using 110 Lebedev grid points for each H atom
	Using 194 Lebedev grid points for other atoms
	Atomic van der Waals radii will be scaled by 1.20
 Remove points where switching function is < 1.0e-08
 Keep 1283 surface tesserae and discard 1343 interior tesserae
 Molecular Surface Area = 147.693 Angst**2
 A cutoff of  1.0D-12 yielded   6459 shell pairs
 There are     66891 function pairs (     83115 Cartesian)
 Smallest overlap matrix eigenvalue = 4.13E-06

 Scale SEOQF with 1.000000e-02/1.000000e-01/1.000000e-01

 Standard Electronic Orientation quadrupole field applied
 Nucleus-field energy     =    -0.0000000050 hartrees
 Guess from superposition of atomic densities
 Warning:  Energy on first SCF cycle will be non-variational
 SAD guess density has 70.000000 electrons

 -----------------------------------------------------------------------
  General SCF calculation program by
  Eric Jon Sundstrom, Paul Horn, Yuezhi Mao, Dmitri Zuev, Alec White,
  David Stuck, Shaama M.S., Shane Yost, Joonho Lee, David Small,
  Daniel Levine, Susi Lehtola, Hugh Burton, Evgeny Epifanovsky,
  Bang C. Huynh
 -----------------------------------------------------------------------
 Exchange:     0.1500 Hartree-Fock + 1.0000 wB97M-V + LR-HF
 Correlation:  1.0000 wB97M-V
 Using SG-2 standard quadrature grid
 Nonlocal Correlation:  VV10 with C = 0.0100 and b = 6.00 and scale = 1.00000
 Grid used for NLC:  SG-1 standard quadrature
 
 Citation of the SMD model:
 Marenich, A.V.; Cramer, C.J.; Truhlar, D.G.
 J. Phys. Chem. B 2009, 113, 6378-6396.
 iSolventCode=           1
 Solvent: water                                                           
 
 vradii
            1           2           3           4           5           6
    1   1.5200000   1.8500000   1.8500000   1.5200000   1.8500000   1.8500000
            7           8           9          10          11          12
    1   1.8500000   1.5200000   1.5200000   1.2000000   1.2000000   1.2000000
           13          14          15          16          17
    1   1.2000000   1.2000000   1.2000000   1.2000000   1.2000000
 using 16 threads for integral computing
 -------------------------------------------------------
 OpenMP Integral computing Module                
 Release: version 1.0, May 2013, Q-Chem Inc. Pittsburgh 
 -------------------------------------------------------
 -------------------------------------------------------
 OpenMP BLAS3 based DFT computing Module                
 Release: version 1.0, May 2013, Q-Chem Inc. Pittsburgh 
 -------------------------------------------------------
 A restricted SCF calculation will be
 performed using DIIS, GDM
 SCF converges when RMS gradient is below 1.0e-07
 ---------------------------------------
  Cycle       Energy         DIIS error
 ---------------------------------------
    1    -498.2185033355      2.56e-02  
    2    -496.0726833757      3.38e-03  Done DIIS. Switching to GDM
 ---------------------------------------
  Cycle       Energy        RMS Gradient
 ---------------------------------------
    1    -496.0726833757      8.68e-02   Descent step
    2    -496.2214384621      3.54e-02   Normal BFGS step
    3    -496.2401695743      9.76e-03   Normal BFGS step
    4    -496.2412551195      5.15e-03   Normal BFGS step
    5    -496.2420867628      1.31e-03   Normal BFGS step
    6    -496.2421140417      6.79e-04   Normal BFGS step
    7    -496.2421252748      2.47e-04   Normal BFGS step
    8    -496.2421258898      1.29e-04   Normal BFGS step
    9    -496.2421260038      2.82e-05   Normal BFGS step
   10    -496.2421260159      1.21e-05   Normal BFGS step
   11    -496.2421260199      6.91e-06   Normal BFGS step
   12    -496.2421260202      1.25e-06   Normal BFGS step
   13    -496.2421260203      9.90e-07   Normal BFGS step
   14    -496.2421260203      3.04e-07   Normal BFGS step
   15    -496.2421260203      5.42e-08  Convergence criterion met
 ---------------------------------------
 SCF time:   CPU 1310.97s  wall 91.00s 
(3)  G-ENP(liq) elect-nuc-pol free energy of system     -496.242126020 a.u.
(4)  G-CDS(liq) cavity-dispersion-solvent structure 
     free energy                                                3.5766 kcal/mol
(6)  G-S(liq) free energy of system                     -496.236426314 a.u.
 SCF   energy in the final basis set =     -496.2364263140
 Total energy in the final basis set =     -496.2364263140
 
 --------------------------------------------------------------
 
                    Orbital Energies (a.u.)
 --------------------------------------------------------------
 
 Alpha MOs
 -- Occupied --
-19.3535 -19.3461 -19.3452 -19.3430 -10.4595 -10.4541 -10.3985 -10.3769
-10.3617  -1.2115  -1.1972  -1.1560  -1.1332  -0.9361  -0.8644  -0.8089
 -0.7346  -0.6654  -0.6564  -0.6432  -0.6197  -0.5964  -0.5906  -0.5529
 -0.5424  -0.5211  -0.5162  -0.4879  -0.4853  -0.4657  -0.4237  -0.4146
 -0.4006  -0.3871  -0.3769
 -- Virtual --
 -0.0046   0.0227   0.0364   0.0412   0.0525   0.0579   0.0627   0.0723
  0.0814   0.1011   0.1044   0.1170   0.1230   0.1292   0.1309   0.1355
  0.1503   0.1570   0.1585   0.1611   0.1721   0.1737   0.1759   0.1892
  0.1988   0.2001   0.2092   0.2262   0.2363   0.2413   0.2505   0.2530
  0.2676   0.2742   0.2852   0.2929   0.2970   0.2989   0.3142   0.3215
  0.3256   0.3328   0.3357   0.3449   0.3458   0.3556   0.3563   0.3606
  0.3691   0.3747   0.3793   0.3855   0.3991   0.4051   0.4155   0.4268
  0.4496   0.4622   0.4661   0.5050   0.5306   0.5438   0.5502   0.5712
  0.5787   0.5953   0.6044   0.6122   0.6152   0.6279   0.6315   0.6437
  0.6503   0.6634   0.6717   0.6848   0.6905   0.6999   0.7191   0.7238
  0.7512   0.7570   0.7636   0.7827   0.7991   0.8035   0.8278   0.8350
  0.8471   0.8529   0.8803   0.8846   0.9013   0.9027   0.9391   0.9532
  0.9813   1.0066   1.0388   1.0595   1.0616   1.0676   1.0802   1.0831
  1.0903   1.1010   1.1203   1.1260   1.1597   1.1629   1.1741   1.1854
  1.2136   1.2148   1.2214   1.2352   1.2404   1.2533   1.2624   1.2797
  1.2839   1.2860   1.3010   1.3275   1.3598   1.3718   1.4046   1.4225
  1.4332   1.4369   1.4404   1.4527   1.4653   1.4819   1.4923   1.5048
  1.5144   1.5287   1.5337   1.5443   1.5653   1.6058   1.6145   1.6248
  1.6271   1.6418   1.6850   1.6955   1.7238   1.7534   1.8400   1.9037
  1.9146   1.9268   1.9477   1.9912   1.9974   2.0239   2.0298   2.0676
  2.1140   2.1565   2.2151   2.2175   2.2258   2.2706   2.2925   2.3536
  2.3865   2.4210   2.4297   2.4568   2.5413   2.5559   2.5726   2.6390
  2.6522   2.6791   2.6941   2.7566   2.7601   2.8032   2.8148   2.8163
  2.8708   2.8763   2.9031   2.9150   2.9219   2.9510   2.9595   2.9888
  3.0020   3.0082   3.0476   3.0583   3.1235   3.1458   3.1558   3.1648
  3.1926   3.2136   3.2247   3.2537   3.2699   3.2748   3.3142   3.3310
  3.3341   3.3491   3.3708   3.3940   3.3998   3.4449   3.4837   3.4992
  3.5087   3.5332   3.5339   3.5763   3.5847   3.5861   3.6327   3.6449
  3.6476   3.6992   3.7025   3.7110   3.7298   3.7563   3.7683   3.7935
  3.8023   3.8253   3.8575   3.8610   3.8734   3.8779   3.9038   3.9144
  3.9526   3.9705   4.0028   4.0110   4.0601   4.0964   4.1096   4.1219
  4.1764   4.1920   4.1949   4.2038   4.2290   4.2329   4.2468   4.2975
  4.3316   4.3390   4.3580   4.3879   4.3942   4.4360   4.4406   4.4472
  4.4753   4.5163   4.5359   4.6033   4.6233   4.6956   4.7821   4.7981
  4.8770   4.9186   5.0499   5.1854   5.2094   5.2117   5.2196   5.2377
  5.2605   5.2608   5.2974   5.3062   5.3198   5.3219   5.3418   5.3776
  5.4062   5.4282   5.4351   5.4665   5.5215   5.5417   5.5539   5.5825
  5.5951   5.6107   5.6262   5.6345   5.6378   5.6609   5.6998   5.7250
  5.7757   5.8260   5.8524   5.9002   5.9374   6.0074   6.0522   6.1133
  6.1679   6.3112   6.5923   6.6207   6.6987   6.8207   7.0626   7.0704
  7.0756   7.0919   7.1388   7.1814   7.2358   7.2927   7.2992   7.3080
  7.3346   7.4080   7.4293   7.4372   7.4517   7.4557   7.6143   7.6267
  7.6908   7.7148   7.7661   7.8223   7.8329   7.8629  24.4051  24.7581
 24.7939  24.9901  25.1963  50.5666  50.6063  50.6467  50.7423
 --------------------------------------------------------------
 
          Ground-State Mulliken Net Atomic Charges

     Atom                 Charge (a.u.)
  ----------------------------------------
      1 O                    -0.445311
      2 C                    -0.494249
      3 C                     0.334712
      4 O                    -0.468922
      5 C                     0.054265
      6 C                     0.038360
      7 C                    -0.522656
      8 O                    -0.403070
      9 O                    -0.399614
     10 H                     0.351485
     11 H                     0.213607
     12 H                     0.213757
     13 H                     0.303798
     14 H                     0.263157
     15 H                     0.258932
     16 H                     0.352292
     17 H                     0.349456
  ----------------------------------------
  Sum of atomic charges =     0.000000

 -----------------------------------------------------------------
                    Cartesian Multipole Moments
 -----------------------------------------------------------------
    Charge (ESU x 10^10)
                 0.0000
    Dipole Moment (Debye)
         X       3.8852      Y      -2.1407      Z      -3.4990
       Tot       5.6498
    Quadrupole Moments (Debye-Ang)
        XX     -28.5381     XY      -4.6509     YY     -69.9037
        XZ     -10.6718     YZ     -12.0854     ZZ     -70.7200
    Octopole Moments (Debye-Ang^2)
       XXX    -347.8019    XXY     -63.2511    XYY    -195.9586
       YYY    -320.7139    XXZ    -100.1569    XYZ     -25.1623
       YYZ    -125.1450    XZZ    -222.2273    YZZ    -131.0977
       ZZZ    -326.2703
    Hexadecapole Moments (Debye-Ang^3)
      XXXX   -2707.4523   XXXY    -655.1090   XXYY    -819.9958
      XYYY   -1102.9773   YYYY   -1786.8611   XXXZ    -826.5085
      XXYZ    -196.7050   XYYZ    -370.2095   YYYZ    -761.8200
      XXZZ    -982.9400   XYZZ    -436.0319   YYZZ    -596.7850
      XZZZ   -1154.2356   YZZZ    -793.9555   ZZZZ   -1638.7711
 -----------------------------------------------------------------
 Calculating analytic gradient of the SCF energy
 Gradient of CDS energy
            1           2           3           4           5           6
    1   0.0019732  -0.0024339  -0.0008997   0.0006310   0.0002823   0.0002359
    2   0.0004006  -0.0012434   0.0005924  -0.0004356  -0.0001206  -0.0000175
    3  -0.0001829  -0.0005224   0.0008568  -0.0006303  -0.0002205  -0.0000942
            7           8           9          10          11          12
    1  -0.0018316   0.0014472   0.0005896  -0.0004239   0.0001989   0.0002133
    2   0.0007923  -0.0013221   0.0010409  -0.0000219   0.0002003   0.0000335
    3   0.0011471   0.0007601  -0.0014482   0.0000910  -0.0000104   0.0001375
           13          14          15          16          17
    1   0.0000937   0.0002124   0.0001274  -0.0002766  -0.0001391
    2  -0.0000838   0.0000470   0.0000840   0.0002537  -0.0001997
    3  -0.0001167  -0.0000183   0.0000486  -0.0001152   0.0003179
 Gradient of SCF Energy
            1           2           3           4           5           6
    1  -0.0006496  -0.0258418   0.0090679  -0.0118142  -0.0067522  -0.0047636
    2  -0.0120353   0.0056176  -0.0036788   0.0079752  -0.0035727   0.0127030
    3  -0.0104661   0.0137192  -0.0064563   0.0116249  -0.0018021   0.0146906
            7           8           9          10          11          12
    1  -0.0139349   0.0066394   0.0093530  -0.0004130   0.0066184   0.0109139
    2  -0.0067518   0.0137639   0.0072182   0.0089342   0.0033701  -0.0102530
    3  -0.0026952   0.0048357   0.0117028   0.0079180  -0.0130721   0.0004854
           13          14          15          16          17
    1   0.0108299   0.0164546   0.0070443  -0.0056823  -0.0070696
    2  -0.0108460   0.0018473   0.0030469  -0.0099694  -0.0073695
    3  -0.0146128  -0.0032793   0.0009219  -0.0052149  -0.0082996
 Max gradient component =       2.584E-02
 RMS gradient           =       9.475E-03
 Computing fast CPCM-SWIG gradient
 Updating gradient with PCM contributions...
 -- total gradient after adding PCM contribution --
---------------------------------------------------
  Atom         X              Y              Z     
---------------------------------------------------
   1       0.000368      -0.005191      -0.004596
   2      -0.005245      -0.000579       0.000805
   3       0.007073      -0.001214      -0.003272
   4      -0.007235       0.004087       0.006369
   5      -0.002229      -0.003301      -0.002704
   6       0.001217       0.004103       0.003870
   7      -0.007174      -0.002368      -0.000231
   8       0.004902       0.006621       0.001345
   9       0.006161       0.002868       0.005023
  10      -0.000148       0.004737       0.004241
  11       0.001007       0.000785      -0.003223
  12       0.002024      -0.002759       0.000287
  13       0.001773      -0.001645      -0.002249
  14       0.003206       0.000174      -0.000813
  15       0.001985       0.001938       0.001391
  16      -0.003305      -0.005588      -0.001679
  17      -0.004380      -0.002666      -0.004566
---------------------------------------------------
 Number of fixed atoms: 0
 Gradient time:  CPU 252.54 s  wall 20.63 s
 Geometry Optimization Parameters
   NAtoms,    NIC,     NZ,  NCons,   NDum,   NFix, NCnnct, MaxDiis
       17     103       0       0       0       0       0       0


** GEOMETRY OPTIMIZATION IN DELOCALIZED INTERNAL COORDINATES **
   Searching for a Minimum

   Optimization Cycle:   1

                       Coordinates (Angstroms)
     ATOM                X               Y               Z
      1  O         0.8989821311   -0.5189297164    0.1319078564
      2  C         2.2722443095   -0.2496071578   -0.0405100190
      3  C         2.7428694824    0.8353888722    0.8942707435
      4  O         1.9233510258    1.3539882569    1.6592423723
      5  C         4.1604639218    1.2155393730    0.8365069007
      6  C         4.7371470679    2.1406739529    1.6175434312
      7  C         4.1060663334    2.9938088171    2.7134335613
      8  O         3.1180723298    3.8627305198    2.2073166935
      9  O         3.6387599897    2.2093696724    3.7885485143
     10  H         0.5943995370    0.1164563711    0.8082209930
     11  H         2.4904547390    0.0736808728   -1.0693191718
     12  H         2.8774198177   -1.1481364068    0.1472512763
     13  H         4.7630682471    0.6893880500    0.1005225567
     14  H         5.7998391241    2.3182400118    1.4655842436
     15  H         4.8783281079    3.6382358249    3.1342149282
     16  H         2.4217283034    3.2873737245    1.8379489612
     17  H         2.9419603325    1.6345102615    3.4212790587
   Point Group: c1    Number of degrees of freedom:    45


   Energy is   -496.236426314


 Attempting to generate delocalized internal coordinates
 Initial Hessian constructed with Jon Baker's OPTIMIZE code

 45 Hessian modes will be used to form the next step
  Hessian Eigenvalues:
     0.005809    0.008188    0.010370    0.013304    0.014253    0.014322
     0.014360    0.015805    0.022020    0.030203    0.061379    0.062106
     0.071794    0.076531    0.096495    0.115147    0.140750    0.159999
     0.159999    0.160000    0.160000    0.160000    0.202427    0.212801
     0.220000    0.220000    0.220589    0.250000    0.250000    0.298452
     0.316043    0.336530    0.337402    0.347792    0.350345    0.351578
     0.358821    0.439192    0.440020    0.440468    0.520369    0.521912
     0.523422    0.569670    0.889507

 Minimum search - taking simple RFO step
 Searching for Lamda that Minimizes Along All modes
 Value Taken    Lamda =  -0.00119920
 Step Taken.  Stepsize is  0.070125

                             Maximum     Tolerance    Cnvgd?
         Gradient           0.008824      0.000300      NO
         Displacement       0.026587      0.001200      NO
         Energy change     *********      0.000001      NO


 New Cartesian Coordinates Obtained by Inverse Iteration

 Displacement from previous Coordinates is:  0.266956
 ----------------------------------------------------------------
             Standard Nuclear Orientation (Angstroms)
    I     Atom           X                Y                Z
 ----------------------------------------------------------------
    1      O       0.9080311069    -0.5385779122     0.0987991133
    2      C       2.2811808360    -0.2525423336    -0.0472137502
    3      C       2.7274389171     0.8307531336     0.8898763046
    4      O       1.9023119897     1.3456345328     1.6411981187
    5      C       4.1413402799     1.2138660254     0.8423851951
    6      C       4.7238681367     2.1330294333     1.6147222852
    7      C       4.1209425616     2.9982371572     2.7118074766
    8      O       3.1304104705     3.8745800219     2.2224963736
    9      O       3.6638466085     2.2326410511     3.8052927419
   10      H       0.5665288043     0.0772426347     0.7666619279
   11      H       2.5102455636     0.0733872544    -1.0670352140
   12      H       2.8885206609    -1.1411684996     0.1492975531
   13      H       4.7418771996     0.6883951662     0.1115421224
   14      H       5.7819476854     2.3015333308     1.4556324860
   15      H       4.9052904843     3.6347787252     3.1094923823
   16      H       2.4128158233     3.3291768789     1.8653159351
   17      H       2.9585576718     1.6517447000     3.4836918484
 ----------------------------------------------------------------
 Nuclear Repulsion Energy =         465.08317669 hartrees
 There are       35 alpha and       35 beta electrons
 Discretize the solute cavity surface with Lebedev spheres
	Using 110 Lebedev grid points for each H atom
	Using 194 Lebedev grid points for other atoms
	Atomic van der Waals radii will be scaled by 1.20
 Remove points where switching function is < 1.0e-08
 Keep 1290 surface tesserae and discard 1336 interior tesserae
 Molecular Surface Area = 148.296 Angst**2
 Applying Cartesian multipole field
    Component          Value
    ---------          -----
     (2,0,0)        1.00000E-12
     (0,2,0)        2.00000E-11
     (0,0,2)       -3.00000E-11
 Nucleus-field energy     =    -0.0000000050 hartrees
 Requested basis set is 6-311++G(2df,2p)
 There are 120 shells and 386 basis functions
 A cutoff of  1.0D-12 yielded   6457 shell pairs
 There are     66868 function pairs (     83089 Cartesian)
 Smallest overlap matrix eigenvalue = 4.08E-06
 Guess MOs from SCF MO coefficient file

 -----------------------------------------------------------------------
  General SCF calculation program by
  Eric Jon Sundstrom, Paul Horn, Yuezhi Mao, Dmitri Zuev, Alec White,
  David Stuck, Shaama M.S., Shane Yost, Joonho Lee, David Small,
  Daniel Levine, Susi Lehtola, Hugh Burton, Evgeny Epifanovsky,
  Bang C. Huynh
 -----------------------------------------------------------------------
 Exchange:     0.1500 Hartree-Fock + 1.0000 wB97M-V + LR-HF
 Correlation:  1.0000 wB97M-V
 Using SG-2 standard quadrature grid
 Nonlocal Correlation:  VV10 with C = 0.0100 and b = 6.00 and scale = 1.00000
 Grid used for NLC:  SG-1 standard quadrature
 
 Citation of the SMD model:
 Marenich, A.V.; Cramer, C.J.; Truhlar, D.G.
 J. Phys. Chem. B 2009, 113, 6378-6396.
 iSolventCode=           1
 Solvent: water                                                           
 
 vradii
            1           2           3           4           5           6
    1   1.5200000   1.8500000   1.8500000   1.5200000   1.8500000   1.8500000
            7           8           9          10          11          12
    1   1.8500000   1.5200000   1.5200000   1.2000000   1.2000000   1.2000000
           13          14          15          16          17
    1   1.2000000   1.2000000   1.2000000   1.2000000   1.2000000
 -------------------------------------------------------
 OpenMP BLAS3 based DFT computing Module                
 Release: version 1.0, May 2013, Q-Chem Inc. Pittsburgh 
 -------------------------------------------------------
 A restricted SCF calculation will be
 performed using Roothaan-Hall, DIIS, GDM
 SCF converges when RMS gradient is below 1.0e-07
 ---------------------------------------
  Cycle       Energy         DIIS error
 ---------------------------------------
    1    -496.2048933913      4.97e-04  Roothaan Step
 ---------------------------------------
  Cycle       Energy         DIIS error
 ---------------------------------------
    1    -496.2360563993      4.89e-04  
    2    -496.2398480594      4.62e-04  Done DIIS. Switching to GDM
 ---------------------------------------
  Cycle       Energy        RMS Gradient
 ---------------------------------------
    1    -496.2398480594      1.04e-02   Normal BFGS step
    2    -496.2392636491      1.66e-02  Line search: overstep
    3    -496.2425643468      2.02e-03   Normal BFGS step
    4    -496.2427087787      1.78e-03   Normal BFGS step
    5    -496.2427332947      7.24e-04   Normal BFGS step
    6    -496.2427421039      1.20e-04   Normal BFGS step
    7    -496.2427424206      1.66e-04   Normal BFGS step
    8    -496.2427425438      3.36e-05   Normal BFGS step
    9    -496.2427425524      2.53e-05   Normal BFGS step
   10    -496.2427425551      3.83e-06   Normal BFGS step
   11    -496.2427425553      8.54e-07   Normal BFGS step
   12    -496.2427425553      4.66e-07   Normal BFGS step
   13    -496.2427425553      1.58e-07   Normal BFGS step
   14    -496.2427425554      6.69e-08  Convergence criterion met
 ---------------------------------------
 SCF time:   CPU 1333.76s  wall 92.00s 
(3)  G-ENP(liq) elect-nuc-pol free energy of system     -496.242742555 a.u.
(4)  G-CDS(liq) cavity-dispersion-solvent structure 
     free energy                                                3.6228 kcal/mol
(6)  G-S(liq) free energy of system                     -496.236969307 a.u.
 SCF   energy in the final basis set =     -496.2369693065
 Total energy in the final basis set =     -496.2369693065
 
 --------------------------------------------------------------
 
                    Orbital Energies (a.u.)
 --------------------------------------------------------------
 
 Alpha MOs
 -- Occupied --
-19.3509 -19.3459 -19.3446 -19.3423 -10.4559 -10.4538 -10.3963 -10.3741
-10.3590  -1.2106  -1.1979  -1.1564  -1.1337  -0.9371  -0.8668  -0.8113
 -0.7356  -0.6660  -0.6558  -0.6461  -0.6184  -0.5977  -0.5917  -0.5537
 -0.5422  -0.5192  -0.5151  -0.4880  -0.4851  -0.4666  -0.4230  -0.4144
 -0.4008  -0.3852  -0.3772
 -- Virtual --
 -0.0022   0.0226   0.0364   0.0412   0.0525   0.0580   0.0625   0.0720
  0.0818   0.1008   0.1046   0.1172   0.1244   0.1294   0.1314   0.1350
  0.1502   0.1571   0.1585   0.1613   0.1727   0.1737   0.1765   0.1882
  0.1994   0.2006   0.2089   0.2277   0.2361   0.2420   0.2483   0.2524
  0.2686   0.2751   0.2860   0.2922   0.2972   0.3002   0.3139   0.3215
  0.3268   0.3347   0.3367   0.3453   0.3459   0.3566   0.3578   0.3599
  0.3698   0.3767   0.3814   0.3863   0.4012   0.4052   0.4147   0.4279
  0.4506   0.4624   0.4643   0.5066   0.5300   0.5457   0.5520   0.5737
  0.5795   0.5985   0.6078   0.6136   0.6178   0.6293   0.6349   0.6452
  0.6519   0.6633   0.6733   0.6836   0.6934   0.7028   0.7217   0.7263
  0.7501   0.7580   0.7638   0.7794   0.7982   0.8051   0.8329   0.8372
  0.8491   0.8541   0.8781   0.8820   0.9013   0.9034   0.9385   0.9536
  0.9725   1.0086   1.0350   1.0603   1.0623   1.0684   1.0776   1.0790
  1.0888   1.1027   1.1191   1.1250   1.1589   1.1645   1.1763   1.1795
  1.2138   1.2154   1.2251   1.2368   1.2419   1.2527   1.2653   1.2767
  1.2865   1.2882   1.3030   1.3262   1.3614   1.3758   1.4048   1.4273
  1.4311   1.4369   1.4429   1.4556   1.4695   1.4809   1.4929   1.5099
  1.5206   1.5333   1.5398   1.5475   1.5722   1.5955   1.6086   1.6253
  1.6282   1.6431   1.6861   1.6973   1.7208   1.7491   1.8398   1.8952
  1.9148   1.9231   1.9386   1.9935   1.9976   2.0242   2.0324   2.0521
  2.1209   2.1596   2.2031   2.2189   2.2229   2.2642   2.2873   2.3340
  2.3849   2.4199   2.4217   2.4501   2.5466   2.5589   2.5705   2.6402
  2.6532   2.6777   2.6915   2.7563   2.7636   2.8031   2.8173   2.8183
  2.8703   2.8775   2.9000   2.9149   2.9244   2.9493   2.9623   2.9948
  2.9967   3.0043   3.0528   3.0568   3.1238   3.1391   3.1593   3.1617
  3.1981   3.2129   3.2248   3.2576   3.2688   3.2749   3.3167   3.3245
  3.3318   3.3480   3.3679   3.3928   3.4010   3.4452   3.4908   3.5053
  3.5095   3.5339   3.5390   3.5789   3.5822   3.5904   3.6353   3.6443
  3.6565   3.7002   3.7021   3.7171   3.7313   3.7516   3.7670   3.8005
  3.8044   3.8247   3.8626   3.8633   3.8755   3.8847   3.9036   3.9178
  3.9592   3.9791   4.0121   4.0218   4.0640   4.1023   4.1145   4.1309
  4.1855   4.1973   4.2024   4.2140   4.2391   4.2422   4.2543   4.3059
  4.3336   4.3444   4.3677   4.3980   4.4023   4.4436   4.4477   4.4523
  4.4815   4.5246   4.5465   4.6157   4.6351   4.7096   4.7980   4.8258
  4.8805   4.9422   5.0590   5.1870   5.2074   5.2098   5.2165   5.2437
  5.2537   5.2601   5.2929   5.3015   5.3179   5.3203   5.3412   5.3794
  5.4143   5.4362   5.4370   5.4653   5.5236   5.5523   5.5673   5.5882
  5.6056   5.6142   5.6339   5.6435   5.6513   5.6698   5.7118   5.7187
  5.7905   5.8318   5.8666   5.9056   5.9582   6.0291   6.0758   6.1441
  6.1641   6.3387   6.5941   6.6249   6.6998   6.8619   7.0467   7.0704
  7.0760   7.0925   7.1385   7.2009   7.2360   7.2955   7.3135   7.3260
  7.3452   7.4038   7.4177   7.4279   7.4493   7.4618   7.6267   7.6421
  7.7005   7.7198   7.7640   7.8177   7.8276   7.8587  24.4170  24.7725
 24.8087  25.0204  25.2301  50.5701  50.6083  50.6451  50.7498
 --------------------------------------------------------------
 
          Ground-State Mulliken Net Atomic Charges

     Atom                 Charge (a.u.)
  ----------------------------------------
      1 O                    -0.447351
      2 C                    -0.502200
      3 C                     0.344229
      4 O                    -0.477268
      5 C                     0.064920
      6 C                     0.035502
      7 C                    -0.523152
      8 O                    -0.404270
      9 O                    -0.398979
     10 H                     0.350006
     11 H                     0.214922
     12 H                     0.215189
     13 H                     0.304707
     14 H                     0.261023
     15 H                     0.263272
     16 H                     0.351479
     17 H                     0.347971
  ----------------------------------------
  Sum of atomic charges =     0.000000

 -----------------------------------------------------------------
                    Cartesian Multipole Moments
 -----------------------------------------------------------------
    Charge (ESU x 10^10)
                -0.0000
    Dipole Moment (Debye)
         X       3.7328      Y      -2.1218      Z      -3.3424
       Tot       5.4413
    Quadrupole Moments (Debye-Ang)
        XX     -29.2767     XY      -4.9568     YY     -69.9525
        XZ     -10.6743     YZ     -12.2243     ZZ     -70.2769
    Octopole Moments (Debye-Ang^2)
       XXX    -352.0461    XXY     -65.4793    XYY    -197.3515
       YYY    -320.5784    XXZ    -101.4011    XYZ     -26.6151
       YYZ    -125.7531    XZZ    -222.3191    YZZ    -131.6264
       ZZZ    -324.0476
    Hexadecapole Moments (Debye-Ang^3)
      XXXX   -2730.9257   XXXY    -668.2129   XXYY    -828.7005
      XYYY   -1110.1450   YYYY   -1795.8587   XXXZ    -837.7432
      XXYZ    -206.1494   XYYZ    -377.6855   YYYZ    -769.8266
      XXZZ    -989.8617   XYZZ    -443.1415   YYZZ    -604.2137
      XZZZ   -1157.9434   YZZZ    -801.0684   ZZZZ   -1637.8471
 -----------------------------------------------------------------
 Calculating analytic gradient of the SCF energy
 Gradient of CDS energy
            1           2           3           4           5           6
    1   0.0019126  -0.0023251  -0.0008987   0.0006188   0.0002774   0.0002256
    2   0.0004106  -0.0012514   0.0005835  -0.0004306  -0.0001158  -0.0000242
    3  -0.0001571  -0.0005469   0.0008354  -0.0006147  -0.0002139  -0.0000960
            7           8           9          10          11          12
    1  -0.0016612   0.0013568   0.0005326  -0.0004303   0.0001786   0.0002067
    2   0.0008111  -0.0012538   0.0009532  -0.0000291   0.0001994   0.0000421
    3   0.0011286   0.0006930  -0.0013781   0.0000833  -0.0000071   0.0001396
           13          14          15          16          17
    1   0.0000899   0.0002071   0.0001261  -0.0002801  -0.0001368
    2  -0.0000810   0.0000441   0.0000776   0.0002657  -0.0002014
    3  -0.0001123  -0.0000197   0.0000416  -0.0001108   0.0003351
 Gradient of SCF Energy
            1           2           3           4           5           6
    1  -0.0006011  -0.0215365   0.0073896  -0.0077590  -0.0056737  -0.0055358
    2  -0.0074587   0.0060557  -0.0038161   0.0038201  -0.0011155   0.0091747
    3  -0.0064983   0.0126479  -0.0056991   0.0058574   0.0004011   0.0111302
            7           8           9          10          11          12
    1  -0.0070710   0.0029876   0.0051953  -0.0012920   0.0060208   0.0091771
    2  -0.0042341   0.0085122   0.0050420   0.0049437   0.0027480  -0.0070863
    3  -0.0018552   0.0032024   0.0078392   0.0046437  -0.0094910   0.0003624
           13          14          15          16          17
    1   0.0085793   0.0128516   0.0055697  -0.0038766  -0.0044252
    2  -0.0090055   0.0014150   0.0010257  -0.0046461  -0.0053749
    3  -0.0118702  -0.0027538  -0.0006835  -0.0034433  -0.0037900
 Max gradient component =       2.154E-02
 RMS gradient           =       6.930E-03
 Computing fast CPCM-SWIG gradient
 Updating gradient with PCM contributions...
 -- total gradient after adding PCM contribution --
---------------------------------------------------
  Atom         X              Y              Z     
---------------------------------------------------
   1       0.000102      -0.000657      -0.000490
   2      -0.000970      -0.000083       0.000016
   3       0.004918      -0.001343      -0.002479
   4      -0.002958       0.000044       0.000761
   5      -0.001093      -0.000771      -0.000464
   6       0.000492       0.000551       0.000294
   7      -0.000032       0.000452       0.000770
   8       0.000798       0.001200      -0.000283
   9       0.001261       0.000175       0.001150
  10      -0.000667       0.000875       0.000855
  11       0.000319       0.000128       0.000044
  12       0.000308       0.000158       0.000021
  13      -0.000312       0.000074       0.000235
  14      -0.000196      -0.000171      -0.000249
  15       0.000340      -0.000065      -0.000113
  16      -0.001204      -0.000157      -0.000052
  17      -0.001106      -0.000410      -0.000017
---------------------------------------------------
 Number of fixed atoms: 0
 Gradient time:  CPU 245.22 s  wall 20.59 s
 Geometry Optimization Parameters
   NAtoms,    NIC,     NZ,  NCons,   NDum,   NFix, NCnnct, MaxDiis
       17     103       0       0       0       0       0       0

 Cartesian Hessian Update
 Hessian updated using BFGS update


** GEOMETRY OPTIMIZATION IN DELOCALIZED INTERNAL COORDINATES **
   Searching for a Minimum

   Optimization Cycle:   2

                       Coordinates (Angstroms)
     ATOM                X               Y               Z
      1  O         0.9080311069   -0.5385779122    0.0987991133
      2  C         2.2811808360   -0.2525423336   -0.0472137502
      3  C         2.7274389171    0.8307531336    0.8898763046
      4  O         1.9023119897    1.3456345328    1.6411981187
      5  C         4.1413402799    1.2138660254    0.8423851951
      6  C         4.7238681367    2.1330294333    1.6147222852
      7  C         4.1209425616    2.9982371572    2.7118074766
      8  O         3.1304104705    3.8745800219    2.2224963736
      9  O         3.6638466085    2.2326410511    3.8052927419
     10  H         0.5665288043    0.0772426347    0.7666619279
     11  H         2.5102455636    0.0733872544   -1.0670352140
     12  H         2.8885206609   -1.1411684996    0.1492975531
     13  H         4.7418771996    0.6883951662    0.1115421224
     14  H         5.7819476854    2.3015333308    1.4556324860
     15  H         4.9052904843    3.6347787252    3.1094923823
     16  H         2.4128158233    3.3291768789    1.8653159351
     17  H         2.9585576718    1.6517447000    3.4836918484
   Point Group: c1    Number of degrees of freedom:    45


   Energy is   -496.236969307

 Hessian updated using BFGS update

 43 Hessian modes will be used to form the next step
  Hessian Eigenvalues:
     0.005804    0.008188    0.010379    0.013302    0.014058    0.014309
     0.014344    0.015805    0.022022    0.030223    0.061544    0.062138
     0.071795    0.076470    0.096278    0.114743    0.140747    0.146576
     0.160000    0.160658    0.201330    0.212803    0.217382    0.220105
     0.239710    0.247707    0.276679    0.295022    0.323225    0.336946
     0.341676    0.348106    0.350844    0.355981    0.393961    0.439598
     0.440125    0.444657    0.492860    0.521770    0.522879    0.558986
     0.857139

 Minimum search - taking simple RFO step
 Searching for Lamda that Minimizes Along All modes
 Value Taken    Lamda =  -0.00036762
 Step Taken.  Stepsize is  0.066147

                             Maximum     Tolerance    Cnvgd?
         Gradient           0.006859      0.000300      NO
         Displacement       0.033720      0.001200      NO
         Energy change     -0.000543      0.000001      NO


 New Cartesian Coordinates Obtained by Inverse Iteration

 Displacement from previous Coordinates is:  0.253839
 ----------------------------------------------------------------
             Standard Nuclear Orientation (Angstroms)
    I     Atom           X                Y                Z
 ----------------------------------------------------------------
    1      O       0.9090353854    -0.5189494820     0.1214079486
    2      C       2.2812947170    -0.2341519299    -0.0300793430
    3      C       2.7355421207     0.8496065774     0.8999192831
    4      O       1.9283267860     1.3739053699     1.6588999138
    5      C       4.1528010469     1.2193788174     0.8423437355
    6      C       4.7341540062     2.1340731032     1.6143418319
    7      C       4.1115559955     2.9881609583     2.7037260195
    8      O       3.1112744234     3.8444161664     2.2018187086
    9      O       3.6428767289     2.2089524153     3.7813821768
   10      H       0.5681641883     0.0918457106     0.7896662301
   11      H       2.5029731720     0.0874332311    -1.0510844916
   12      H       2.8848086164    -1.1236617151     0.1649202430
   13      H       4.7489347569     0.6910063399     0.1114296246
   14      H       5.7918510769     2.3072634064     1.4664658532
   15      H       4.8765551577     3.6350531784     3.1176124435
   16      H       2.4193989119     3.2894252374     1.8173994346
   17      H       2.9656077099     1.6089539151     3.4437932879
 ----------------------------------------------------------------
 Nuclear Repulsion Energy =         467.65647070 hartrees
 There are       35 alpha and       35 beta electrons
 Discretize the solute cavity surface with Lebedev spheres
	Using 110 Lebedev grid points for each H atom
	Using 194 Lebedev grid points for other atoms
	Atomic van der Waals radii will be scaled by 1.20
 Remove points where switching function is < 1.0e-08
 Keep 1285 surface tesserae and discard 1341 interior tesserae
 Molecular Surface Area = 147.196 Angst**2
 Applying Cartesian multipole field
    Component          Value
    ---------          -----
     (2,0,0)        1.00000E-12
     (0,2,0)        2.00000E-11
     (0,0,2)       -3.00000E-11
 Nucleus-field energy     =    -0.0000000049 hartrees
 Requested basis set is 6-311++G(2df,2p)
 There are 120 shells and 386 basis functions
 A cutoff of  1.0D-12 yielded   6465 shell pairs
 There are     66927 function pairs (     83152 Cartesian)
 Smallest overlap matrix eigenvalue = 3.96E-06
 Guess MOs from SCF MO coefficient file

 -----------------------------------------------------------------------
  General SCF calculation program by
  Eric Jon Sundstrom, Paul Horn, Yuezhi Mao, Dmitri Zuev, Alec White,
  David Stuck, Shaama M.S., Shane Yost, Joonho Lee, David Small,
  Daniel Levine, Susi Lehtola, Hugh Burton, Evgeny Epifanovsky,
  Bang C. Huynh
 -----------------------------------------------------------------------
 Exchange:     0.1500 Hartree-Fock + 1.0000 wB97M-V + LR-HF
 Correlation:  1.0000 wB97M-V
 Using SG-2 standard quadrature grid
 Nonlocal Correlation:  VV10 with C = 0.0100 and b = 6.00 and scale = 1.00000
 Grid used for NLC:  SG-1 standard quadrature
 
 Citation of the SMD model:
 Marenich, A.V.; Cramer, C.J.; Truhlar, D.G.
 J. Phys. Chem. B 2009, 113, 6378-6396.
 iSolventCode=           1
 Solvent: water                                                           
 
 vradii
            1           2           3           4           5           6
    1   1.5200000   1.8500000   1.8500000   1.5200000   1.8500000   1.8500000
            7           8           9          10          11          12
    1   1.8500000   1.5200000   1.5200000   1.2000000   1.2000000   1.2000000
           13          14          15          16          17
    1   1.2000000   1.2000000   1.2000000   1.2000000   1.2000000
 -------------------------------------------------------
 OpenMP BLAS3 based DFT computing Module                
 Release: version 1.0, May 2013, Q-Chem Inc. Pittsburgh 
 -------------------------------------------------------
 A restricted SCF calculation will be
 performed using Roothaan-Hall, DIIS, GDM
 SCF converges when RMS gradient is below 1.0e-07
 ---------------------------------------
  Cycle       Energy         DIIS error
 ---------------------------------------
    1    -496.2049216874      4.74e-04  Roothaan Step
 ---------------------------------------
  Cycle       Energy         DIIS error
 ---------------------------------------
    1    -496.2359866329      4.84e-04  
    2    -496.2399587940      4.40e-04  Done DIIS. Switching to GDM
 ---------------------------------------
  Cycle       Energy        RMS Gradient
 ---------------------------------------
    1    -496.2399587940      9.03e-03   Normal BFGS step
    2    -496.2396784261      1.20e-02  Line search: overstep
    3    -496.2424363417      2.18e-03   Normal BFGS step
    4    -496.2425714723      1.52e-03   Normal BFGS step
    5    -496.2425915743      7.09e-04   Normal BFGS step
    6    -496.2426002303      1.18e-04   Normal BFGS step
    7    -496.2426005469      1.51e-04   Normal BFGS step
    8    -496.2426006797      2.46e-05   Normal BFGS step
    9    -496.2426006868      2.48e-05   Normal BFGS step
   10    -496.2426006894      6.30e-06   Normal BFGS step
   11    -496.2426006896      8.88e-07   Normal BFGS step
   12    -496.2426006897      4.50e-07   Normal BFGS step
   13    -496.2426006897      2.29e-07   Normal BFGS step
   14    -496.2426006896      1.28e-07   Normal BFGS step
   15    -496.2426006896      6.28e-08  Convergence criterion met
 ---------------------------------------
 SCF time:   CPU 1425.84s  wall 98.00s 
(3)  G-ENP(liq) elect-nuc-pol free energy of system     -496.242600690 a.u.
(4)  G-CDS(liq) cavity-dispersion-solvent structure 
     free energy                                                3.5870 kcal/mol
(6)  G-S(liq) free energy of system                     -496.236884383 a.u.
 SCF   energy in the final basis set =     -496.2368843829
 Total energy in the final basis set =     -496.2368843829
 
 --------------------------------------------------------------
 
                    Orbital Energies (a.u.)
 --------------------------------------------------------------
 
 Alpha MOs
 -- Occupied --
-19.3516 -19.3441 -19.3424 -19.3424 -10.4564 -10.4526 -10.3962 -10.3730
-10.3580  -1.2137  -1.1978  -1.1580  -1.1332  -0.9385  -0.8676  -0.8118
 -0.7364  -0.6669  -0.6573  -0.6465  -0.6204  -0.5979  -0.5930  -0.5541
 -0.5420  -0.5216  -0.5165  -0.4872  -0.4858  -0.4665  -0.4223  -0.4146
 -0.4010  -0.3852  -0.3773
 -- Virtual --
 -0.0019   0.0227   0.0364   0.0413   0.0524   0.0581   0.0625   0.0723
  0.0814   0.1014   0.1047   0.1174   0.1241   0.1287   0.1314   0.1357
  0.1505   0.1576   0.1588   0.1612   0.1725   0.1741   0.1761   0.1902
  0.1999   0.2002   0.2086   0.2271   0.2365   0.2420   0.2506   0.2537
  0.2688   0.2759   0.2871   0.2932   0.2984   0.3002   0.3156   0.3252
  0.3290   0.3337   0.3377   0.3458   0.3468   0.3574   0.3586   0.3611
  0.3710   0.3780   0.3796   0.3872   0.4021   0.4070   0.4156   0.4297
  0.4509   0.4627   0.4653   0.5077   0.5267   0.5468   0.5534   0.5738
  0.5780   0.5976   0.6060   0.6162   0.6190   0.6296   0.6339   0.6439
  0.6520   0.6650   0.6739   0.6845   0.6943   0.7047   0.7217   0.7261
  0.7553   0.7608   0.7642   0.7843   0.8010   0.8063   0.8323   0.8373
  0.8492   0.8549   0.8815   0.8887   0.9036   0.9048   0.9400   0.9563
  0.9750   1.0061   1.0358   1.0612   1.0654   1.0692   1.0815   1.0845
  1.0931   1.1040   1.1217   1.1309   1.1625   1.1671   1.1762   1.1889
  1.2169   1.2182   1.2235   1.2359   1.2408   1.2540   1.2673   1.2824
  1.2885   1.2904   1.3076   1.3330   1.3637   1.3773   1.4089   1.4278
  1.4345   1.4383   1.4442   1.4552   1.4704   1.4830   1.4951   1.5075
  1.5180   1.5335   1.5421   1.5495   1.5669   1.6045   1.6131   1.6259
  1.6322   1.6441   1.6853   1.7053   1.7266   1.7549   1.8465   1.9059
  1.9203   1.9257   1.9510   1.9953   1.9975   2.0287   2.0356   2.0701
  2.1227   2.1527   2.2064   2.2182   2.2239   2.2814   2.3011   2.3672
  2.3886   2.4215   2.4235   2.4530   2.5474   2.5613   2.5705   2.6423
  2.6542   2.6773   2.6950   2.7633   2.7685   2.8027   2.8181   2.8219
  2.8693   2.8781   2.9052   2.9176   2.9251   2.9488   2.9635   2.9957
  3.0062   3.0092   3.0591   3.0639   3.1241   3.1445   3.1628   3.1654
  3.2026   3.2159   3.2300   3.2571   3.2721   3.2762   3.3227   3.3272
  3.3318   3.3487   3.3720   3.3939   3.4068   3.4494   3.4935   3.5087
  3.5131   3.5360   3.5379   3.5821   3.5891   3.5976   3.6361   3.6469
  3.6614   3.7026   3.7086   3.7152   3.7364   3.7582   3.7702   3.8050
  3.8103   3.8273   3.8662   3.8687   3.8789   3.8891   3.9092   3.9216
  3.9664   3.9809   4.0178   4.0233   4.0651   4.1061   4.1174   4.1359
  4.1854   4.2012   4.2059   4.2200   4.2448   4.2460   4.2572   4.3137
  4.3499   4.3505   4.3716   4.4056   4.4094   4.4534   4.4585   4.4621
  4.4966   4.5307   4.5588   4.6228   4.6369   4.7106   4.8057   4.8284
  4.8815   4.9422   5.0591   5.1879   5.2113   5.2131   5.2204   5.2517
  5.2593   5.2643   5.2993   5.3026   5.3190   5.3228   5.3509   5.3841
  5.4211   5.4370   5.4407   5.4725   5.5305   5.5528   5.5739   5.5873
  5.6125   5.6275   5.6387   5.6517   5.6606   5.6694   5.7165   5.7243
  5.8002   5.8446   5.8755   5.9088   5.9707   6.0376   6.0865   6.1481
  6.1591   6.3491   6.6022   6.6281   6.7062   6.8766   7.0664   7.0721
  7.0840   7.0952   7.1463   7.2138   7.2381   7.2964   7.3241   7.3398
  7.3566   7.4105   7.4279   7.4421   7.4664   7.4813   7.6337   7.6489
  7.7102   7.7260   7.7624   7.8186   7.8305   7.8628  24.4179  24.7825
 24.8170  25.0321  25.2480  50.5749  50.6102  50.6548  50.7585
 --------------------------------------------------------------
 
          Ground-State Mulliken Net Atomic Charges

     Atom                 Charge (a.u.)
  ----------------------------------------
      1 O                    -0.447826
      2 C                    -0.501177
      3 C                     0.332567
      4 O                    -0.469156
      5 C                     0.071076
      6 C                     0.026684
      7 C                    -0.512014
      8 O                    -0.410171
      9 O                    -0.403706
     10 H                     0.350457
     11 H                     0.216593
     12 H                     0.217014
     13 H                     0.303683
     14 H                     0.261260
     15 H                     0.265605
     16 H                     0.351791
     17 H                     0.347320
  ----------------------------------------
  Sum of atomic charges =     0.000000

 -----------------------------------------------------------------
                    Cartesian Multipole Moments
 -----------------------------------------------------------------
    Charge (ESU x 10^10)
                 0.0000
    Dipole Moment (Debye)
         X       3.7783      Y      -2.2593      Z      -3.4785
       Tot       5.6107
    Quadrupole Moments (Debye-Ang)
        XX     -28.8011     XY      -4.8951     YY     -70.1363
        XZ     -10.6393     YZ     -12.5742     ZZ     -70.6439
    Octopole Moments (Debye-Ang^2)
       XXX    -349.2716    XXY     -64.1363    XYY    -196.4233
       YYY    -320.8617    XXZ     -99.8607    XYZ     -26.2383
       YYZ    -126.0812    XZZ    -221.8987    YZZ    -132.3106
       ZZZ    -325.2363
    Hexadecapole Moments (Debye-Ang^3)
      XXXX   -2715.0520   XXXY    -658.1022   XXYY    -819.5234
      XYYY   -1101.1532   YYYY   -1778.8405   XXXZ    -825.4202
      XXYZ    -198.9678   XYYZ    -372.3676   YYYZ    -761.5034
      XXZZ    -981.0704   XYZZ    -438.7960   YYZZ    -598.3351
      XZZZ   -1151.7227   YZZZ    -794.9576   ZZZZ   -1629.9519
 -----------------------------------------------------------------
 Calculating analytic gradient of the SCF energy
 Gradient of CDS energy
            1           2           3           4           5           6
    1   0.0020706  -0.0024587  -0.0008460   0.0005732   0.0002783   0.0002317
    2   0.0004365  -0.0012654   0.0005723  -0.0004131  -0.0001175  -0.0000278
    3  -0.0001968  -0.0004950   0.0008064  -0.0005882  -0.0002166  -0.0001000
            7           8           9          10          11          12
    1  -0.0019723   0.0015681   0.0006254  -0.0004317   0.0001602   0.0001979
    2   0.0008130  -0.0014009   0.0011072  -0.0000298   0.0001973   0.0000361
    3   0.0011913   0.0008122  -0.0015510   0.0000870  -0.0000148   0.0001399
           13          14          15          16          17
    1   0.0000868   0.0002061   0.0001203  -0.0002756  -0.0001344
    2  -0.0000829   0.0000464   0.0000776   0.0002568  -0.0002058
    3  -0.0001125  -0.0000160   0.0000437  -0.0001160   0.0003264
 Gradient of SCF Energy
            1           2           3           4           5           6
    1  -0.0002213  -0.0200917   0.0020571  -0.0017975  -0.0046442  -0.0073675
    2  -0.0060983   0.0062301  -0.0013493   0.0050859   0.0009732   0.0068617
    3  -0.0054584   0.0128062  -0.0030453   0.0056022   0.0028930   0.0091500
            7           8           9          10          11          12
    1  -0.0035409  -0.0003538   0.0008478  -0.0004630   0.0053979   0.0083105
    2  -0.0030903   0.0029789   0.0038527   0.0034388   0.0023872  -0.0067740
    3  -0.0016538   0.0029121   0.0035900   0.0031132  -0.0088777   0.0001411
           13          14          15          16          17
    1   0.0085519   0.0121701   0.0046743  -0.0015297  -0.0019999
    2  -0.0087252   0.0016055   0.0004509  -0.0030723  -0.0047554
    3  -0.0115481  -0.0022638  -0.0010358  -0.0035579  -0.0027670
 Max gradient component =       2.009E-02
 RMS gradient           =       5.952E-03
 Computing fast CPCM-SWIG gradient
 Updating gradient with PCM contributions...
 -- total gradient after adding PCM contribution --
---------------------------------------------------
  Atom         X              Y              Z     
---------------------------------------------------
   1       0.000305       0.000915       0.000867
   2       0.000668      -0.000242      -0.000224
   3      -0.000262       0.001434       0.000592
   4       0.002689       0.000675       0.000026
   5       0.000122       0.001193       0.001694
   6      -0.001410      -0.001538      -0.001264
   7       0.003043       0.001464       0.000903
   8      -0.001697      -0.004110      -0.000684
   9      -0.002305      -0.000933      -0.003134
  10       0.000268      -0.000780      -0.000927
  11      -0.000273      -0.000253       0.000945
  12      -0.000647       0.000724      -0.000217
  13      -0.000404       0.000499       0.000679
  14      -0.000958      -0.000052       0.000123
  15      -0.000363      -0.000556      -0.000465
  16       0.000535       0.001191       0.000102
  17       0.000689       0.000367       0.000983
---------------------------------------------------
 Number of fixed atoms: 0
 Gradient time:  CPU 257.44 s  wall 20.90 s
 Geometry Optimization Parameters
   NAtoms,    NIC,     NZ,  NCons,   NDum,   NFix, NCnnct, MaxDiis
       17     103       0       0       0       0       0       0

 Cartesian Hessian Update
 Hessian updated using BFGS update


** GEOMETRY OPTIMIZATION IN DELOCALIZED INTERNAL COORDINATES **
   Searching for a Minimum

   Optimization Cycle:   3

                       Coordinates (Angstroms)
     ATOM                X               Y               Z
      1  O         0.9090353854   -0.5189494820    0.1214079486
      2  C         2.2812947170   -0.2341519299   -0.0300793430
      3  C         2.7355421207    0.8496065774    0.8999192831
      4  O         1.9283267860    1.3739053699    1.6588999138
      5  C         4.1528010469    1.2193788174    0.8423437355
      6  C         4.7341540062    2.1340731032    1.6143418319
      7  C         4.1115559955    2.9881609583    2.7037260195
      8  O         3.1112744234    3.8444161664    2.2018187086
      9  O         3.6428767289    2.2089524153    3.7813821768
     10  H         0.5681641883    0.0918457106    0.7896662301
     11  H         2.5029731720    0.0874332311   -1.0510844916
     12  H         2.8848086164   -1.1236617151    0.1649202430
     13  H         4.7489347569    0.6910063399    0.1114296246
     14  H         5.7918510769    2.3072634064    1.4664658532
     15  H         4.8765551577    3.6350531784    3.1176124435
     16  H         2.4193989119    3.2894252374    1.8173994346
     17  H         2.9656077099    1.6089539151    3.4437932879
   Point Group: c1    Number of degrees of freedom:    45


   Energy is   -496.236884383

 Hessian updated using BFGS update

 45 Hessian modes will be used to form the next step
  Hessian Eigenvalues:
     0.005842    0.008188    0.010391    0.013305    0.013534    0.014305
     0.014347    0.015807    0.022009    0.030137    0.062103    0.070574
     0.071795    0.076447    0.095290    0.114517    0.140754    0.157734
     0.159999    0.160000    0.160065    0.165806    0.202900    0.211631
     0.215661    0.220343    0.235571    0.247128    0.294532    0.315844
     0.335645    0.337094    0.346088    0.349996    0.351344    0.361903
     0.431700    0.439655    0.440140    0.490166    0.518117    0.522457
     0.523459    0.775323    0.853183

 Minimum search - taking simple RFO step
 Searching for Lamda that Minimizes Along All modes
 Value Taken    Lamda =  -0.00040163
 Step Taken.  Stepsize is  0.039484

                             Maximum     Tolerance    Cnvgd?
         Gradient           0.013356      0.000300      NO
         Displacement       0.017029      0.001200      NO
         Energy change      0.000085      0.000001      NO


 New Cartesian Coordinates Obtained by Inverse Iteration

 Displacement from previous Coordinates is:  0.174858
 ----------------------------------------------------------------
             Standard Nuclear Orientation (Angstroms)
    I     Atom           X                Y                Z
 ----------------------------------------------------------------
    1      O       0.9100022176    -0.5403551834     0.1078033332
    2      C       2.2807589391    -0.2456211241    -0.0396903071
    3      C       2.7250915389     0.8383494678     0.8972461324
    4      O       1.9089181852     1.3527831132     1.6550135631
    5      C       4.1421504028     1.2189810705     0.8420514805
    6      C       4.7271812692     2.1346467173     1.6149693945
    7      C       4.1176640704     2.9946132700     2.7101951700
    8      O       3.1330365639     3.8742793470     2.2176105159
    9      O       3.6478317593     2.2219542839     3.7922550713
   10      H       0.5670293565     0.0669539765     0.7798178342
   11      H       2.5029772297     0.0819398938    -1.0601420985
   12      H       2.8908254427    -1.1327710362     0.1531726754
   13      H       4.7401430985     0.6925423918     0.1093109141
   14      H       5.7863359944     2.3028962332     1.4623926064
   15      H       4.8952563004     3.6291770448     3.1225149700
   16      H       2.4304015706     3.3291967580     1.8355614198
   17      H       2.9595508609     1.6331450757     3.4538802248
 ----------------------------------------------------------------
 Nuclear Repulsion Energy =         465.89798231 hartrees
 There are       35 alpha and       35 beta electrons
 Discretize the solute cavity surface with Lebedev spheres
	Using 110 Lebedev grid points for each H atom
	Using 194 Lebedev grid points for other atoms
	Atomic van der Waals radii will be scaled by 1.20
 Remove points where switching function is < 1.0e-08
 Keep 1287 surface tesserae and discard 1339 interior tesserae
 Molecular Surface Area = 147.904 Angst**2
 Applying Cartesian multipole field
    Component          Value
    ---------          -----
     (2,0,0)        1.00000E-12
     (0,2,0)        2.00000E-11
     (0,0,2)       -3.00000E-11
 Nucleus-field energy     =    -0.0000000049 hartrees
 Requested basis set is 6-311++G(2df,2p)
 There are 120 shells and 386 basis functions
 A cutoff of  1.0D-12 yielded   6458 shell pairs
 There are     66851 function pairs (     83064 Cartesian)
 Smallest overlap matrix eigenvalue = 4.06E-06
 Guess MOs from SCF MO coefficient file

 -----------------------------------------------------------------------
  General SCF calculation program by
  Eric Jon Sundstrom, Paul Horn, Yuezhi Mao, Dmitri Zuev, Alec White,
  David Stuck, Shaama M.S., Shane Yost, Joonho Lee, David Small,
  Daniel Levine, Susi Lehtola, Hugh Burton, Evgeny Epifanovsky,
  Bang C. Huynh
 -----------------------------------------------------------------------
 Exchange:     0.1500 Hartree-Fock + 1.0000 wB97M-V + LR-HF
 Correlation:  1.0000 wB97M-V
 Using SG-2 standard quadrature grid
 Nonlocal Correlation:  VV10 with C = 0.0100 and b = 6.00 and scale = 1.00000
 Grid used for NLC:  SG-1 standard quadrature
 
 Citation of the SMD model:
 Marenich, A.V.; Cramer, C.J.; Truhlar, D.G.
 J. Phys. Chem. B 2009, 113, 6378-6396.
 iSolventCode=           1
 Solvent: water                                                           
 
 vradii
            1           2           3           4           5           6
    1   1.5200000   1.8500000   1.8500000   1.5200000   1.8500000   1.8500000
            7           8           9          10          11          12
    1   1.8500000   1.5200000   1.5200000   1.2000000   1.2000000   1.2000000
           13          14          15          16          17
    1   1.2000000   1.2000000   1.2000000   1.2000000   1.2000000
 -------------------------------------------------------
 OpenMP BLAS3 based DFT computing Module                
 Release: version 1.0, May 2013, Q-Chem Inc. Pittsburgh 
 -------------------------------------------------------
 A restricted SCF calculation will be
 performed using Roothaan-Hall, DIIS, GDM
 SCF converges when RMS gradient is below 1.0e-07
 ---------------------------------------
  Cycle       Energy         DIIS error
 ---------------------------------------
    1    -496.2054954841      4.51e-04  Roothaan Step
 ---------------------------------------
  Cycle       Energy         DIIS error
 ---------------------------------------
    1    -496.2363143773      4.83e-04  
    2    -496.2400731187      4.51e-04  Done DIIS. Switching to GDM
 ---------------------------------------
  Cycle       Energy        RMS Gradient
 ---------------------------------------
    1    -496.2400731187      1.03e-02   Normal BFGS step
    2    -496.2396143603      1.55e-02  Line search: overstep
    3    -496.2426567561      2.22e-03   Normal BFGS step
    4    -496.2427902183      1.66e-03   Normal BFGS step
    5    -496.2428119773      7.11e-04   Normal BFGS step
    6    -496.2428204798      9.74e-05   Normal BFGS step
    7    -496.2428207650      1.59e-04   Normal BFGS step
    8    -496.2428208823      2.95e-05   Normal BFGS step
    9    -496.2428208896      2.37e-05   Normal BFGS step
   10    -496.2428208920      4.65e-06   Normal BFGS step
   11    -496.2428208922      8.04e-07   Normal BFGS step
   12    -496.2428208922      5.06e-07   Normal BFGS step
   13    -496.2428208922      1.55e-07   Normal BFGS step
   14    -496.2428208923      6.26e-08  Convergence criterion met
 ---------------------------------------
 SCF time:   CPU 1356.31s  wall 94.00s 
(3)  G-ENP(liq) elect-nuc-pol free energy of system     -496.242820892 a.u.
(4)  G-CDS(liq) cavity-dispersion-solvent structure 
     free energy                                                3.6115 kcal/mol
(6)  G-S(liq) free energy of system                     -496.237065553 a.u.
 SCF   energy in the final basis set =     -496.2370655532
 Total energy in the final basis set =     -496.2370655532
 
 --------------------------------------------------------------
 
                    Orbital Energies (a.u.)
 --------------------------------------------------------------
 
 Alpha MOs
 -- Occupied --
-19.3517 -19.3450 -19.3444 -19.3425 -10.4565 -10.4531 -10.3964 -10.3738
-10.3590  -1.2122  -1.1984  -1.1576  -1.1341  -0.9373  -0.8670  -0.8112
 -0.7358  -0.6666  -0.6566  -0.6459  -0.6192  -0.5978  -0.5922  -0.5536
 -0.5423  -0.5207  -0.5159  -0.4885  -0.4855  -0.4664  -0.4229  -0.4149
 -0.4009  -0.3854  -0.3773
 -- Virtual --
 -0.0019   0.0226   0.0364   0.0413   0.0524   0.0580   0.0625   0.0721
  0.0816   0.1011   0.1047   0.1173   0.1241   0.1288   0.1313   0.1352
  0.1503   0.1573   0.1587   0.1612   0.1727   0.1740   0.1763   0.1891
  0.1995   0.2003   0.2086   0.2275   0.2360   0.2421   0.2494   0.2527
  0.2686   0.2755   0.2860   0.2927   0.2977   0.3003   0.3146   0.3229
  0.3269   0.3344   0.3371   0.3454   0.3465   0.3565   0.3580   0.3605
  0.3702   0.3770   0.3800   0.3867   0.4014   0.4053   0.4150   0.4284
  0.4509   0.4624   0.4638   0.5072   0.5286   0.5458   0.5526   0.5734
  0.5783   0.5981   0.6068   0.6147   0.6178   0.6285   0.6329   0.6444
  0.6512   0.6644   0.6738   0.6843   0.6937   0.7036   0.7213   0.7262
  0.7543   0.7579   0.7637   0.7823   0.7986   0.8056   0.8323   0.8369
  0.8489   0.8545   0.8810   0.8850   0.9023   0.9035   0.9393   0.9544
  0.9707   1.0073   1.0343   1.0603   1.0635   1.0686   1.0800   1.0816
  1.0896   1.1023   1.1200   1.1258   1.1608   1.1658   1.1758   1.1843
  1.2149   1.2163   1.2240   1.2360   1.2399   1.2527   1.2667   1.2781
  1.2870   1.2878   1.3040   1.3278   1.3623   1.3760   1.4071   1.4279
  1.4317   1.4384   1.4432   1.4564   1.4707   1.4817   1.4933   1.5079
  1.5185   1.5340   1.5409   1.5478   1.5681   1.6019   1.6064   1.6244
  1.6295   1.6430   1.6854   1.7009   1.7239   1.7510   1.8418   1.9020
  1.9147   1.9250   1.9424   1.9935   1.9949   2.0289   2.0330   2.0552
  2.1202   2.1558   2.2074   2.2195   2.2245   2.2748   2.2892   2.3444
  2.3834   2.4195   2.4216   2.4475   2.5466   2.5603   2.5708   2.6409
  2.6533   2.6784   2.6917   2.7583   2.7645   2.8022   2.8177   2.8192
  2.8690   2.8778   2.9022   2.9174   2.9233   2.9490   2.9616   2.9938
  3.0037   3.0069   3.0570   3.0594   3.1234   3.1405   3.1611   3.1625
  3.1990   3.2144   3.2269   3.2570   3.2693   3.2739   3.3198   3.3251
  3.3324   3.3474   3.3693   3.3934   3.4035   3.4481   3.4910   3.5059
  3.5106   3.5344   3.5377   3.5788   3.5856   3.5933   3.6360   3.6439
  3.6559   3.7013   3.7040   3.7163   3.7323   3.7532   3.7679   3.8012
  3.8047   3.8249   3.8635   3.8650   3.8764   3.8855   3.9054   3.9194
  3.9625   3.9789   4.0143   4.0209   4.0639   4.1027   4.1151   4.1343
  4.1845   4.2001   4.2028   4.2141   4.2405   4.2455   4.2549   4.3085
  4.3381   4.3473   4.3681   4.3996   4.4032   4.4481   4.4522   4.4558
  4.4856   4.5247   4.5490   4.6173   4.6347   4.7076   4.7999   4.8246
  4.8782   4.9402   5.0566   5.1868   5.2095   5.2106   5.2182   5.2465
  5.2563   5.2618   5.2950   5.3033   5.3189   5.3217   5.3457   5.3811
  5.4165   5.4354   5.4365   5.4671   5.5284   5.5502   5.5689   5.5880
  5.6082   5.6195   5.6348   5.6452   5.6557   5.6688   5.7178   5.7212
  5.7914   5.8370   5.8699   5.9072   5.9613   6.0319   6.0782   6.1440
  6.1655   6.3458   6.5983   6.6268   6.7030   6.8705   7.0542   7.0708
  7.0773   7.0934   7.1415   7.2066   7.2357   7.2958   7.3192   7.3342
  7.3537   7.4087   7.4248   7.4330   7.4542   7.4676   7.6275   7.6429
  7.7018   7.7233   7.7611   7.8193   7.8283   7.8593  24.4148  24.7763
 24.8119  25.0238  25.2322  50.5721  50.6094  50.6490  50.7530
 --------------------------------------------------------------
 
          Ground-State Mulliken Net Atomic Charges

     Atom                 Charge (a.u.)
  ----------------------------------------
      1 O                    -0.447140
      2 C                    -0.502729
      3 C                     0.342654
      4 O                    -0.473278
      5 C                     0.065773
      6 C                     0.031161
      7 C                    -0.518209
      8 O                    -0.404134
      9 O                    -0.401078
     10 H                     0.349848
     11 H                     0.215768
     12 H                     0.216106
     13 H                     0.303650
     14 H                     0.260954
     15 H                     0.263460
     16 H                     0.350160
     17 H                     0.347035
  ----------------------------------------
  Sum of atomic charges =     0.000000

 -----------------------------------------------------------------
                    Cartesian Multipole Moments
 -----------------------------------------------------------------
    Charge (ESU x 10^10)
                 0.0000
    Dipole Moment (Debye)
         X       3.7450      Y      -2.1715      Z      -3.4492
       Tot       5.5351
    Quadrupole Moments (Debye-Ang)
        XX     -29.1262     XY      -4.9425     YY     -70.0660
        XZ     -10.7194     YZ     -12.5005     ZZ     -70.6538
    Octopole Moments (Debye-Ang^2)
       XXX    -351.0451    XXY     -65.2780    XYY    -197.3548
       YYY    -320.9327    XXZ    -100.6768    XYZ     -26.6667
       YYZ    -126.3460    XZZ    -222.2953    YZZ    -132.3543
       ZZZ    -325.5109
    Hexadecapole Moments (Debye-Ang^3)
      XXXX   -2723.6434   XXXY    -667.1935   XXYY    -828.1952
      XYYY   -1110.2760   YYYY   -1795.0795   XXXZ    -831.0552
      XXYZ    -203.7449   XYYZ    -376.9427   YYYZ    -769.0349
      XXZZ    -984.7228   XYZZ    -441.9062   YYZZ    -603.7276
      XZZZ   -1155.6970   YZZZ    -800.2798   ZZZZ   -1637.7989
 -----------------------------------------------------------------
 Calculating analytic gradient of the SCF energy
 Gradient of CDS energy
            1           2           3           4           5           6
    1   0.0020240  -0.0024094  -0.0008805   0.0005969   0.0002793   0.0002274
    2   0.0004420  -0.0012714   0.0005758  -0.0004204  -0.0001158  -0.0000250
    3  -0.0001858  -0.0005108   0.0008298  -0.0006067  -0.0002161  -0.0000989
            7           8           9          10          11          12
    1  -0.0019183   0.0015288   0.0006179  -0.0004305   0.0001602   0.0001990
    2   0.0008478  -0.0014173   0.0010798  -0.0000331   0.0001986   0.0000352
    3   0.0011835   0.0007921  -0.0015249   0.0000864  -0.0000156   0.0001403
           13          14          15          16          17
    1   0.0000882   0.0002076   0.0001218  -0.0002765  -0.0001360
    2  -0.0000824   0.0000447   0.0000795   0.0002638  -0.0002017
    3  -0.0001127  -0.0000176   0.0000461  -0.0001166   0.0003274
 Gradient of SCF Energy
            1           2           3           4           5           6
    1  -0.0003292  -0.0209179   0.0030107  -0.0050074  -0.0051207  -0.0059341
    2  -0.0068637   0.0062408  -0.0027119   0.0040516  -0.0002111   0.0084751
    3  -0.0061528   0.0130707  -0.0037699   0.0056343   0.0011467   0.0105988
            7           8           9          10          11          12
    1  -0.0073116   0.0022796   0.0032882  -0.0004784   0.0055651   0.0087677
    2  -0.0044903   0.0073029   0.0044645   0.0040136   0.0026451  -0.0073228
    3  -0.0028951   0.0038432   0.0062481   0.0036898  -0.0096155   0.0002501
           13          14          15          16          17
    1   0.0089083   0.0130754   0.0047832  -0.0020475  -0.0025313
    2  -0.0090711   0.0014884   0.0010167  -0.0044532  -0.0045745
    3  -0.0121259  -0.0022935  -0.0005309  -0.0034419  -0.0036563
 Max gradient component =       2.092E-02
 RMS gradient           =       6.549E-03
 Computing fast CPCM-SWIG gradient
 Updating gradient with PCM contributions...
 -- total gradient after adding PCM contribution --
---------------------------------------------------
  Atom         X              Y              Z     
---------------------------------------------------
   1       0.000226       0.000024       0.000084
   2      -0.000269       0.000027       0.000156
   3       0.000569       0.000004      -0.000246
   4      -0.000250      -0.000063       0.000191
   5      -0.000337       0.000023       0.000131
   6      -0.000048      -0.000073      -0.000057
   7      -0.000513       0.000064      -0.000229
   8       0.000359       0.000113       0.000120
   9      -0.000096      -0.000248      -0.000492
  10       0.000223      -0.000093      -0.000268
  11      -0.000087      -0.000045       0.000099
  12      -0.000176       0.000028      -0.000075
  13       0.000005       0.000063       0.000074
  14      -0.000038      -0.000089       0.000119
  15      -0.000316      -0.000011       0.000026
  16       0.000436      -0.000079       0.000235
  17       0.000313       0.000355       0.000134
---------------------------------------------------
 Number of fixed atoms: 0
 Gradient time:  CPU 243.15 s  wall 20.49 s
 Geometry Optimization Parameters
   NAtoms,    NIC,     NZ,  NCons,   NDum,   NFix, NCnnct, MaxDiis
       17     103       0       0       0       0       0       0

 Cartesian Hessian Update
 Hessian updated using BFGS update


** GEOMETRY OPTIMIZATION IN DELOCALIZED INTERNAL COORDINATES **
   Searching for a Minimum

   Optimization Cycle:   4

                       Coordinates (Angstroms)
     ATOM                X               Y               Z
      1  O         0.9100022176   -0.5403551834    0.1078033332
      2  C         2.2807589391   -0.2456211241   -0.0396903071
      3  C         2.7250915389    0.8383494678    0.8972461324
      4  O         1.9089181852    1.3527831132    1.6550135631
      5  C         4.1421504028    1.2189810705    0.8420514805
      6  C         4.7271812692    2.1346467173    1.6149693945
      7  C         4.1176640704    2.9946132700    2.7101951700
      8  O         3.1330365639    3.8742793470    2.2176105159
      9  O         3.6478317593    2.2219542839    3.7922550713
     10  H         0.5670293565    0.0669539765    0.7798178342
     11  H         2.5029772297    0.0819398938   -1.0601420985
     12  H         2.8908254427   -1.1327710362    0.1531726754
     13  H         4.7401430985    0.6925423918    0.1093109141
     14  H         5.7863359944    2.3028962332    1.4623926064
     15  H         4.8952563004    3.6291770448    3.1225149700
     16  H         2.4304015706    3.3291967580    1.8355614198
     17  H         2.9595508609    1.6331450757    3.4538802248
   Point Group: c1    Number of degrees of freedom:    45


   Energy is   -496.237065553

 Hessian updated using BFGS update

 45 Hessian modes will be used to form the next step
  Hessian Eigenvalues:
     0.005984    0.008187    0.010365    0.013312    0.013531    0.014305
     0.014339    0.015831    0.022077    0.030373    0.062104    0.070391
     0.071850    0.076438    0.095491    0.114456    0.140743    0.157469
     0.159776    0.159999    0.160044    0.170730    0.203601    0.212060
     0.215637    0.220401    0.235598    0.247128    0.294084    0.316367
     0.334582    0.337031    0.345749    0.350137    0.351440    0.358309
     0.436970    0.439733    0.440154    0.485790    0.516395    0.522294
     0.524308    0.778639    0.855783

 Minimum search - taking simple RFO step
 Searching for Lamda that Minimizes Along All modes
 Value Taken    Lamda =  -0.00002462
 Step Taken.  Stepsize is  0.041567

                             Maximum     Tolerance    Cnvgd?
         Gradient           0.000724      0.000300      NO
         Displacement       0.027989      0.001200      NO
         Energy change     -0.000181      0.000001      NO


 New Cartesian Coordinates Obtained by Inverse Iteration

 Displacement from previous Coordinates is:  0.125279
 ----------------------------------------------------------------
             Standard Nuclear Orientation (Angstroms)
    I     Atom           X                Y                Z
 ----------------------------------------------------------------
    1      O       0.9060099249    -0.5295213954     0.0981079268
    2      C       2.2803330510    -0.2450240026    -0.0412761969
    3      C       2.7249852472     0.8393039889     0.8951518582
    4      O       1.9060549345     1.3634921009     1.6432586205
    5      C       4.1439437262     1.2152991240     0.8444219995
[...]
 
 --------------------------------------------------------------
 
                    Orbital Energies (a.u.)
 --------------------------------------------------------------
 
 Alpha MOs
 -- Occupied --
-19.3517 -19.3453 -19.3439 -19.3425 -10.4565 -10.4533 -10.3965 -10.3738
-10.3591  -1.2122  -1.1981  -1.1574  -1.1338  -0.9372  -0.8670  -0.8112
 -0.7356  -0.6666  -0.6565  -0.6457  -0.6193  -0.5977  -0.5922  -0.5537
 -0.5422  -0.5206  -0.5158  -0.4884  -0.4854  -0.4662  -0.4227  -0.4149
 -0.4009  -0.3853  -0.3773
 -- Virtual --
 -0.0018   0.0226   0.0364   0.0413   0.0524   0.0580   0.0625   0.0720
  0.0816   0.1011   0.1047   0.1173   0.1240   0.1288   0.1314   0.1352
  0.1503   0.1573   0.1587   0.1612   0.1726   0.1739   0.1763   0.1891
  0.1995   0.2002   0.2086   0.2274   0.2360   0.2420   0.2491   0.2528
  0.2686   0.2754   0.2861   0.2927   0.2977   0.3003   0.3144   0.3233
  0.3268   0.3342   0.3370   0.3454   0.3464   0.3563   0.3580   0.3604
  0.3702   0.3770   0.3799   0.3866   0.4014   0.4054   0.4150   0.4285
  0.4510   0.4623   0.4635   0.5070   0.5281   0.5457   0.5526   0.5735
  0.5781   0.5981   0.6067   0.6149   0.6178   0.6280   0.6330   0.6441
  0.6511   0.6644   0.6735   0.6842   0.6936   0.7034   0.7212   0.7262
  0.7537   0.7593   0.7636   0.7820   0.7986   0.8058   0.8319   0.8366
  0.8492   0.8545   0.8803   0.8852   0.9021   0.9034   0.9391   0.9542
  0.9704   1.0073   1.0340   1.0600   1.0640   1.0686   1.0802   1.0810
  1.0900   1.1024   1.1200   1.1262   1.1609   1.1661   1.1756   1.1844
  1.2149   1.2166   1.2239   1.2355   1.2400   1.2527   1.2665   1.2781
  1.2870   1.2878   1.3044   1.3280   1.3620   1.3762   1.4068   1.4276
  1.4315   1.4378   1.4427   1.4563   1.4707   1.4814   1.4932   1.5079
  1.5185   1.5336   1.5412   1.5477   1.5675   1.6007   1.6068   1.6242
  1.6292   1.6429   1.6847   1.7017   1.7234   1.7507   1.8416   1.8995
  1.9161   1.9250   1.9425   1.9928   1.9949   2.0271   2.0333   2.0566
  2.1198   2.1551   2.2064   2.2192   2.2233   2.2733   2.2920   2.3462
  2.3834   2.4189   2.4215   2.4486   2.5470   2.5602   2.5704   2.6405
  2.6534   2.6777   2.6917   2.7589   2.7637   2.8019   2.8177   2.8193
  2.8691   2.8777   2.9021   2.9171   2.9234   2.9488   2.9617   2.9936
  3.0030   3.0067   3.0564   3.0600   3.1231   3.1400   3.1611   3.1624
  3.1984   3.2140   3.2269   3.2565   3.2691   3.2732   3.3191   3.3256
  3.3321   3.3474   3.3689   3.3931   3.4034   3.4484   3.4910   3.5055
  3.5113   3.5340   3.5376   3.5790   3.5855   3.5938   3.6359   3.6439
  3.6563   3.7011   3.7039   3.7161   3.7318   3.7531   3.7678   3.8014
  3.8048   3.8248   3.8635   3.8650   3.8759   3.8855   3.9053   3.9192
  3.9620   3.9784   4.0140   4.0204   4.0634   4.1020   4.1146   4.1343
  4.1841   4.1988   4.2032   4.2141   4.2401   4.2446   4.2541   4.3082
  4.3380   4.3466   4.3679   4.3992   4.4027   4.4477   4.4516   4.4551
  4.4853   4.5239   4.5490   4.6172   4.6341   4.7071   4.7995   4.8240
  4.8776   4.9386   5.0562   5.1871   5.2092   5.2103   5.2181   5.2461
  5.2559   5.2618   5.2947   5.3027   5.3179   5.3219   5.3454   5.3806
  5.4160   5.4347   5.4363   5.4668   5.5279   5.5492   5.5688   5.5870
  5.6081   5.6189   5.6341   5.6451   5.6552   5.6680   5.7165   5.7205
  5.7909   5.8364   5.8697   5.9060   5.9617   6.0315   6.0775   6.1426
  6.1635   6.3466   6.5970   6.6254   6.7016   6.8708   7.0542   7.0698
  7.0782   7.0931   7.1414   7.2066   7.2353   7.2955   7.3177   7.3324
  7.3517   7.4078   7.4229   7.4309   7.4578   7.4677   7.6281   7.6434
  7.7021   7.7224   7.7613   7.8190   7.8285   7.8590  24.4139  24.7746
 24.8100  25.0238  25.2310  50.5719  50.6091  50.6485  50.7535
 --------------------------------------------------------------
 
          Ground-State Mulliken Net Atomic Charges

     Atom                 Charge (a.u.)
  ----------------------------------------
      1 O                    -0.447443
      2 C                    -0.502110
      3 C                     0.342496
      4 O                    -0.472582
      5 C                     0.064747
      6 C                     0.030867
      7 C                    -0.517152
      8 O                    -0.406284
      9 O                    -0.400280
     10 H                     0.349961
     11 H                     0.215516
     12 H                     0.216399
     13 H                     0.303743
     14 H                     0.260858
     15 H                     0.263763
     16 H                     0.351048
     17 H                     0.346451
  ----------------------------------------
  Sum of atomic charges =     0.000000

 -----------------------------------------------------------------
                    Cartesian Multipole Moments
 -----------------------------------------------------------------
    Charge (ESU x 10^10)
                 0.0000
    Dipole Moment (Debye)
         X       3.7605      Y      -2.2296      Z      -3.4109
       Tot       5.5450
    Quadrupole Moments (Debye-Ang)
        XX     -29.0771     XY      -5.0206     YY     -70.1905
        XZ     -10.6563     YZ     -12.5771     ZZ     -70.5549
    Octopole Moments (Debye-Ang^2)
       XXX    -350.9713    XXY     -65.3636    XYY    -197.3688
       YYY    -321.4380    XXZ    -100.6467    XYZ     -26.8518
       YYZ    -126.5135    XZZ    -222.1664    YZZ    -132.6582
       ZZZ    -325.0812
    Hexadecapole Moments (Debye-Ang^3)
      XXXX   -2724.7018   XXXY    -666.8158   XXYY    -827.0404
      XYYY   -1109.1360   YYYY   -1793.7689   XXXZ    -832.3355
      XXYZ    -204.4528   XYYZ    -377.1280   YYYZ    -769.4136
      XXZZ    -985.6710   XYZZ    -442.9380   YYZZ    -604.4488
      XZZZ   -1156.0367   YZZZ    -801.5120   ZZZZ   -1637.4860
 -----------------------------------------------------------------
 Calculating analytic gradient of the SCF energy
 Gradient of CDS energy
            1           2           3           4           5           6
    1   0.0019114  -0.0023011  -0.0008802   0.0005950   0.0002807   0.0002287
    2   0.0004134  -0.0012460   0.0005808  -0.0004222  -0.0001157  -0.0000253
    3  -0.0001681  -0.0005275   0.0008216  -0.0006020  -0.0002165  -0.0000980
            7           8           9          10          11          12
    1  -0.0017920   0.0014537   0.0005631  -0.0004306   0.0001622   0.0002017
    2   0.0008384  -0.0013308   0.0010062  -0.0000336   0.0001979   0.0000380
    3   0.0011316   0.0007477  -0.0014318   0.0000870  -0.0000155   0.0001405
           13          14          15          16          17
    1   0.0000877   0.0002076   0.0001229  -0.0002766  -0.0001344
    2  -0.0000827   0.0000451   0.0000793   0.0002617  -0.0002046
    3  -0.0001131  -0.0000173   0.0000450  -0.0001138   0.0003303
 Gradient of SCF Energy
            1           2           3           4           5           6
    1  -0.0005916  -0.0206965   0.0024402  -0.0047817  -0.0047428  -0.0058899
    2  -0.0068819   0.0063361  -0.0027713   0.0042475  -0.0002827   0.0085793
    3  -0.0062538   0.0127845  -0.0035160   0.0053901   0.0010403   0.0106573
            7           8           9          10          11          12
    1  -0.0067057   0.0017073   0.0034934  -0.0007342   0.0057594   0.0089286
    2  -0.0045877   0.0071782   0.0049392   0.0041161   0.0026446  -0.0074014
    3  -0.0026020   0.0035962   0.0067659   0.0039990  -0.0097079   0.0004160
           13          14          15          16          17
    1   0.0089149   0.0131129   0.0051241  -0.0023454  -0.0029928
    2  -0.0092062   0.0015779   0.0010160  -0.0043458  -0.0051578
    3  -0.0121774  -0.0024057  -0.0005763  -0.0035938  -0.0038162
 Max gradient component =       2.070E-02
 RMS gradient           =       6.558E-03
 Computing fast CPCM-SWIG gradient
 Updating gradient with PCM contributions...
 -- total gradient after adding PCM contribution --
---------------------------------------------------
  Atom         X              Y              Z     
---------------------------------------------------
   1      -0.000021      -0.000034       0.000046
   2       0.000033      -0.000014      -0.000001
   3      -0.000013       0.000006      -0.000012
   4      -0.000001       0.000005      -0.000008
   5       0.000009      -0.000023       0.000008
   6       0.000011       0.000013       0.000004
   7       0.000050      -0.000002       0.000021
   8      -0.000020       0.000016      -0.000023
   9      -0.000008      -0.000007       0.000027
  10      -0.000038       0.000049      -0.000027
  11       0.000021       0.000032      -0.000007
  12      -0.000007      -0.000005      -0.000018
  13       0.000005      -0.000017       0.000005
  14       0.000009      -0.000011       0.000005
  15       0.000026      -0.000003       0.000001
  16      -0.000021       0.000011      -0.000021
  17      -0.000034      -0.000017      -0.000001
---------------------------------------------------
 Number of fixed atoms: 0
 Gradient time:  CPU 247.93 s  wall 20.82 s
 Geometry Optimization Parameters
   NAtoms,    NIC,     NZ,  NCons,   NDum,   NFix, NCnnct, MaxDiis
       17     103       0       0       0       0       0       0

 Cartesian Hessian Update
 Hessian updated using BFGS update


** GEOMETRY OPTIMIZATION IN DELOCALIZED INTERNAL COORDINATES **
   Searching for a Minimum

   Optimization Cycle:   9

                       Coordinates (Angstroms)
     ATOM                X               Y               Z
      1  O         0.9075559781   -0.5331089340    0.1026410830
      2  C         2.2807277100   -0.2451977476   -0.0395611229
      3  C         2.7245404021    0.8414487907    0.8944063790
      4  O         1.9078117957    1.3610103831    1.6475893196
      5  C         4.1432003894    1.2189035730    0.8413866876
      6  C         4.7276446883    2.1343452932    1.6151559071
      7  C         4.1168371073    2.9951113519    2.7094441684
      8  O         3.1245567633    3.8672297440    2.2175343137
      9  O         3.6549699861    2.2240669182    3.7966958777
     10  H         0.5647864039    0.0731520667    0.7761741825
     11  H         2.5095087526    0.0765942947   -1.0605324234
     12  H         2.8871756288   -1.1333829285    0.1612945735
     13  H         4.7412200024    0.6907499172    0.1097523430
     14  H         5.7870598496    2.3025461099    1.4635559391
     15  H         4.8935619101    3.6350954882    3.1158173690
     16  H         2.4227339214    3.3176757218    1.8392406086
     17  H         2.9712635110    1.6264712573    3.4633676947
   Point Group: c1    Number of degrees of freedom:    45


   Energy is   -496.237073692

 Hessian updated using BFGS update

 45 Hessian modes will be used to form the next step
  Hessian Eigenvalues:
     0.003852    0.007814    0.008900    0.013312    0.013649    0.014385
     0.016742    0.023344    0.035109    0.041138    0.064253    0.070994
     0.072595    0.076590    0.098414    0.116638    0.139439    0.158218
     0.159740    0.160180    0.166986    0.187582    0.201728    0.219526
     0.226082    0.240291    0.244071    0.251358    0.296649    0.316848
     0.336305    0.336887    0.347262    0.349630    0.351101    0.358813
     0.439448    0.443338    0.482929    0.516127    0.522667    0.524141
     0.634220    0.765237    0.848031

 Minimum search - taking simple RFO step
 Searching for Lamda that Minimizes Along All modes
 Value Taken    Lamda =  -0.00000048
 Step Taken.  Stepsize is  0.010557

                             Maximum     Tolerance    Cnvgd?
         Gradient           0.000060      0.000300     YES
         Displacement       0.006775      0.001200      NO
         Energy change     -0.000000      0.000001     YES

 Final energy is   -496.237073692066     


 ******************************
 **  OPTIMIZATION CONVERGED  **
 ******************************

                       Coordinates (Angstroms)
     ATOM                X               Y               Z
      1  O         0.9075559781   -0.5331089340    0.1026410830
      2  C         2.2807277100   -0.2451977476   -0.0395611229
      3  C         2.7245404021    0.8414487907    0.8944063790
      4  O         1.9078117957    1.3610103831    1.6475893196
      5  C         4.1432003894    1.2189035730    0.8413866876
      6  C         4.7276446883    2.1343452932    1.6151559071
      7  C         4.1168371073    2.9951113519    2.7094441684
      8  O         3.1245567633    3.8672297440    2.2175343137
      9  O         3.6549699861    2.2240669182    3.7966958777
     10  H         0.5647864039    0.0731520667    0.7761741825
     11  H         2.5095087526    0.0765942947   -1.0605324234
     12  H         2.8871756288   -1.1333829285    0.1612945735
     13  H         4.7412200024    0.6907499172    0.1097523430
     14  H         5.7870598496    2.3025461099    1.4635559391
     15  H         4.8935619101    3.6350954882    3.1158173690
     16  H         2.4227339214    3.3176757218    1.8392406086
     17  H         2.9712635110    1.6264712573    3.4633676947

Z-matrix Print:
$molecule
0 1
O 
C  1 1.226489
C  2 1.468972 1 123.808316
H  3 1.082526 2 115.628784 1 -178.554147 0
C  3 1.333539 2 125.359389 1 1.851485 0
H  5 1.083344 3 116.998746 2 179.719575 0
C  2 1.500022 1 119.486139 3 -179.979731 0
H  7 1.094073 2 108.046384 1 -122.754493 0
H  7 1.094657 2 107.814272 1 121.809090 0
O  7 1.410218 2 111.913833 1 -0.473787 0
H  10 0.968860 7 106.668837 2 1.320480 0
C  5 1.520352 3 129.065824 2 0.004919 0
H  12 1.085366 5 108.409945 3 -179.316128 0
O  12 1.409676 5 112.451467 3 -62.894011 0
H  14 0.968334 12 107.180787 5 61.292276 0
O  12 1.410655 5 112.137621 3 64.555988 0
H  16 0.967307 12 107.668206 5 -60.976737 0
$end

 
 --------------------------------------------------------------
 
                    Orbital Energies (a.u.)
 --------------------------------------------------------------
 
 Alpha MOs
 -- Occupied --
-19.3517 -19.3453 -19.3439 -19.3425 -10.4565 -10.4533 -10.3965 -10.3738
-10.3591  -1.2122  -1.1981  -1.1574  -1.1338  -0.9372  -0.8670  -0.8112
 -0.7356  -0.6666  -0.6565  -0.6457  -0.6193  -0.5977  -0.5922  -0.5537
 -0.5422  -0.5206  -0.5158  -0.4884  -0.4854  -0.4662  -0.4227  -0.4149
 -0.4009  -0.3853  -0.3773
 -- Virtual --
 -0.0018   0.0226   0.0364   0.0413   0.0524   0.0580   0.0625   0.0720
  0.0816   0.1011   0.1047   0.1173   0.1240   0.1288   0.1314   0.1352
  0.1503   0.1573   0.1587   0.1612   0.1726   0.1739   0.1763   0.1891
  0.1995   0.2002   0.2086   0.2274   0.2360   0.2420   0.2491   0.2528
  0.2686   0.2754   0.2861   0.2927   0.2977   0.3003   0.3144   0.3233
  0.3268   0.3342   0.3370   0.3454   0.3464   0.3563   0.3580   0.3604
  0.3702   0.3770   0.3799   0.3866   0.4014   0.4054   0.4150   0.4285
  0.4510   0.4623   0.4635   0.5070   0.5281   0.5457   0.5526   0.5735
  0.5781   0.5981   0.6067   0.6149   0.6178   0.6280   0.6330   0.6441
  0.6511   0.6644   0.6735   0.6842   0.6936   0.7034   0.7212   0.7262
  0.7537   0.7593   0.7636   0.7820   0.7986   0.8058   0.8319   0.8366
  0.8492   0.8545   0.8803   0.8852   0.9021   0.9034   0.9391   0.9542
  0.9704   1.0073   1.0340   1.0600   1.0640   1.0686   1.0802   1.0810
  1.0900   1.1024   1.1200   1.1262   1.1609   1.1661   1.1756   1.1844
  1.2149   1.2166   1.2239   1.2355   1.2400   1.2527   1.2665   1.2781
  1.2870   1.2878   1.3044   1.3280   1.3620   1.3762   1.4068   1.4276
  1.4315   1.4378   1.4427   1.4563   1.4707   1.4814   1.4932   1.5079
  1.5185   1.5336   1.5412   1.5477   1.5675   1.6007   1.6068   1.6242
  1.6292   1.6429   1.6847   1.7017   1.7234   1.7507   1.8416   1.8995
  1.9161   1.9250   1.9425   1.9928   1.9949   2.0271   2.0333   2.0566
  2.1198   2.1551   2.2064   2.2192   2.2233   2.2733   2.2920   2.3462
  2.3834   2.4189   2.4215   2.4486   2.5470   2.5602   2.5704   2.6405
  2.6534   2.6777   2.6917   2.7589   2.7637   2.8019   2.8177   2.8193
  2.8691   2.8777   2.9021   2.9171   2.9234   2.9488   2.9617   2.9936
  3.0030   3.0067   3.0564   3.0600   3.1231   3.1400   3.1611   3.1624
  3.1984   3.2140   3.2269   3.2565   3.2691   3.2732   3.3191   3.3256
  3.3321   3.3474   3.3689   3.3931   3.4034   3.4484   3.4910   3.5055
  3.5113   3.5340   3.5376   3.5790   3.5855   3.5938   3.6359   3.6439
  3.6563   3.7011   3.7039   3.7161   3.7318   3.7531   3.7678   3.8014
  3.8048   3.8248   3.8635   3.8650   3.8759   3.8855   3.9053   3.9192
  3.9620   3.9784   4.0140   4.0204   4.0634   4.1020   4.1146   4.1343
  4.1841   4.1988   4.2032   4.2141   4.2401   4.2446   4.2541   4.3082
  4.3380   4.3466   4.3679   4.3992   4.4027   4.4477   4.4516   4.4551
  4.4853   4.5239   4.5490   4.6172   4.6341   4.7071   4.7995   4.8240
  4.8776   4.9386   5.0562   5.1871   5.2092   5.2103   5.2181   5.2461
  5.2559   5.2618   5.2947   5.3027   5.3179   5.3219   5.3454   5.3806
  5.4160   5.4347   5.4363   5.4668   5.5279   5.5492   5.5688   5.5870
  5.6081   5.6189   5.6341   5.6451   5.6552   5.6680   5.7165   5.7205
  5.7909   5.8364   5.8697   5.9060   5.9617   6.0315   6.0775   6.1426
  6.1635   6.3466   6.5970   6.6254   6.7016   6.8708   7.0542   7.0698
  7.0782   7.0931   7.1414   7.2066   7.2353   7.2955   7.3177   7.3324
  7.3517   7.4078   7.4229   7.4309   7.4578   7.4677   7.6281   7.6434
  7.7021   7.7224   7.7613   7.8190   7.8285   7.8590  24.4139  24.7746
 24.8100  25.0238  25.2310  50.5719  50.6091  50.6485  50.7535
 --------------------------------------------------------------
 
          Ground-State Mulliken Net Atomic Charges

     Atom                 Charge (a.u.)
  ----------------------------------------
      1 O                    -0.447443
      2 C                    -0.502110
      3 C                     0.342496
      4 O                    -0.472582
      5 C                     0.064747
      6 C                     0.030867
      7 C                    -0.517152
      8 O                    -0.406284
      9 O                    -0.400280
     10 H                     0.349961
     11 H                     0.215516
     12 H                     0.216399
     13 H                     0.303743
     14 H                     0.260858
     15 H                     0.263763
     16 H                     0.351048
     17 H                     0.346451
  ----------------------------------------
  Sum of atomic charges =     0.000000

 -----------------------------------------------------------------
                    Cartesian Multipole Moments
 -----------------------------------------------------------------
    Charge (ESU x 10^10)
                 0.0000
    Dipole Moment (Debye)
         X       3.7605      Y      -2.2296      Z      -3.4109
       Tot       5.5450
    Quadrupole Moments (Debye-Ang)
        XX     -29.0771     XY      -5.0206     YY     -70.1905
        XZ     -10.6563     YZ     -12.5771     ZZ     -70.5549
    Octopole Moments (Debye-Ang^2)
       XXX    -350.9713    XXY     -65.3636    XYY    -197.3688
       YYY    -321.4380    XXZ    -100.6467    XYZ     -26.8518
       YYZ    -126.5135    XZZ    -222.1664    YZZ    -132.6582
       ZZZ    -325.0812
    Hexadecapole Moments (Debye-Ang^3)
      XXXX   -2724.7018   XXXY    -666.8158   XXYY    -827.0404
      XYYY   -1109.1360   YYYY   -1793.7689   XXXZ    -832.3355
      XXYZ    -204.4528   XYYZ    -377.1280   YYYZ    -769.4136
      XXZZ    -985.6710   XYZZ    -442.9380   YYZZ    -604.4488
      XZZZ   -1156.0367   YZZZ    -801.5120   ZZZZ   -1637.4860
 -----------------------------------------------------------------
 Total job time:  1043.27s(wall), 14610.71s(cpu) 
 Thu Jul 11 21:48:07 2024

        *************************************************************
        *                                                           *
        *  Thank you very much for using Q-Chem.  Have a nice day.  *
        *                                                           *
        *************************************************************


