
Running Job 1 of 1 Q_in.in
qchem Q_in.in_420064.0 /scratch/ari.fischer/qChem2105248.hpc-mn1/qchem420064/ 0
/usr/local/qchem-5.4.1/exe/qcprog.exe_s Q_in.in_420064.0 /scratch/ari.fischer/qChem2105248.hpc-mn1/qchem420064/
                  Welcome to Q-Chem
     A Quantum Leap Into The Future Of Chemistry


 Q-Chem 5.4, Q-Chem, Inc., Pleasanton, CA (2021)

 License issued to: Nanyang Technological University (site)

 E. Epifanovsky,  A. T. B. Gilbert,  Xintian Feng,  Joonho Lee,  Yuezhi Mao,  
 N. Mardirossian,  P. Pokhilko,  A. White,  M. Wormit,  M. P. Coons,  
 A. L. Dempwolff,  Zhengting Gan,  D. Hait,  P. R. Horn,  L. D. Jacobson,  
 I. Kaliman,  J. Kussmann,  A. W. Lange,  Ka Un Lao,  D. S. Levine,  Jie Liu,  
 S. C. McKenzie,  A. F. Morrison,  K. Nanda,  F. Plasser,  D. R. Rehn,  
 M. L. Vidal,  Zhi-Qiang You,  Ying Zhu,  B. Alam,  B. Albrecht,  
 A. Aldossary,  E. Alguire,  J. H. Andersen,  D. Barton,  K. Begam,  A. Behn,  
 Y. A. Bernard,  E. J. Berquist,  H. Burton,  A. Carreras,  K. Carter-Fenk,  
 R. Chakraborty,  A. D. Chien,  K. D. Closser,  V. Cofer-Shabica,  
 S. Dasgupta,  Jia Deng,  M. de Wergifosse,  M. Diedenhofen,  Hainam Do,  
 S. Ehlert,  Po-Tung Fang,  S. Fatehi,  Qingguo Feng,  T. Friedhoff,  
 J. Gayvert,  Qinghui Ge,  G. Gidofalvi,  M. Goldey,  J. Gomes,  
 C. Gonzalez-Espinoza,  S. Gulania,  A. Gunina,  M. W. D. Hanson-Heine,  
 P. H. P. Harbach,  A. W. Hauser,  M. F. Herbst,  M. Hernandez Vera,  
 M. Hodecker,  Z. C. Holden,  S. Houck,  Xunkun Huang,  Kerwin Hui,  
 B. C. Huynh,  M. Ivanov,  Hyunjun Ji,  Hanjie Jiang,  B. Kaduk,  S. Kaehler,  
 K. Khistyaev,  Jaehoon Kim,  P. Klunzinger,  Z. Koczor-Benda,  
 Joong Hoon Koh,  D. Kosenkov,  L. Koulias,  T. Kowalczyk,  C. M. Krauter,  
 K. Kue,  A. Kunitsa,  T. Kus,  A. Landau,  K. V. Lawler,  D. Lefrancois,  
 S. Lehtola,  Rain Li,  Yi-Pei Li,  Jiashu Liang,  M. Liebenthal,  
 Hung-Hsuan Lin,  You-Sheng Lin,  Fenglai Liu,  Kuan-Yu Liu,  
 M. Loipersberger,  A. Luenser,  A. Manjanath,  P. Manohar,  E. Mansoor,  
 S. F. Manzer,  Shan-Ping Mao,  A. V. Marenich,  T. Markovich,  S. Mason,  
 S. A. Maurer,  P. F. McLaughlin,  M. F. S. J. Menger,  J.-M. Mewes,  
 S. A. Mewes,  P. Morgante,  J. W. Mullinax,  K. J. Oosterbaan,  G. Paran,  
 Alexander C. Paul,  Suranjan K. Paul,  F. Pavosevic,  Zheng Pei,  S. Prager,  
 E. I. Proynov,  E. Ramos,  B. Rana,  A. E. Rask,  A. Rettig,  R. M. Richard,  
 F. Rob,  E. Rossomme,  T. Scheele,  M. Scheurer,  M. Schneider,  
 N. Sergueev,  S. M. Sharada,  W. Skomorowski,  D. W. Small,  C. J. Stein,  
 Yu-Chuan Su,  E. J. Sundstrom,  Zhen Tao,  J. Thirman,  T. Tsuchimochi,  
 N. M. Tubman,  S. P. Veccham,  O. Vydrov,  J. Wenzel,  J. Witte,  A. Yamada,  
 Kun Yao,  S. Yeganeh,  S. R. Yost,  A. Zech,  Igor Ying Zhang,  Xing Zhang,  
 Yu Zhang,  D. Zuev,  A. Aspuru-Guzik,  A. T. Bell,  N. A. Besley,  
 K. B. Bravaya,  B. R. Brooks,  D. Casanova,  Jeng-Da Chai,  S. Coriani,  
 C. J. Cramer,  A. E. DePrince, III,  R. A. DiStasio Jr.,  A. Dreuw,  
 B. D. Dunietz,  T. R. Furlani,  W. A. Goddard III,  S. Grimme,  
 S. Hammes-Schiffer,  T. Head-Gordon,  W. J. Hehre,  Chao-Ping Hsu,  
 T.-C. Jagau,  Yousung Jung,  A. Klamt,  Jing Kong,  D. S. Lambrecht,  
 WanZhen Liang,  N. J. Mayhall,  C. W. McCurdy,  J. B. Neaton,  
 C. Ochsenfeld,  J. A. Parkhill,  R. Peverati,  V. A. Rassolov,  Yihan Shao,  
 L. V. Slipchenko,  T. Stauch,  R. P. Steele,  J. E. Subotnik,  
 A. J. W. Thom,  A. Tkatchenko,  D. G. Truhlar,  T. Van Voorhis,  
 T. A. Wesolowski,  K. B. Whaley,  H. L. Woodcock III,  P. M. Zimmerman,  
 S. Faraji,  P. M. W. Gill,  M. Head-Gordon,  J. M. Herbert,  A. I. Krylov

 Additional authors for Version 5.4.1: 
 S. Kotaru,  Shaozhi Li,  Xiangyuan Li,  F. Matz,  A. Molle,  Haisheng Ren,  
 Yingli Su,  Hung-Yi Tsai,  C. Utku,  Fang Wang

 Contributors to earlier versions of Q-Chem not listed above: 
 R. D. Adamson,  B. Austin,  R. Baer,  J. Baker,  G. J. O. Beran,  
 K. Brandhorst,  S. T. Brown,  E. F. C. Byrd,  A. K. Chakraborty,  
 G. K. L. Chan,  Chun-Min Chang,  Yunqing Chen,  C.-L. Cheng,  
 Siu Hung Chien,  D. M. Chipman,  D. L. Crittenden,  H. Dachsel,  
 R. J. Doerksen,  A. D. Dutoi,  R. G. Edgar,  J. Fosso-Tande,  
 L. Fusti-Molnar,  D. Ghosh,  A. Ghysels,  A. Golubeva-Zadorozhnaya,  
 J. Gonthier,  M. S. Gordon,  S. R. Gwaltney,  G. Hawkins,  J. E. Herr,  
 A. Heyden,  S. Hirata,  E. G. Hohenstein,  G. Kedziora,  F. J. Keil,  
 C. Kelley,  Jihan Kim,  R. A. King,  R. Z. Khaliullin,  P. P. Korambath,  
 W. Kurlancheek,  A. Laurent,  A. M. Lee,  M. S. Lee,  S. V. Levchenko,  
 Ching Yeh Lin,  D. Liotard,  E. Livshits,  R. C. Lochan,  I. Lotan,  
 L. A. Martinez-Martinez,  P. E. Maslen,  N. Nair,  D. P. O'Neill,  
 D. Neuhauser,  E. Neuscamman,  C. M. Oana,  R. Olivares-Amaya,  R. Olson,  
 T. M. Perrine,  B. Peters,  P. A. Pieniazek,  A. Prociuk,  Y. M. Rhee,  
 J. Ritchie,  M. A. Rohrdanz,  E. Rosta,  N. J. Russ,  H. F. Schaefer III,  
 M. W. Schmidt,  N. E. Schultz,  S. Sharma,  N. Shenvi,  C. D. Sherrill,  
 A. C. Simmonett,  A. Sodt,  T. Stein,  D. Stuck,  K. S. Thanthiriwatte,  
 V. Vanovschi,  L. Vogt,  Tao Wang,  A. Warshel,  M. A. Watson,  
 C. F. Williams,  Q. Wu,  X. Xu,  Jun Yang,  W. Zhang,  Yan Zhao

 Please cite Q-Chem as follows:
 Y. Shao et al., Mol. Phys. 113, 184-215 (2015)
 DOI: 10.1080/00268976.2014.952696

 Q-Chem 5.4.1 for Intel X86 EM64T Linux

 Parts of Q-Chem use Armadillo 9.800.1 (Horizon Scraper).
 http://arma.sourceforge.net/

 Q-Chem begins on Thu May 16 18:23:51 2024  

 Host: 
0

     Scratch files written to /scratch/ari.fischer/qChem2105248.hpc-mn1/qchem420064//
 Aug1521 |scratch|qcdevops|jenkins|workspace|build_RNUM 8249   
 Processing $rem in /usr/local/qchem-5.4.1/config/preferences:
 Processing $rem in /home/ari.fischer/.qchemrc:
 Symmetry turned off for PCM/SM12/SMD calculation


!!********************************************.
!!******************Warning*******************.
!!Desired Analytical derivatives not available.
!!Finite difference job might take a long time.
!!********************************************.
!!********************************************.


 2-order derivative to be evaluated numerically with 1-order analytical derivatives

 Checking the input file for inconsistencies... 	...done.

--------------------------------------------------------------
User input:
--------------------------------------------------------------
$molecule
0 2
O         3.2843835946   -1.2160947376   -0.1421393964
C         2.5015340324   -0.0444179333   -0.2707809263
C         3.0805437440    1.2004370784    0.3741500052
O         2.4352196987    2.2537555480    0.2761298133
C         4.3225062831    1.1221879786    1.0813610883
C         4.9986156555    2.3033132072    1.6864916344
C         4.2482846769    2.7835564828    2.9319150247
O         4.2364547619    1.7077341926    3.8398497061
O         4.9693849341    3.8839083820    3.4370293131
H         3.1807118948   -1.5606102658    0.7511141302
H         1.4970096931   -0.1853317181    0.1336367489
H         2.4023466807    0.1666466314   -1.3355528076
H         4.7609791835    0.1494500919    1.2406254914
H         5.9969628860    2.0047927892    2.0190782013
H         3.5852786443    1.8931971551    4.5258004159
H         4.3554836912    4.4875944253    3.8685381215
H         3.2328318453    3.0899974164    2.6806073414
O         5.0932530345    3.3565920393    0.7383634190
H         5.4648274656    4.1160244368    1.2046305755
$end

$rem
BASIS = 6-311++G(2df,2p)
GUI = 2
JOB_TYPE = Frequency
METHOD = wB97M-V
SOLVENT_METHOD = SMD
SCF_ALGORITHM = DIIS_GDM
MAX_SCF_CYCLES = 400
SCF_CONVERGENCE = 7
THRESH = 12
$end
--------------------------------------------------------------
 ----------------------------------------------------------------
             Standard Nuclear Orientation (Angstroms)
    I     Atom           X                Y                Z
 ----------------------------------------------------------------
    1      O       3.2843835946    -1.2160947376    -0.1421393964
    2      C       2.5015340324    -0.0444179333    -0.2707809263
    3      C       3.0805437440     1.2004370784     0.3741500052
    4      O       2.4352196987     2.2537555480     0.2761298133
    5      C       4.3225062831     1.1221879786     1.0813610883
    6      C       4.9986156555     2.3033132072     1.6864916344
    7      C       4.2482846769     2.7835564828     2.9319150247
    8      O       4.2364547619     1.7077341926     3.8398497061
    9      O       4.9693849341     3.8839083820     3.4370293131
   10      H       3.1807118948    -1.5606102658     0.7511141302
   11      H       1.4970096931    -0.1853317181     0.1336367489
   12      H       2.4023466807     0.1666466314    -1.3355528076
   13      H       4.7609791835     0.1494500919     1.2406254914
   14      H       5.9969628860     2.0047927892     2.0190782013
   15      H       3.5852786443     1.8931971551     4.5258004159
   16      H       4.3554836912     4.4875944253     3.8685381215
   17      H       3.2328318453     3.0899974164     2.6806073414
   18      O       5.0932530345     3.3565920393     0.7383634190
   19      H       5.4648274656     4.1160244368     1.2046305755
 ----------------------------------------------------------------
 Nuclear Repulsion Energy =         566.05920213 hartrees
 There are       40 alpha and       39 beta electrons
 Requested basis set is 6-311++G(2df,2p)
 There are 134 shells and 430 basis functions

 Total QAlloc Memory Limit 288000 MB
 Mega-Array Size       188 MB
 MEM_STATIC part       192 MB
 
 Citation of the SMD model:
 Marenich, A.V.; Cramer, C.J.; Truhlar, D.G.
 J. Phys. Chem. B 2009, 113, 6378-6396.
 iSolventCode=           1
 Solvent: water                                                           
 
 vradii
            1           2           3           4           5           6
    1   1.5200000   1.8500000   1.8500000   1.5200000   1.8500000   1.8500000
            7           8           9          10          11          12
    1   1.8500000   1.5200000   1.5200000   1.2000000   1.2000000   1.2000000
           13          14          15          16          17          18
    1   1.2000000   1.2000000   1.2000000   1.2000000   1.2000000   1.5200000
           19
    1   1.2000000
 Changing PCM_VDW_RADII to SMD_RADIUS
 Discretize the solute cavity surface with Lebedev spheres
	Using 110 Lebedev grid points for each H atom
	Using 194 Lebedev grid points for other atoms
	Atomic van der Waals radii will be scaled by 1.20
 Remove points where switching function is < 1.0e-08
 Keep 1487 surface tesserae and discard 1443 interior tesserae
 Molecular Surface Area = 167.887 Angst**2
 A cutoff of  1.0D-12 yielded   7772 shell pairs
 There are     79352 function pairs (     98139 Cartesian)
 Smallest overlap matrix eigenvalue = 5.55E-06
 Guess from superposition of atomic densities
 Warning:  Energy on first SCF cycle will be non-variational
 SAD guess density has 79.000000 electrons

 -----------------------------------------------------------------------
  General SCF calculation program by
  Eric Jon Sundstrom, Paul Horn, Yuezhi Mao, Dmitri Zuev, Alec White,
  David Stuck, Shaama M.S., Shane Yost, Joonho Lee, David Small,
  Daniel Levine, Susi Lehtola, Hugh Burton, Evgeny Epifanovsky,
  Bang C. Huynh
 -----------------------------------------------------------------------
 Exchange:     0.1500 Hartree-Fock + 1.0000 wB97M-V + LR-HF
 Correlation:  1.0000 wB97M-V
 Using SG-2 standard quadrature grid
 Nonlocal Correlation:  VV10 with C = 0.0100 and b = 6.00 and scale = 1.00000
 Grid used for NLC:  SG-1 standard quadrature
 using 16 threads for integral computing
 -------------------------------------------------------
 OpenMP Integral computing Module                
 Release: version 1.0, May 2013, Q-Chem Inc. Pittsburgh 
 -------------------------------------------------------
 
 Citation of the SMD model:
 Marenich, A.V.; Cramer, C.J.; Truhlar, D.G.
 J. Phys. Chem. B 2009, 113, 6378-6396.
 iSolventCode=           1
 Solvent: water                                                           
 
 vradii
            1           2           3           4           5           6
    1   1.5200000   1.8500000   1.8500000   1.5200000   1.8500000   1.8500000
            7           8           9          10          11          12
    1   1.8500000   1.5200000   1.5200000   1.2000000   1.2000000   1.2000000
           13          14          15          16          17          18
    1   1.2000000   1.2000000   1.2000000   1.2000000   1.2000000   1.5200000
           19
    1   1.2000000
 -------------------------------------------------------
 OpenMP BLAS3 based DFT computing Module                
 Release: version 1.0, May 2013, Q-Chem Inc. Pittsburgh 
 -------------------------------------------------------
 A unrestricted SCF calculation will be
 performed using DIIS, GDM
 SCF converges when RMS gradient is below 1.0e-07
 ---------------------------------------
  Cycle       Energy         DIIS error
 ---------------------------------------
    1    -574.1793165879      1.21e-02  
    2    -571.8412142185      1.66e-03  Done DIIS. Switching to GDM
 ---------------------------------------
  Cycle       Energy        RMS Gradient
 ---------------------------------------
    1    -571.8412142185      1.06e-01   Descent step
    2    -572.0191478695      3.47e-02   Normal BFGS step
    3    -572.0470763904      1.92e-02   Normal BFGS step
    4    -572.0491113509      1.05e-02   Normal BFGS step
    5    -572.0505655623      6.10e-03   Normal BFGS step
    6    -572.0507354418      2.94e-03   Normal BFGS step
    7    -572.0507925186      1.46e-03   Normal BFGS step
    8    -572.0508016069      8.95e-04   Normal BFGS step
    9    -572.0508052125      5.65e-04   Normal BFGS step
   10    -572.0508068699      2.81e-04   Normal BFGS step
   11    -572.0508073656      1.39e-04   Normal BFGS step
   12    -572.0508075138      4.83e-05   Normal BFGS step
   13    -572.0508075476      3.42e-05   Normal BFGS step
   14    -572.0508075584      1.97e-05   Normal BFGS step
   15    -572.0508075612      7.75e-06   Normal BFGS step
   16    -572.0508075621      2.73e-06   Normal BFGS step
   17    -572.0508075622      9.46e-07   Normal BFGS step
   18    -572.0508075623      2.98e-07   Normal BFGS step
   19    -572.0508075623      1.69e-07   Normal BFGS step
   20    -572.0508075623      9.41e-08  Convergence criterion met
 ---------------------------------------
 SCF time:   CPU 2635.46s  wall 182.00s 
<S^2> =          0.761278889
(3)  G-ENP(liq) elect-nuc-pol free energy of system     -572.050807562 a.u.
(4)  G-CDS(liq) cavity-dispersion-solvent structure 
     free energy                                                4.7545 kcal/mol
(6)  G-S(liq) free energy of system                     -572.043230771 a.u.
 SCF   energy in the final basis set =     -572.0432307711
 Total energy in the final basis set =     -572.0432307711
 
 --------------------------------------------------------------
 
                    Orbital Energies (a.u.)
 --------------------------------------------------------------
 
 Alpha MOs
 -- Occupied --
-19.3491 -19.3482 -19.3439 -19.3438 -19.3371 -10.4497 -10.4354 -10.4081
-10.3919 -10.3854  -1.2078  -1.1848  -1.1646  -1.1613  -1.1386  -0.9259
 -0.8586  -0.8133  -0.7414  -0.6765  -0.6629  -0.6476  -0.6334  -0.6182
 -0.5978  -0.5813  -0.5652  -0.5378  -0.5198  -0.5133  -0.5047  -0.4897
 -0.4613  -0.4556  -0.4280  -0.4248  -0.4172  -0.4007  -0.3634  -0.3437
 -- Virtual --
  0.0240   0.0348   0.0377   0.0419   0.0581   0.0612   0.0662   0.0711
  0.0878   0.0930   0.1001   0.1027   0.1213   0.1235   0.1299   0.1385
  0.1462   0.1484   0.1546   0.1595   0.1667   0.1681   0.1758   0.1818
  0.1862   0.1950   0.2037   0.2101   0.2233   0.2414   0.2439   0.2521
  0.2618   0.2652   0.2714   0.2809   0.2852   0.2907   0.2996   0.3019
  0.3110   0.3122   0.3200   0.3240   0.3311   0.3428   0.3456   0.3507
  0.3525   0.3598   0.3631   0.3709   0.3739   0.3817   0.3897   0.3976
  0.4017   0.4069   0.4123   0.4201   0.4266   0.4387   0.4538   0.4642
  0.4777   0.4979   0.5034   0.5363   0.5504   0.5655   0.5810   0.5877
  0.6069   0.6196   0.6318   0.6413   0.6454   0.6535   0.6579   0.6603
  0.6753   0.6854   0.6912   0.6950   0.7024   0.7172   0.7273   0.7353
  0.7445   0.7558   0.7671   0.7784   0.7916   0.8120   0.8203   0.8493
  0.8612   0.8788   0.8888   0.9110   0.9185   0.9364   0.9520   0.9779
  0.9891   1.0047   1.0099   1.0309   1.0534   1.0671   1.0695   1.0791
  1.1114   1.1139   1.1315   1.1459   1.1640   1.1733   1.1755   1.1825
  1.1966   1.2085   1.2178   1.2274   1.2336   1.2458   1.2477   1.2605
  1.2759   1.2771   1.2962   1.3080   1.3200   1.3255   1.3430   1.3557
  1.3717   1.3818   1.3987   1.4107   1.4177   1.4203   1.4434   1.4649
  1.4810   1.4899   1.4921   1.5146   1.5233   1.5306   1.5431   1.5632
  1.5694   1.5810   1.6011   1.6045   1.6119   1.6359   1.6492   1.6648
  1.6722   1.7031   1.7309   1.7805   1.7875   1.7971   1.8071   1.8464
  1.9031   1.9200   1.9370   1.9783   1.9881   2.0079   2.0410   2.0642
  2.0937   2.1419   2.1565   2.2254   2.2408   2.2726   2.2815   2.3098
  2.3470   2.3610   2.3659   2.3810   2.4271   2.4658   2.4716   2.5027
  2.5395   2.5619   2.6081   2.6715   2.6770   2.7189   2.7332   2.7678
  2.7940   2.8290   2.8555   2.8599   2.8797   2.8929   2.9082   2.9438
  2.9566   2.9713   3.0074   3.0196   3.0310   3.0711   3.0870   3.1197
  3.1305   3.1485   3.1757   3.1876   3.2210   3.2342   3.2820   3.2869
  3.3212   3.3352   3.3515   3.3668   3.3913   3.4092   3.4259   3.4393
  3.4741   3.4939   3.4986   3.5182   3.5261   3.5556   3.5857   3.6047
  3.6169   3.6349   3.6554   3.6694   3.6891   3.7056   3.7223   3.7376
  3.7481   3.7696   3.7820   3.7982   3.8156   3.8348   3.8556   3.8765
  3.8783   3.8859   3.9093   3.9317   3.9455   3.9596   3.9875   4.0249
  4.0328   4.0597   4.0908   4.0932   4.1168   4.1269   4.1527   4.1693
  4.2069   4.2253   4.2459   4.2619   4.3117   4.3151   4.3315   4.3369
  4.3523   4.3675   4.3788   4.4187   4.4594   4.4649   4.4730   4.4880
  4.4968   4.5129   4.5416   4.6015   4.6185   4.6500   4.6642   4.7165
  4.7755   5.0296   5.0789   5.1815   5.1869   5.2132   5.2207   5.2257
  5.2702   5.2736   5.2783   5.2889   5.3003   5.3059   5.3141   5.3233
  5.3410   5.3524   5.3609   5.3899   5.4282   5.4451   5.4531   5.5228
  5.5282   5.5498   5.5662   5.5831   5.5999   5.6178   5.6288   5.6534
  5.6630   5.6769   5.6939   5.7051   5.7162   5.7330   5.8083   5.8236
  5.8337   5.9171   5.9777   5.9963   6.0394   6.0737   6.1043   6.1788
  6.2950   6.5285   6.6054   6.6447   6.7443   6.7824   6.9689   7.0307
  7.0615   7.0909   7.1070   7.1532   7.1684   7.2267   7.2596   7.2816
  7.3110   7.3169   7.3244   7.3410   7.3613   7.3672   7.3928   7.4060
  7.4643   7.5715   7.6319   7.6411   7.6664   7.6934   7.7381   7.7760
  7.7924   7.8009   7.8386   7.9000  24.5628  24.7467  24.7626  24.8511
 25.1146  50.5794  50.5990  50.6126  50.6509  50.7545
 
 Beta MOs
 -- Occupied --
-19.3489 -19.3480 -19.3438 -19.3435 -19.3303 -10.4488 -10.4364 -10.4087
-10.3919 -10.3748  -1.2070  -1.1761  -1.1638  -1.1585  -1.1380  -0.9095
 -0.8546  -0.8055  -0.7373  -0.6751  -0.6587  -0.6454  -0.6288  -0.6129
 -0.5939  -0.5755  -0.5614  -0.5311  -0.5139  -0.5073  -0.4928  -0.4880
 -0.4561  -0.4457  -0.4240  -0.4233  -0.4129  -0.3973  -0.3565
 -- Virtual --
 -0.0534   0.0238   0.0348   0.0377   0.0421   0.0581   0.0620   0.0662
  0.0718   0.0929   0.0972   0.1023   0.1135   0.1234   0.1254   0.1320
  0.1398   0.1464   0.1507   0.1546   0.1603   0.1667   0.1677   0.1752
  0.1817   0.1863   0.1948   0.2043   0.2108   0.2231   0.2408   0.2445
  0.2537   0.2624   0.2657   0.2729   0.2813   0.2861   0.2912   0.2999
  0.3054   0.3117   0.3140   0.3201   0.3262   0.3350   0.3437   0.3460
  0.3518   0.3550   0.3610   0.3671   0.3722   0.3750   0.3823   0.3910
  0.3980   0.4018   0.4079   0.4131   0.4206   0.4295   0.4396   0.4553
  0.4665   0.4779   0.5003   0.5079   0.5388   0.5537   0.5693   0.5833
  0.5889   0.6085   0.6207   0.6335   0.6436   0.6480   0.6574   0.6589
  0.6652   0.6756   0.6900   0.6960   0.6964   0.7050   0.7235   0.7297
  0.7392   0.7464   0.7597   0.7687   0.7810   0.7960   0.8126   0.8233
  0.8523   0.8637   0.8812   0.8924   0.9116   0.9210   0.9385   0.9540
  0.9798   0.9914   1.0061   1.0107   1.0330   1.0549   1.0699   1.0705
  1.0807   1.1128   1.1146   1.1327   1.1467   1.1654   1.1754   1.1777
  1.1828   1.2003   1.2135   1.2210   1.2310   1.2369   1.2482   1.2511
  1.2630   1.2770   1.2793   1.2978   1.3088   1.3224   1.3295   1.3470
  1.3568   1.3733   1.3841   1.4024   1.4125   1.4192   1.4214   1.4489
  1.4668   1.4837   1.4931   1.4962   1.5179   1.5242   1.5343   1.5471
  1.5663   1.5701   1.5866   1.6044   1.6090   1.6146   1.6360   1.6516
  1.6673   1.6788   1.7060   1.7396   1.7856   1.7940   1.8009   1.8139
  1.8517   1.9091   1.9219   1.9416   1.9811   1.9905   2.0116   2.0435
  2.0670   2.0982   2.1459   2.1580   2.2320   2.2449   2.2751   2.2838
  2.3118   2.3482   2.3624   2.3674   2.3823   2.4296   2.4668   2.4745
  2.5041   2.5462   2.5686   2.6137   2.6788   2.6867   2.7247   2.7447
  2.7707   2.8014   2.8406   2.8640   2.8781   2.8973   2.9138   2.9215
  2.9591   2.9758   2.9949   3.0127   3.0335   3.0362   3.0844   3.1033
  3.1327   3.1380   3.1630   3.1822   3.1964   3.2317   3.2413   3.2876
  3.2919   3.3320   3.3418   3.3624   3.3777   3.4085   3.4169   3.4334
  3.4533   3.4790   3.5006   3.5085   3.5344   3.5365   3.5668   3.5893
  3.6183   3.6266   3.6443   3.6605   3.6766   3.6918   3.7174   3.7291
  3.7480   3.7532   3.7774   3.7873   3.8158   3.8218   3.8408   3.8664
  3.8833   3.8856   3.8915   3.9152   3.9372   3.9515   3.9624   3.9938
  4.0290   4.0391   4.0671   4.0965   4.0990   4.1206   4.1323   4.1576
  4.1784   4.2153   4.2359   4.2542   4.2690   4.3152   4.3251   4.3362
  4.3395   4.3543   4.3690   4.3816   4.4283   4.4683   4.4734   4.4863
  4.4964   4.5114   4.5213   4.5592   4.6078   4.6363   4.6613   4.6736
  4.7312   4.7805   5.0506   5.0971   5.1990   5.2048   5.2159   5.2336
  5.2441   5.2711   5.2772   5.2875   5.2936   5.3014   5.3087   5.3179
  5.3275   5.3425   5.3580   5.3641   5.3922   5.4297   5.4543   5.4567
  5.5287   5.5304   5.5530   5.5738   5.5872   5.6079   5.6257   5.6365
  5.6546   5.6653   5.6809   5.6971   5.7102   5.7188   5.7367   5.8220
  5.8351   5.8490   5.9203   5.9795   5.9989   6.0398   6.0756   6.1057
  6.1797   6.3119   6.5296   6.6069   6.6465   6.7452   6.7903   6.9994
  7.0587   7.0626   7.0934   7.1085   7.1542   7.1732   7.2277   7.2603
  7.2823   7.3117   7.3177   7.3258   7.3419   7.3620   7.3889   7.3962
  7.4104   7.4654   7.5723   7.6378   7.6430   7.6682   7.6941   7.7393
  7.7781   7.7979   7.8086   7.8403   7.9006  24.5694  24.7486  24.7626
 24.8518  25.1172  50.5795  50.5992  50.6128  50.6512  50.7592
 --------------------------------------------------------------
 
          Ground-State Mulliken Net Atomic Charges

     Atom                 Charge (a.u.)    Spin (a.u.)
  --------------------------------------------------------
      1 O                    -0.426333       0.000120
      2 C                    -0.192093      -0.006761
      3 C                     0.093212       0.021452
      4 O                    -0.479989       0.244517
      5 C                     0.194940       0.691846
      6 C                    -0.397925      -0.003259
      7 C                    -0.219833       0.032253
      8 O                    -0.407038       0.004841
      9 O                    -0.448148       0.003630
     10 H                     0.333522       0.000663
     11 H                     0.207097       0.000988
     12 H                     0.201824       0.002053
     13 H                     0.297381      -0.009303
     14 H                     0.313195       0.007864
     15 H                     0.347714      -0.000998
     16 H                     0.343813       0.000667
     17 H                     0.289597       0.000158
     18 O                    -0.381300       0.008205
     19 H                     0.330362       0.001063
  --------------------------------------------------------
  Sum of atomic charges =     0.000000
  Sum of spin   charges =     1.000000

 -----------------------------------------------------------------
                    Cartesian Multipole Moments
 -----------------------------------------------------------------
    Charge (ESU x 10^10)
                 0.0000
    Dipole Moment (Debye)
         X      -1.3804      Y      -0.7693      Z       5.4564
       Tot       5.6807
    Quadrupole Moments (Debye-Ang)
        XX     -72.1770     XY      -1.9491     YY     -56.2036
        XZ      11.4640     YZ      13.9319     ZZ     -43.0962
    Octopole Moments (Debye-Ang^2)
       XXX    -780.0247    XXY    -122.6307    XYY    -217.4365
       YYY    -254.0841    XXZ     -81.4678    XYZ      31.4750
       YYZ      -1.7228    XZZ    -219.3764    YZZ     -36.8339
       ZZZ    -184.9370
    Hexadecapole Moments (Debye-Ang^3)
      XXXX   -6342.0389   XXXY   -1539.4297   XXYY   -1278.5541
      XYYY   -1144.0599   YYYY   -1570.2507   XXXZ   -1321.8449
      XXYZ    -215.9782   XYYZ    -137.8779   YYYZ    -327.7926
      XXZZ   -1416.9656   XYZZ    -327.2808   YYZZ    -288.0350
      XZZZ   -1097.8715   YZZZ    -387.1592   ZZZZ   -1183.6696
 -----------------------------------------------------------------
 Calculating analytic gradient of the SCF energy
 Gradient of CDS energy
            1           2           3           4           5           6
    1  -0.0001617  -0.0002301  -0.0011650   0.0008061   0.0002850   0.0001187
    2   0.0007272  -0.0011898   0.0020041  -0.0013556  -0.0001624   0.0002151
    3   0.0000681  -0.0005847  -0.0001954   0.0000779   0.0000240  -0.0001306
            7           8           9          10          11          12
    1   0.0006645   0.0002467  -0.0007966   0.0000226  -0.0000476   0.0001350
    2  -0.0002413   0.0017724  -0.0016339  -0.0005118   0.0001039   0.0000945
    3   0.0020089  -0.0015023  -0.0006055   0.0001742   0.0001819  -0.0001078
           13          14          15          16          17          18
    1   0.0000418   0.0001688  -0.0002078   0.0000001   0.0000107  -0.0000881
    2  -0.0001025  -0.0000680  -0.0002555   0.0004783  -0.0000242  -0.0002813
    3  -0.0000433   0.0001345   0.0004076   0.0002097  -0.0000953   0.0001429
           19
    1   0.0001970
    2   0.0004308
    3  -0.0001650
 Gradient of SCF Energy
            1           2           3           4           5           6
    1   0.0036472   0.0071777  -0.0032933   0.0009125   0.0000810  -0.0066793
    2   0.0025252   0.0015882   0.0009370   0.0029568   0.0029713   0.0041830
    3  -0.0199266   0.0014801   0.0023544  -0.0046475   0.0006853  -0.0005001
            7           8           9          10          11          12
    1   0.0080522   0.0154610   0.0151493  -0.0025822  -0.0055146  -0.0009514
    2  -0.0026843  -0.0049448  -0.0125181  -0.0036419  -0.0023865   0.0004023
    3  -0.0031765  -0.0105896  -0.0057871   0.0167133   0.0031921  -0.0013477
           13          14          15          16          17          18
    1   0.0025580   0.0033289  -0.0139574  -0.0138425  -0.0072966  -0.0055041
    2  -0.0075746  -0.0016427   0.0050268   0.0103090   0.0028322  -0.0022023
    3   0.0023316   0.0007903   0.0118018   0.0079680   0.0036376  -0.0091317
           19
    1   0.0032534
    2   0.0038632
    3   0.0041524
 Max gradient component =       1.993E-02
 RMS gradient           =       7.083E-03
 Computing fast CPCM-SWIG gradient
 Updating gradient with PCM contributions...
 -- total gradient after adding PCM contribution --
---------------------------------------------------
  Atom         X              Y              Z     
---------------------------------------------------
   1       0.000017      -0.000032       0.000020
   2      -0.000001       0.000016       0.000013
   3       0.000016      -0.000029      -0.000027
   4       0.000001       0.000031       0.000011
   5       0.000008       0.000008       0.000024
   6       0.000010      -0.000051       0.000010
   7      -0.000058      -0.000065       0.000016
   8       0.000015       0.000085      -0.000008
   9       0.000011       0.000010       0.000026
  10       0.000013      -0.000008       0.000004
  11       0.000002      -0.000006      -0.000016
  12       0.000008      -0.000007      -0.000005
  13       0.000012      -0.000000      -0.000018
  14      -0.000010       0.000011       0.000013
  15      -0.000020      -0.000012      -0.000017
  16      -0.000011       0.000004      -0.000017
  17       0.000000       0.000015       0.000003
  18      -0.000025       0.000042      -0.000026
  19       0.000012      -0.000011      -0.000005
---------------------------------------------------
 Number of fixed atoms: 0
 Gradient time:  CPU 338.77 s  wall 28.71 s
 ######################################################
 ######################################################
 # Starting finite difference calculation for IDERIV  #
 Finite diff step size:  1.88973e-03 a.u.
 ----------------------------------------------------------------
             Standard Nuclear Orientation (Angstroms)
    I     Atom           X                Y                Z
 ----------------------------------------------------------------
    1      O       3.2853835946    -1.2160947376    -0.1421393964
    2      C       2.5015340324    -0.0444179333    -0.2707809263
    3      C       3.0805437440     1.2004370784     0.3741500052
    4      O       2.4352196987     2.2537555480     0.2761298133
    5      C       4.3225062831     1.1221879786     1.0813610883
    6      C       4.9986156555     2.3033132072     1.6864916344
    7      C       4.2482846769     2.7835564828     2.9319150247
    8      O       4.2364547619     1.7077341926     3.8398497061
    9      O       4.9693849341     3.8839083820     3.4370293131
   10      H       3.1807118948    -1.5606102658     0.7511141302
   11      H       1.4970096931    -0.1853317181     0.1336367489
   12      H       2.4023466807     0.1666466314    -1.3355528076
   13      H       4.7609791835     0.1494500919     1.2406254914
   14      H       5.9969628860     2.0047927892     2.0190782013
   15      H       3.5852786443     1.8931971551     4.5258004159
   16      H       4.3554836912     4.4875944253     3.8685381215
   17      H       3.2328318453     3.0899974164     2.6806073414
   18      O       5.0932530345     3.3565920393     0.7383634190
   19      H       5.4648274656     4.1160244368     1.2046305755
 ----------------------------------------------------------------
 Nuclear Repulsion Energy =         566.05287844 hartrees
 There are       40 alpha and       39 beta electrons
 Discretize the solute cavity surface with Lebedev spheres
	Using 110 Lebedev grid points for each H atom
	Using 194 Lebedev grid points for other atoms
	Atomic van der Waals radii will be scaled by 1.20
 Remove points where switching function is < 1.0e-08
 Keep 1488 surface tesserae and discard 1442 interior tesserae
 Molecular Surface Area = 167.890 Angst**2
 Requested basis set is 6-311++G(2df,2p)
 There are 134 shells and 430 basis functions
 A cutoff of  1.0D-12 yielded   7772 shell pairs
 There are     79352 function pairs (     98139 Cartesian)
 Smallest overlap matrix eigenvalue = 5.55E-06
 Guess MOs from SCF MO coefficient file

 -----------------------------------------------------------------------
  General SCF calculation program by
  Eric Jon Sundstrom, Paul Horn, Yuezhi Mao, Dmitri Zuev, Alec White,
  David Stuck, Shaama M.S., Shane Yost, Joonho Lee, David Small,
  Daniel Levine, Susi Lehtola, Hugh Burton, Evgeny Epifanovsky,
  Bang C. Huynh
 -----------------------------------------------------------------------
 Exchange:     0.1500 Hartree-Fock + 1.0000 wB97M-V + LR-HF
 Correlation:  1.0000 wB97M-V
 Using SG-2 standard quadrature grid
 Nonlocal Correlation:  VV10 with C = 0.0100 and b = 6.00 and scale = 1.00000
 Grid used for NLC:  SG-1 standard quadrature
 
 Citation of the SMD model:
 Marenich, A.V.; Cramer, C.J.; Truhlar, D.G.
 J. Phys. Chem. B 2009, 113, 6378-6396.
 iSolventCode=           1
 Solvent: water                                                           
 
 vradii
            1           2           3           4           5           6
    1   1.5200000   1.8500000   1.8500000   1.5200000   1.8500000   1.8500000
            7           8           9          10          11          12
    1   1.8500000   1.5200000   1.5200000   1.2000000   1.2000000   1.2000000
           13          14          15          16          17          18
    1   1.2000000   1.2000000   1.2000000   1.2000000   1.2000000   1.5200000
           19
    1   1.2000000
 -------------------------------------------------------
 OpenMP BLAS3 based DFT computing Module                
 Release: version 1.0, May 2013, Q-Chem Inc. Pittsburgh 
 -------------------------------------------------------
 A unrestricted SCF calculation will be
 performed using Roothaan-Hall, DIIS, GDM
 SCF converges when RMS gradient is below 1.0e-07
 ---------------------------------------
  Cycle       Energy         DIIS error
 ---------------------------------------
    1    -571.9924988626      2.55e-04  Roothaan Step
 ---------------------------------------
  Cycle       Energy         DIIS error
 ---------------------------------------
    1    -572.0389620586      3.00e-04  
    2    -572.0455642240      2.90e-04  Done DIIS. Switching to GDM
 ---------------------------------------
  Cycle       Energy        RMS Gradient
 ---------------------------------------
    1    -572.0455642240      1.80e-02   Normal BFGS step
    2    -572.0436128569      3.11e-02  Line search: overstep
    3    -572.0504996869      4.23e-03   Normal BFGS step
    4    -572.0507489836      9.90e-04   Normal BFGS step
    5    -572.0507939108      9.32e-04   Normal BFGS step
    6    -572.0508045384      3.44e-04   Normal BFGS step
    7    -572.0508061517      2.38e-04   Normal BFGS step
    8    -572.0508067398      1.15e-04   Normal BFGS step
    9    -572.0508069006      6.76e-05   Normal BFGS step
   10    -572.0508069226      4.33e-05   Normal BFGS step
   11    -572.0508069307      1.61e-05   Normal BFGS step
   12    -572.0508069319      6.31e-06   Normal BFGS step
   13    -572.0508069322      3.14e-06   Normal BFGS step
   14    -572.0508069323      2.34e-06   Normal BFGS step
   15    -572.0508069323      1.41e-06   Normal BFGS step
   16    -572.0508069323      8.05e-07   Normal BFGS step
   17    -572.0508069323      3.23e-07   Normal BFGS step
   18    -572.0508069323      8.35e-08  Convergence criterion met
 ---------------------------------------
 SCF time:   CPU 2534.40s  wall 175.00s 
<S^2> =          0.761278765
(3)  G-ENP(liq) elect-nuc-pol free energy of system     -572.050806932 a.u.
(4)  G-CDS(liq) cavity-dispersion-solvent structure 
     free energy                                                4.7543 kcal/mol
(6)  G-S(liq) free energy of system                     -572.043230398 a.u.
 SCF   energy in the final basis set =     -572.0432303984
 Total energy in the final basis set =     -572.0432303984
 
 --------------------------------------------------------------
 
                    Orbital Energies (a.u.)
 --------------------------------------------------------------
 
 Alpha MOs
 -- Occupied --
-19.3491 -19.3482 -19.3439 -19.3439 -19.3371 -10.4497 -10.4355 -10.4081
-10.3919 -10.3854  -1.2078  -1.1848  -1.1645  -1.1612  -1.1386  -0.9259
 -0.8586  -0.8133  -0.7413  -0.6765  -0.6629  -0.6476  -0.6334  -0.6182
 -0.5978  -0.5813  -0.5651  -0.5378  -0.5197  -0.5133  -0.5047  -0.4897
 -0.4614  -0.4556  -0.4281  -0.4248  -0.4172  -0.4007  -0.3634  -0.3437
 -- Virtual --
  0.0240   0.0348   0.0377   0.0419   0.0581   0.0612   0.0662   0.0711
  0.0878   0.0930   0.1001   0.1027   0.1213   0.1235   0.1300   0.1385
  0.1462   0.1484   0.1546   0.1595   0.1667   0.1681   0.1758   0.1817
  0.1862   0.1950   0.2037   0.2101   0.2233   0.2414   0.2439   0.2521
  0.2618   0.2651   0.2713   0.2808   0.2852   0.2907   0.2996   0.3019
  0.3110   0.3122   0.3200   0.3240   0.3311   0.3428   0.3456   0.3507
  0.3525   0.3598   0.3631   0.3709   0.3739   0.3817   0.3897   0.3975
  0.4017   0.4069   0.4123   0.4201   0.4266   0.4387   0.4538   0.4642
  0.4777   0.4979   0.5034   0.5363   0.5503   0.5655   0.5809   0.5877
  0.6070   0.6196   0.6318   0.6412   0.6453   0.6534   0.6579   0.6603
  0.6753   0.6854   0.6912   0.6950   0.7024   0.7171   0.7273   0.7353
  0.7445   0.7558   0.7671   0.7784   0.7916   0.8120   0.8203   0.8493
  0.8612   0.8788   0.8888   0.9110   0.9185   0.9364   0.9520   0.9779
  0.9890   1.0047   1.0099   1.0309   1.0535   1.0671   1.0695   1.0791
  1.1114   1.1139   1.1315   1.1459   1.1640   1.1733   1.1755   1.1825
  1.1966   1.2085   1.2178   1.2274   1.2336   1.2458   1.2477   1.2605
  1.2759   1.2771   1.2962   1.3080   1.3201   1.3256   1.3430   1.3557
  1.3716   1.3818   1.3987   1.4107   1.4176   1.4202   1.4434   1.4649
  1.4810   1.4899   1.4921   1.5145   1.5233   1.5306   1.5431   1.5632
  1.5694   1.5810   1.6011   1.6045   1.6119   1.6359   1.6492   1.6648
  1.6723   1.7031   1.7309   1.7804   1.7874   1.7971   1.8070   1.8464
  1.9030   1.9200   1.9370   1.9783   1.9881   2.0079   2.0410   2.0641
  2.0937   2.1420   2.1565   2.2254   2.2406   2.2726   2.2815   2.3098
  2.3469   2.3609   2.3657   2.3811   2.4271   2.4658   2.4716   2.5027
  2.5395   2.5620   2.6081   2.6715   2.6769   2.7189   2.7332   2.7677
  2.7940   2.8290   2.8554   2.8599   2.8797   2.8929   2.9082   2.9437
  2.9566   2.9712   3.0074   3.0196   3.0310   3.0711   3.0870   3.1197
  3.1305   3.1484   3.1757   3.1876   3.2209   3.2342   3.2818   3.2867
  3.3211   3.3351   3.3515   3.3668   3.3913   3.4092   3.4259   3.4393
  3.4740   3.4940   3.4986   3.5182   3.5261   3.5555   3.5857   3.6047
  3.6169   3.6349   3.6554   3.6694   3.6891   3.7057   3.7223   3.7375
  3.7481   3.7695   3.7820   3.7982   3.8156   3.8348   3.8555   3.8765
  3.8783   3.8859   3.9093   3.9316   3.9454   3.9596   3.9875   4.0249
  4.0327   4.0596   4.0908   4.0932   4.1166   4.1268   4.1526   4.1693
  4.2069   4.2253   4.2459   4.2620   4.3116   4.3150   4.3315   4.3369
  4.3523   4.3672   4.3787   4.4187   4.4594   4.4648   4.4730   4.4879
  4.4968   4.5129   4.5416   4.6015   4.6185   4.6500   4.6641   4.7164
  4.7756   5.0296   5.0789   5.1815   5.1868   5.2132   5.2207   5.2257
  5.2702   5.2735   5.2781   5.2889   5.3003   5.3059   5.3141   5.3233
  5.3410   5.3524   5.3609   5.3899   5.4282   5.4451   5.4529   5.5228
  5.5282   5.5497   5.5661   5.5831   5.5998   5.6178   5.6287   5.6534
  5.6629   5.6768   5.6939   5.7050   5.7162   5.7329   5.8083   5.8235
  5.8337   5.9171   5.9776   5.9953   6.0380   6.0737   6.1043   6.1788
  6.2950   6.5284   6.6039   6.6447   6.7443   6.7822   6.9689   7.0307
  7.0615   7.0909   7.1070   7.1532   7.1683   7.2267   7.2596   7.2816
  7.3107   7.3166   7.3244   7.3410   7.3613   7.3672   7.3928   7.4059
  7.4643   7.5715   7.6318   7.6405   7.6664   7.6934   7.7381   7.7759
  7.7924   7.8009   7.8386   7.9000  24.5628  24.7467  24.7617  24.8511
 25.1146  50.5791  50.5990  50.6126  50.6509  50.7545
 
 Beta MOs
 -- Occupied --
-19.3489 -19.3480 -19.3438 -19.3435 -19.3303 -10.4488 -10.4365 -10.4087
-10.3920 -10.3748  -1.2070  -1.1761  -1.1637  -1.1584  -1.1380  -0.9095
 -0.8546  -0.8055  -0.7373  -0.6751  -0.6587  -0.6453  -0.6288  -0.6129
 -0.5939  -0.5755  -0.5614  -0.5310  -0.5139  -0.5073  -0.4929  -0.4880
 -0.4561  -0.4457  -0.4240  -0.4234  -0.4129  -0.3973  -0.3565
 -- Virtual --
 -0.0534   0.0238   0.0348   0.0377   0.0421   0.0581   0.0620   0.0662
  0.0718   0.0929   0.0972   0.1023   0.1135   0.1234   0.1254   0.1320
  0.1398   0.1464   0.1507   0.1546   0.1603   0.1667   0.1677   0.1752
  0.1817   0.1863   0.1948   0.2042   0.2108   0.2231   0.2408   0.2444
  0.2537   0.2624   0.2657   0.2729   0.2812   0.2861   0.2912   0.2999
  0.3054   0.3117   0.3140   0.3201   0.3262   0.3350   0.3436   0.3460
  0.3518   0.3550   0.3610   0.3671   0.3722   0.3750   0.3823   0.3910
  0.3979   0.4018   0.4079   0.4132   0.4206   0.4295   0.4396   0.4553
  0.4665   0.4779   0.5004   0.5080   0.5388   0.5537   0.5693   0.5833
  0.5889   0.6086   0.6207   0.6335   0.6436   0.6480   0.6573   0.6589
  0.6652   0.6756   0.6900   0.6960   0.6964   0.7050   0.7235   0.7297
  0.7392   0.7463   0.7597   0.7687   0.7810   0.7960   0.8126   0.8233
  0.8523   0.8637   0.8811   0.8924   0.9116   0.9210   0.9386   0.9540
  0.9799   0.9914   1.0061   1.0107   1.0330   1.0550   1.0699   1.0705
  1.0807   1.1128   1.1146   1.1327   1.1467   1.1654   1.1754   1.1777
  1.1828   1.2003   1.2136   1.2210   1.2310   1.2369   1.2482   1.2511
  1.2630   1.2770   1.2792   1.2978   1.3088   1.3224   1.3296   1.3470
  1.3567   1.3733   1.3841   1.4024   1.4125   1.4192   1.4213   1.4489
  1.4667   1.4837   1.4931   1.4962   1.5179   1.5242   1.5343   1.5471
  1.5663   1.5701   1.5866   1.6044   1.6090   1.6146   1.6360   1.6516
  1.6673   1.6788   1.7060   1.7396   1.7855   1.7940   1.8009   1.8138
  1.8517   1.9091   1.9219   1.9416   1.9810   1.9904   2.0116   2.0435
  2.0669   2.0982   2.1459   2.1580   2.2320   2.2447   2.2751   2.2837
  2.3118   2.3481   2.3624   2.3672   2.3823   2.4296   2.4668   2.4745
  2.5041   2.5462   2.5687   2.6137   2.6789   2.6867   2.7247   2.7447
  2.7706   2.8015   2.8406   2.8639   2.8781   2.8973   2.9138   2.9215
  2.9590   2.9758   2.9949   3.0127   3.0335   3.0362   3.0844   3.1033
  3.1327   3.1380   3.1629   3.1821   3.1964   3.2316   3.2413   3.2874
  3.2916   3.3319   3.3418   3.3624   3.3777   3.4086   3.4168   3.4334
  3.4532   3.4790   3.5007   3.5085   3.5344   3.5365   3.5667   3.5893
  3.6182   3.6265   3.6443   3.6605   3.6765   3.6918   3.7174   3.7291
  3.7479   3.7533   3.7774   3.7873   3.8158   3.8218   3.8408   3.8664
  3.8833   3.8856   3.8915   3.9152   3.9371   3.9515   3.9624   3.9939
  4.0290   4.0391   4.0670   4.0965   4.0990   4.1205   4.1323   4.1575
  4.1784   4.2153   4.2359   4.2542   4.2690   4.3150   4.3251   4.3362
  4.3395   4.3542   4.3688   4.3815   4.4283   4.4683   4.4733   4.4863
  4.4963   4.5114   4.5212   4.5592   4.6078   4.6363   4.6613   4.6735
  4.7312   4.7805   5.0506   5.0971   5.1990   5.2048   5.2159   5.2336
  5.2441   5.2711   5.2770   5.2875   5.2936   5.3014   5.3087   5.3179
  5.3274   5.3425   5.3579   5.3641   5.3922   5.4297   5.4542   5.4566
  5.5287   5.5304   5.5530   5.5737   5.5872   5.6078   5.6257   5.6364
  5.6545   5.6652   5.6809   5.6971   5.7100   5.7188   5.7366   5.8220
  5.8350   5.8489   5.9203   5.9794   5.9980   6.0385   6.0755   6.1057
  6.1797   6.3118   6.5296   6.6054   6.6465   6.7452   6.7901   6.9994
  7.0587   7.0626   7.0934   7.1085   7.1542   7.1731   7.2277   7.2603
  7.2823   7.3114   7.3175   7.3258   7.3419   7.3620   7.3888   7.3961
  7.4103   7.4654   7.5723   7.6375   7.6427   7.6682   7.6941   7.7393
  7.7780   7.7979   7.8086   7.8403   7.9006  24.5693  24.7485  24.7617
 24.8517  25.1172  50.5792  50.5992  50.6128  50.6512  50.7592
 --------------------------------------------------------------
 
          Ground-State Mulliken Net Atomic Charges

     Atom                 Charge (a.u.)    Spin (a.u.)
  --------------------------------------------------------
      1 O                    -0.426473       0.000120
      2 C                    -0.191914      -0.006768
      3 C                     0.093091       0.021463
      4 O                    -0.479965       0.244520
      5 C                     0.194995       0.691829
      6 C                    -0.398053      -0.003250
      7 C                    -0.219826       0.032252
      8 O                    -0.407039       0.004842
      9 O                    -0.448151       0.003630
     10 H                     0.333496       0.000663
     11 H                     0.207171       0.000987
     12 H                     0.201879       0.002055
     13 H                     0.297407      -0.009302
     14 H                     0.313196       0.007865
     15 H                     0.347715      -0.000998
     16 H                     0.343813       0.000667
     17 H                     0.289602       0.000158
     18 O                    -0.381302       0.008205
     19 H                     0.330360       0.001062
  --------------------------------------------------------
  Sum of atomic charges =     0.000000
  Sum of spin   charges =     1.000000

 -----------------------------------------------------------------
                    Cartesian Multipole Moments
 -----------------------------------------------------------------
    Charge (ESU x 10^10)
                 0.0000
    Dipole Moment (Debye)
         X      -1.3841      Y      -0.7682      Z       5.4559
       Tot       5.6809
    Quadrupole Moments (Debye-Ang)
        XX     -72.1997     XY      -1.9429     YY     -56.2047
        XZ      11.4623     YZ      13.9321     ZZ     -43.0967
    Octopole Moments (Debye-Ang^2)
       XXX    -780.1517    XXY    -122.6002    XYY    -217.4510
       YYY    -254.0797    XXZ     -81.4732    XYZ      31.4756
       YYZ      -1.7236    XZZ    -219.3847    YZZ     -36.8325
       ZZZ    -184.9381
    Hexadecapole Moments (Debye-Ang^3)
      XXXX   -6342.7541   XXXY   -1539.2718   XXYY   -1278.6378
      XYYY   -1144.0204   YYYY   -1570.2602   XXXZ   -1321.8612
      XXYZ    -215.9766   XYYZ    -137.8799   YYYZ    -327.7925
      XXZZ   -1417.0132   XYZZ    -327.2697   YYZZ    -288.0374
      XZZZ   -1097.8729   YZZZ    -387.1603   ZZZZ   -1183.6707
 -----------------------------------------------------------------
 Calculating analytic gradient of the SCF energy
 Gradient of CDS energy
            1           2           3           4           5           6
    1  -0.0001113  -0.0002808  -0.0011649   0.0008061   0.0002850   0.0001187
    2   0.0006509  -0.0011135   0.0020041  -0.0013556  -0.0001624   0.0002151
    3   0.0000767  -0.0005932  -0.0001954   0.0000779   0.0000240  -0.0001306
            7           8           9          10          11          12
    1   0.0006645   0.0002467  -0.0007966   0.0000227  -0.0000476   0.0001351
    2  -0.0002413   0.0017724  -0.0016339  -0.0005119   0.0001039   0.0000946
    3   0.0020089  -0.0015023  -0.0006055   0.0001742   0.0001819  -0.0001078
           13          14          15          16          17          18
    1   0.0000418   0.0001688  -0.0002078   0.0000001   0.0000107  -0.0000881
    2  -0.0001026  -0.0000680  -0.0002555   0.0004783  -0.0000242  -0.0002813
    3  -0.0000434   0.0001345   0.0004076   0.0002097  -0.0000953   0.0001429
           19
    1   0.0001970
    2   0.0004308
    3  -0.0001650
 Gradient of SCF Energy
            1           2           3           4           5           6
    1   0.0040330   0.0069079  -0.0032838   0.0009141   0.0000821  -0.0066767
    2   0.0022122   0.0018030   0.0009345   0.0029602   0.0029655   0.0041784
    3  -0.0200252   0.0015001   0.0023552  -0.0046481   0.0006864  -0.0005003
            7           8           9          10          11          12
    1   0.0080520   0.0154616   0.0151497  -0.0026522  -0.0055646  -0.0009587
    2  -0.0026846  -0.0049456  -0.0125184  -0.0036280  -0.0023124   0.0004166
    3  -0.0031767  -0.0105898  -0.0057873   0.0168072   0.0031847  -0.0013548
           13          14          15          16          17          18
    1   0.0025570   0.0033267  -0.0139577  -0.0138427  -0.0072973  -0.0055034
    2  -0.0075688  -0.0016411   0.0050271   0.0103090   0.0028323  -0.0022030
    3   0.0023315   0.0007899   0.0118017   0.0079679   0.0036375  -0.0091320
           19
    1   0.0032528
    2   0.0038629
    3   0.0041523
 Max gradient component =       2.003E-02
 RMS gradient           =       7.090E-03
 Computing fast CPCM-SWIG gradient
 Updating gradient with PCM contributions...
 -- total gradient after adding PCM contribution --
---------------------------------------------------
  Atom         X              Y              Z     
---------------------------------------------------
   1       0.000377      -0.000340      -0.000084
   2      -0.000283       0.000239       0.000029
   3       0.000027      -0.000032      -0.000024
   4       0.000002       0.000032       0.000009
   5       0.000004       0.000010       0.000022
   6       0.000012      -0.000052       0.000011
   7      -0.000058      -0.000066       0.000016
   8       0.000015       0.000085      -0.000008
   9       0.000011       0.000010       0.000026
  10      -0.000037      -0.000001       0.000104
  11      -0.000034       0.000066      -0.000026
  12       0.000004       0.000006      -0.000008
  13       0.000014      -0.000005      -0.000019
  14      -0.000009       0.000012       0.000013
  15      -0.000020      -0.000012      -0.000017
  16      -0.000011       0.000004      -0.000017
  17       0.000000       0.000014       0.000003
  18      -0.000025       0.000041      -0.000026
  19       0.000012      -0.000011      -0.000005
---------------------------------------------------
 Number of fixed atoms: 0
 Gradient time:  CPU 342.31 s  wall 29.09 s
 ----------------------------------------------------------------
             Standard Nuclear Orientation (Angstroms)
    I     Atom           X                Y                Z
 ----------------------------------------------------------------
    1      O       3.2833835946    -1.2160947376    -0.1421393964
    2      C       2.5015340324    -0.0444179333    -0.2707809263
    3      C       3.0805437440     1.2004370784     0.3741500052
    4      O       2.4352196987     2.2537555480     0.2761298133
    5      C       4.3225062831     1.1221879786     1.0813610883
    6      C       4.9986156555     2.3033132072     1.6864916344
    7      C       4.2482846769     2.7835564828     2.9319150247
    8      O       4.2364547619     1.7077341926     3.8398497061
    9      O       4.9693849341     3.8839083820     3.4370293131
   10      H       3.1807118948    -1.5606102658     0.7511141302
   11      H       1.4970096931    -0.1853317181     0.1336367489
   12      H       2.4023466807     0.1666466314    -1.3355528076
   13      H       4.7609791835     0.1494500919     1.2406254914
   14      H       5.9969628860     2.0047927892     2.0190782013
   15      H       3.5852786443     1.8931971551     4.5258004159
   16      H       4.3554836912     4.4875944253     3.8685381215
   17      H       3.2328318453     3.0899974164     2.6806073414
   18      O       5.0932530345     3.3565920393     0.7383634190
   19      H       5.4648274656     4.1160244368     1.2046305755
 ----------------------------------------------------------------
 Nuclear Repulsion Energy =         566.06551707 hartrees
 There are       40 alpha and       39 beta electrons
 Discretize the solute cavity surface with Lebedev spheres
	Using 110 Lebedev grid points for each H atom
	Using 194 Lebedev grid points for other atoms
	Atomic van der Waals radii will be scaled by 1.20
 Remove points where switching function is < 1.0e-08
 Keep 1488 surface tesserae and discard 1442 interior tesserae
 Molecular Surface Area = 167.884 Angst**2
 Requested basis set is 6-311++G(2df,2p)
 There are 134 shells and 430 basis functions
 A cutoff of  1.0D-12 yielded   7772 shell pairs
 There are     79352 function pairs (     98139 Cartesian)
 Smallest overlap matrix eigenvalue = 5.55E-06
 Guess MOs from SCF MO coefficient file

 -----------------------------------------------------------------------
  General SCF calculation program by
  Eric Jon Sundstrom, Paul Horn, Yuezhi Mao, Dmitri Zuev, Alec White,
  David Stuck, Shaama M.S., Shane Yost, Joonho Lee, David Small,
  Daniel Levine, Susi Lehtola, Hugh Burton, Evgeny Epifanovsky,
  Bang C. Huynh
 -----------------------------------------------------------------------
 Exchange:     0.1500 Hartree-Fock + 1.0000 wB97M-V + LR-HF
 Correlation:  1.0000 wB97M-V
 Using SG-2 standard quadrature grid
 Nonlocal Correlation:  VV10 with C = 0.0100 and b = 6.00 and scale = 1.00000
 Grid used for NLC:  SG-1 standard quadrature
 
 Citation of the SMD model:
 Marenich, A.V.; Cramer, C.J.; Truhlar, D.G.
 J. Phys. Chem. B 2009, 113, 6378-6396.
 iSolventCode=           1
 Solvent: water                                                           
 
 vradii
            1           2           3           4           5           6
    1   1.5200000   1.8500000   1.8500000   1.5200000   1.8500000   1.8500000
            7           8           9          10          11          12
    1   1.8500000   1.5200000   1.5200000   1.2000000   1.2000000   1.2000000
           13          14          15          16          17          18
    1   1.2000000   1.2000000   1.2000000   1.2000000   1.2000000   1.5200000
           19
    1   1.2000000
 -------------------------------------------------------
 OpenMP BLAS3 based DFT computing Module                
 Release: version 1.0, May 2013, Q-Chem Inc. Pittsburgh 
 -------------------------------------------------------
 A unrestricted SCF calculation will be
 performed using Roothaan-Hall, DIIS, GDM
 SCF converges when RMS gradient is below 1.0e-07
 ---------------------------------------
  Cycle       Energy         DIIS error
 ---------------------------------------
    1    -571.9925065873      2.55e-04  Roothaan Step
 ---------------------------------------
  Cycle       Energy         DIIS error
 ---------------------------------------
    1    -572.0389663052      3.00e-04  
    2    -572.0455688621      2.90e-04  Done DIIS. Switching to GDM
 ---------------------------------------
  Cycle       Energy        RMS Gradient
 ---------------------------------------
    1    -572.0455688621      1.80e-02   Normal BFGS step
    2    -572.0436183129      3.11e-02  Line search: overstep
    3    -572.0505002496      4.21e-03   Normal BFGS step
    4    -572.0507496666      9.88e-04   Normal BFGS step
    5    -572.0507945956      9.28e-04   Normal BFGS step
    6    -572.0508052140      3.44e-04   Normal BFGS step
    7    -572.0508068270      2.37e-04   Normal BFGS step
    8    -572.0508074151      1.15e-04   Normal BFGS step
    9    -572.0508075758      6.77e-05   Normal BFGS step
   10    -572.0508075977      4.33e-05   Normal BFGS step
   11    -572.0508076058      1.61e-05   Normal BFGS step
   12    -572.0508076070      6.36e-06   Normal BFGS step
   13    -572.0508076073      2.86e-06   Normal BFGS step
   14    -572.0508076074      2.15e-06   Normal BFGS step
   15    -572.0508076074      1.32e-06   Normal BFGS step
   16    -572.0508076074      7.94e-07   Normal BFGS step
   17    -572.0508076074      3.07e-07   Normal BFGS step
   18    -572.0508076074      8.39e-08  Convergence criterion met
 ---------------------------------------
 SCF time:   CPU 2529.69s  wall 175.00s 
<S^2> =          0.761279030
(3)  G-ENP(liq) elect-nuc-pol free energy of system     -572.050807607 a.u.
(4)  G-CDS(liq) cavity-dispersion-solvent structure 
     free energy                                                4.7547 kcal/mol
(6)  G-S(liq) free energy of system                     -572.043230460 a.u.
 SCF   energy in the final basis set =     -572.0432304595
 Total energy in the final basis set =     -572.0432304595
 
 --------------------------------------------------------------
 
                    Orbital Energies (a.u.)
 --------------------------------------------------------------
 
 Alpha MOs
 -- Occupied --
-19.3491 -19.3482 -19.3439 -19.3438 -19.3370 -10.4497 -10.4354 -10.4081
-10.3918 -10.3854  -1.2078  -1.1848  -1.1646  -1.1614  -1.1386  -0.9259
 -0.8585  -0.8133  -0.7414  -0.6765  -0.6630  -0.6477  -0.6334  -0.6182
 -0.5978  -0.5813  -0.5652  -0.5378  -0.5198  -0.5133  -0.5047  -0.4897
 -0.4613  -0.4556  -0.4280  -0.4248  -0.4172  -0.4007  -0.3634  -0.3437
 -- Virtual --
  0.0240   0.0348   0.0377   0.0419   0.0581   0.0612   0.0662   0.0711
  0.0878   0.0930   0.1001   0.1027   0.1213   0.1235   0.1299   0.1385
  0.1462   0.1484   0.1546   0.1595   0.1667   0.1681   0.1758   0.1818
  0.1862   0.1950   0.2037   0.2101   0.2233   0.2414   0.2440   0.2521
  0.2619   0.2652   0.2714   0.2809   0.2852   0.2907   0.2997   0.3019
  0.3110   0.3122   0.3200   0.3240   0.3311   0.3429   0.3455   0.3507
  0.3525   0.3599   0.3631   0.3709   0.3739   0.3817   0.3897   0.3976
  0.4017   0.4069   0.4123   0.4201   0.4267   0.4387   0.4538   0.4642
  0.4777   0.4978   0.5034   0.5363   0.5504   0.5655   0.5810   0.5877
  0.6069   0.6196   0.6318   0.6413   0.6454   0.6535   0.6580   0.6604
  0.6753   0.6855   0.6912   0.6950   0.7024   0.7172   0.7273   0.7354
  0.7445   0.7558   0.7671   0.7784   0.7916   0.8120   0.8203   0.8493
  0.8612   0.8788   0.8888   0.9110   0.9184   0.9364   0.9520   0.9779
  0.9891   1.0047   1.0099   1.0309   1.0534   1.0671   1.0696   1.0791
  1.1114   1.1139   1.1315   1.1459   1.1640   1.1733   1.1755   1.1825
  1.1966   1.2085   1.2178   1.2274   1.2336   1.2458   1.2477   1.2605
  1.2760   1.2770   1.2962   1.3080   1.3200   1.3255   1.3430   1.3557
  1.3717   1.3818   1.3988   1.4107   1.4177   1.4204   1.4434   1.4650
  1.4810   1.4899   1.4921   1.5146   1.5233   1.5306   1.5431   1.5632
  1.5694   1.5810   1.6011   1.6045   1.6119   1.6359   1.6492   1.6648
  1.6722   1.7030   1.7309   1.7805   1.7875   1.7971   1.8071   1.8464
  1.9031   1.9200   1.9371   1.9783   1.9882   2.0079   2.0410   2.0643
  2.0937   2.1419   2.1565   2.2255   2.2409   2.2726   2.2816   2.3098
  2.3471   2.3610   2.3661   2.3810   2.4271   2.4658   2.4716   2.5027
  2.5396   2.5617   2.6082   2.6715   2.6770   2.7189   2.7332   2.7680
  2.7940   2.8291   2.8555   2.8599   2.8798   2.8929   2.9083   2.9439
  2.9566   2.9713   3.0074   3.0196   3.0310   3.0711   3.0871   3.1197
  3.1306   3.1486   3.1758   3.1877   3.2211   3.2343   3.2823   3.2870
  3.3213   3.3353   3.3515   3.3668   3.3913   3.4092   3.4259   3.4393
  3.4741   3.4939   3.4986   3.5182   3.5262   3.5557   3.5857   3.6048
  3.6170   3.6349   3.6554   3.6694   3.6891   3.7056   3.7223   3.7377
  3.7481   3.7696   3.7820   3.7982   3.8157   3.8348   3.8556   3.8765
  3.8783   3.8859   3.9093   3.9317   3.9455   3.9597   3.9875   4.0249
  4.0328   4.0597   4.0908   4.0932   4.1169   4.1270   4.1528   4.1693
  4.2069   4.2253   4.2459   4.2619   4.3118   4.3151   4.3316   4.3369
  4.3523   4.3678   4.3789   4.4187   4.4594   4.4649   4.4730   4.4881
  4.4968   4.5129   4.5416   4.6015   4.6185   4.6500   4.6642   4.7165
  4.7755   5.0296   5.0789   5.1815   5.1869   5.2132   5.2207   5.2257
  5.2702   5.2736   5.2784   5.2889   5.3002   5.3059   5.3141   5.3233
  5.3410   5.3525   5.3609   5.3899   5.4282   5.4451   5.4533   5.5227
  5.5282   5.5498   5.5663   5.5831   5.6000   5.6178   5.6289   5.6535
  5.6631   5.6770   5.6940   5.7053   5.7163   5.7331   5.8084   5.8237
  5.8337   5.9172   5.9778   5.9973   6.0408   6.0737   6.1043   6.1788
  6.2951   6.5285   6.6069   6.6447   6.7443   6.7826   6.9690   7.0308
  7.0615   7.0909   7.1071   7.1532   7.1685   7.2267   7.2596   7.2816
  7.3112   7.3171   7.3245   7.3410   7.3613   7.3673   7.3929   7.4062
  7.4644   7.5715   7.6319   7.6418   7.6664   7.6934   7.7381   7.7760
  7.7924   7.8009   7.8386   7.9000  24.5629  24.7467  24.7635  24.8511
 25.1146  50.5797  50.5990  50.6126  50.6509  50.7545
 
 Beta MOs
 -- Occupied --
-19.3489 -19.3480 -19.3438 -19.3435 -19.3303 -10.4488 -10.4364 -10.4087
-10.3919 -10.3748  -1.2070  -1.1761  -1.1638  -1.1586  -1.1380  -0.9095
 -0.8546  -0.8055  -0.7373  -0.6752  -0.6588  -0.6455  -0.6288  -0.6129
 -0.5939  -0.5755  -0.5615  -0.5311  -0.5139  -0.5073  -0.4928  -0.4880
 -0.4561  -0.4457  -0.4239  -0.4233  -0.4129  -0.3973  -0.3565
 -- Virtual --
 -0.0534   0.0238   0.0348   0.0377   0.0421   0.0581   0.0620   0.0662
  0.0718   0.0929   0.0972   0.1023   0.1135   0.1234   0.1254   0.1320
  0.1398   0.1464   0.1507   0.1546   0.1603   0.1667   0.1677   0.1752
  0.1817   0.1863   0.1948   0.2043   0.2108   0.2231   0.2408   0.2445
  0.2537   0.2624   0.2657   0.2730   0.2813   0.2862   0.2912   0.2999
  0.3054   0.3117   0.3140   0.3201   0.3262   0.3350   0.3437   0.3460
  0.3518   0.3551   0.3610   0.3671   0.3722   0.3750   0.3823   0.3910
  0.3980   0.4019   0.4079   0.4131   0.4206   0.4295   0.4396   0.4553
  0.4665   0.4779   0.5003   0.5079   0.5388   0.5538   0.5693   0.5834
  0.5889   0.6085   0.6207   0.6335   0.6436   0.6480   0.6575   0.6590
  0.6652   0.6757   0.6900   0.6960   0.6964   0.7050   0.7235   0.7297
  0.7393   0.7464   0.7597   0.7687   0.7810   0.7960   0.8126   0.8233
  0.8523   0.8637   0.8812   0.8924   0.9116   0.9210   0.9385   0.9540
  0.9798   0.9915   1.0061   1.0107   1.0331   1.0549   1.0699   1.0706
  1.0808   1.1128   1.1147   1.1328   1.1467   1.1654   1.1754   1.1777
  1.1828   1.2003   1.2135   1.2210   1.2310   1.2369   1.2482   1.2511
  1.2630   1.2770   1.2793   1.2978   1.3088   1.3224   1.3295   1.3470
  1.3568   1.3733   1.3841   1.4025   1.4125   1.4192   1.4215   1.4489
  1.4668   1.4837   1.4931   1.4962   1.5179   1.5243   1.5343   1.5471
  1.5663   1.5702   1.5866   1.6044   1.6090   1.6145   1.6360   1.6516
  1.6673   1.6787   1.7060   1.7396   1.7856   1.7940   1.8009   1.8139
  1.8517   1.9091   1.9219   1.9416   1.9811   1.9906   2.0116   2.0436
  2.0671   2.0983   2.1459   2.1580   2.2321   2.2451   2.2751   2.2838
  2.3119   2.3483   2.3625   2.3676   2.3822   2.4296   2.4668   2.4745
  2.5042   2.5463   2.5684   2.6137   2.6788   2.6868   2.7247   2.7447
  2.7709   2.8014   2.8407   2.8641   2.8781   2.8974   2.9138   2.9215
  2.9592   2.9758   2.9949   3.0127   3.0335   3.0363   3.0844   3.1033
  3.1328   3.1380   3.1630   3.1822   3.1965   3.2318   3.2414   3.2878
  3.2922   3.3321   3.3419   3.3624   3.3777   3.4085   3.4169   3.4334
  3.4533   3.4790   3.5006   3.5085   3.5344   3.5365   3.5668   3.5893
  3.6183   3.6266   3.6443   3.6605   3.6766   3.6918   3.7174   3.7291
  3.7481   3.7532   3.7774   3.7874   3.8158   3.8218   3.8408   3.8664
  3.8833   3.8857   3.8915   3.9152   3.9372   3.9516   3.9624   3.9938
  4.0290   4.0391   4.0671   4.0965   4.0990   4.1208   4.1324   4.1577
  4.1785   4.2153   4.2359   4.2542   4.2690   4.3154   4.3251   4.3362
  4.3395   4.3543   4.3693   4.3816   4.4283   4.4683   4.4734   4.4863
  4.4965   4.5114   4.5213   4.5592   4.6078   4.6363   4.6613   4.6736
  4.7313   4.7804   5.0506   5.0971   5.1990   5.2048   5.2159   5.2335
  5.2441   5.2711   5.2774   5.2875   5.2936   5.3013   5.3087   5.3178
  5.3275   5.3425   5.3580   5.3641   5.3922   5.4297   5.4544   5.4568
  5.5287   5.5304   5.5530   5.5739   5.5872   5.6080   5.6257   5.6366
  5.6546   5.6654   5.6810   5.6971   5.7104   5.7189   5.7368   5.8220
  5.8352   5.8490   5.9204   5.9796   5.9999   6.0412   6.0756   6.1057
  6.1797   6.3119   6.5296   6.6084   6.6465   6.7452   6.7904   6.9994
  7.0588   7.0626   7.0934   7.1086   7.1542   7.1733   7.2277   7.2603
  7.2823   7.3120   7.3179   7.3258   7.3419   7.3620   7.3890   7.3962
  7.4105   7.4654   7.5723   7.6381   7.6435   7.6682   7.6941   7.7393
  7.7782   7.7979   7.8086   7.8403   7.9006  24.5694  24.7486  24.7635
 24.8518  25.1172  50.5798  50.5992  50.6128  50.6512  50.7592
 --------------------------------------------------------------
 
          Ground-State Mulliken Net Atomic Charges

     Atom                 Charge (a.u.)    Spin (a.u.)
  --------------------------------------------------------
      1 O                    -0.426193       0.000119
      2 C                    -0.192273      -0.006755
      3 C                     0.093333       0.021442
      4 O                    -0.480012       0.244514
      5 C                     0.194887       0.691864
      6 C                    -0.397798      -0.003268
      7 C                    -0.219839       0.032255
      8 O                    -0.407037       0.004841
      9 O                    -0.448144       0.003630
     10 H                     0.333549       0.000664
     11 H                     0.207023       0.000988
     12 H                     0.201769       0.002052
     13 H                     0.297356      -0.009304
     14 H                     0.313195       0.007864
     15 H                     0.347714      -0.000999
     16 H                     0.343813       0.000668
     17 H                     0.289592       0.000158
     18 O                    -0.381298       0.008206
     19 H                     0.330364       0.001063
  --------------------------------------------------------
  Sum of atomic charges =     0.000000
  Sum of spin   charges =     1.000000

 -----------------------------------------------------------------
                    Cartesian Multipole Moments
 -----------------------------------------------------------------
    Charge (ESU x 10^10)
                 0.0000
    Dipole Moment (Debye)
         X      -1.3766      Y      -0.7704      Z       5.4569
       Tot       5.6804
    Quadrupole Moments (Debye-Ang)
        XX     -72.1543     XY      -1.9554     YY     -56.2025
        XZ      11.4656     YZ      13.9317     ZZ     -43.0957
    Octopole Moments (Debye-Ang^2)
       XXX    -779.8976    XXY    -122.6613    XYY    -217.4219
       YYY    -254.0885    XXZ     -81.4624    XYZ      31.4744
       YYZ      -1.7220    XZZ    -219.3682    YZZ     -36.8353
       ZZZ    -184.9359
    Hexadecapole Moments (Debye-Ang^3)
      XXXX   -6341.3237   XXXY   -1539.5876   XXYY   -1278.4703
      XYYY   -1144.0994   YYYY   -1570.2412   XXXZ   -1321.8285
      XXYZ    -215.9798   XYYZ    -137.8760   YYYZ    -327.7926
      XXZZ   -1416.9179   XYZZ    -327.2918   YYZZ    -288.0327
      XZZZ   -1097.8702   YZZZ    -387.1580   ZZZZ   -1183.6685
 -----------------------------------------------------------------
 Calculating analytic gradient of the SCF energy
 Gradient of CDS energy
            1           2           3           4           5           6
    1  -0.0002164  -0.0001752  -0.0011650   0.0008061   0.0002850   0.0001187
    2   0.0008100  -0.0012726   0.0020040  -0.0013556  -0.0001624   0.0002151
    3   0.0000588  -0.0005754  -0.0001955   0.0000779   0.0000241  -0.0001306
            7           8           9          10          11          12
    1   0.0006645   0.0002467  -0.0007966   0.0000224  -0.0000476   0.0001349
    2  -0.0002413   0.0017724  -0.0016339  -0.0005117   0.0001039   0.0000945
    3   0.0020089  -0.0015023  -0.0006055   0.0001743   0.0001819  -0.0001078
           13          14          15          16          17          18
    1   0.0000418   0.0001688  -0.0002078   0.0000001   0.0000107  -0.0000881
    2  -0.0001024  -0.0000680  -0.0002555   0.0004783  -0.0000242  -0.0002813
    3  -0.0000432   0.0001345   0.0004076   0.0002097  -0.0000953   0.0001429
           19
    1   0.0001970
    2   0.0004308
    3  -0.0001650
 Gradient of SCF Energy
            1           2           3           4           5           6
    1   0.0032572   0.0074521  -0.0033029   0.0009109   0.0000799  -0.0066819
    2   0.0028459   0.0013660   0.0009396   0.0029534   0.0029771   0.0041876
    3  -0.0198296   0.0014609   0.0023536  -0.0046468   0.0006841  -0.0004999
            7           8           9          10          11          12
    1   0.0080524   0.0154603   0.0151489  -0.0025126  -0.0054645  -0.0009440
    2  -0.0026840  -0.0049439  -0.0125179  -0.0036561  -0.0024607   0.0003880
    3  -0.0031764  -0.0105895  -0.0057870   0.0166202   0.0031994  -0.0013407
           13          14          15          16          17          18
    1   0.0025589   0.0033310  -0.0139570  -0.0138422  -0.0072959  -0.0055047
    2  -0.0075803  -0.0016442   0.0050265   0.0103090   0.0028321  -0.0022016
    3   0.0023318   0.0007907   0.0118020   0.0079681   0.0036378  -0.0091314
           19
    1   0.0032541
    2   0.0038635
    3   0.0041526
 Max gradient component =       1.983E-02
 RMS gradient           =       7.077E-03
 Computing fast CPCM-SWIG gradient
 Updating gradient with PCM contributions...
 -- total gradient after adding PCM contribution --
---------------------------------------------------
  Atom         X              Y              Z     
---------------------------------------------------
   1      -0.000347       0.000284       0.000122
   2       0.000286      -0.000214      -0.000003
   3       0.000004      -0.000026      -0.000030
   4       0.000001       0.000030       0.000012
   5       0.000011       0.000007       0.000026
   6       0.000007      -0.000049       0.000008
   7      -0.000058      -0.000065       0.000016
   8       0.000015       0.000085      -0.000008
   9       0.000011       0.000010       0.000026
  10       0.000062      -0.000016      -0.000095
  11       0.000039      -0.000079      -0.000006
  12       0.000013      -0.000021      -0.000001
  13       0.000009       0.000005      -0.000017
  14      -0.000010       0.000011       0.000013
  15      -0.000020      -0.000012      -0.000017
  16      -0.000011       0.000004      -0.000017
  17       0.000000       0.000015       0.000003
  18      -0.000025       0.000043      -0.000025
  19       0.000012      -0.000011      -0.000005
---------------------------------------------------
 Number of fixed atoms: 0
 Gradient time:  CPU 345.79 s  wall 28.53 s
 ----------------------------------------------------------------
             Standard Nuclear Orientation (Angstroms)
    I     Atom           X                Y                Z
 ----------------------------------------------------------------
    1      O       3.2843835946    -1.2150947376    -0.1421393964
    2      C       2.5015340324    -0.0444179333    -0.2707809263
    3      C       3.0805437440     1.2004370784     0.3741500052
    4      O       2.4352196987     2.2537555480     0.2761298133
    5      C       4.3225062831     1.1221879786     1.0813610883
    6      C       4.9986156555     2.3033132072     1.6864916344
    7      C       4.2482846769     2.7835564828     2.9319150247
    8      O       4.2364547619     1.7077341926     3.8398497061
    9      O       4.9693849341     3.8839083820     3.4370293131
   10      H       3.1807118948    -1.5606102658     0.7511141302
   11      H       1.4970096931    -0.1853317181     0.1336367489
   12      H       2.4023466807     0.1666466314    -1.3355528076
   13      H       4.7609791835     0.1494500919     1.2406254914
   14      H       5.9969628860     2.0047927892     2.0190782013
   15      H       3.5852786443     1.8931971551     4.5258004159
   16      H       4.3554836912     4.4875944253     3.8685381215
   17      H       3.2328318453     3.0899974164     2.6806073414
   18      O       5.0932530345     3.3565920393     0.7383634190
   19      H       5.4648274656     4.1160244368     1.2046305755
 ----------------------------------------------------------------
 Nuclear Repulsion Energy =         566.08385434 hartrees
 There are       40 alpha and       39 beta electrons
 Discretize the solute cavity surface with Lebedev spheres
	Using 110 Lebedev grid points for each H atom
	Using 194 Lebedev grid points for other atoms
	Atomic van der Waals radii will be scaled by 1.20
 Remove points where switching function is < 1.0e-08
 Keep 1488 surface tesserae and discard 1442 interior tesserae
 Molecular Surface Area = 167.881 Angst**2
 Requested basis set is 6-311++G(2df,2p)
 There are 134 shells and 430 basis functions
 A cutoff of  1.0D-12 yielded   7772 shell pairs
 There are     79352 function pairs (     98139 Cartesian)
 Smallest overlap matrix eigenvalue = 5.55E-06
 Guess MOs from SCF MO coefficient file

 -----------------------------------------------------------------------
  General SCF calculation program by
  Eric Jon Sundstrom, Paul Horn, Yuezhi Mao, Dmitri Zuev, Alec White,
  David Stuck, Shaama M.S., Shane Yost, Joonho Lee, David Small,
  Daniel Levine, Susi Lehtola, Hugh Burton, Evgeny Epifanovsky,
  Bang C. Huynh
 -----------------------------------------------------------------------
 Exchange:     0.1500 Hartree-Fock + 1.0000 wB97M-V + LR-HF
 Correlation:  1.0000 wB97M-V
 Using SG-2 standard quadrature grid
 Nonlocal Correlation:  VV10 with C = 0.0100 and b = 6.00 and scale = 1.00000
 Grid used for NLC:  SG-1 standard quadrature
 
 Citation of the SMD model:
 Marenich, A.V.; Cramer, C.J.; Truhlar, D.G.
 J. Phys. Chem. B 2009, 113, 6378-6396.
 iSolventCode=           1
 Solvent: water                                                           
 
 vradii
            1           2           3           4           5           6
    1   1.5200000   1.8500000   1.8500000   1.5200000   1.8500000   1.8500000
            7           8           9          10          11          12
    1   1.8500000   1.5200000   1.5200000   1.2000000   1.2000000   1.2000000
           13          14          15          16          17          18
    1   1.2000000   1.2000000   1.2000000   1.2000000   1.2000000   1.5200000
           19
    1   1.2000000
 -------------------------------------------------------
 OpenMP BLAS3 based DFT computing Module                
 Release: version 1.0, May 2013, Q-Chem Inc. Pittsburgh 
 -------------------------------------------------------
 A unrestricted SCF calculation will be
 performed using Roothaan-Hall, DIIS, GDM
 SCF converges when RMS gradient is below 1.0e-07
 ---------------------------------------
  Cycle       Energy         DIIS error
 ---------------------------------------
    1    -571.9924982778      2.55e-04  Roothaan Step
 ---------------------------------------
  Cycle       Energy         DIIS error
 ---------------------------------------
    1    -572.0389635646      3.00e-04  
    2    -572.0455664953      2.90e-04  Done DIIS. Switching to GDM
 ---------------------------------------
  Cycle       Energy        RMS Gradient
 ---------------------------------------
    1    -572.0455664953      1.79e-02   Normal BFGS step
    2    -572.0436164563      3.10e-02  Line search: overstep
    3    -572.0505011157      4.21e-03   Normal BFGS step
    4    -572.0507504424      9.87e-04   Normal BFGS step
    5    -572.0507953876      9.28e-04   Normal BFGS step
    6    -572.0508060166      3.43e-04   Normal BFGS step
    7    -572.0508076305      2.37e-04   Normal BFGS step
    8    -572.0508082188      1.15e-04   Normal BFGS step
    9    -572.0508083797      6.77e-05   Normal BFGS step
   10    -572.0508084017      4.32e-05   Normal BFGS step
   11    -572.0508084098      1.61e-05   Normal BFGS step
   12    -572.0508084111      6.28e-06   Normal BFGS step
   13    -572.0508084114      3.24e-06   Normal BFGS step
   14    -572.0508084114      2.41e-06   Normal BFGS step
   15    -572.0508084115      1.44e-06   Normal BFGS step
   16    -572.0508084115      8.10e-07   Normal BFGS step
   17    -572.0508084115      3.28e-07   Normal BFGS step
   18    -572.0508084115      8.33e-08  Convergence criterion met
 ---------------------------------------
 SCF time:   CPU 2510.85s  wall 173.00s 
<S^2> =          0.761279524
(3)  G-ENP(liq) elect-nuc-pol free energy of system     -572.050808411 a.u.
(4)  G-CDS(liq) cavity-dispersion-solvent structure 
     free energy                                                4.7554 kcal/mol
(6)  G-S(liq) free energy of system                     -572.043230130 a.u.
 SCF   energy in the final basis set =     -572.0432301297
 Total energy in the final basis set =     -572.0432301297
 
 --------------------------------------------------------------
 
                    Orbital Energies (a.u.)
 --------------------------------------------------------------
 
 Alpha MOs
 -- Occupied --
-19.3491 -19.3482 -19.3439 -19.3438 -19.3370 -10.4497 -10.4354 -10.4081
-10.3918 -10.3853  -1.2078  -1.1848  -1.1646  -1.1614  -1.1386  -0.9259
 -0.8585  -0.8133  -0.7414  -0.6765  -0.6629  -0.6477  -0.6334  -0.6182
 -0.5978  -0.5814  -0.5652  -0.5378  -0.5198  -0.5133  -0.5047  -0.4897
 -0.4613  -0.4555  -0.4280  -0.4248  -0.4172  -0.4007  -0.3633  -0.3437
 -- Virtual --
  0.0240   0.0348   0.0377   0.0419   0.0581   0.0612   0.0662   0.0711
  0.0878   0.0930   0.1001   0.1027   0.1213   0.1235   0.1299   0.1385
  0.1462   0.1484   0.1546   0.1595   0.1667   0.1681   0.1758   0.1818
  0.1862   0.1950   0.2037   0.2101   0.2233   0.2414   0.2440   0.2521
  0.2619   0.2651   0.2713   0.2809   0.2852   0.2907   0.2997   0.3019
  0.3110   0.3122   0.3200   0.3240   0.3312   0.3429   0.3456   0.3507
  0.3525   0.3599   0.3632   0.3709   0.3739   0.3817   0.3897   0.3976
  0.4017   0.4069   0.4124   0.4201   0.4267   0.4387   0.4538   0.4642
  0.4777   0.4979   0.5035   0.5363   0.5504   0.5655   0.5810   0.5877
  0.6069   0.6196   0.6318   0.6412   0.6454   0.6536   0.6580   0.6604
  0.6753   0.6855   0.6912   0.6950   0.7024   0.7172   0.7273   0.7354
  0.7445   0.7558   0.7671   0.7784   0.7916   0.8120   0.8203   0.8493
  0.8613   0.8788   0.8888   0.9110   0.9185   0.9364   0.9520   0.9779
  0.9890   1.0048   1.0099   1.0309   1.0535   1.0671   1.0696   1.0792
  1.1114   1.1139   1.1315   1.1459   1.1640   1.1733   1.1755   1.1825
  1.1966   1.2085   1.2178   1.2274   1.2337   1.2458   1.2477   1.2605
  1.2759   1.2771   1.2962   1.3080   1.3201   1.3256   1.3430   1.3557
  1.3717   1.3818   1.3988   1.4107   1.4177   1.4203   1.4434   1.4650
  1.4810   1.4899   1.4922   1.5146   1.5233   1.5306   1.5431   1.5632
  1.5694   1.5811   1.6012   1.6044   1.6119   1.6358   1.6491   1.6648
  1.6722   1.7031   1.7310   1.7805   1.7874   1.7972   1.8071   1.8464
  1.9031   1.9200   1.9371   1.9784   1.9882   2.0080   2.0410   2.0644
  2.0938   2.1420   2.1565   2.2255   2.2409   2.2726   2.2815   2.3099
  2.3472   2.3610   2.3663   2.3812   2.4272   2.4658   2.4716   2.5027
  2.5395   2.5619   2.6082   2.6716   2.6770   2.7190   2.7332   2.7679
  2.7941   2.8291   2.8556   2.8600   2.8797   2.8929   2.9083   2.9438
  2.9567   2.9713   3.0074   3.0196   3.0310   3.0712   3.0871   3.1197
  3.1306   3.1487   3.1760   3.1877   3.2211   3.2343   3.2822   3.2871
  3.3213   3.3353   3.3515   3.3668   3.3913   3.4092   3.4259   3.4393
  3.4741   3.4939   3.4987   3.5182   3.5262   3.5556   3.5857   3.6048
  3.6170   3.6349   3.6553   3.6694   3.6891   3.7056   3.7224   3.7377
  3.7482   3.7698   3.7821   3.7982   3.8157   3.8348   3.8556   3.8765
  3.8784   3.8859   3.9093   3.9317   3.9455   3.9597   3.9875   4.0249
  4.0328   4.0597   4.0908   4.0933   4.1169   4.1269   4.1527   4.1693
  4.2069   4.2253   4.2458   4.2619   4.3114   4.3150   4.3316   4.3369
  4.3523   4.3674   4.3789   4.4187   4.4595   4.4649   4.4730   4.4882
  4.4968   4.5129   4.5417   4.6015   4.6185   4.6500   4.6642   4.7165
  4.7756   5.0296   5.0790   5.1816   5.1869   5.2132   5.2207   5.2257
  5.2702   5.2736   5.2785   5.2889   5.3002   5.3059   5.3142   5.3234
  5.3410   5.3524   5.3609   5.3899   5.4282   5.4451   5.4534   5.5228
  5.5282   5.5499   5.5663   5.5831   5.5999   5.6178   5.6288   5.6535
  5.6626   5.6769   5.6940   5.7052   5.7163   5.7330   5.8084   5.8238
  5.8337   5.9172   5.9778   5.9977   6.0406   6.0737   6.1044   6.1788
  6.2951   6.5285   6.6075   6.6447   6.7443   6.7826   6.9690   7.0308
  7.0615   7.0910   7.1071   7.1532   7.1684   7.2267   7.2596   7.2816
  7.3103   7.3162   7.3243   7.3410   7.3613   7.3673   7.3930   7.4063
  7.4644   7.5715   7.6320   7.6419   7.6664   7.6934   7.7381   7.7761
[...]
 H          0.124  0.529 -0.028   -0.005 -0.244 -0.209    0.089  0.013 -0.209
 H         -0.074  0.237 -0.100    0.071 -0.263  0.146    0.102 -0.380  0.185
 H          0.202  0.188  0.060    0.120  0.089  0.035   -0.424 -0.391 -0.187
 H         -0.120 -0.091  0.165    0.097 -0.021 -0.387    0.068  0.305  0.440
 O          0.012 -0.162  0.188    0.006  0.018 -0.013    0.007 -0.021  0.030
 H         -0.032  0.150 -0.315   -0.009  0.085 -0.114   -0.008  0.067 -0.111
 TransDip   0.076  0.219 -0.393    0.049 -0.273  0.034    0.065 -0.131  0.181

 Mode:                28                     29                     30
 Frequency:      1205.14                1216.28                1224.33
 Force Cnst:      1.1211                 1.2605                 1.4798
 Red. Mass:       1.3101                 1.4462                 1.6756
 IR Active:          YES                    YES                    YES
 IR Intens:      151.954                171.722                 76.354
 Raman Active:       YES                    YES                    YES
               X      Y      Z        X      Y      Z        X      Y      Z
 O          0.050 -0.072 -0.010    0.006 -0.005  0.004    0.064 -0.067  0.022
 C         -0.046  0.041  0.037   -0.012  0.011 -0.011   -0.103  0.081 -0.060
 C          0.027  0.008 -0.052    0.007  0.005  0.018    0.060  0.034  0.088
 O         -0.011  0.005  0.003   -0.004  0.001 -0.003   -0.003 -0.019 -0.011
 C         -0.008 -0.040 -0.001    0.013 -0.014 -0.010   -0.003 -0.025 -0.023
 C         -0.019  0.038  0.006   -0.004 -0.002  0.029   -0.059  0.066 -0.003
 C          0.024  0.022  0.023    0.065  0.018  0.105    0.015  0.024 -0.022
 O         -0.004  0.010 -0.000    0.007  0.024 -0.062   -0.002 -0.014  0.029
 O         -0.023 -0.025 -0.013   -0.087 -0.060 -0.025   -0.007 -0.005 -0.002
 H         -0.325  0.427  0.150    0.054 -0.074 -0.018    0.210 -0.276 -0.040
 H         -0.032 -0.338 -0.086   -0.015  0.089  0.011   -0.121  0.483  0.047
 H         -0.013  0.579  0.137   -0.010 -0.076 -0.028   -0.064 -0.182 -0.111
 H          0.103  0.014  0.035    0.000 -0.016  0.021   -0.218 -0.135 -0.107
 H          0.004 -0.116 -0.202    0.040 -0.189 -0.270   -0.043 -0.116 -0.222
 H          0.037 -0.137  0.077   -0.105  0.474 -0.288    0.056 -0.230  0.141
 H          0.086  0.060  0.017    0.451  0.356  0.138    0.093  0.073  0.028
 H          0.063 -0.004 -0.174   -0.061 -0.237  0.319    0.110  0.004 -0.445
 O          0.010 -0.008  0.025    0.003  0.004 -0.003    0.015 -0.016  0.037
 H         -0.012  0.124 -0.184   -0.002  0.025 -0.034   -0.017  0.157 -0.233
 TransDip  -0.054  0.390 -0.030    0.209  0.325  0.164    0.051  0.269 -0.059

 Mode:                31                     32                     33
 Frequency:      1243.86                1258.00                1279.14
 Force Cnst:      1.7622                 1.2302                 3.4813
 Red. Mass:       1.9331                 1.3194                 3.6112
 IR Active:          YES                    YES                    YES
 IR Intens:       68.483                 72.127                363.956
 Raman Active:       YES                    YES                    YES
               X      Y      Z        X      Y      Z        X      Y      Z
 O          0.091 -0.111  0.016    0.031 -0.039  0.006    0.001 -0.002  0.000
 C         -0.079  0.137 -0.004   -0.013  0.053  0.007   -0.001  0.002 -0.000
 C         -0.072 -0.042 -0.050   -0.063 -0.037 -0.042   -0.006  0.001 -0.002
 O          0.004  0.001  0.003    0.013 -0.004  0.005    0.001 -0.001  0.000
 C         -0.009  0.016  0.011   -0.004  0.016 -0.010    0.005  0.008 -0.001
 C          0.072 -0.072 -0.006   -0.011  0.024  0.038    0.038 -0.051 -0.036
 C         -0.057 -0.040 -0.019    0.056  0.022  0.039    0.084  0.338 -0.106
 O          0.003  0.005 -0.014   -0.003  0.008 -0.004    0.031 -0.173  0.129
 O          0.037  0.033  0.015   -0.032 -0.032 -0.015   -0.099 -0.108 -0.052
 H          0.046 -0.101  0.023    0.013 -0.022  0.013   -0.000 -0.004 -0.001
 H         -0.119  0.494  0.027   -0.029  0.194  0.020   -0.002  0.015  0.001
 H         -0.069  0.231  0.015   -0.027  0.133  0.023   -0.002  0.003  0.000
 H          0.356  0.216  0.206   -0.038  0.002 -0.002    0.058  0.040  0.038
 H         -0.037 -0.166  0.248    0.157  0.560  0.008   -0.106 -0.177  0.303
 H         -0.040  0.162 -0.096    0.019 -0.076  0.039   -0.111  0.210 -0.094
 H         -0.168 -0.123 -0.051    0.078  0.047  0.026   -0.007 -0.046 -0.024
 H         -0.149  0.004  0.416    0.114  0.009 -0.208    0.137  0.730  0.167
 O         -0.015  0.025 -0.012   -0.001 -0.021 -0.048   -0.021  0.012  0.006
 H          0.002  0.058 -0.083    0.025 -0.401  0.584   -0.014  0.006  0.009
 TransDip  -0.242  0.009 -0.108   -0.071 -0.005  0.263    0.150  0.567 -0.171

 Mode:                34                     35                     36
 Frequency:      1358.49                1379.93                1397.38
 Force Cnst:      1.5062                 1.4730                 1.5095
 Red. Mass:       1.3852                 1.3130                 1.3121
 IR Active:          YES                    YES                    YES
 IR Intens:       40.305                  4.113                 93.350
 Raman Active:       YES                    YES                    YES
               X      Y      Z        X      Y      Z        X      Y      Z
 O          0.000  0.001 -0.001    0.026  0.022 -0.052   -0.028  0.030  0.050
 C         -0.003 -0.004 -0.002   -0.010 -0.139  0.031   -0.004 -0.110 -0.088
 C          0.008  0.005  0.006    0.007 -0.015  0.017    0.016 -0.013 -0.006
 O          0.000 -0.002  0.000   -0.013  0.029 -0.002   -0.015  0.028 -0.000
 C         -0.013  0.008  0.007   -0.003 -0.004 -0.004    0.010  0.004  0.007
 C         -0.001 -0.022 -0.109   -0.005 -0.006 -0.001   -0.008 -0.007 -0.004
 C          0.103 -0.039  0.045   -0.000  0.001 -0.000    0.001 -0.000 -0.001
 O         -0.024  0.046 -0.018    0.001 -0.000 -0.000   -0.000  0.000 -0.000
 O         -0.045 -0.013 -0.003   -0.001  0.000 -0.000   -0.001  0.000  0.000
 H         -0.004  0.003 -0.000   -0.358  0.459  0.081    0.291 -0.341 -0.064
 H         -0.001  0.008  0.005   -0.059  0.687  0.229    0.137  0.128  0.325
 H          0.005 -0.010 -0.004    0.304 -0.060  0.028    0.089  0.782  0.072
 H          0.043  0.035 -0.006   -0.011 -0.009 -0.001   -0.028 -0.020 -0.022
 H         -0.283  0.002  0.809    0.014  0.035 -0.023   -0.000  0.004 -0.019
 H          0.061 -0.238  0.130   -0.001  0.004 -0.003    0.000 -0.002  0.001
 H          0.240  0.201  0.091    0.003  0.003  0.001    0.007  0.006  0.003
 H          0.123 -0.101 -0.074    0.001  0.008  0.002    0.002  0.005  0.004
 O         -0.013  0.009  0.008    0.002  0.000  0.004    0.002  0.001  0.004
 H          0.003  0.067 -0.103   -0.002  0.022 -0.031   -0.001  0.022 -0.032
 TransDip   0.156  0.055  0.118    0.021 -0.034  0.051    0.193 -0.242 -0.001

 Mode:                37                     38                     39
 Frequency:      1418.07                1428.97                1444.50
 Force Cnst:      1.5575                 1.7748                 1.5217
 Red. Mass:       1.3146                 1.4752                 1.2378
 IR Active:          YES                    YES                    YES
 IR Intens:        9.175                 47.965                 59.423
 Raman Active:       YES                    YES                    YES
               X      Y      Z        X      Y      Z        X      Y      Z
 O         -0.000 -0.001  0.001   -0.001 -0.002  0.001   -0.001 -0.011 -0.005
 C         -0.006  0.004 -0.003   -0.018  0.008 -0.010   -0.075  0.060 -0.029
 C          0.012  0.014  0.009    0.026  0.031  0.022    0.031  0.009  0.019
 O          0.003 -0.008 -0.000    0.006 -0.017 -0.001   -0.003 -0.005 -0.003
 C         -0.024  0.014 -0.004   -0.046  0.021 -0.021   -0.054 -0.034 -0.041
 C         -0.022 -0.075 -0.011   -0.049 -0.143 -0.009    0.032  0.039  0.019
 C         -0.039 -0.114  0.043    0.037  0.087 -0.036   -0.007 -0.006  0.008
 O          0.031  0.002 -0.014   -0.017 -0.004  0.007    0.002  0.000 -0.001
 O         -0.026  0.019 -0.002    0.006 -0.008  0.005    0.002 -0.001 -0.002
 H          0.005 -0.011 -0.003    0.006 -0.017 -0.005   -0.013 -0.008 -0.007
 H          0.003 -0.037  0.002    0.024 -0.079  0.055    0.229 -0.300  0.545
 H          0.009 -0.021 -0.009    0.073 -0.047 -0.027    0.649 -0.169 -0.125
 H          0.080  0.074  0.044    0.141  0.136  0.102    0.152  0.085  0.110
 H          0.115  0.364 -0.060    0.206  0.661 -0.106   -0.009 -0.069  0.058
 H         -0.046  0.180 -0.129    0.019 -0.101  0.063   -0.003  0.019 -0.010
 H          0.130  0.121  0.067   -0.016 -0.017 -0.011   -0.019 -0.017 -0.008
 H          0.260  0.752 -0.129   -0.163 -0.446  0.135    0.010  0.030 -0.018
 O          0.018  0.006  0.018    0.026  0.008  0.035   -0.008 -0.003 -0.013
 H         -0.002  0.150 -0.218   -0.015  0.221 -0.305    0.004 -0.082  0.117
 TransDip  -0.046 -0.084  0.015    0.022  0.210 -0.067    0.123  0.142  0.160

 Mode:                40                     41                     42
 Frequency:      1458.81                1470.04                1596.10
 Force Cnst:      2.1894                 3.4799                12.6852
 Red. Mass:       1.7461                 2.7331                 8.4514
 IR Active:          YES                    YES                    YES
 IR Intens:       28.342                124.942                180.115
 Raman Active:       YES                    YES                    YES
               X      Y      Z        X      Y      Z        X      Y      Z
 O         -0.001  0.003  0.002    0.004 -0.018 -0.009   -0.009  0.012 -0.002
 C          0.005 -0.010 -0.001   -0.018  0.066  0.010    0.025 -0.128 -0.015
 C          0.037 -0.013  0.018   -0.200 -0.009 -0.113   -0.251  0.590 -0.003
 O         -0.013  0.016 -0.003    0.047 -0.041  0.015    0.205 -0.348  0.029
 C         -0.033 -0.015 -0.018    0.202  0.103  0.148   -0.071 -0.098 -0.054
 C          0.025 -0.014 -0.067   -0.069 -0.073 -0.074    0.030  0.071  0.004
 C         -0.075  0.083  0.196   -0.012  0.025  0.045   -0.014  0.003  0.032
 O          0.034 -0.025 -0.027    0.007 -0.007 -0.006    0.004 -0.000 -0.005
 O          0.040 -0.018 -0.021    0.007 -0.002 -0.002    0.005 -0.006 -0.006
 H          0.007 -0.010 -0.003   -0.028  0.039  0.011   -0.013 -0.000 -0.011
 H         -0.027  0.021 -0.065    0.149 -0.098  0.342   -0.036  0.240  0.001
 H         -0.078  0.013  0.009    0.401 -0.065 -0.047   -0.063  0.226  0.056
 H          0.096  0.053  0.038   -0.446 -0.275 -0.346    0.369  0.158  0.225
 H         -0.042  0.034  0.194   -0.059 -0.035 -0.082   -0.027 -0.149  0.015
 H         -0.094  0.407 -0.251   -0.022  0.084 -0.056   -0.006  0.035 -0.023
 H         -0.301 -0.277 -0.122   -0.044 -0.040 -0.016   -0.042 -0.040 -0.027
 H          0.010 -0.239 -0.625    0.005 -0.074 -0.166    0.005 -0.018 -0.098
 O         -0.002 -0.002  0.007    0.011  0.004  0.028   -0.006 -0.009 -0.005
 H         -0.000  0.021 -0.038   -0.006  0.154 -0.225    0.007 -0.074  0.097
 TransDip   0.014  0.138  0.099   -0.294  0.084 -0.185   -0.265  0.332 -0.065

 Mode:                43                     44                     45
 Frequency:      3047.93                3063.80                3100.09
 Force Cnst:      5.9306                 5.8685                 6.1625
 Red. Mass:       1.0835                 1.0611                 1.0883
 IR Active:          YES                    YES                    YES
 IR Intens:       37.256                 36.068                 40.839
 Raman Active:       YES                    YES                    YES
               X      Y      Z        X      Y      Z        X      Y      Z
 O         -0.000 -0.000 -0.000   -0.000  0.000  0.000    0.000 -0.000 -0.000
 C         -0.000  0.000 -0.000   -0.068 -0.003 -0.014   -0.000 -0.000  0.000
 C          0.001 -0.000  0.001   -0.001  0.001  0.000   -0.000  0.000  0.000
 O         -0.000  0.000 -0.000    0.000 -0.000  0.000   -0.000 -0.000 -0.000
 C          0.001 -0.002  0.001    0.000 -0.000  0.000    0.000 -0.000  0.000
 C         -0.077  0.019 -0.023    0.000 -0.000  0.000   -0.010  0.003 -0.004
 C          0.009 -0.003  0.001   -0.000  0.000  0.000   -0.079  0.024 -0.017
 O         -0.000 -0.000  0.000    0.000 -0.000 -0.000    0.001 -0.000 -0.000
 O          0.000  0.000  0.000    0.000 -0.000 -0.000    0.001 -0.000 -0.000
 H          0.000  0.000  0.000    0.002  0.002 -0.004   -0.000  0.000  0.000
 H          0.005  0.001 -0.002    0.783  0.124 -0.330    0.001  0.000 -0.000
 H         -0.000 -0.001  0.002    0.031 -0.098  0.497   -0.000  0.000 -0.002
 H         -0.012  0.026 -0.008    0.000  0.001  0.000   -0.002  0.004 -0.001
 H          0.908 -0.261  0.287   -0.006  0.001 -0.002    0.123 -0.036  0.033
 H          0.001 -0.002  0.001    0.000  0.000 -0.000   -0.002  0.006  0.003
 H          0.001  0.001  0.001    0.000 -0.000 -0.000   -0.009  0.000  0.004
 H         -0.124  0.037 -0.031    0.001 -0.000  0.000    0.923 -0.277  0.217
 O          0.001  0.001 -0.001   -0.000 -0.000  0.000    0.000 -0.000  0.000
 H          0.003  0.004 -0.002   -0.000 -0.000  0.000    0.000  0.001 -0.001
 TransDip  -0.139  0.083 -0.109   -0.157  0.108 -0.025   -0.169  0.062 -0.097

 Mode:                46                     47                     48
 Frequency:      3118.28                3239.33                3796.12
 Force Cnst:      6.3212                 6.7323                 9.0489
 Red. Mass:       1.1034                 1.0889                 1.0658
 IR Active:          YES                    YES                    YES
 IR Intens:       10.229                  0.998                151.337
 Raman Active:       YES                    YES                    YES
               X      Y      Z        X      Y      Z        X      Y      Z
 O         -0.000 -0.000  0.002   -0.000 -0.000 -0.000   -0.000 -0.000  0.000
 C          0.031  0.019 -0.086    0.001 -0.000  0.000    0.000 -0.000 -0.000
 C          0.001  0.000 -0.001   -0.001 -0.001 -0.001   -0.000  0.000 -0.000
 O         -0.000 -0.000  0.000   -0.001  0.001 -0.000    0.000 -0.000  0.000
 C          0.000 -0.000 -0.000    0.036 -0.077  0.013    0.000  0.000 -0.000
 C         -0.000  0.000 -0.000    0.003  0.001  0.001   -0.000 -0.001 -0.001
 C         -0.000  0.000 -0.000   -0.000  0.000  0.000   -0.000  0.000  0.000
 O          0.000 -0.000  0.000   -0.000  0.000  0.000   -0.000  0.000  0.000
 O          0.000 -0.000  0.000   -0.000 -0.000 -0.000    0.000 -0.000 -0.000
 H          0.004 -0.003 -0.016   -0.000 -0.000  0.001    0.000  0.001 -0.002
 H         -0.458 -0.075  0.176    0.000  0.001  0.001    0.000  0.000  0.000
 H          0.080 -0.154  0.845    0.000  0.001 -0.001    0.000  0.000  0.000
 H         -0.000  0.001  0.000   -0.410  0.896 -0.147   -0.001  0.001  0.001
 H          0.001 -0.000  0.000   -0.027  0.005 -0.010   -0.001  0.003 -0.003
 H         -0.000  0.000  0.000    0.000  0.000 -0.000    0.007 -0.002 -0.008
 H         -0.000  0.000  0.000    0.000 -0.000 -0.000   -0.001  0.000  0.001
 H          0.002 -0.001  0.000   -0.001  0.000 -0.000    0.000 -0.000  0.000
 O         -0.000 -0.000  0.000    0.000  0.000  0.000   -0.024 -0.050 -0.028
 H         -0.000 -0.000 -0.000   -0.001 -0.001 -0.000    0.387  0.795  0.462
 TransDip   0.036  0.047 -0.084   -0.027 -0.002 -0.017    0.143  0.338  0.143

 Mode:                49                     50                     51
 Frequency:      3826.78                3832.73                3834.94
 Force Cnst:      9.2046                 9.2339                 9.2461
 Red. Mass:       1.0668                 1.0669                 1.0671
 IR Active:          YES                    YES                    YES
 IR Intens:      143.625                129.187                168.923
 Raman Active:       YES                    YES                    YES
               X      Y      Z        X      Y      Z        X      Y      Z
 O         -0.000 -0.000  0.000    0.006  0.024 -0.058    0.000  0.000 -0.001
 C         -0.000 -0.000  0.000    0.001 -0.000 -0.002    0.000 -0.000 -0.000
 C         -0.000  0.000 -0.000    0.000  0.000  0.000   -0.000  0.000 -0.000
 O          0.000 -0.000  0.000    0.000 -0.000 -0.000    0.000 -0.000  0.000
 C          0.000 -0.000 -0.000   -0.000  0.000 -0.000   -0.000 -0.000  0.000
 C         -0.000 -0.000  0.000    0.000  0.000 -0.000   -0.000  0.000  0.000
 C          0.001 -0.001 -0.000   -0.000  0.000  0.000    0.002 -0.000  0.000
 O          0.042 -0.010 -0.045    0.000 -0.000 -0.000    0.001  0.000 -0.001
 O         -0.001  0.001  0.001   -0.001  0.001  0.001    0.039 -0.041 -0.028
 H          0.001  0.002 -0.005   -0.103 -0.368  0.922   -0.002 -0.007  0.018
 H          0.000  0.000 -0.000   -0.001 -0.004  0.002    0.000 -0.000  0.000
 H         -0.000  0.000 -0.000    0.001 -0.004  0.013    0.000 -0.000  0.000
 H         -0.000  0.000  0.000    0.001 -0.000  0.001    0.000  0.000 -0.000
 H         -0.001  0.000  0.000   -0.000 -0.000 -0.000   -0.001  0.000 -0.000
 H         -0.674  0.182  0.713   -0.004  0.001  0.004   -0.014  0.003  0.015
 H          0.014 -0.013 -0.009    0.012 -0.013 -0.009   -0.629  0.632  0.446
 H         -0.005 -0.001  0.003    0.000 -0.000 -0.000   -0.005  0.006  0.001
 O         -0.000 -0.001 -0.000   -0.000 -0.000 -0.000    0.000  0.000  0.000
 H          0.004  0.008  0.004    0.001  0.002  0.001   -0.000 -0.001 -0.002
 TransDip  -0.230 -0.008  0.307    0.003 -0.216  0.293   -0.182  0.307  0.214

 STANDARD THERMODYNAMIC QUANTITIES AT   298.15 K  AND     1.00 ATM

   This Molecule has  0 Imaginary Frequencies
   Zero point vibrational energy:       93.451 kcal/mol

   Atom    1 Element O  Has Mass   15.99491
   Atom    2 Element C  Has Mass   12.00000
   Atom    3 Element C  Has Mass   12.00000
   Atom    4 Element O  Has Mass   15.99491
   Atom    5 Element C  Has Mass   12.00000
   Atom    6 Element C  Has Mass   12.00000
   Atom    7 Element C  Has Mass   12.00000
   Atom    8 Element O  Has Mass   15.99491
   Atom    9 Element O  Has Mass   15.99491
   Atom   10 Element H  Has Mass    1.00783
   Atom   11 Element H  Has Mass    1.00783
   Atom   12 Element H  Has Mass    1.00783
   Atom   13 Element H  Has Mass    1.00783
   Atom   14 Element H  Has Mass    1.00783
   Atom   15 Element H  Has Mass    1.00783
   Atom   16 Element H  Has Mass    1.00783
   Atom   17 Element H  Has Mass    1.00783
   Atom   18 Element O  Has Mass   15.99491
   Atom   19 Element H  Has Mass    1.00783
   Molecular Mass:   149.045020 amu
   Principal axes and moments of inertia in amu*Bohr^2:
                             1           2           3
    Eigenvalues --      771.27796  2475.45597  2737.75086
          X               0.37762    -0.00473     0.92595
          Y               0.67655    -0.68134    -0.27939
          Z               0.63221     0.73196    -0.25408
   Rotational Symmetry Number is   1
   The Molecule is an Asymmetric Top
   Translational Enthalpy:        0.889 kcal/mol
   Rotational Enthalpy:           0.889 kcal/mol
   Vibrational Enthalpy:         99.099 kcal/mol
   gas constant (RT):             0.592 kcal/mol
   Translational Entropy:        40.907  cal/mol.K
   Rotational Entropy:           30.037  cal/mol.K
   Vibrational Entropy:          36.637  cal/mol.K

   Total Enthalpy:              101.469 kcal/mol
   Total Entropy:               107.581  cal/mol.K
 Total job time:  23409.19s(wall), 330363.26s(cpu) 
 Fri May 17 00:54:00 2024

        *************************************************************
        *                                                           *
        *  Thank you very much for using Q-Chem.  Have a nice day.  *
        *                                                           *
        *************************************************************


