
Running Job 1 of 1 Q_in.in
qchem Q_in.in_2012114.0 /scratch/ari.fischer/qChem2149910.hpc-mn1/qchem2012114/ 0
/usr/local/qchem-5.4.1/exe/qcprog.exe_s Q_in.in_2012114.0 /scratch/ari.fischer/qChem2149910.hpc-mn1/qchem2012114/
                  Welcome to Q-Chem
     A Quantum Leap Into The Future Of Chemistry


 Q-Chem 5.4, Q-Chem, Inc., Pleasanton, CA (2021)

 License issued to: Nanyang Technological University (site)

 E. Epifanovsky,  A. T. B. Gilbert,  Xintian Feng,  Joonho Lee,  Yuezhi Mao,  
 N. Mardirossian,  P. Pokhilko,  A. White,  M. Wormit,  M. P. Coons,  
 A. L. Dempwolff,  Zhengting Gan,  D. Hait,  P. R. Horn,  L. D. Jacobson,  
 I. Kaliman,  J. Kussmann,  A. W. Lange,  Ka Un Lao,  D. S. Levine,  Jie Liu,  
 S. C. McKenzie,  A. F. Morrison,  K. Nanda,  F. Plasser,  D. R. Rehn,  
 M. L. Vidal,  Zhi-Qiang You,  Ying Zhu,  B. Alam,  B. Albrecht,  
 A. Aldossary,  E. Alguire,  J. H. Andersen,  D. Barton,  K. Begam,  A. Behn,  
 Y. A. Bernard,  E. J. Berquist,  H. Burton,  A. Carreras,  K. Carter-Fenk,  
 Romit Chakraborty,  A. D. Chien,  K. D. Closser,  V. Cofer-Shabica,  
 S. Dasgupta,  Jia Deng,  M. de Wergifosse,  M. Diedenhofen,  Hainam Do,  
 S. Ehlert,  Po-Tung Fang,  S. Fatehi,  Qingguo Feng,  T. Friedhoff,  
 J. Gayvert,  Qinghui Ge,  G. Gidofalvi,  M. Goldey,  J. Gomes,  
 C. Gonzalez-Espinoza,  S. Gulania,  A. Gunina,  M. W. D. Hanson-Heine,  
 P. H. P. Harbach,  A. W. Hauser,  M. F. Herbst,  M. Hernandez Vera,  
 M. Hodecker,  Z. C. Holden,  S. Houck,  Xunkun Huang,  Kerwin Hui,  
 B. C. Huynh,  M. Ivanov,  Hyunjun Ji,  Hanjie Jiang,  B. Kaduk,  S. Kaehler,  
 K. Khistyaev,  Jaehoon Kim,  P. Klunzinger,  Z. Koczor-Benda,  
 Joong Hoon Koh,  D. Kosenkov,  L. Koulias,  T. Kowalczyk,  C. M. Krauter,  
 K. Kue,  A. Kunitsa,  T. Kus,  A. Landau,  K. V. Lawler,  D. Lefrancois,  
 S. Lehtola,  Rain Li,  Yi-Pei Li,  Jiashu Liang,  M. Liebenthal,  
 Hung-Hsuan Lin,  You-Sheng Lin,  Fenglai Liu,  Kuan-Yu Liu,  
 M. Loipersberger,  A. Luenser,  A. Manjanath,  P. Manohar,  E. Mansoor,  
 S. F. Manzer,  Shan-Ping Mao,  A. V. Marenich,  T. Markovich,  S. Mason,  
 S. A. Maurer,  P. F. McLaughlin,  M. F. S. J. Menger,  J.-M. Mewes,  
 S. A. Mewes,  P. Morgante,  J. W. Mullinax,  K. J. Oosterbaan,  G. Paran,  
 Alexander C. Paul,  Suranjan K. Paul,  F. Pavosevic,  Zheng Pei,  S. Prager,  
 E. I. Proynov,  E. Ramos,  B. Rana,  A. E. Rask,  A. Rettig,  R. M. Richard,  
 F. Rob,  E. Rossomme,  T. Scheele,  M. Scheurer,  M. Schneider,  
 N. Sergueev,  S. M. Sharada,  W. Skomorowski,  D. W. Small,  C. J. Stein,  
 Yu-Chuan Su,  E. J. Sundstrom,  Zhen Tao,  J. Thirman,  T. Tsuchimochi,  
 N. M. Tubman,  S. P. Veccham,  O. Vydrov,  J. Wenzel,  J. Witte,  A. Yamada,  
 Kun Yao,  S. Yeganeh,  S. R. Yost,  A. Zech,  Igor Ying Zhang,  Xing Zhang,  
 Yu Zhang,  D. Zuev,  A. Aspuru-Guzik,  A. T. Bell,  N. A. Besley,  
 K. B. Bravaya,  B. R. Brooks,  D. Casanova,  Jeng-Da Chai,  S. Coriani,  
 C. J. Cramer,  A. E. DePrince, III,  R. A. DiStasio Jr.,  A. Dreuw,  
 B. D. Dunietz,  T. R. Furlani,  W. A. Goddard III,  S. Grimme,  
 S. Hammes-Schiffer,  T. Head-Gordon,  W. J. Hehre,  Chao-Ping Hsu,  
 T.-C. Jagau,  Yousung Jung,  A. Klamt,  Jing Kong,  D. S. Lambrecht,  
 WanZhen Liang,  N. J. Mayhall,  C. W. McCurdy,  J. B. Neaton,  T. Neudecker,  
 C. Ochsenfeld,  J. A. Parkhill,  R. Peverati,  V. A. Rassolov,  Yihan Shao,  
 L. V. Slipchenko,  R. P. Steele,  J. E. Subotnik,  A. J. W. Thom,  
 A. Tkatchenko,  D. G. Truhlar,  T. Van Voorhis,  T. A. Wesolowski,  
 K. B. Whaley,  H. L. Woodcock III,  P. M. Zimmerman,  S. Faraji,  
 P. M. W. Gill,  M. Head-Gordon,  J. M. Herbert,  A. I. Krylov

 Additional authors since Version 5.4.0: 
 Chandrima Chakravarty,  L. Cunha,  R. Kang,  Yongbin Kim,  S. Kotaru,  
 Shaozhi Li,  Xiangyuan Li,  F. Matz,  A. Molle,  V. Parravicini,  
 Haisheng Ren,  Hengyuan Shen,  Yingli Su,  Hung-Yi Tsai,  C. Utku,  
 Fang Wang,  Jeff Yang,  F. Zeller

 Contributors to earlier versions of Q-Chem not listed above: 
 R. D. Adamson,  B. Austin,  R. Baer,  J. Baker,  G. J. O. Beran,  
 K. Brandhorst,  S. T. Brown,  E. F. C. Byrd,  Arup K. Chakraborty,  
 G. K. L. Chan,  Chun-Min Chang,  Yunqing Chen,  C.-L. Cheng,  
 Siu Hung Chien,  D. M. Chipman,  D. L. Crittenden,  H. Dachsel,  
 R. J. Doerksen,  A. D. Dutoi,  R. G. Edgar,  J. Fosso-Tande,  
 L. Fusti-Molnar,  D. Ghosh,  A. Ghysels,  A. Golubeva-Zadorozhnaya,  
 J. Gonthier,  M. S. Gordon,  S. R. Gwaltney,  G. Hawkins,  J. E. Herr,  
 A. Heyden,  S. Hirata,  E. G. Hohenstein,  G. Kedziora,  F. J. Keil,  
 C. Kelley,  Jihan Kim,  R. A. King,  R. Z. Khaliullin,  P. P. Korambath,  
 W. Kurlancheek,  A. Laurent,  A. M. Lee,  M. S. Lee,  S. V. Levchenko,  
 Ching Yeh Lin,  D. Liotard,  E. Livshits,  R. C. Lochan,  I. Lotan,  
 L. A. Martinez-Martinez,  P. E. Maslen,  N. Nair,  D. P. O'Neill,  
 D. Neuhauser,  E. Neuscamman,  C. M. Oana,  R. Olivares-Amaya,  R. Olson,  
 T. M. Perrine,  B. Peters,  P. A. Pieniazek,  A. Prociuk,  Y. M. Rhee,  
 J. Ritchie,  M. A. Rohrdanz,  E. Rosta,  N. J. Russ,  H. F. Schaefer III,  
 M. W. Schmidt,  N. E. Schultz,  S. Sharma,  N. Shenvi,  C. D. Sherrill,  
 A. C. Simmonett,  A. Sodt,  T. Stein,  D. Stuck,  K. S. Thanthiriwatte,  
 V. Vanovschi,  L. Vogt,  Tao Wang,  A. Warshel,  M. A. Watson,  
 C. F. Williams,  Q. Wu,  X. Xu,  Jun Yang,  W. Zhang,  Yan Zhao

   Please cite Q-Chem as follows:
  "Software for the frontiers of quantum chemistry:
   An overview of developments in the Q-Chem 5 package"
   J. Chem. Phys. 155, 084801 (2021)
   https://doi.org/10.1063/5.0055522 (open access)

 Q-Chem 5.4.2 for Intel X86 EM64T Linux

 Parts of Q-Chem use Armadillo 9.900.5 (Nocturnal Misbehaviour).
 http://arma.sourceforge.net/

 Q-Chem begins on Fri May 31 16:38:02 2024  

 Host: 
0

     Scratch files written to /scratch/ari.fischer/qChem2149910.hpc-mn1/qchem2012114//
 Dec1321 |scratch|qcdevops|jenkins|workspace|build_RNUM 8249   
 Processing $rem in /usr/local/qchem-5.4.1/config/preferences:
 Processing $rem in /home/ari.fischer/.qchemrc:
 Symmetry turned off for PCM/SM12/SMD calculation

 Checking the input file for inconsistencies... 	...done.

--------------------------------------------------------------
User input:
--------------------------------------------------------------
$molecule
0 2
C         1.1392040410    0.0863102959   -0.5444363061
O         0.5037176547   -1.0815890747   -0.6404718865
C         2.5169306931    0.0724798137   -0.1954752361
O         3.0684346984   -1.0408063552   -0.0110875072
C         3.2611877547    1.3795327597   -0.0456311985
C         4.7480415327    1.1833283156   -0.2867798340
O         4.8695938427    0.7332563322   -1.6431168293
O         5.9807102337   -0.1692274124   -1.7321523045
C         5.5625943398    2.4580116945   -0.0927485144
O         5.4417157615    2.8000686992    1.2695797617
O         6.9074091539    2.2854603510   -0.4750185209
H         0.5420471117    0.9677413637   -0.7419297622
H         1.1831659060   -1.7651092840   -0.4350743954
H         3.1104368863    1.7646540069    0.9697372295
H         2.8524232897    2.1265948770   -0.7358015598
H         5.1371076777    0.4024638126    0.3749969678
H         5.5382666015   -1.0185623407   -1.5387874960
H         5.1823563072    3.2569810338   -0.7394408342
H         5.8577416713    3.6709264785    1.3820418991
H         7.2491508427    1.5211411325    0.0212624271
$end

$rem
BASIS = 6-311++G(2df,2p)
GUI = 2
JOB_TYPE = Optimization
METHOD = wB97M-V
SCF_ALGORITHM = DIIS_GDM
MAX_SCF_CYCLES = 400
GEOM_OPT_MAX_CYCLES = 150
SCF_CONVERGENCE = 7
THRESH = 12
Solvent_method = SMD
$end
--------------------------------------------------------------
 ----------------------------------------------------------------
             Standard Nuclear Orientation (Angstroms)
    I     Atom           X                Y                Z
 ----------------------------------------------------------------
    1      C       1.1392040410     0.0863102959    -0.5444363061
    2      O       0.5037176547    -1.0815890747    -0.6404718865
    3      C       2.5169306931     0.0724798137    -0.1954752361
    4      O       3.0684346984    -1.0408063552    -0.0110875072
    5      C       3.2611877547     1.3795327597    -0.0456311985
    6      C       4.7480415327     1.1833283156    -0.2867798340
    7      O       4.8695938427     0.7332563322    -1.6431168293
    8      O       5.9807102337    -0.1692274124    -1.7321523045
    9      C       5.5625943398     2.4580116945    -0.0927485144
   10      O       5.4417157615     2.8000686992     1.2695797617
   11      O       6.9074091539     2.2854603510    -0.4750185209
   12      H       0.5420471117     0.9677413637    -0.7419297622
   13      H       1.1831659060    -1.7651092840    -0.4350743954
   14      H       3.1104368863     1.7646540069     0.9697372295
   15      H       2.8524232897     2.1265948770    -0.7358015598
   16      H       5.1371076777     0.4024638126     0.3749969678
   17      H       5.5382666015    -1.0185623407    -1.5387874960
   18      H       5.1823563072     3.2569810338    -0.7394408342
   19      H       5.8577416713     3.6709264785     1.3820418991
   20      H       7.2491508427     1.5211411325     0.0212624271
 ----------------------------------------------------------------
 Nuclear Repulsion Energy =         665.76791483 hartrees
 There are       44 alpha and       43 beta electrons
 Requested basis set is 6-311++G(2df,2p)
 There are 142 shells and 464 basis functions

 Total QAlloc Memory Limit 288000 MB
 Mega-Array Size       188 MB
 MEM_STATIC part       192 MB
 
 Citation of the SMD model:
 Marenich, A.V.; Cramer, C.J.; Truhlar, D.G.
 J. Phys. Chem. B 2009, 113, 6378-6396.
 iSolventCode=           1
 Solvent: water                                                           
 
 vradii
            1           2           3           4           5           6
    1   1.8500000   1.5200000   1.8500000   1.5200000   1.8500000   1.8500000
            7           8           9          10          11          12
    1   1.5200000   1.5200000   1.8500000   1.5200000   1.5200000   1.2000000
           13          14          15          16          17          18
    1   1.2000000   1.2000000   1.2000000   1.2000000   1.2000000   1.2000000
           19          20
    1   1.2000000   1.2000000
 Changing PCM_VDW_RADII to SMD_RADIUS
 Discretize the solute cavity surface with Lebedev spheres
	Using 110 Lebedev grid points for each H atom
	Using 194 Lebedev grid points for other atoms
	Atomic van der Waals radii will be scaled by 1.20
 Remove points where switching function is < 1.0e-08
 Keep 1583 surface tesserae and discard 1541 interior tesserae
 Molecular Surface Area = 179.752 Angst**2
 A cutoff of  1.0D-12 yielded   8556 shell pairs
 There are     89704 function pairs (    111070 Cartesian)
 Smallest overlap matrix eigenvalue = 4.58E-06

 Scale SEOQF with 1.000000e-02/1.000000e-01/1.000000e-01

 Standard Electronic Orientation quadrupole field applied
 Nucleus-field energy     =     0.0000000144 hartrees
 Guess from superposition of atomic densities
 Warning:  Energy on first SCF cycle will be non-variational
 SAD guess density has 87.000000 electrons

 -----------------------------------------------------------------------
  General SCF calculation program by
  Eric Jon Sundstrom, Paul Horn, Yuezhi Mao, Dmitri Zuev, Alec White,
  David Stuck, Shaama M.S., Shane Yost, Joonho Lee, David Small,
  Daniel Levine, Susi Lehtola, Hugh Burton, Evgeny Epifanovsky,
  Bang C. Huynh
 -----------------------------------------------------------------------
 Exchange:     0.1500 Hartree-Fock + 1.0000 wB97M-V + LR-HF
 Correlation:  1.0000 wB97M-V
 Using SG-2 standard quadrature grid
 Nonlocal Correlation:  VV10 with C = 0.0100 and b = 6.00 and scale = 1.00000
 Grid used for NLC:  SG-1 standard quadrature
 
 Citation of the SMD model:
 Marenich, A.V.; Cramer, C.J.; Truhlar, D.G.
 J. Phys. Chem. B 2009, 113, 6378-6396.
 iSolventCode=           1
 Solvent: water                                                           
 
 vradii
            1           2           3           4           5           6
    1   1.8500000   1.5200000   1.8500000   1.5200000   1.8500000   1.8500000
            7           8           9          10          11          12
    1   1.5200000   1.5200000   1.8500000   1.5200000   1.5200000   1.2000000
           13          14          15          16          17          18
    1   1.2000000   1.2000000   1.2000000   1.2000000   1.2000000   1.2000000
           19          20
    1   1.2000000   1.2000000
 using 16 threads for integral computing
 -------------------------------------------------------
 OpenMP Integral computing Module                
 Release: version 1.0, May 2013, Q-Chem Inc. Pittsburgh 
 -------------------------------------------------------
 -------------------------------------------------------
 OpenMP BLAS3 based DFT computing Module                
 Release: version 1.0, May 2013, Q-Chem Inc. Pittsburgh 
 -------------------------------------------------------
 A unrestricted SCF calculation will be
 performed using DIIS, GDM
 SCF converges when RMS gradient is below 1.0e-07
 ---------------------------------------
  Cycle       Energy         DIIS error
 ---------------------------------------
    1    -649.4606189971      1.15e-02  
    2    -647.0297593823      1.46e-03  Done DIIS. Switching to GDM
 ---------------------------------------
  Cycle       Energy        RMS Gradient
 ---------------------------------------
    1    -647.0297593823      1.15e-01   Descent step
    2    -647.1899689356      2.04e-02   Normal BFGS step
    3    -647.2134710699      1.49e-02   Normal BFGS step
    4    -647.2154011288      1.11e-02   Normal BFGS step
    5    -647.2163100687      3.24e-03   Normal BFGS step
    6    -647.2163960798      2.15e-03   Normal BFGS step
    7    -647.2164288233      1.19e-03   Normal BFGS step
    8    -647.2164366495      3.35e-04   Normal BFGS step
    9    -647.2164374754      1.97e-04   Normal BFGS step
   10    -647.2164378112      1.13e-04   Normal BFGS step
   11    -647.2164378510      6.49e-05   Normal BFGS step
   12    -647.2164378649      3.21e-05   Normal BFGS step
   13    -647.2164378692      7.80e-06   Normal BFGS step
   14    -647.2164378700      2.91e-06   Normal BFGS step
   15    -647.2164378701      1.68e-06   Normal BFGS step
   16    -647.2164378701      6.84e-07   Normal BFGS step
   17    -647.2164378701      2.35e-07   Normal BFGS step
   18    -647.2164378701      9.88e-08  Convergence criterion met
 ---------------------------------------
 SCF time:   CPU 1829.72s  wall 124.00s 
<S^2> =          0.756777024
(3)  G-ENP(liq) elect-nuc-pol free energy of system     -647.216437870 a.u.
(4)  G-CDS(liq) cavity-dispersion-solvent structure 
     free energy                                                5.2122 kcal/mol
(6)  G-S(liq) free energy of system                     -647.208131714 a.u.
 SCF   energy in the final basis set =     -647.2081317140
 Total energy in the final basis set =     -647.2081317140
 
 --------------------------------------------------------------
 
                    Orbital Energies (a.u.)
 --------------------------------------------------------------
 
 Alpha MOs
 -- Occupied --
-19.4015 -19.3952 -19.3943 -19.3477 -19.3459 -19.3313 -10.4453 -10.4328
-10.4250 -10.4024 -10.3524  -1.2660  -1.2298  -1.2012  -1.1649  -1.1338
 -1.0506  -0.9118  -0.8609  -0.8046  -0.7388  -0.7099  -0.6800  -0.6431
 -0.6391  -0.6133  -0.6015  -0.5770  -0.5740  -0.5622  -0.5506  -0.5400
 -0.5262  -0.5213  -0.5034  -0.4754  -0.4612  -0.4513  -0.4338  -0.4177
 -0.4075  -0.3907  -0.3811  -0.3062
 -- Virtual --
  0.0259   0.0351   0.0371   0.0457   0.0549   0.0615   0.0677   0.0732
  0.0831   0.0919   0.1013   0.1085   0.1207   0.1232   0.1261   0.1380
  0.1431   0.1465   0.1496   0.1532   0.1616   0.1689   0.1719   0.1755
  0.1855   0.1926   0.2027   0.2082   0.2121   0.2173   0.2230   0.2300
  0.2379   0.2523   0.2653   0.2682   0.2695   0.2779   0.2820   0.2880
  0.2934   0.2968   0.3007   0.3094   0.3215   0.3266   0.3294   0.3399
  0.3444   0.3470   0.3560   0.3584   0.3621   0.3647   0.3738   0.3838
  0.3889   0.3912   0.3937   0.4000   0.4060   0.4164   0.4199   0.4371
  0.4407   0.4437   0.4527   0.4655   0.4669   0.4921   0.4959   0.5174
  0.5438   0.5690   0.5724   0.5887   0.5930   0.6007   0.6226   0.6243
  0.6340   0.6432   0.6514   0.6566   0.6728   0.6755   0.6876   0.6979
  0.7133   0.7215   0.7293   0.7373   0.7509   0.7600   0.7753   0.7769
  0.7954   0.8127   0.8140   0.8304   0.8322   0.8604   0.8663   0.8914
  0.8979   0.9096   0.9266   0.9322   0.9611   0.9734   0.9960   1.0174
  1.0294   1.0335   1.0505   1.0640   1.0857   1.0913   1.1109   1.1189
  1.1283   1.1464   1.1584   1.1648   1.1685   1.1745   1.1852   1.1930
  1.1979   1.2012   1.2107   1.2250   1.2302   1.2436   1.2545   1.2719
  1.2779   1.2806   1.2846   1.2932   1.3185   1.3238   1.3522   1.3544
  1.3689   1.3921   1.3999   1.4054   1.4249   1.4365   1.4496   1.4664
  1.4811   1.5006   1.5021   1.5144   1.5304   1.5353   1.5417   1.5602
  1.5657   1.5782   1.5928   1.6109   1.6376   1.6464   1.6651   1.6809
  1.6994   1.7050   1.7259   1.7383   1.7528   1.7784   1.8124   1.8391
  1.8474   1.8586   1.8889   1.9204   1.9235   1.9553   1.9599   1.9857
  1.9865   1.9964   2.0579   2.0790   2.1081   2.1370   2.1780   2.2173
  2.2581   2.2946   2.3106   2.3284   2.3420   2.3771   2.3976   2.4032
  2.4159   2.4263   2.4632   2.4764   2.5151   2.5485   2.6097   2.6656
  2.6795   2.7146   2.7399   2.7679   2.7824   2.7973   2.8192   2.8321
  2.8368   2.8568   2.8655   2.8748   2.9285   2.9423   2.9641   2.9865
  3.0360   3.0583   3.0877   3.0920   3.1122   3.1192   3.1357   3.1450
  3.2115   3.2158   3.2413   3.2664   3.2961   3.3174   3.3348   3.3617
  3.3646   3.3939   3.4046   3.4164   3.4315   3.4429   3.4521   3.4714
  3.4849   3.5114   3.5256   3.5357   3.5746   3.6089   3.6165   3.6446
  3.6566   3.6781   3.6985   3.7034   3.7297   3.7522   3.7628   3.7746
  3.7829   3.8011   3.8080   3.8312   3.8460   3.8686   3.8714   3.8811
  3.8959   3.9128   3.9186   3.9368   3.9608   3.9897   4.0207   4.0409
  4.0500   4.1060   4.1143   4.1381   4.1649   4.1873   4.1973   4.2362
  4.2434   4.2488   4.2562   4.2787   4.2873   4.3021   4.3203   4.3524
  4.3730   4.3849   4.4151   4.4313   4.4730   4.5297   4.5576   4.5618
  4.5909   4.6101   4.6212   4.6464   4.7249   4.7693   4.7823   4.8230
  4.8403   4.9180   4.9723   5.0083   5.0566   5.0688   5.1563   5.1817
  5.2015   5.2134   5.2174   5.2300   5.2570   5.2675   5.2790   5.2844
  5.2857   5.2927   5.3237   5.3330   5.3502   5.3666   5.3960   5.4341
  5.4436   5.4648   5.4751   5.4988   5.5051   5.5159   5.5307   5.5436
  5.5542   5.6017   5.6099   5.6138   5.6221   5.6242   5.6600   5.6807
  5.7055   5.7288   5.7479   5.7670   5.8103   5.8244   5.8823   5.9160
  5.9324   6.0020   6.0621   6.0983   6.1474   6.2309   6.2668   6.2745
  6.5353   6.6236   6.7004   6.7534   6.8308   6.8423   6.9987   7.0208
  7.0240   7.0323   7.0758   7.0839   7.1068   7.1296   7.1617   7.2203
  7.2332   7.2489   7.2720   7.2765   7.2964   7.3288   7.3661   7.3857
  7.4069   7.4300   7.4589   7.4720   7.5379   7.6015   7.6260   7.6491
  7.6598   7.6924   7.7431   7.7891   7.8404   7.8504   7.8909   7.9608
  8.1753  24.6311  24.7561  24.7718  24.8393  25.1305  50.5057  50.5703
 50.5790  50.6226  50.6367  50.7277
 
 Beta MOs
 -- Occupied --
-19.4015 -19.3951 -19.3893 -19.3477 -19.3459 -19.3250 -10.4453 -10.4321
-10.4171 -10.4024 -10.3524  -1.2660  -1.2192  -1.2012  -1.1540  -1.1338
 -1.0505  -0.9073  -0.8490  -0.7982  -0.7361  -0.7042  -0.6797  -0.6418
 -0.6383  -0.6047  -0.5983  -0.5759  -0.5627  -0.5532  -0.5447  -0.5370
 -0.5219  -0.5017  -0.4970  -0.4604  -0.4567  -0.4409  -0.4330  -0.4174
 -0.4070  -0.3872  -0.3766
 -- Virtual --
 -0.0264   0.0258   0.0351   0.0370   0.0457   0.0548   0.0615   0.0679
  0.0741   0.0831   0.0915   0.1084   0.1161   0.1215   0.1256   0.1347
  0.1400   0.1463   0.1491   0.1528   0.1542   0.1618   0.1689   0.1715
  0.1755   0.1856   0.1933   0.2031   0.2081   0.2117   0.2173   0.2230
  0.2314   0.2385   0.2536   0.2658   0.2698   0.2704   0.2788   0.2821
  0.2904   0.2935   0.2977   0.3020   0.3102   0.3218   0.3292   0.3312
  0.3418   0.3448   0.3477   0.3577   0.3589   0.3632   0.3652   0.3750
  0.3845   0.3894   0.3919   0.3947   0.4002   0.4079   0.4181   0.4224
  0.4371   0.4408   0.4436   0.4538   0.4661   0.4675   0.4928   0.5020
  0.5187   0.5487   0.5708   0.5746   0.5897   0.5974   0.6053   0.6253
  0.6261   0.6384   0.6471   0.6554   0.6593   0.6740   0.6773   0.6911
  0.7011   0.7163   0.7238   0.7302   0.7392   0.7547   0.7621   0.7759
  0.7788   0.7976   0.8165   0.8220   0.8335   0.8350   0.8644   0.8705
  0.8947   0.9001   0.9115   0.9279   0.9325   0.9624   0.9744   0.9971
  1.0180   1.0309   1.0354   1.0509   1.0656   1.0873   1.0933   1.1122
  1.1206   1.1296   1.1478   1.1615   1.1668   1.1707   1.1791   1.1907
  1.1952   1.2004   1.2047   1.2121   1.2271   1.2316   1.2461   1.2550
  1.2766   1.2804   1.2823   1.2860   1.2950   1.3197   1.3263   1.3526
  1.3565   1.3701   1.3932   1.4013   1.4066   1.4275   1.4422   1.4536
  1.4678   1.4835   1.5014   1.5034   1.5174   1.5318   1.5391   1.5437
  1.5614   1.5693   1.5793   1.5962   1.6133   1.6410   1.6475   1.6672
  1.6850   1.7013   1.7079   1.7281   1.7391   1.7532   1.7874   1.8191
  1.8400   1.8550   1.8597   1.8898   1.9252   1.9316   1.9615   1.9677
  1.9871   1.9912   1.9985   2.0607   2.0800   2.1101   2.1406   2.1834
  2.2184   2.2613   2.2963   2.3158   2.3290   2.3432   2.3814   2.4004
  2.4035   2.4188   2.4325   2.4640   2.4807   2.5210   2.5505   2.6139
  2.6731   2.6820   2.7244   2.7546   2.7750   2.7964   2.8006   2.8251
  2.8474   2.8577   2.8686   2.8776   2.8951   2.9349   2.9503   2.9725
  2.9893   3.0418   3.0646   3.0910   3.1094   3.1216   3.1335   3.1424
  3.1552   3.2237   3.2325   3.2500   3.2730   3.3029   3.3304   3.3548
  3.3752   3.3861   3.4038   3.4136   3.4253   3.4372   3.4512   3.4601
  3.4763   3.4941   3.5288   3.5332   3.5511   3.5807   3.6120   3.6303
  3.6505   3.6642   3.6865   3.7024   3.7129   3.7366   3.7569   3.7690
  3.7801   3.7865   3.8085   3.8113   3.8379   3.8497   3.8706   3.8821
  3.8859   3.8991   3.9162   3.9313   3.9418   3.9631   3.9906   4.0232
  4.0446   4.0526   4.1095   4.1171   4.1423   4.1687   4.1910   4.1999
  4.2375   4.2504   4.2589   4.2699   4.2799   4.2927   4.3065   4.3275
  4.3556   4.3767   4.3964   4.4225   4.4404   4.4788   4.5319   4.5607
  4.5652   4.5942   4.6137   4.6289   4.6490   4.7281   4.7825   4.7847
  4.8242   4.8458   4.9193   4.9832   5.0121   5.0625   5.0765   5.1820
  5.1928   5.2100   5.2193   5.2323   5.2357   5.2709   5.2791   5.2872
  5.2916   5.2968   5.3020   5.3256   5.3383   5.3507   5.3668   5.3991
  5.4356   5.4468   5.4755   5.4774   5.4991   5.5053   5.5225   5.5348
  5.5524   5.5606   5.6036   5.6143   5.6221   5.6245   5.6356   5.6603
  5.6821   5.7062   5.7409   5.7574   5.7714   5.8107   5.8250   5.8842
  5.9335   5.9454   6.0021   6.0622   6.0984   6.1474   6.2317   6.2806
  6.2909   6.5354   6.6238   6.7105   6.7535   6.8324   6.8497   7.0118
  7.0319   7.0370   7.0471   7.0799   7.0979   7.1140   7.1379   7.1627
  7.2329   7.2416   7.2497   7.2752   7.2797   7.3001   7.3294   7.3798
  7.3880   7.4113   7.4354   7.4733   7.4756   7.5380   7.6020   7.6355
  7.6497   7.6672   7.6927   7.7514   7.7892   7.8476   7.8547   7.8910
  7.9609   8.1753  24.6315  24.7600  24.7723  24.8396  25.1347  50.5057
 50.5724  50.5811  50.6226  50.6367  50.7324
 --------------------------------------------------------------
 
          Ground-State Mulliken Net Atomic Charges

     Atom                 Charge (a.u.)    Spin (a.u.)
  --------------------------------------------------------
      1 C                    -0.226100       0.553508
      2 O                    -0.267442       0.139485
      3 C                     0.644436       0.061854
      4 O                    -0.544374       0.229721
      5 C                    -0.730710       0.010241
      6 C                     0.035763      -0.001758
      7 O                    -0.100903       0.000262
      8 O                    -0.331604       0.000907
      9 C                    -0.318054       0.001827
     10 O                    -0.422966       0.000303
     11 O                    -0.455043      -0.000025
     12 H                     0.260271      -0.007432
     13 H                     0.359980      -0.003996
     14 H                     0.220465       0.010695
     15 H                     0.236309       0.005284
     16 H                     0.305196      -0.000938
     17 H                     0.356434       0.000029
     18 H                     0.293420      -0.000048
     19 H                     0.340753       0.000119
     20 H                     0.344168      -0.000038
  --------------------------------------------------------
  Sum of atomic charges =     0.000000
  Sum of spin   charges =     1.000000

 -----------------------------------------------------------------
                    Cartesian Multipole Moments
 -----------------------------------------------------------------
    Charge (ESU x 10^10)
                 0.0000
    Dipole Moment (Debye)
         X      -2.9412      Y       2.1691      Z       2.2463
       Tot       4.2897
    Quadrupole Moments (Debye-Ang)
        XX     -90.1711     XY       0.3592     YY     -53.0453
        XZ      17.5772     YZ       5.0527     ZZ     -73.6641
    Octopole Moments (Debye-Ang^2)
       XXX    -952.2397    XXY     -84.3962    XYY    -214.7522
       YYY    -118.4357    XXZ     154.5199    XYZ      41.3825
       YYZ      32.0341    XZZ    -309.2228    YZZ     -60.6615
       ZZZ      88.7462
    Hexadecapole Moments (Debye-Ang^3)
      XXXX   -9033.2299   XXXY   -1355.0243   XXYY   -1300.1406
      XYYY    -740.1947   YYYY    -780.6109   XXXZ    1222.5849
      XXYZ     271.2084   XYYZ     179.3037   YYYZ      33.1172
      XXZZ   -1658.8876   XYZZ    -369.7154   YYZZ    -220.7310
      XZZZ     382.8832   YZZZ     -21.2418   ZZZZ    -413.9647
 -----------------------------------------------------------------
 Calculating analytic gradient of the SCF energy
 Gradient of CDS energy
            1           2           3           4           5           6
    1  -0.0030768   0.0019687   0.0012309  -0.0007809   0.0000344   0.0000071
    2  -0.0036430   0.0036555  -0.0018620   0.0015388   0.0001848   0.0000616
    3  -0.0005572   0.0002955   0.0004011  -0.0000868   0.0000625  -0.0000747
            7           8           9          10          11          12
    1   0.0000848  -0.0001040   0.0017541   0.0001558  -0.0020686   0.0001188
    2  -0.0000030   0.0003166   0.0005092  -0.0006555   0.0001188   0.0001705
    3   0.0000571  -0.0000246   0.0009127  -0.0016476   0.0004768  -0.0000076
           13          14          15          16          17          18
    1  -0.0000660   0.0000577  -0.0000024   0.0000473   0.0001962  -0.0000910
    2  -0.0003377   0.0000663   0.0001084  -0.0000429  -0.0004137  -0.0000104
    3   0.0000027   0.0001726  -0.0001450   0.0000236  -0.0001737  -0.0002241
           19          20
    1   0.0000685   0.0004654
    2   0.0003441  -0.0001065
    3   0.0003803   0.0001563
 Gradient of SCF Energy
            1           2           3           4           5           6
    1   0.0060617  -0.0153779  -0.0036951   0.0070108   0.0145427  -0.0075938
    2  -0.0115625   0.0044259   0.0102027  -0.0095014  -0.0179084   0.0068736
    3   0.0033424  -0.0043104  -0.0017301   0.0026888   0.0000285  -0.0041669
            7           8           9          10          11          12
    1  -0.0044841   0.0134898   0.0088930  -0.0105670   0.0006647  -0.0093551
    2   0.0013669   0.0118974  -0.0070285  -0.0196166   0.0107160   0.0145148
    3  -0.0041763  -0.0048705   0.0087286   0.0040194  -0.0172471  -0.0030217
           13          14          15          16          17          18
    1   0.0086072  -0.0030285  -0.0058660   0.0031674  -0.0066668  -0.0050805
    2  -0.0083393   0.0047099   0.0102327  -0.0039271  -0.0128945   0.0076597
    3   0.0028229   0.0094469  -0.0077621   0.0045086   0.0044025  -0.0041913
           19          20
    1   0.0077895   0.0014878
    2   0.0186362  -0.0104575
    3  -0.0001751   0.0116630
 Max gradient component =       1.962E-02
 RMS gradient           =       8.857E-03
 Computing fast CPCM-SWIG gradient
 Updating gradient with PCM contributions...
 -- total gradient after adding PCM contribution --
---------------------------------------------------
  Atom         X              Y              Z     
---------------------------------------------------
   1       0.002393       0.000929       0.000569
   2      -0.008829       0.000020      -0.002223
   3      -0.001686       0.003729      -0.000954
   4       0.003366      -0.006824       0.000560
   5      -0.000063      -0.001133       0.000353
   6       0.000600       0.001339      -0.000205
   7      -0.004148       0.000895      -0.001969
   8       0.008225       0.004500      -0.000957
   9       0.004267      -0.000640       0.003447
  10      -0.005387      -0.007749       0.001836
  11      -0.000607       0.005979      -0.007033
  12      -0.002442       0.001968      -0.000698
  13       0.006019      -0.002773       0.001629
  14       0.000018       0.001734       0.003023
  15      -0.000937       0.002399      -0.001960
  16       0.000565      -0.002111       0.001721
  17      -0.004729      -0.004859       0.001841
  18      -0.000516       0.001738      -0.002653
  19       0.003485       0.006017      -0.000820
  20       0.000404      -0.005156       0.004493
---------------------------------------------------
 Number of fixed atoms: 0
 Gradient time:  CPU 257.47 s  wall 22.51 s
 Geometry Optimization Parameters
   NAtoms,    NIC,     NZ,  NCons,   NDum,   NFix, NCnnct, MaxDiis
       20     128       0       0       0       0       0       0


** GEOMETRY OPTIMIZATION IN DELOCALIZED INTERNAL COORDINATES **
   Searching for a Minimum

   Optimization Cycle:   1

                       Coordinates (Angstroms)
     ATOM                X               Y               Z
      1  C         1.1392040410    0.0863102959   -0.5444363061
      2  O         0.5037176547   -1.0815890747   -0.6404718865
      3  C         2.5169306931    0.0724798137   -0.1954752361
      4  O         3.0684346984   -1.0408063552   -0.0110875072
      5  C         3.2611877547    1.3795327597   -0.0456311985
      6  C         4.7480415327    1.1833283156   -0.2867798340
      7  O         4.8695938427    0.7332563322   -1.6431168293
      8  O         5.9807102337   -0.1692274124   -1.7321523045
      9  C         5.5625943398    2.4580116945   -0.0927485144
     10  O         5.4417157615    2.8000686992    1.2695797617
     11  O         6.9074091539    2.2854603510   -0.4750185209
     12  H         0.5420471117    0.9677413637   -0.7419297622
     13  H         1.1831659060   -1.7651092840   -0.4350743954
     14  H         3.1104368863    1.7646540069    0.9697372295
     15  H         2.8524232897    2.1265948770   -0.7358015598
     16  H         5.1371076777    0.4024638126    0.3749969678
     17  H         5.5382666015   -1.0185623407   -1.5387874960
     18  H         5.1823563072    3.2569810338   -0.7394408342
     19  H         5.8577416713    3.6709264785    1.3820418991
     20  H         7.2491508427    1.5211411325    0.0212624271
   Point Group: c1    Number of degrees of freedom:    54


   Energy is   -647.208131714


 Attempting to generate delocalized internal coordinates
 Initial Hessian constructed with Jon Baker's OPTIMIZE code

 54 Hessian modes will be used to form the next step
  Hessian Eigenvalues:
     0.004580    0.005857    0.006664    0.007652    0.011119    0.012179
     0.014348    0.014495    0.019589    0.021005    0.024500    0.043613
     0.044525    0.051216    0.056304    0.058118    0.062246    0.076025
     0.091808    0.092993    0.126923    0.160000    0.160000    0.160000
     0.160000    0.160000    0.167381    0.184923    0.194604    0.207321
     0.219141    0.220000    0.249989    0.250000    0.250000    0.298796
     0.304624    0.311960    0.340873    0.341125    0.341321    0.342388
     0.356546    0.403888    0.403891    0.422651    0.440333    0.442089
     0.503478    0.519732    0.527132    0.530397    0.587882    0.810551

 Minimum search - taking simple RFO step
 Searching for Lamda that Minimizes Along All modes
 Value Taken    Lamda =  -0.00148717
 Step Taken.  Stepsize is  0.154755

                             Maximum     Tolerance    Cnvgd?
         Gradient           0.008167      0.000300      NO
         Displacement       0.062114      0.001200      NO
         Energy change     *********      0.000001      NO


 New Cartesian Coordinates Obtained by Inverse Iteration

 Displacement from previous Coordinates is:  0.391362
 ----------------------------------------------------------------
             Standard Nuclear Orientation (Angstroms)
    I     Atom           X                Y                Z
 ----------------------------------------------------------------
    1      C       1.1557941678     0.0939227449    -0.5510396899
    2      O       0.4940325835    -1.0574001544    -0.6181846467
    3      C       2.5243123871     0.0672594314    -0.1821315533
    4      O       3.0529242207    -1.0414422604     0.0555246664
    5      C       3.2753423755     1.3667300642    -0.0573748559
    6      C       4.7605445591     1.1740278782    -0.2876991794
    7      O       4.8913854427     0.7297593822    -1.6439792415
    8      O       5.9821321556    -0.1899679069    -1.7468577202
    9      C       5.5522157555     2.4594837929    -0.0833759571
   10      O       5.4250848174     2.7981759530     1.2783283047
   11      O       6.9040667083     2.3143653112    -0.4501763156
   12      H       0.5885672437     0.9806684338    -0.7847755825
   13      H       1.1296309751    -1.7639582336    -0.3844598876
   14      H       3.1162704766     1.7642833643     0.9461934478
   15      H       2.8701756180     2.0985189399    -0.7580721258
   16      H       5.1523091746     0.4002681972     0.3738517486
   17      H       5.5319155598    -1.0448707778    -1.6593632731
   18      H       5.1612486008     3.2552291663    -0.7196983795
   19      H       5.8134471839     3.6719451731     1.4076981495
   20      H       7.2708359945     1.5566580004     0.0252581909
 ----------------------------------------------------------------
 Nuclear Repulsion Energy =         665.46116085 hartrees
 There are       44 alpha and       43 beta electrons
 Discretize the solute cavity surface with Lebedev spheres
	Using 110 Lebedev grid points for each H atom
	Using 194 Lebedev grid points for other atoms
	Atomic van der Waals radii will be scaled by 1.20
 Remove points where switching function is < 1.0e-08
 Keep 1581 surface tesserae and discard 1543 interior tesserae
 Molecular Surface Area = 179.944 Angst**2
 Applying Cartesian multipole field
    Component          Value
    ---------          -----
     (2,0,0)        1.00000E-12
     (0,2,0)        2.00000E-11
     (0,0,2)       -3.00000E-11
 Nucleus-field energy     =     0.0000000144 hartrees
 Requested basis set is 6-311++G(2df,2p)
 There are 142 shells and 464 basis functions
 A cutoff of  1.0D-12 yielded   8541 shell pairs
 There are     89545 function pairs (    110876 Cartesian)
 Smallest overlap matrix eigenvalue = 4.68E-06
 Guess MOs from SCF MO coefficient file

 -----------------------------------------------------------------------
  General SCF calculation program by
  Eric Jon Sundstrom, Paul Horn, Yuezhi Mao, Dmitri Zuev, Alec White,
  David Stuck, Shaama M.S., Shane Yost, Joonho Lee, David Small,
  Daniel Levine, Susi Lehtola, Hugh Burton, Evgeny Epifanovsky,
  Bang C. Huynh
 -----------------------------------------------------------------------
 Exchange:     0.1500 Hartree-Fock + 1.0000 wB97M-V + LR-HF
 Correlation:  1.0000 wB97M-V
 Using SG-2 standard quadrature grid
 Nonlocal Correlation:  VV10 with C = 0.0100 and b = 6.00 and scale = 1.00000
 Grid used for NLC:  SG-1 standard quadrature
 
 Citation of the SMD model:
 Marenich, A.V.; Cramer, C.J.; Truhlar, D.G.
 J. Phys. Chem. B 2009, 113, 6378-6396.
 iSolventCode=           1
 Solvent: water                                                           
 
 vradii
            1           2           3           4           5           6
    1   1.8500000   1.5200000   1.8500000   1.5200000   1.8500000   1.8500000
            7           8           9          10          11          12
    1   1.5200000   1.5200000   1.8500000   1.5200000   1.5200000   1.2000000
           13          14          15          16          17          18
    1   1.2000000   1.2000000   1.2000000   1.2000000   1.2000000   1.2000000
           19          20
    1   1.2000000   1.2000000
 -------------------------------------------------------
 OpenMP BLAS3 based DFT computing Module                
 Release: version 1.0, May 2013, Q-Chem Inc. Pittsburgh 
 -------------------------------------------------------
 A unrestricted SCF calculation will be
 performed using Roothaan-Hall, DIIS, GDM
 SCF converges when RMS gradient is below 1.0e-07
 ---------------------------------------
  Cycle       Energy         DIIS error
 ---------------------------------------
    1    -647.1635305369      2.73e-04  Roothaan Step
 ---------------------------------------
  Cycle       Energy         DIIS error
 ---------------------------------------
    1    -647.2088157714      2.31e-04  
    2    -647.2134503640      2.26e-04  Done DIIS. Switching to GDM
 ---------------------------------------
  Cycle       Energy        RMS Gradient
 ---------------------------------------
    1    -647.2134503640      1.67e-02   Normal BFGS step
    2    -647.2121500210      2.45e-02  Line search: overstep
    3    -647.2170421672      3.08e-03   Normal BFGS step
    4    -647.2172353684      1.02e-03   Normal BFGS step
    5    -647.2172721910      8.15e-04   Normal BFGS step
    6    -647.2172810754      1.73e-04   Normal BFGS step
    7    -647.2172819287      2.29e-04   Normal BFGS step
    8    -647.2172823038      8.19e-05   Normal BFGS step
    9    -647.2172823707      3.19e-05   Normal BFGS step
   10    -647.2172823853      1.61e-05   Normal BFGS step
   11    -647.2172823887      7.66e-06   Normal BFGS step
   12    -647.2172823893      6.64e-06   Normal BFGS step
   13    -647.2172823896      2.34e-06   Normal BFGS step
   14    -647.2172823897      1.40e-06   Normal BFGS step
   15    -647.2172823897      4.84e-07   Normal BFGS step
   16    -647.2172823897      2.79e-07   Normal BFGS step
   17    -647.2172823897      1.37e-07   Normal BFGS step
   18    -647.2172823897      6.56e-08  Convergence criterion met
 ---------------------------------------
 SCF time:   CPU 1918.13s  wall 130.00s 
<S^2> =          0.756703910
(3)  G-ENP(liq) elect-nuc-pol free energy of system     -647.217282390 a.u.
(4)  G-CDS(liq) cavity-dispersion-solvent structure 
     free energy                                                5.2948 kcal/mol
(6)  G-S(liq) free energy of system                     -647.208844547 a.u.
 SCF   energy in the final basis set =     -647.2088445471
 Total energy in the final basis set =     -647.2088445471
 
 --------------------------------------------------------------
 
                    Orbital Energies (a.u.)
 --------------------------------------------------------------
 
 Alpha MOs
 -- Occupied --
-19.4016 -19.3948 -19.3940 -19.3462 -19.3448 -19.3301 -10.4450 -10.4306
-10.4234 -10.4020 -10.3498  -1.2671  -1.2312  -1.2019  -1.1665  -1.1341
 -1.0526  -0.9137  -0.8628  -0.8064  -0.7410  -0.7112  -0.6820  -0.6463
 -0.6401  -0.6151  -0.6009  -0.5788  -0.5756  -0.5653  -0.5486  -0.5385
 -0.5270  -0.5221  -0.5030  -0.4756  -0.4623  -0.4511  -0.4337  -0.4170
 -0.4061  -0.3901  -0.3813  -0.3056
 -- Virtual --
  0.0259   0.0351   0.0373   0.0457   0.0550   0.0615   0.0671   0.0734
  0.0836   0.0922   0.1034   0.1088   0.1212   0.1231   0.1267   0.1375
  0.1440   0.1463   0.1500   0.1535   0.1619   0.1691   0.1723   0.1759
  0.1861   0.1925   0.2033   0.2068   0.2125   0.2198   0.2228   0.2301
  0.2383   0.2524   0.2666   0.2688   0.2696   0.2783   0.2815   0.2901
  0.2937   0.2968   0.3026   0.3107   0.3221   0.3287   0.3293   0.3407
  0.3460   0.3479   0.3568   0.3598   0.3619   0.3661   0.3752   0.3825
  0.3901   0.3905   0.3964   0.4009   0.4048   0.4177   0.4206   0.4390
  0.4398   0.4439   0.4508   0.4654   0.4668   0.4901   0.4972   0.5195
  0.5450   0.5711   0.5735   0.5884   0.5949   0.6048   0.6244   0.6270
  0.6319   0.6439   0.6533   0.6583   0.6747   0.6769   0.6892   0.7000
  0.7157   0.7253   0.7281   0.7394   0.7550   0.7633   0.7763   0.7768
  0.7974   0.8107   0.8156   0.8320   0.8368   0.8615   0.8685   0.8920
  0.8993   0.9079   0.9228   0.9287   0.9649   0.9721   0.9891   1.0199
  1.0289   1.0377   1.0535   1.0666   1.0849   1.0928   1.1100   1.1178
  1.1271   1.1474   1.1589   1.1662   1.1684   1.1730   1.1858   1.1911
  1.1949   1.2020   1.2099   1.2246   1.2309   1.2452   1.2551   1.2717
  1.2784   1.2829   1.2849   1.2963   1.3164   1.3283   1.3529   1.3540
  1.3679   1.3910   1.3978   1.4060   1.4262   1.4391   1.4519   1.4698
  1.4807   1.5029   1.5060   1.5165   1.5335   1.5393   1.5434   1.5613
  1.5682   1.5831   1.5929   1.6129   1.6374   1.6477   1.6668   1.6787
  1.7061   1.7152   1.7236   1.7375   1.7543   1.7782   1.8166   1.8399
  1.8450   1.8605   1.8885   1.9196   1.9275   1.9497   1.9600   1.9782
  1.9898   2.0018   2.0574   2.0786   2.1151   2.1413   2.1826   2.2126
  2.2551   2.2952   2.3119   2.3322   2.3415   2.3749   2.3986   2.4011
  2.4098   2.4288   2.4621   2.4761   2.5164   2.5467   2.6104   2.6623
  2.6778   2.7185   2.7419   2.7605   2.7837   2.7961   2.8190   2.8280
  2.8378   2.8516   2.8679   2.8715   2.9309   2.9417   2.9663   2.9866
  3.0360   3.0595   3.0874   3.0930   3.1171   3.1221   3.1328   3.1430
  3.2135   3.2224   3.2436   3.2693   3.2988   3.3218   3.3391   3.3638
  3.3666   3.3987   3.4048   3.4179   3.4341   3.4443   3.4514   3.4724
  3.4874   3.5177   3.5250   3.5326   3.5797   3.6086   3.6144   3.6452
  3.6595   3.6778   3.7011   3.7077   3.7346   3.7529   3.7674   3.7769
  3.7867   3.8035   3.8089   3.8312   3.8543   3.8702   3.8731   3.8847
  3.9058   3.9168   3.9261   3.9362   3.9564   3.9927   4.0225   4.0472
  4.0627   4.1137   4.1198   4.1394   4.1707   4.1991   4.2091   4.2484
  4.2537   4.2579   4.2610   4.2803   4.2993   4.3109   4.3387   4.3648
  4.3871   4.3969   4.4253   4.4434   4.4832   4.5344   4.5595   4.5741
  4.5938   4.6187   4.6290   4.6523   4.7347   4.7740   4.7904   4.8263
  4.8451   4.9244   4.9831   5.0120   5.0558   5.0720   5.1573   5.1835
  5.2019   5.2143   5.2168   5.2351   5.2594   5.2663   5.2778   5.2835
  5.2877   5.2940   5.3220   5.3325   5.3524   5.3663   5.4014   5.4169
  5.4458   5.4725   5.4819   5.5008   5.5102   5.5225   5.5354   5.5560
  5.5605   5.6138   5.6205   5.6252   5.6322   5.6409   5.6700   5.6899
  5.7029   5.7421   5.7547   5.7761   5.8174   5.8339   5.8920   5.9249
  5.9410   6.0238   6.0831   6.1079   6.1418   6.2500   6.2913   6.3015
  6.5397   6.6291   6.7166   6.7597   6.8466   6.8702   6.9964   7.0212
  7.0253   7.0362   7.0731   7.0837   7.1118   7.1494   7.1617   7.2227
  7.2532   7.2680   7.2885   7.3023   7.3184   7.3336   7.3635   7.3874
  7.4028   7.4273   7.4520   7.4787   7.5423   7.6158   7.6385   7.6573
  7.6625   7.7007   7.7438   7.7946   7.8401   7.8554   7.8924   7.9651
  8.1680  24.6434  24.7727  24.7893  24.8533  25.1576  50.5050  50.5741
 50.5799  50.6272  50.6366  50.7349
 
 Beta MOs
 -- Occupied --
-19.4016 -19.3948 -19.3890 -19.3462 -19.3448 -19.3237 -10.4450 -10.4299
-10.4154 -10.4020 -10.3499  -1.2671  -1.2205  -1.2019  -1.1557  -1.1341
 -1.0525  -0.9092  -0.8510  -0.8000  -0.7381  -0.7055  -0.6817  -0.6453
 -0.6390  -0.6064  -0.5977  -0.5777  -0.5664  -0.5525  -0.5445  -0.5356
 -0.5226  -0.5025  -0.4967  -0.4615  -0.4561  -0.4414  -0.4331  -0.4168
 -0.4055  -0.3878  -0.3758
 -- Virtual --
 -0.0256   0.0257   0.0351   0.0372   0.0457   0.0549   0.0615   0.0673
  0.0741   0.0835   0.0918   0.1088   0.1170   0.1217   0.1261   0.1350
  0.1402   0.1460   0.1494   0.1531   0.1554   0.1621   0.1694   0.1719
  0.1761   0.1862   0.1931   0.2037   0.2066   0.2122   0.2197   0.2227
  0.2315   0.2389   0.2535   0.2672   0.2698   0.2707   0.2791   0.2816
  0.2922   0.2941   0.2976   0.3040   0.3117   0.3225   0.3294   0.3324
  0.3426   0.3465   0.3488   0.3586   0.3604   0.3629   0.3666   0.3766
  0.3834   0.3905   0.3915   0.3972   0.4010   0.4064   0.4198   0.4229
  0.4389   0.4399   0.4439   0.4519   0.4657   0.4678   0.4907   0.5035
  0.5206   0.5503   0.5727   0.5761   0.5894   0.6003   0.6081   0.6259
  0.6298   0.6361   0.6487   0.6566   0.6609   0.6768   0.6782   0.6920
  0.7034   0.7183   0.7277   0.7300   0.7410   0.7590   0.7651   0.7769
  0.7788   0.7998   0.8153   0.8224   0.8338   0.8409   0.8655   0.8727
  0.8940   0.9038   0.9086   0.9249   0.9289   0.9656   0.9733   0.9903
  1.0207   1.0316   1.0384   1.0541   1.0681   1.0865   1.0948   1.1113
  1.1196   1.1286   1.1491   1.1620   1.1689   1.1702   1.1765   1.1907
  1.1940   1.1974   1.2048   1.2117   1.2269   1.2324   1.2472   1.2560
  1.2761   1.2817   1.2841   1.2870   1.2979   1.3175   1.3309   1.3538
  1.3554   1.3692   1.3927   1.3989   1.4071   1.4288   1.4444   1.4561
  1.4708   1.4827   1.5042   1.5066   1.5187   1.5342   1.5443   1.5463
  1.5644   1.5706   1.5840   1.5962   1.6151   1.6406   1.6487   1.6688
  1.6836   1.7080   1.7171   1.7262   1.7387   1.7547   1.7866   1.8224
  1.8420   1.8521   1.8620   1.8893   1.9220   1.9386   1.9546   1.9687
  1.9807   1.9938   2.0043   2.0598   2.0797   2.1169   2.1454   2.1871
  2.2139   2.2586   2.2969   2.3176   2.3325   2.3430   2.3792   2.3995
  2.4031   2.4118   2.4355   2.4635   2.4802   2.5226   2.5486   2.6146
  2.6685   2.6814   2.7286   2.7565   2.7664   2.7972   2.8008   2.8239
  2.8446   2.8533   2.8702   2.8761   2.8952   2.9380   2.9480   2.9748
  2.9899   3.0418   3.0647   3.0925   3.1119   3.1257   3.1304   3.1430
  3.1534   3.2254   3.2388   3.2534   3.2766   3.3055   3.3343   3.3589
  3.3751   3.3895   3.4096   3.4141   3.4256   3.4401   3.4526   3.4592
  3.4780   3.4968   3.5306   3.5359   3.5496   3.5850   3.6115   3.6282
  3.6507   3.6663   3.6857   3.7056   3.7175   3.7415   3.7577   3.7729
  3.7820   3.7908   3.8056   3.8168   3.8382   3.8586   3.8715   3.8855
  3.8883   3.9086   3.9201   3.9337   3.9469   3.9588   3.9935   4.0257
  4.0510   4.0656   4.1168   4.1231   4.1434   4.1734   4.2032   4.2128
  4.2503   4.2589   4.2628   4.2800   4.2820   4.3047   4.3165   4.3455
  4.3685   4.3926   4.4054   4.4374   4.4487   4.4887   4.5365   4.5639
  4.5763   4.5969   4.6260   4.6327   4.6552   4.7373   4.7877   4.7923
  4.8274   4.8507   4.9257   4.9915   5.0178   5.0623   5.0790   5.1831
  5.1927   5.2119   5.2195   5.2318   5.2396   5.2723   5.2812   5.2854
  5.2928   5.2949   5.3058   5.3235   5.3385   5.3530   5.3664   5.4038
  5.4189   5.4483   5.4822   5.4863   5.5011   5.5108   5.5299   5.5382
  5.5623   5.5691   5.6174   5.6215   5.6326   5.6369   5.6522   5.6704
  5.6917   5.7036   5.7518   5.7687   5.7785   5.8181   5.8347   5.8944
  5.9426   5.9540   6.0238   6.0831   6.1080   6.1419   6.2507   6.3073
  6.3157   6.5399   6.6294   6.7269   6.7598   6.8473   6.8786   7.0119
  7.0350   7.0361   7.0485   7.0790   7.0988   7.1164   7.1565   7.1636
  7.2438   7.2534   7.2688   7.2899   7.3071   7.3204   7.3362   7.3711
  7.3925   7.4106   7.4322   7.4674   7.4804   7.5424   7.6162   7.6476
  7.6593   7.6696   7.7009   7.7520   7.7947   7.8500   7.8571   7.8925
  7.9652   8.1680  24.6438  24.7769  24.7894  24.8537  25.1619  50.5050
 50.5748  50.5834  50.6272  50.6366  50.7395
 --------------------------------------------------------------
 
          Ground-State Mulliken Net Atomic Charges

     Atom                 Charge (a.u.)    Spin (a.u.)
  --------------------------------------------------------
      1 C                    -0.225533       0.554832
      2 O                    -0.267062       0.139382
      3 C                     0.638733       0.060627
      4 O                    -0.548153       0.229063
      5 C                    -0.712009       0.010342
      6 C                     0.036433      -0.001943
      7 O                    -0.101836       0.000366
      8 O                    -0.329009       0.000757
      9 C                    -0.333491       0.002477
     10 O                    -0.421865       0.000281
     11 O                    -0.460683      -0.000015
     12 H                     0.261089      -0.007480
     13 H                     0.359032      -0.003850
     14 H                     0.220849       0.010930
     15 H                     0.237537       0.005222
     16 H                     0.308788      -0.001072
     17 H                     0.356264       0.000032
     18 H                     0.296442      -0.000007
     19 H                     0.339645       0.000113
     20 H                     0.344828      -0.000058
  --------------------------------------------------------
  Sum of atomic charges =    -0.000000
  Sum of spin   charges =     1.000000

 -----------------------------------------------------------------
                    Cartesian Multipole Moments
 -----------------------------------------------------------------
    Charge (ESU x 10^10)
                -0.0000
    Dipole Moment (Debye)
         X      -3.0003      Y       2.0405      Z       1.8529
       Tot       4.0741
    Quadrupole Moments (Debye-Ang)
        XX     -90.6709     XY       0.0038     YY     -52.8930
        XZ      15.8006     YZ       5.6004     ZZ     -72.8313
    Octopole Moments (Debye-Ang^2)
       XXX    -954.8855    XXY     -87.7277    XYY    -216.3977
       YYY    -119.5663    XXZ     145.3204    XYZ      44.1322
       YYZ      31.5332    XZZ    -305.2388    YZZ     -61.3413
       ZZZ      85.2857
    Hexadecapole Moments (Debye-Ang^3)
      XXXX   -9038.0545   XXXY   -1377.6957   XXYY   -1316.6396
      XYYY    -748.8318   YYYY    -781.3844   XXXZ    1173.4100
      XXYZ     283.8465   XYYZ     177.5392   YYYZ      37.0926
      XXZZ   -1638.3304   XYZZ    -373.6727   YYZZ    -218.2596
      XZZZ     370.0888   YZZZ     -18.0531   ZZZZ    -412.4529
 -----------------------------------------------------------------
 Calculating analytic gradient of the SCF energy
 Gradient of CDS energy
            1           2           3           4           5           6
    1  -0.0030649   0.0019605   0.0011868  -0.0007435   0.0000350   0.0000042
    2  -0.0034317   0.0034580  -0.0018386   0.0015123   0.0001824   0.0000613
    3  -0.0004774   0.0001945   0.0004902  -0.0001407   0.0000547  -0.0000742
            7           8           9          10          11          12
    1   0.0000874  -0.0001016   0.0018840   0.0001711  -0.0021924   0.0001363
    2   0.0000025   0.0003196   0.0005212  -0.0006662   0.0000908   0.0001656
    3   0.0000610  -0.0000078   0.0010530  -0.0018460   0.0004949  -0.0000072
           13          14          15          16          17          18
    1  -0.0000753   0.0000566  -0.0000012   0.0000528   0.0001849  -0.0001105
    2  -0.0003377   0.0000652   0.0001015  -0.0000494  -0.0004181   0.0000162
    3   0.0000121   0.0001653  -0.0001419   0.0000248  -0.0002079  -0.0001800
           19          20
    1   0.0000565   0.0004734
    2   0.0003450  -0.0000999
    3   0.0003826   0.0001499
 Gradient of SCF Energy
            1           2           3           4           5           6
    1   0.0050378  -0.0082655  -0.0031481   0.0039541   0.0142835  -0.0072115
    2  -0.0105457   0.0045085   0.0083527  -0.0043363  -0.0168040   0.0055074
    3   0.0038906  -0.0028124  -0.0028241   0.0029242   0.0009951  -0.0037801
            7           8           9          10          11          12
    1  -0.0019990   0.0070407   0.0040769  -0.0048434   0.0010099  -0.0064956
    2   0.0022265   0.0062061  -0.0065682  -0.0122531   0.0054955   0.0124174
    3  -0.0022505  -0.0031467   0.0055339   0.0015246  -0.0097891  -0.0027207
           13          14          15          16          17          18
    1   0.0039557  -0.0030983  -0.0050169   0.0019633  -0.0024497  -0.0050158
    2  -0.0075247   0.0030241   0.0075927  -0.0011369  -0.0097467   0.0060877
    3   0.0018668   0.0057881  -0.0059410   0.0026398   0.0009973  -0.0013711
           19          20
    1   0.0043957   0.0018262
    2   0.0131975  -0.0057005
    3   0.0011610   0.0073144
 Max gradient component =       1.680E-02
 RMS gradient           =       6.299E-03
 Computing fast CPCM-SWIG gradient
 Updating gradient with PCM contributions...
 -- total gradient after adding PCM contribution --
---------------------------------------------------
  Atom         X              Y              Z     
---------------------------------------------------
   1       0.001237       0.001929       0.000597
   2      -0.001868      -0.000572      -0.000473
   3      -0.000521       0.001662      -0.001470
   4      -0.000328      -0.001450       0.000302
   5      -0.000092      -0.000123       0.000573
   6       0.000425       0.000928       0.000034
   7      -0.001585       0.001439      -0.000152
   8       0.001146      -0.001503      -0.000345
   9      -0.000581      -0.000322      -0.000057
  10      -0.000152      -0.000265      -0.000404
  11      -0.000011       0.000705       0.000140
  12      -0.000028      -0.000170       0.000079
  13       0.001596      -0.001278       0.000527
  14       0.000032       0.000081      -0.000165
  15      -0.000087      -0.000104      -0.000012
  16      -0.000320      -0.000103       0.000393
  17       0.000324      -0.001189      -0.000443
  18      -0.000316       0.000201       0.000116
  19       0.000541       0.000542       0.000294
  20       0.000589      -0.000408       0.000467
---------------------------------------------------
 Number of fixed atoms: 0
 Gradient time:  CPU 255.16 s  wall 22.22 s
 Geometry Optimization Parameters
   NAtoms,    NIC,     NZ,  NCons,   NDum,   NFix, NCnnct, MaxDiis
       20     128       0       0       0       0       0       0

 Cartesian Hessian Update
 Hessian updated using BFGS update


** GEOMETRY OPTIMIZATION IN DELOCALIZED INTERNAL COORDINATES **
   Searching for a Minimum

   Optimization Cycle:   2

                       Coordinates (Angstroms)
     ATOM                X               Y               Z
      1  C         1.1557941678    0.0939227449   -0.5510396899
      2  O         0.4940325835   -1.0574001544   -0.6181846467
      3  C         2.5243123871    0.0672594314   -0.1821315533
      4  O         3.0529242207   -1.0414422604    0.0555246664
      5  C         3.2753423755    1.3667300642   -0.0573748559
      6  C         4.7605445591    1.1740278782   -0.2876991794
      7  O         4.8913854427    0.7297593822   -1.6439792415
      8  O         5.9821321556   -0.1899679069   -1.7468577202
      9  C         5.5522157555    2.4594837929   -0.0833759571
     10  O         5.4250848174    2.7981759530    1.2783283047
     11  O         6.9040667083    2.3143653112   -0.4501763156
     12  H         0.5885672437    0.9806684338   -0.7847755825
     13  H         1.1296309751   -1.7639582336   -0.3844598876
     14  H         3.1162704766    1.7642833643    0.9461934478
     15  H         2.8701756180    2.0985189399   -0.7580721258
     16  H         5.1523091746    0.4002681972    0.3738517486
     17  H         5.5319155598   -1.0448707778   -1.6593632731
     18  H         5.1612486008    3.2552291663   -0.7196983795
     19  H         5.8134471839    3.6719451731    1.4076981495
     20  H         7.2708359945    1.5566580004    0.0252581909
   Point Group: c1    Number of degrees of freedom:    54


   Energy is   -647.208844547

 Hessian updated using BFGS update

 51 Hessian modes will be used to form the next step
  Hessian Eigenvalues:
     0.005057    0.005845    0.006689    0.007507    0.011538    0.012584
     0.014216    0.014447    0.019579    0.021005    0.024500    0.043584
     0.044534    0.051374    0.056282    0.058580    0.062231    0.075464
     0.091741    0.093200    0.126246    0.149327    0.164446    0.171038
     0.189785    0.193981    0.206221    0.212326    0.221271    0.245305
     0.249992    0.266904    0.297876    0.304680    0.312692    0.336972
     0.341022    0.341465    0.342177    0.356062    0.396310    0.403990
     0.430149    0.440578    0.441937    0.479752    0.517233    0.524939
     0.529353    0.584849    0.800634

 Minimum search - taking simple RFO step
 Searching for Lamda that Minimizes Along All modes
 Value Taken    Lamda =  -0.00034867
 Step Taken.  Stepsize is  0.160947

                             Maximum     Tolerance    Cnvgd?
         Gradient           0.002726      0.000300      NO
         Displacement       0.058648      0.001200      NO
         Energy change     -0.000713      0.000001      NO


 New Cartesian Coordinates Obtained by Inverse Iteration

 Displacement from previous Coordinates is:  0.334467
 ----------------------------------------------------------------
             Standard Nuclear Orientation (Angstroms)
    I     Atom           X                Y                Z
 ----------------------------------------------------------------
    1      C       1.1578011277     0.0965138707    -0.5604966439
    2      O       0.4773347068    -1.0407280003    -0.6338971307
    3      C       2.5193728304     0.0592880703    -0.1661068444
    4      O       3.0436311389    -1.0478684185     0.0778638902
    5      C       3.2749427691     1.3554491288    -0.0487283552
    6      C       4.7576528281     1.1661877860    -0.2910142794
    7      O       4.8827412223     0.7341395401    -1.6498221881
    8      O       5.9982085281    -0.1461904502    -1.7673577872
    9      C       5.5458483314     2.4525581809    -0.0883588370
   10      O       5.4391932796     2.7792779531     1.2778890512
   11      O       6.8908970134     2.3124633013    -0.4792641628
   12      H       0.6101412616     0.9900527529    -0.8102217453
   13      H       1.0851580190    -1.7614885782    -0.3858784732
   14      H       3.1219921246     1.7512567090     0.9552698340
   15      H       2.8657557857     2.0873022117    -0.7451594247
   16      H       5.1621116099     0.3915163812     0.3595311761
   17      H       5.5964471252    -1.0004928723    -1.5551019270
   18      H       5.1433322159     3.2513680874    -0.7110285218
   19      H       5.8141505383     3.6559707039     1.4091797840
   20      H       7.2655235442     1.5470801419    -0.0276313148
 ----------------------------------------------------------------
 Nuclear Repulsion Energy =         665.99361489 hartrees
 There are       44 alpha and       43 beta electrons
 Discretize the solute cavity surface with Lebedev spheres
	Using 110 Lebedev grid points for each H atom
	Using 194 Lebedev grid points for other atoms
	Atomic van der Waals radii will be scaled by 1.20
 Remove points where switching function is < 1.0e-08
 Keep 1581 surface tesserae and discard 1543 interior tesserae
 Molecular Surface Area = 179.620 Angst**2
 Applying Cartesian multipole field
    Component          Value
    ---------          -----
     (2,0,0)        1.00000E-12
     (0,2,0)        2.00000E-11
     (0,0,2)       -3.00000E-11
 Nucleus-field energy     =     0.0000000142 hartrees
 Requested basis set is 6-311++G(2df,2p)
 There are 142 shells and 464 basis functions
 A cutoff of  1.0D-12 yielded   8552 shell pairs
 There are     89631 function pairs (    110957 Cartesian)
 Smallest overlap matrix eigenvalue = 4.62E-06
 Guess MOs from SCF MO coefficient file

 -----------------------------------------------------------------------
  General SCF calculation program by
  Eric Jon Sundstrom, Paul Horn, Yuezhi Mao, Dmitri Zuev, Alec White,
  David Stuck, Shaama M.S., Shane Yost, Joonho Lee, David Small,
  Daniel Levine, Susi Lehtola, Hugh Burton, Evgeny Epifanovsky,
  Bang C. Huynh
 -----------------------------------------------------------------------
 Exchange:     0.1500 Hartree-Fock + 1.0000 wB97M-V + LR-HF
 Correlation:  1.0000 wB97M-V
 Using SG-2 standard quadrature grid
 Nonlocal Correlation:  VV10 with C = 0.0100 and b = 6.00 and scale = 1.00000
 Grid used for NLC:  SG-1 standard quadrature
 
 Citation of the SMD model:
 Marenich, A.V.; Cramer, C.J.; Truhlar, D.G.
 J. Phys. Chem. B 2009, 113, 6378-6396.
 iSolventCode=           1
 Solvent: water                                                           
 
 vradii
            1           2           3           4           5           6
    1   1.8500000   1.5200000   1.8500000   1.5200000   1.8500000   1.8500000
            7           8           9          10          11          12
    1   1.5200000   1.5200000   1.8500000   1.5200000   1.5200000   1.2000000
           13          14          15          16          17          18
    1   1.2000000   1.2000000   1.2000000   1.2000000   1.2000000   1.2000000
           19          20
    1   1.2000000   1.2000000
 -------------------------------------------------------
 OpenMP BLAS3 based DFT computing Module                
 Release: version 1.0, May 2013, Q-Chem Inc. Pittsburgh 
 -------------------------------------------------------
 A unrestricted SCF calculation will be
 performed using Roothaan-Hall, DIIS, GDM
 SCF converges when RMS gradient is below 1.0e-07
 ---------------------------------------
  Cycle       Energy         DIIS error
 ---------------------------------------
    1    -647.1639370150      2.69e-04  Roothaan Step
 ---------------------------------------
  Cycle       Energy         DIIS error
 ---------------------------------------
    1    -647.2089971382      2.31e-04  
    2    -647.2136600498      2.23e-04  Done DIIS. Switching to GDM
 ---------------------------------------
  Cycle       Energy        RMS Gradient
 ---------------------------------------
    1    -647.2136600498      1.62e-02   Normal BFGS step
    2    -647.2124646333      2.34e-02  Line search: overstep
    3    -647.2171332086      3.20e-03   Normal BFGS step
    4    -647.2173130098      1.03e-03   Normal BFGS step
    5    -647.2173488749      7.86e-04   Normal BFGS step
    6    -647.2173570005      2.11e-04   Normal BFGS step
    7    -647.2173578646      2.34e-04   Normal BFGS step
    8    -647.2173582382      8.14e-05   Normal BFGS step
    9    -647.2173583000      2.15e-05   Normal BFGS step
   10    -647.2173583160      1.35e-05   Normal BFGS step
   11    -647.2173583190      6.80e-06   Normal BFGS step
   12    -647.2173583197      6.60e-06   Normal BFGS step
   13    -647.2173583199      2.51e-06   Normal BFGS step
   14    -647.2173583200      1.33e-06   Normal BFGS step
   15    -647.2173583199      4.11e-07   Normal BFGS step
   16    -647.2173583200      1.51e-07   Normal BFGS step
   17    -647.2173583200      7.17e-08  Convergence criterion met
 ---------------------------------------
 SCF time:   CPU 1852.88s  wall 127.00s 
<S^2> =          0.756697533
(3)  G-ENP(liq) elect-nuc-pol free energy of system     -647.217358320 a.u.
(4)  G-CDS(liq) cavity-dispersion-solvent structure 
     free energy                                                5.3009 kcal/mol
(6)  G-S(liq) free energy of system                     -647.208910773 a.u.
 SCF   energy in the final basis set =     -647.2089107731
 Total energy in the final basis set =     -647.2089107731
 
 --------------------------------------------------------------
 
                    Orbital Energies (a.u.)
 --------------------------------------------------------------
 
 Alpha MOs
 -- Occupied --
-19.4017 -19.3946 -19.3943 -19.3458 -19.3441 -19.3298 -10.4445 -10.4301
-10.4231 -10.4017 -10.3493  -1.2703  -1.2323  -1.2019  -1.1674  -1.1345
 -1.0525  -0.9142  -0.8635  -0.8069  -0.7427  -0.7125  -0.6837  -0.6453
 -0.6411  -0.6159  -0.6015  -0.5794  -0.5758  -0.5631  -0.5518  -0.5383
 -0.5273  -0.5225  -0.5035  -0.4761  -0.4617  -0.4515  -0.4335  -0.4179
 -0.4072  -0.3892  -0.3800  -0.3053
 -- Virtual --
  0.0261   0.0352   0.0373   0.0461   0.0550   0.0615   0.0680   0.0733
  0.0839   0.0926   0.1040   0.1088   0.1217   0.1239   0.1269   0.1379
  0.1437   0.1468   0.1502   0.1537   0.1618   0.1689   0.1723   0.1767
  0.1851   0.1920   0.2031   0.2064   0.2126   0.2197   0.2235   0.2305
  0.2397   0.2530   0.2663   0.2682   0.2701   0.2779   0.2840   0.2905
  0.2942   0.2967   0.3042   0.3107   0.3226   0.3284   0.3294   0.3408
  0.3466   0.3471   0.3564   0.3601   0.3633   0.3667   0.3740   0.3839
  0.3901   0.3906   0.3970   0.4006   0.4057   0.4189   0.4212   0.4345
  0.4413   0.4442   0.4519   0.4659   0.4696   0.4908   0.4978   0.5202
  0.5463   0.5712   0.5749   0.5910   0.5964   0.6030   0.6242   0.6283
  0.6356   0.6440   0.6548   0.6581   0.6742   0.6764   0.6890   0.7011
  0.7152   0.7231   0.7287   0.7385   0.7555   0.7646   0.7743   0.7776
  0.7992   0.8103   0.8162   0.8317   0.8348   0.8627   0.8665   0.8929
  0.8977   0.9126   0.9250   0.9385   0.9659   0.9724   0.9932   1.0154
  1.0265   1.0332   1.0501   1.0682   1.0841   1.0938   1.1103   1.1179
  1.1279   1.1504   1.1575   1.1663   1.1691   1.1748   1.1873   1.1940
  1.1961   1.2023   1.2097   1.2240   1.2312   1.2458   1.2573   1.2704
  1.2771   1.2825   1.2866   1.2956   1.3205   1.3302   1.3534   1.3555
  1.3690   1.3955   1.3989   1.4054   1.4264   1.4394   1.4526   1.4645
  1.4738   1.5028   1.5060   1.5216   1.5347   1.5415   1.5453   1.5599
  1.5717   1.5848   1.5939   1.6120   1.6368   1.6464   1.6692   1.6811
  1.7051   1.7102   1.7270   1.7381   1.7540   1.7760   1.8198   1.8410
  1.8478   1.8614   1.8878   1.9254   1.9294   1.9486   1.9607   1.9808
  1.9941   1.9980   2.0569   2.0807   2.1178   2.1466   2.1853   2.2166
  2.2598   2.2975   2.3127   2.3365   2.3434   2.3745   2.3921   2.4040
  2.4145   2.4284   2.4624   2.4769   2.5128   2.5462   2.6136   2.6625
  2.6816   2.7203   2.7431   2.7636   2.7842   2.7986   2.8176   2.8311
  2.8391   2.8544   2.8662   2.8705   2.9304   2.9431   2.9661   2.9874
  3.0383   3.0658   3.0879   3.0933   3.1164   3.1267   3.1349   3.1444
  3.2139   3.2211   3.2470   3.2701   3.3005   3.3222   3.3394   3.3614
  3.3669   3.3979   3.4076   3.4199   3.4343   3.4468   3.4534   3.4733
  3.4907   3.5148   3.5254   3.5324   3.5772   3.6079   3.6139   3.6497
  3.6607   3.6751   3.6990   3.7110   3.7339   3.7488   3.7652   3.7798
  3.7859   3.8099   3.8145   3.8339   3.8548   3.8683   3.8742   3.8895
  3.9046   3.9178   3.9282   3.9434   3.9696   3.9940   4.0309   4.0521
  4.0632   4.1166   4.1208   4.1400   4.1751   4.2029   4.2092   4.2481
  4.2577   4.2596   4.2655   4.2903   4.3045   4.3166   4.3456   4.3649
  4.3876   4.4007   4.4294   4.4482   4.4862   4.5363   4.5617   4.5762
  4.5930   4.6155   4.6343   4.6521   4.7387   4.7746   4.7839   4.8338
  4.8454   4.9308   4.9866   5.0119   5.0575   5.0693   5.1578   5.1847
  5.2017   5.2125   5.2143   5.2377   5.2584   5.2677   5.2783   5.2831
  5.2884   5.2956   5.3229   5.3329   5.3522   5.3658   5.4039   5.4402
  5.4470   5.4758   5.4801   5.4994   5.5050   5.5226   5.5345   5.5586
  5.5616   5.6144   5.6273   5.6295   5.6347   5.6494   5.6762   5.6986
  5.7113   5.7454   5.7579   5.7840   5.8179   5.8455   5.8936   5.9305
  5.9382   6.0295   6.0952   6.1160   6.1465   6.2596   6.3019   6.3122
  6.5429   6.6324   6.7225   6.7612   6.8611   6.8856   6.9986   7.0182
  7.0259   7.0367   7.0709   7.0830   7.1129   7.1586   7.1756   7.2236
  7.2626   7.2737   7.2922   7.3136   7.3274   7.3443   7.3708   7.3906
  7.4145   7.4329   7.4474   7.4745   7.5440   7.6143   7.6422   7.6598
  7.6644   7.7048   7.7408   7.8005   7.8382   7.8571   7.8937   7.9724
  8.1721  24.6490  24.7784  24.7945  24.8607  25.1620  50.5094  50.5774
 50.5819  50.6306  50.6390  50.7381
 
 Beta MOs
 -- Occupied --
-19.4017 -19.3946 -19.3894 -19.3458 -19.3441 -19.3234 -10.4445 -10.4295
-10.4152 -10.4016 -10.3493  -1.2703  -1.2216  -1.2019  -1.1566  -1.1345
 -1.0524  -0.9097  -0.8516  -0.8005  -0.7399  -0.7068  -0.6834  -0.6442
 -0.6403  -0.6071  -0.5981  -0.5781  -0.5633  -0.5565  -0.5444  -0.5353
 -0.5229  -0.5032  -0.4970  -0.4611  -0.4563  -0.4423  -0.4329  -0.4175
 -0.4067  -0.3865  -0.3749
 -- Virtual --
 -0.0253   0.0259   0.0352   0.0372   0.0461   0.0549   0.0615   0.0682
  0.0739   0.0839   0.0921   0.1087   0.1178   0.1219   0.1265   0.1355
  0.1406   0.1466   0.1497   0.1529   0.1554   0.1622   0.1694   0.1718
  0.1768   0.1853   0.1927   0.2032   0.2065   0.2122   0.2197   0.2233
  0.2320   0.2402   0.2542   0.2670   0.2695   0.2710   0.2785   0.2839
  0.2929   0.2945   0.2974   0.3056   0.3115   0.3229   0.3297   0.3319
  0.3427   0.3470   0.3480   0.3581   0.3609   0.3642   0.3672   0.3754
  0.3846   0.3907   0.3914   0.3979   0.4007   0.4075   0.4207   0.4237
  0.4346   0.4413   0.4443   0.4528   0.4671   0.4698   0.4915   0.5041
  0.5214   0.5516   0.5728   0.5775   0.5923   0.6005   0.6075   0.6268
  0.6307   0.6408   0.6472   0.6580   0.6607   0.6758   0.6786   0.6917
  0.7045   0.7181   0.7256   0.7295   0.7405   0.7601   0.7659   0.7766
  0.7784   0.8018   0.8147   0.8224   0.8339   0.8380   0.8676   0.8699
  0.8959   0.9014   0.9143   0.9262   0.9386   0.9666   0.9737   0.9943
  1.0165   1.0286   1.0345   1.0506   1.0697   1.0853   1.0962   1.1116
  1.1196   1.1295   1.1528   1.1601   1.1678   1.1715   1.1789   1.1930
  1.1970   1.1983   1.2051   1.2110   1.2262   1.2330   1.2478   1.2580
  1.2737   1.2810   1.2838   1.2884   1.2974   1.3217   1.3328   1.3551
  1.3563   1.3701   1.3970   1.4000   1.4065   1.4290   1.4444   1.4565
  1.4653   1.4768   1.5036   1.5069   1.5239   1.5358   1.5470   1.5475
  1.5633   1.5736   1.5856   1.5972   1.6144   1.6397   1.6479   1.6718
  1.6849   1.7068   1.7130   1.7291   1.7395   1.7545   1.7841   1.8277
  1.8433   1.8526   1.8629   1.8886   1.9276   1.9406   1.9527   1.9698
  1.9857   1.9962   2.0003   2.0593   2.0819   2.1198   2.1507   2.1895
  2.2179   2.2635   2.2993   2.3177   2.3371   2.3450   2.3791   2.3944
  2.4046   2.4160   2.4352   2.4638   2.4817   2.5184   2.5484   2.6178
  2.6686   2.6847   2.7308   2.7583   2.7693   2.7989   2.8017   2.8290
  2.8426   2.8556   2.8707   2.8736   2.8945   2.9372   2.9499   2.9745
  2.9905   3.0444   3.0724   3.0932   3.1127   3.1275   3.1316   3.1436
  3.1552   3.2251   3.2386   3.2566   3.2779   3.3067   3.3344   3.3585
  3.3731   3.3897   3.4091   3.4173   3.4265   3.4403   3.4549   3.4612
  3.4792   3.4999   3.5297   3.5351   3.5493   3.5831   3.6104   3.6276
  3.6554   3.6679   3.6821   3.7046   3.7200   3.7410   3.7530   3.7708
  3.7845   3.7900   3.8121   3.8227   3.8411   3.8596   3.8698   3.8847
  3.8931   3.9093   3.9208   3.9394   3.9505   3.9725   3.9948   4.0339
  4.0557   4.0659   4.1199   4.1240   4.1437   4.1777   4.2066   4.2137
  4.2501   4.2619   4.2682   4.2826   4.2919   4.3097   4.3219   4.3526
  4.3688   4.3968   4.4066   4.4411   4.4525   4.4919   4.5386   4.5666
  4.5783   4.5957   4.6236   4.6368   4.6548   4.7409   4.7832   4.7909
  4.8350   4.8509   4.9321   4.9936   5.0191   5.0627   5.0775   5.1836
  5.1936   5.2106   5.2187   5.2296   5.2421   5.2735   5.2807   5.2861
  5.2925   5.2940   5.3082   5.3257   5.3387   5.3527   5.3659   5.4074
  5.4422   5.4485   5.4808   5.4881   5.5003   5.5054   5.5294   5.5384
  5.5624   5.5730   5.6168   5.6295   5.6340   5.6420   5.6606   5.6764
  5.7006   5.7118   5.7537   5.7744   5.7858   5.8186   5.8462   5.8965
  5.9475   5.9516   6.0296   6.0952   6.1160   6.1465   6.2603   6.3185
  6.3255   6.5430   6.6327   6.7328   6.7613   6.8620   6.8941   7.0129
  7.0317   7.0373   7.0493   7.0798   7.0977   7.1160   7.1659   7.1769
  7.2447   7.2628   7.2745   7.2931   7.3188   7.3292   7.3471   7.3824
  7.3950   7.4182   7.4397   7.4622   7.4755   7.5441   7.6146   7.6510
  7.6621   7.6717   7.7050   7.7490   7.8006   7.8493   7.8577   7.8937
  7.9725   8.1721  24.6493  24.7827  24.7945  24.8611  25.1663  50.5095
 50.5778  50.5856  50.6307  50.6391  50.7427
 --------------------------------------------------------------
 
          Ground-State Mulliken Net Atomic Charges

     Atom                 Charge (a.u.)    Spin (a.u.)
  --------------------------------------------------------
      1 C                    -0.234145       0.555869
      2 O                    -0.265049       0.139301
      3 C                     0.630022       0.060245
      4 O                    -0.548917       0.228671
      5 C                    -0.702594       0.009856
      6 C                     0.004680      -0.002189
      7 O                    -0.100500       0.000415
      8 O                    -0.327186       0.000693
      9 C                    -0.296763       0.002766
     10 O                    -0.423043       0.000269
     11 O                    -0.459692      -0.000010
     12 H                     0.261278      -0.007687
     13 H                     0.358240      -0.003816
     14 H                     0.221622       0.011078
     15 H                     0.236795       0.005515
     16 H                     0.308852      -0.001081
     17 H                     0.355741       0.000042
     18 H                     0.298371       0.000011
     19 H                     0.338751       0.000109
     20 H                     0.343538      -0.000056
  --------------------------------------------------------
  Sum of atomic charges =    -0.000000
  Sum of spin   charges =     1.000000

 -----------------------------------------------------------------
                    Cartesian Multipole Moments
 -----------------------------------------------------------------
    Charge (ESU x 10^10)
                -0.0000
    Dipole Moment (Debye)
         X      -2.9466      Y       1.9798      Z       2.0551
       Tot       4.1019
    Quadrupole Moments (Debye-Ang)
        XX     -89.6969     XY      -0.3238     YY     -53.0671
        XZ      16.6123     YZ       5.4067     ZZ     -73.7908
    Octopole Moments (Debye-Ang^2)
       XXX    -944.7800    XXY     -91.7692    XYY    -218.1958
       YYY    -119.7692    XXZ     148.3070    XYZ      43.0672
       YYZ      32.5794    XZZ    -310.2250    YZZ     -60.4970
       ZZZ      88.1683
    Hexadecapole Moments (Debye-Ang^3)
      XXXX   -8958.2211   XXXY   -1410.8029   XXYY   -1325.9236
      XYYY    -750.6223   YYYY    -775.3079   XXXZ    1180.8389
      XXYZ     279.0777   XYYZ     183.4087   YYYZ      41.0912
      XXZZ   -1666.3999   XYZZ    -370.1805   YYZZ    -219.2871
      XZZZ     385.9368   YZZZ     -16.3879   ZZZZ    -421.2398
 -----------------------------------------------------------------
 Calculating analytic gradient of the SCF energy
 Gradient of CDS energy
            1           2           3           4           5           6
    1  -0.0030609   0.0019595   0.0011783  -0.0007368   0.0000335   0.0000039
    2  -0.0032899   0.0033261  -0.0018427   0.0015047   0.0001837   0.0000587
    3  -0.0005091   0.0002060   0.0005146  -0.0001555   0.0000526  -0.0000706
            7           8           9          10          11          12
    1   0.0000856  -0.0001156   0.0020110   0.0001495  -0.0022971   0.0001457
    2   0.0000020   0.0003180   0.0005134  -0.0006590   0.0000931   0.0001649
    3   0.0000528  -0.0000243   0.0010230  -0.0018838   0.0005637  -0.0000049
           13          14          15          16          17          18
    1  -0.0000810   0.0000572  -0.0000029   0.0000471   0.0002039  -0.0001125
    2  -0.0003378   0.0000640   0.0000993  -0.0000347  -0.0004226   0.0000139
    3   0.0000142   0.0001640  -0.0001392   0.0000222  -0.0001766  -0.0001784
           19          20
    1   0.0000574   0.0004742
    2   0.0003432  -0.0000982
    3   0.0003848   0.0001444
 Gradient of SCF Energy
            1           2           3           4           5           6
    1   0.0035499  -0.0056747  -0.0024994   0.0036900   0.0138817  -0.0074155
    2  -0.0113877   0.0049990   0.0073120  -0.0025056  -0.0167223   0.0039975
    3   0.0029497  -0.0023944   0.0005251   0.0017497   0.0000704  -0.0038249
            7           8           9          10          11          12
    1   0.0001409   0.0046384   0.0036496  -0.0036936   0.0009797  -0.0057744
    2   0.0011313   0.0069858  -0.0062688  -0.0103546   0.0031172   0.0118704
    3  -0.0018449  -0.0042052   0.0043352   0.0014187  -0.0087214  -0.0027796
           13          14          15          16          17          18
    1   0.0018187  -0.0033674  -0.0047487   0.0028202  -0.0017071  -0.0047139
    2  -0.0062076   0.0024971   0.0070938  -0.0012879  -0.0067005   0.0055028
    3   0.0014979   0.0051753  -0.0054590   0.0018443   0.0032534  -0.0008266
           19          20
    1   0.0031990   0.0012266
    2   0.0111770  -0.0042489
    3   0.0010373   0.0061988
 Max gradient component =       1.672E-02
 RMS gradient           =       5.657E-03
 Computing fast CPCM-SWIG gradient
 Updating gradient with PCM contributions...
 -- total gradient after adding PCM contribution --
---------------------------------------------------
  Atom         X              Y              Z     
---------------------------------------------------
   1       0.000085       0.000815      -0.000354
   2       0.000675      -0.000562       0.000207
   3      -0.000189       0.000675       0.001431
   4      -0.000366       0.000554      -0.000795
   5      -0.000056      -0.000006       0.000014
   6       0.000382      -0.001242       0.000242
   7       0.000646       0.000507       0.000367
   8      -0.000733      -0.001271       0.000188
   9      -0.001105       0.000157      -0.001079
  10       0.000711       0.001735      -0.000423
  11      -0.000014      -0.002001       0.001009
  12       0.000412      -0.000736       0.000196
  13      -0.000469       0.000463      -0.000095
  14      -0.000253      -0.000466      -0.000864
  15       0.000206      -0.000653       0.000412
  16      -0.000051       0.000674      -0.000624
  17       0.000485       0.002066       0.000111
  18       0.000100      -0.000442       0.000572
  19      -0.000441      -0.001541       0.000118
  20      -0.000025       0.001275      -0.000632
---------------------------------------------------
 Number of fixed atoms: 0
 Gradient time:  CPU 256.91 s  wall 22.42 s
 Geometry Optimization Parameters
   NAtoms,    NIC,     NZ,  NCons,   NDum,   NFix, NCnnct, MaxDiis
       20     128       0       0       0       0       0       0

 Cartesian Hessian Update
 Hessian updated using BFGS update


** GEOMETRY OPTIMIZATION IN DELOCALIZED INTERNAL COORDINATES **
   Searching for a Minimum

   Optimization Cycle:   3

                       Coordinates (Angstroms)
     ATOM                X               Y               Z
      1  C         1.1578011277    0.0965138707   -0.5604966439
      2  O         0.4773347068   -1.0407280003   -0.6338971307
      3  C         2.5193728304    0.0592880703   -0.1661068444
      4  O         3.0436311389   -1.0478684185    0.0778638902
      5  C         3.2749427691    1.3554491288   -0.0487283552
      6  C         4.7576528281    1.1661877860   -0.2910142794
      7  O         4.8827412223    0.7341395401   -1.6498221881
[...]
    1  -0.0000905   0.0000674  -0.0000077   0.0000574   0.0001908  -0.0001202
    2  -0.0003305   0.0000594   0.0000819  -0.0000183  -0.0004612   0.0000317
    3   0.0000489   0.0001635  -0.0001600   0.0000371  -0.0002299  -0.0001477
           19          20
    1   0.0000698   0.0004805
    2   0.0003321  -0.0001045
    3   0.0003913   0.0001016
 Gradient of SCF Energy
            1           2           3           4           5           6
    1   0.0030274  -0.0055298  -0.0021639   0.0041657   0.0108467  -0.0061240
    2  -0.0117770   0.0050397   0.0068438  -0.0028054  -0.0155502   0.0040076
    3   0.0048451  -0.0047952  -0.0007735   0.0053105   0.0002108  -0.0021716
            7           8           9          10          11          12
    1  -0.0001331   0.0054651   0.0052074  -0.0033583   0.0007047  -0.0048854
    2   0.0011011   0.0110574  -0.0067451  -0.0129511   0.0053198   0.0115670
    3  -0.0020681  -0.0045318   0.0052010   0.0018684  -0.0083797  -0.0060323
           13          14          15          16          17          18
    1   0.0018853  -0.0023283  -0.0050579   0.0029683  -0.0038048  -0.0050928
    2  -0.0063754   0.0029919   0.0077376  -0.0020028  -0.0113018   0.0062999
    3   0.0030244   0.0049499  -0.0064485   0.0010470   0.0032306  -0.0009983
           19          20
    1   0.0027725   0.0014350
    2   0.0130428  -0.0054999
    3   0.0007940   0.0057175
 Max gradient component =       1.555E-02
 RMS gradient           =       6.087E-03
 Computing fast CPCM-SWIG gradient
 Updating gradient with PCM contributions...
 -- total gradient after adding PCM contribution --
---------------------------------------------------
  Atom         X              Y              Z     
---------------------------------------------------
   1       0.000002      -0.000062      -0.000009
   2       0.000029       0.000057       0.000019
   3      -0.000009      -0.000153       0.000021
   4      -0.000019       0.000048      -0.000041
   5      -0.000000       0.000066       0.000017
   6      -0.000008       0.000003       0.000004
   7      -0.000037      -0.000004      -0.000025
   8       0.000030       0.000041      -0.000031
   9       0.000034       0.000019       0.000032
  10      -0.000010      -0.000097      -0.000020
  11      -0.000026       0.000058      -0.000040
  12       0.000000       0.000028       0.000017
  13       0.000005      -0.000026      -0.000017
  14       0.000010       0.000019       0.000015
  15      -0.000007       0.000006      -0.000001
  16      -0.000006      -0.000013       0.000010
  17      -0.000014      -0.000033      -0.000021
  18      -0.000024       0.000032       0.000024
  19       0.000017       0.000041       0.000024
  20       0.000030      -0.000031       0.000023
---------------------------------------------------
 Number of fixed atoms: 0
 Gradient time:  CPU 254.85 s  wall 21.96 s
 Geometry Optimization Parameters
   NAtoms,    NIC,     NZ,  NCons,   NDum,   NFix, NCnnct, MaxDiis
       20     128       0       0       0       0       0       0

 Cartesian Hessian Update
 Hessian updated using BFGS update


** GEOMETRY OPTIMIZATION IN DELOCALIZED INTERNAL COORDINATES **
   Searching for a Minimum

   Optimization Cycle:  15

                       Coordinates (Angstroms)
     ATOM                X               Y               Z
      1  C         1.2634877786    0.0500739323   -0.7362288562
      2  O         0.5861166684   -1.0887589483   -0.7827448903
      3  C         2.4934000826    0.0908603884   -0.0331833313
      4  O         2.9103258934   -0.9550778872    0.5107007497
      5  C         3.2546271336    1.3873557953    0.0459222034
      6  C         4.7258655628    1.1734617241   -0.2596432973
      7  O         4.7742887416    0.7411700478   -1.6228518561
      8  O         5.9152295735   -0.0948179850   -1.8143751271
      9  C         5.5411297958    2.4478284987   -0.0714021394
     10  O         5.5458071605    2.7087665296    1.3135461286
     11  O         6.8486745306    2.3282690607   -0.5790254769
     12  H         0.8172531223    0.8863421201   -1.2507798191
     13  H         1.0994789020   -1.7533134346   -0.2853196828
     14  H         3.1589961572    1.7838721367    1.0575214299
     15  H         2.8303524838    2.1215452294   -0.6396423944
     16  H         5.1386099021    0.3848821062    0.3719162089
     17  H         5.5412029044   -0.9764291534   -1.6645789324
     18  H         5.0917934762    3.2764930710   -0.6203889102
     19  H         5.8752247807    3.6041853528    1.4512262907
     20  H         7.2403713500    1.5169479151   -0.2310021976
   Point Group: c1    Number of degrees of freedom:    54


   Energy is   -647.209128975

 Hessian updated using BFGS update

 54 Hessian modes will be used to form the next step
  Hessian Eigenvalues:
     0.000907    0.001079    0.004513    0.006690    0.008999    0.012971
     0.013657    0.019672    0.021147    0.025690    0.031399    0.044292
     0.044462    0.051549    0.055422    0.060120    0.063933    0.079809
     0.091919    0.094343    0.127019    0.146794    0.159722    0.160828
     0.164078    0.174351    0.179775    0.190383    0.201141    0.208663
     0.211935    0.220166    0.240934    0.252362    0.282641    0.303283
     0.308397    0.320262    0.341185    0.341369    0.342377    0.350214
     0.361359    0.399370    0.419427    0.433693    0.441397    0.461448
     0.496118    0.523843    0.529236    0.567291    0.581612    0.803742

 Minimum search - taking simple RFO step
 Searching for Lamda that Minimizes Along All modes
 Value Taken    Lamda =  -0.00000131
 Step Taken.  Stepsize is  0.033272

                             Maximum     Tolerance    Cnvgd?
         Gradient           0.000070      0.000300     YES
         Displacement       0.015314      0.001200      NO
         Energy change     -0.000001      0.000001     YES

 Final energy is   -647.209128975042     


 ******************************
 **  OPTIMIZATION CONVERGED  **
 ******************************

                       Coordinates (Angstroms)
     ATOM                X               Y               Z
      1  C         1.2634877786    0.0500739323   -0.7362288562
      2  O         0.5861166684   -1.0887589483   -0.7827448903
      3  C         2.4934000826    0.0908603884   -0.0331833313
      4  O         2.9103258934   -0.9550778872    0.5107007497
      5  C         3.2546271336    1.3873557953    0.0459222034
      6  C         4.7258655628    1.1734617241   -0.2596432973
      7  O         4.7742887416    0.7411700478   -1.6228518561
      8  O         5.9152295735   -0.0948179850   -1.8143751271
      9  C         5.5411297958    2.4478284987   -0.0714021394
     10  O         5.5458071605    2.7087665296    1.3135461286
     11  O         6.8486745306    2.3282690607   -0.5790254769
     12  H         0.8172531223    0.8863421201   -1.2507798191
     13  H         1.0994789020   -1.7533134346   -0.2853196828
     14  H         3.1589961572    1.7838721367    1.0575214299
     15  H         2.8303524838    2.1215452294   -0.6396423944
     16  H         5.1386099021    0.3848821062    0.3719162089
     17  H         5.5412029044   -0.9764291534   -1.6645789324
     18  H         5.0917934762    3.2764930710   -0.6203889102
     19  H         5.8752247807    3.6041853528    1.4512262907
     20  H         7.2403713500    1.5169479151   -0.2310021976

Z-matrix Print:
$molecule
0 2
O 
O  1 1.427341
H  2 0.969316 1 101.743115
C  1 1.430929 2 109.379504 3 92.914095 0
H  4 1.091368 1 108.675713 2 -32.452677 0
C  4 1.517782 1 105.496096 2 -151.086011 0
H  6 1.090432 4 110.210374 1 -58.338253 0
H  6 1.090735 4 108.840506 1 -176.251857 0
C  6 1.505531 4 110.988355 1 64.396624 0
O  9 1.250449 6 121.929455 4 46.749451 0
C  9 1.417258 6 119.316271 4 -133.648029 0
H  11 1.078533 9 124.987569 6 1.151091 0
O  11 1.325872 9 119.043654 6 -178.835460 0
H  13 0.976015 11 107.351826 9 -0.206781 0
C  4 1.524500 1 110.614219 2 87.524827 0
H  15 1.090860 4 110.645450 1 65.720352 0
O  15 1.407711 4 112.408034 1 -51.822821 0
H  17 0.965810 15 108.548720 4 -50.109699 0
O  15 1.409323 4 106.134253 1 -174.000133 0
H  19 0.963974 15 108.268667 4 -167.262880 0
$end

 
 --------------------------------------------------------------
 
                    Orbital Energies (a.u.)
 --------------------------------------------------------------
 
 Alpha MOs
 -- Occupied --
-19.4028 -19.3954 -19.3951 -19.3460 -19.3443 -19.3301 -10.4449 -10.4297
-10.4246 -10.4032 -10.3496  -1.2701  -1.2334  -1.2013  -1.1671  -1.1347
 -1.0535  -0.9136  -0.8631  -0.8063  -0.7419  -0.7144  -0.6832  -0.6448
 -0.6423  -0.6166  -0.6005  -0.5830  -0.5750  -0.5642  -0.5501  -0.5359
 -0.5269  -0.5220  -0.5027  -0.4766  -0.4617  -0.4538  -0.4333  -0.4170
 -0.4074  -0.3893  -0.3816  -0.3068
 -- Virtual --
  0.0263   0.0346   0.0374   0.0466   0.0563   0.0616   0.0683   0.0716
  0.0882   0.0895   0.1054   0.1080   0.1193   0.1240   0.1275   0.1353
  0.1439   0.1472   0.1487   0.1542   0.1622   0.1680   0.1725   0.1790
  0.1826   0.1905   0.1977   0.2041   0.2120   0.2160   0.2278   0.2364
  0.2444   0.2547   0.2618   0.2688   0.2712   0.2763   0.2861   0.2919
  0.2952   0.3006   0.3071   0.3159   0.3185   0.3240   0.3305   0.3378
  0.3437   0.3475   0.3555   0.3596   0.3670   0.3672   0.3703   0.3770
  0.3802   0.3928   0.3964   0.4005   0.4085   0.4164   0.4209   0.4310
  0.4424   0.4476   0.4556   0.4614   0.4723   0.4893   0.4978   0.5255
  0.5459   0.5681   0.5817   0.5931   0.6017   0.6066   0.6170   0.6270
  0.6310   0.6424   0.6453   0.6601   0.6746   0.6822   0.6909   0.6999
  0.7117   0.7205   0.7320   0.7459   0.7488   0.7659   0.7701   0.7767
  0.7993   0.8050   0.8114   0.8282   0.8488   0.8644   0.8717   0.8847
  0.8940   0.9163   0.9269   0.9398   0.9679   0.9743   0.9837   1.0049
  1.0233   1.0311   1.0526   1.0692   1.0785   1.0990   1.1154   1.1212
  1.1305   1.1471   1.1542   1.1654   1.1670   1.1756   1.1907   1.1977
  1.2006   1.2069   1.2142   1.2264   1.2370   1.2485   1.2550   1.2554
  1.2716   1.2790   1.2928   1.3061   1.3210   1.3353   1.3479   1.3574
  1.3669   1.3915   1.3994   1.4150   1.4330   1.4467   1.4490   1.4613
  1.4770   1.4909   1.5028   1.5244   1.5274   1.5311   1.5467   1.5487
  1.5761   1.5849   1.6004   1.6154   1.6319   1.6406   1.6665   1.6810
  1.7047   1.7135   1.7175   1.7294   1.7728   1.7795   1.8160   1.8366
  1.8551   1.8663   1.8842   1.8957   1.9272   1.9416   1.9569   1.9634
  1.9891   2.0027   2.0465   2.0796   2.1185   2.1562   2.1887   2.2238
  2.2592   2.2823   2.3042   2.3272   2.3474   2.3851   2.3950   2.4087
  2.4145   2.4403   2.4562   2.4912   2.5043   2.5396   2.6140   2.6528
  2.6843   2.7040   2.7375   2.7570   2.7738   2.7934   2.8052   2.8237
  2.8323   2.8499   2.8561   2.8686   2.9213   2.9465   2.9767   2.9871
  3.0336   3.0633   3.0773   3.1126   3.1167   3.1379   3.1440   3.1544
  3.2119   3.2294   3.2456   3.2807   3.2919   3.3227   3.3304   3.3414
  3.3706   3.3876   3.4157   3.4230   3.4349   3.4417   3.4516   3.4776
  3.4982   3.5102   3.5241   3.5435   3.5793   3.5931   3.6211   3.6469
  3.6539   3.6677   3.7127   3.7264   3.7334   3.7409   3.7639   3.7682
  3.7777   3.8020   3.8291   3.8313   3.8564   3.8662   3.8815   3.8879
  3.9036   3.9181   3.9300   3.9459   3.9655   3.9951   4.0346   4.0434
  4.0618   4.1162   4.1214   4.1423   4.1843   4.1910   4.2122   4.2388
  4.2460   4.2599   4.2670   4.2845   4.3108   4.3261   4.3461   4.3495
  4.3858   4.3956   4.4385   4.4671   4.4843   4.5391   4.5466   4.5569
  4.5842   4.6030   4.6251   4.6604   4.7346   4.7605   4.7866   4.8309
  4.8472   4.9227   4.9883   5.0101   5.0523   5.0765   5.1597   5.1798
  5.2014   5.2049   5.2147   5.2389   5.2533   5.2636   5.2789   5.2815
  5.2845   5.2926   5.3252   5.3361   5.3507   5.3637   5.4010   5.4225
  5.4372   5.4819   5.4863   5.4989   5.5119   5.5138   5.5382   5.5546
  5.5597   5.6038   5.6207   5.6320   5.6366   5.6514   5.6722   5.6883
  5.7116   5.7371   5.7629   5.7861   5.8170   5.8389   5.8900   5.9294
  5.9349   6.0254   6.0901   6.1217   6.1419   6.2559   6.2900   6.3100
  6.5407   6.6313   6.7185   6.7573   6.8558   6.8830   6.9869   7.0136
  7.0247   7.0382   7.0645   7.0774   7.1171   7.1530   7.1657   7.2222
  7.2612   7.2683   7.2860   7.3128   7.3210   7.3411   7.3685   7.3913
  7.3997   7.4206   7.4469   7.4705   7.5422   7.6101   7.6343   7.6584
  7.6596   7.7043   7.7373   7.8006   7.8369   7.8545   7.8969   7.9728
  8.1752  24.6309  24.7679  24.7880  24.8537  25.1604  50.5075  50.5741
 50.5863  50.6263  50.6336  50.7435
 
 Beta MOs
 -- Occupied --
-19.4028 -19.3951 -19.3904 -19.3460 -19.3443 -19.3236 -10.4449 -10.4290
-10.4169 -10.4031 -10.3498  -1.2700  -1.2228  -1.2013  -1.1560  -1.1347
 -1.0533  -0.9090  -0.8511  -0.8003  -0.7392  -0.7086  -0.6829  -0.6433
 -0.6419  -0.6080  -0.5971  -0.5801  -0.5649  -0.5584  -0.5403  -0.5314
 -0.5226  -0.5067  -0.4945  -0.4616  -0.4577  -0.4432  -0.4323  -0.4166
 -0.4068  -0.3873  -0.3757
 -- Virtual --
 -0.0279   0.0262   0.0346   0.0373   0.0465   0.0562   0.0616   0.0685
  0.0719   0.0883   0.0907   0.1071   0.1182   0.1206   0.1275   0.1348
  0.1430   0.1468   0.1483   0.1486   0.1570   0.1627   0.1680   0.1724
  0.1789   0.1833   0.1909   0.1973   0.2040   0.2123   0.2160   0.2286
  0.2369   0.2445   0.2553   0.2626   0.2695   0.2720   0.2772   0.2854
  0.2927   0.2958   0.3018   0.3094   0.3187   0.3190   0.3245   0.3322
  0.3395   0.3444   0.3495   0.3568   0.3603   0.3673   0.3680   0.3712
  0.3779   0.3817   0.3930   0.3965   0.4017   0.4100   0.4179   0.4221
  0.4312   0.4428   0.4478   0.4563   0.4622   0.4729   0.4897   0.5019
  0.5285   0.5504   0.5702   0.5840   0.5951   0.6051   0.6105   0.6209
  0.6326   0.6329   0.6449   0.6473   0.6621   0.6770   0.6849   0.6930
  0.7036   0.7135   0.7210   0.7355   0.7476   0.7527   0.7670   0.7721
  0.7776   0.8026   0.8080   0.8177   0.8320   0.8526   0.8709   0.8754
  0.8890   0.8956   0.9178   0.9277   0.9395   0.9685   0.9783   0.9837
  1.0059   1.0246   1.0320   1.0536   1.0706   1.0799   1.1008   1.1169
  1.1230   1.1322   1.1492   1.1572   1.1671   1.1690   1.1772   1.1963
  1.2029   1.2034   1.2090   1.2167   1.2279   1.2410   1.2496   1.2563
  1.2577   1.2723   1.2816   1.2945   1.3094   1.3224   1.3362   1.3487
  1.3598   1.3679   1.3921   1.4015   1.4187   1.4348   1.4487   1.4526
  1.4642   1.4815   1.4922   1.5039   1.5270   1.5297   1.5334   1.5486
  1.5519   1.5785   1.5880   1.6017   1.6172   1.6328   1.6444   1.6690
  1.6839   1.7056   1.7149   1.7220   1.7317   1.7741   1.7867   1.8229
  1.8377   1.8566   1.8717   1.8867   1.8985   1.9350   1.9492   1.9668
  1.9705   1.9907   2.0035   2.0474   2.0810   2.1209   2.1600   2.1900
  2.2272   2.2676   2.2849   2.3057   2.3278   2.3491   2.3895   2.3966
  2.4097   2.4147   2.4489   2.4570   2.4933   2.5104   2.5433   2.6188
  2.6569   2.6869   2.7147   2.7470   2.7635   2.7810   2.8054   2.8229
  2.8273   2.8573   2.8594   2.8717   2.8833   2.9299   2.9527   2.9819
  2.9935   3.0438   3.0720   3.0969   3.1176   3.1233   3.1420   3.1523
  3.1634   3.2183   3.2497   3.2590   3.2910   3.2981   3.3314   3.3490
  3.3606   3.3874   3.3981   3.4225   3.4293   3.4394   3.4514   3.4564
  3.4849   3.5108   3.5290   3.5346   3.5547   3.5878   3.5997   3.6321
  3.6518   3.6635   3.6717   3.7206   3.7310   3.7417   3.7457   3.7689
  3.7725   3.7813   3.8042   3.8349   3.8406   3.8577   3.8765   3.8862
  3.8920   3.9074   3.9238   3.9400   3.9505   3.9679   3.9957   4.0391
  4.0485   4.0636   4.1185   4.1229   4.1481   4.1886   4.1928   4.2176
  4.2426   4.2487   4.2686   4.2812   4.2876   4.3127   4.3320   4.3516
  4.3629   4.3951   4.3967   4.4456   4.4734   4.4908   4.5429   4.5494
  4.5599   4.5861   4.6113   4.6280   4.6632   4.7369   4.7695   4.7881
  4.8355   4.8553   4.9238   4.9964   5.0157   5.0597   5.0822   5.1853
  5.1902   5.2083   5.2200   5.2233   5.2454   5.2689   5.2760   5.2835
  5.2912   5.2930   5.3035   5.3286   5.3373   5.3541   5.3653   5.4043
  5.4253   5.4379   5.4841   5.4946   5.5025   5.5135   5.5235   5.5400
  5.5560   5.5725   5.6053   5.6208   5.6323   5.6493   5.6626   5.6734
  5.6907   5.7125   5.7446   5.7789   5.7881   5.8174   5.8397   5.8918
  5.9438   5.9522   6.0254   6.0901   6.1218   6.1419   6.2564   6.3076
  6.3230   6.5409   6.6315   6.7289   6.7574   6.8561   6.8918   7.0140
  7.0163   7.0387   7.0476   7.0741   7.0937   7.1185   7.1614   7.1662
  7.2434   7.2620   7.2687   7.2863   7.3183   7.3236   7.3436   7.3713
  7.3996   7.4136   7.4230   7.4614   7.4711   7.5423   7.6104   7.6425
  7.6595   7.6685   7.7045   7.7458   7.8008   7.8486   7.8547   7.8971
  7.9730   8.1752  24.6311  24.7721  24.7882  24.8540  25.1647  50.5076
 50.5753  50.5891  50.6265  50.6337  50.7482
 --------------------------------------------------------------
 
          Ground-State Mulliken Net Atomic Charges

     Atom                 Charge (a.u.)    Spin (a.u.)
  --------------------------------------------------------
      1 C                    -0.240838       0.545578
      2 O                    -0.257801       0.139579
      3 C                     0.551415       0.059688
      4 O                    -0.547746       0.236693
      5 C                    -0.627121       0.009697
      6 C                    -0.026457      -0.000745
      7 O                    -0.102312       0.001235
      8 O                    -0.324679      -0.000224
      9 C                    -0.292868       0.004555
     10 O                    -0.418439       0.000037
     11 O                    -0.456210       0.000241
     12 H                     0.261469      -0.007250
     13 H                     0.355699      -0.003955
     14 H                     0.218365       0.011551
     15 H                     0.243369       0.005108
     16 H                     0.324188      -0.001630
     17 H                     0.359279      -0.000076
     18 H                     0.296797       0.000050
     19 H                     0.341286       0.000021
     20 H                     0.342604      -0.000156
  --------------------------------------------------------
  Sum of atomic charges =    -0.000000
  Sum of spin   charges =     1.000000

 -----------------------------------------------------------------
                    Cartesian Multipole Moments
 -----------------------------------------------------------------
    Charge (ESU x 10^10)
                -0.0000
    Dipole Moment (Debye)
         X      -2.6416      Y       1.6955      Z       0.9281
       Tot       3.2733
    Quadrupole Moments (Debye-Ang)
        XX     -86.9738     XY      -1.8360     YY     -52.8425
        XZ      11.3845     YZ       6.6389     ZZ     -74.2541
    Octopole Moments (Debye-Ang^2)
       XXX    -924.2627    XXY    -102.7731    XYY    -216.7628
       YYY    -121.0565    XXZ     118.6611    XYZ      50.3275
       YYZ      33.4873    XZZ    -311.4147    YZZ     -60.0736
       ZZZ      81.3941
    Hexadecapole Moments (Debye-Ang^3)
      XXXX   -8738.3727   XXXY   -1479.3417   XXYY   -1314.8490
      XYYY    -764.8083   YYYY    -765.3148   XXXZ     980.0528
      XXYZ     310.4591   XYYZ     185.4366   YYYZ      54.3890
      XXZZ   -1662.2676   XYZZ    -379.8693   YYZZ    -224.8126
      XZZZ     353.8110   YZZZ      -7.2356   ZZZZ    -455.8617
 -----------------------------------------------------------------
 Total job time:  2296.03s(wall), 32656.11s(cpu) 
 Fri May 31 17:16:18 2024

        *************************************************************
        *                                                           *
        *  Thank you very much for using Q-Chem.  Have a nice day.  *
        *                                                           *
        *************************************************************


