
Running Job 1 of 1 Q_in.in
qchem Q_in.in_243248.0 /scratch/ari.fischer/qChem2100611.hpc-mn1/qchem243248/ 0
/usr/local/qchem-5.4.1/exe/qcprog.exe_s Q_in.in_243248.0 /scratch/ari.fischer/qChem2100611.hpc-mn1/qchem243248/
                  Welcome to Q-Chem
     A Quantum Leap Into The Future Of Chemistry


 Q-Chem 5.4, Q-Chem, Inc., Pleasanton, CA (2021)

 License issued to: Nanyang Technological University (site)

 E. Epifanovsky,  A. T. B. Gilbert,  Xintian Feng,  Joonho Lee,  Yuezhi Mao,  
 N. Mardirossian,  P. Pokhilko,  A. White,  M. Wormit,  M. P. Coons,  
 A. L. Dempwolff,  Zhengting Gan,  D. Hait,  P. R. Horn,  L. D. Jacobson,  
 I. Kaliman,  J. Kussmann,  A. W. Lange,  Ka Un Lao,  D. S. Levine,  Jie Liu,  
 S. C. McKenzie,  A. F. Morrison,  K. Nanda,  F. Plasser,  D. R. Rehn,  
 M. L. Vidal,  Zhi-Qiang You,  Ying Zhu,  B. Alam,  B. Albrecht,  
 A. Aldossary,  E. Alguire,  J. H. Andersen,  D. Barton,  K. Begam,  A. Behn,  
 Y. A. Bernard,  E. J. Berquist,  H. Burton,  A. Carreras,  K. Carter-Fenk,  
 R. Chakraborty,  A. D. Chien,  K. D. Closser,  V. Cofer-Shabica,  
 S. Dasgupta,  Jia Deng,  M. de Wergifosse,  M. Diedenhofen,  Hainam Do,  
 S. Ehlert,  Po-Tung Fang,  S. Fatehi,  Qingguo Feng,  T. Friedhoff,  
 J. Gayvert,  Qinghui Ge,  G. Gidofalvi,  M. Goldey,  J. Gomes,  
 C. Gonzalez-Espinoza,  S. Gulania,  A. Gunina,  M. W. D. Hanson-Heine,  
 P. H. P. Harbach,  A. W. Hauser,  M. F. Herbst,  M. Hernandez Vera,  
 M. Hodecker,  Z. C. Holden,  S. Houck,  Xunkun Huang,  Kerwin Hui,  
 B. C. Huynh,  M. Ivanov,  Hyunjun Ji,  Hanjie Jiang,  B. Kaduk,  S. Kaehler,  
 K. Khistyaev,  Jaehoon Kim,  P. Klunzinger,  Z. Koczor-Benda,  
 Joong Hoon Koh,  D. Kosenkov,  L. Koulias,  T. Kowalczyk,  C. M. Krauter,  
 K. Kue,  A. Kunitsa,  T. Kus,  A. Landau,  K. V. Lawler,  D. Lefrancois,  
 S. Lehtola,  Rain Li,  Yi-Pei Li,  Jiashu Liang,  M. Liebenthal,  
 Hung-Hsuan Lin,  You-Sheng Lin,  Fenglai Liu,  Kuan-Yu Liu,  
 M. Loipersberger,  A. Luenser,  A. Manjanath,  P. Manohar,  E. Mansoor,  
 S. F. Manzer,  Shan-Ping Mao,  A. V. Marenich,  T. Markovich,  S. Mason,  
 S. A. Maurer,  P. F. McLaughlin,  M. F. S. J. Menger,  J.-M. Mewes,  
 S. A. Mewes,  P. Morgante,  J. W. Mullinax,  K. J. Oosterbaan,  G. Paran,  
 Alexander C. Paul,  Suranjan K. Paul,  F. Pavosevic,  Zheng Pei,  S. Prager,  
 E. I. Proynov,  E. Ramos,  B. Rana,  A. E. Rask,  A. Rettig,  R. M. Richard,  
 F. Rob,  E. Rossomme,  T. Scheele,  M. Scheurer,  M. Schneider,  
 N. Sergueev,  S. M. Sharada,  W. Skomorowski,  D. W. Small,  C. J. Stein,  
 Yu-Chuan Su,  E. J. Sundstrom,  Zhen Tao,  J. Thirman,  T. Tsuchimochi,  
 N. M. Tubman,  S. P. Veccham,  O. Vydrov,  J. Wenzel,  J. Witte,  A. Yamada,  
 Kun Yao,  S. Yeganeh,  S. R. Yost,  A. Zech,  Igor Ying Zhang,  Xing Zhang,  
 Yu Zhang,  D. Zuev,  A. Aspuru-Guzik,  A. T. Bell,  N. A. Besley,  
 K. B. Bravaya,  B. R. Brooks,  D. Casanova,  Jeng-Da Chai,  S. Coriani,  
 C. J. Cramer,  A. E. DePrince, III,  R. A. DiStasio Jr.,  A. Dreuw,  
 B. D. Dunietz,  T. R. Furlani,  W. A. Goddard III,  S. Grimme,  
 S. Hammes-Schiffer,  T. Head-Gordon,  W. J. Hehre,  Chao-Ping Hsu,  
 T.-C. Jagau,  Yousung Jung,  A. Klamt,  Jing Kong,  D. S. Lambrecht,  
 WanZhen Liang,  N. J. Mayhall,  C. W. McCurdy,  J. B. Neaton,  
 C. Ochsenfeld,  J. A. Parkhill,  R. Peverati,  V. A. Rassolov,  Yihan Shao,  
 L. V. Slipchenko,  T. Stauch,  R. P. Steele,  J. E. Subotnik,  
 A. J. W. Thom,  A. Tkatchenko,  D. G. Truhlar,  T. Van Voorhis,  
 T. A. Wesolowski,  K. B. Whaley,  H. L. Woodcock III,  P. M. Zimmerman,  
 S. Faraji,  P. M. W. Gill,  M. Head-Gordon,  J. M. Herbert,  A. I. Krylov

 Additional authors for Version 5.4.1: 
 S. Kotaru,  Shaozhi Li,  Xiangyuan Li,  F. Matz,  A. Molle,  Haisheng Ren,  
 Yingli Su,  Hung-Yi Tsai,  C. Utku,  Fang Wang

 Contributors to earlier versions of Q-Chem not listed above: 
 R. D. Adamson,  B. Austin,  R. Baer,  J. Baker,  G. J. O. Beran,  
 K. Brandhorst,  S. T. Brown,  E. F. C. Byrd,  A. K. Chakraborty,  
 G. K. L. Chan,  Chun-Min Chang,  Yunqing Chen,  C.-L. Cheng,  
 Siu Hung Chien,  D. M. Chipman,  D. L. Crittenden,  H. Dachsel,  
 R. J. Doerksen,  A. D. Dutoi,  R. G. Edgar,  J. Fosso-Tande,  
 L. Fusti-Molnar,  D. Ghosh,  A. Ghysels,  A. Golubeva-Zadorozhnaya,  
 J. Gonthier,  M. S. Gordon,  S. R. Gwaltney,  G. Hawkins,  J. E. Herr,  
 A. Heyden,  S. Hirata,  E. G. Hohenstein,  G. Kedziora,  F. J. Keil,  
 C. Kelley,  Jihan Kim,  R. A. King,  R. Z. Khaliullin,  P. P. Korambath,  
 W. Kurlancheek,  A. Laurent,  A. M. Lee,  M. S. Lee,  S. V. Levchenko,  
 Ching Yeh Lin,  D. Liotard,  E. Livshits,  R. C. Lochan,  I. Lotan,  
 L. A. Martinez-Martinez,  P. E. Maslen,  N. Nair,  D. P. O'Neill,  
 D. Neuhauser,  E. Neuscamman,  C. M. Oana,  R. Olivares-Amaya,  R. Olson,  
 T. M. Perrine,  B. Peters,  P. A. Pieniazek,  A. Prociuk,  Y. M. Rhee,  
 J. Ritchie,  M. A. Rohrdanz,  E. Rosta,  N. J. Russ,  H. F. Schaefer III,  
 M. W. Schmidt,  N. E. Schultz,  S. Sharma,  N. Shenvi,  C. D. Sherrill,  
 A. C. Simmonett,  A. Sodt,  T. Stein,  D. Stuck,  K. S. Thanthiriwatte,  
 V. Vanovschi,  L. Vogt,  Tao Wang,  A. Warshel,  M. A. Watson,  
 C. F. Williams,  Q. Wu,  X. Xu,  Jun Yang,  W. Zhang,  Yan Zhao

 Please cite Q-Chem as follows:
 Y. Shao et al., Mol. Phys. 113, 184-215 (2015)
 DOI: 10.1080/00268976.2014.952696

 Q-Chem 5.4.1 for Intel X86 EM64T Linux

 Parts of Q-Chem use Armadillo 9.800.1 (Horizon Scraper).
 http://arma.sourceforge.net/

 Q-Chem begins on Tue May 14 10:02:38 2024  

 Host: 
0

     Scratch files written to /scratch/ari.fischer/qChem2100611.hpc-mn1/qchem243248//
 Aug1521 |scratch|qcdevops|jenkins|workspace|build_RNUM 8249   
 Processing $rem in /usr/local/qchem-5.4.1/config/preferences:
 Processing $rem in /home/ari.fischer/.qchemrc:
 Symmetry turned off for PCM/SM12/SMD calculation


!!********************************************.
!!******************Warning*******************.
!!Desired Analytical derivatives not available.
!!Finite difference job might take a long time.
!!********************************************.
!!********************************************.


 2-order derivative to be evaluated numerically with 1-order analytical derivatives

 Checking the input file for inconsistencies... 	...done.

--------------------------------------------------------------
User input:
--------------------------------------------------------------
$molecule
0 2
H         0.4686272599    0.9877722568    1.6190427441
C        -0.1383583658    1.1728668353    0.7432881650
C        -1.2257957339    1.9304152358    0.8008345553
H        -1.5453064429    2.4091435659    1.7174736264
C        -2.0605262533    2.1799781691   -0.4309188698
H        -3.1156323372    1.9065597052   -0.2271840595
C        -1.6093021139    1.3060229145   -1.6131825167
H        -2.1607828448    1.5425610367   -2.5194981005
C        -0.0897682055    1.4007382306   -1.7466454656
H         0.2472092991    0.9340344117   -2.6708688834
C         0.2539379394    0.5175229634   -0.5550661800
H         1.2735996334    0.1428130183   -0.5641161649
O         0.4164405662    2.7068847227   -1.6083764749
H         0.2864741789    3.1702682961   -2.4436478262
O        -1.8386476548   -0.0682083285   -1.3072658057
O        -0.5709406614   -0.6223230728   -0.8215539213
O        -2.1486793635    3.5106926389   -0.7683237223
$end

$rem
BASIS = 6-311++G(2df,2p)
GUI = 2
JOB_TYPE = Frequency
METHOD = wB97M-V
SOLVENT_METHOD = SMD
SCF_ALGORITHM = DIIS_GDM
MAX_SCF_CYCLES = 400
SCF_CONVERGENCE = 7
THRESH = 12
$end
--------------------------------------------------------------
 ----------------------------------------------------------------
             Standard Nuclear Orientation (Angstroms)
    I     Atom           X                Y                Z
 ----------------------------------------------------------------
    1      H       0.4686272599     0.9877722568     1.6190427441
    2      C      -0.1383583658     1.1728668353     0.7432881650
    3      C      -1.2257957339     1.9304152358     0.8008345553
    4      H      -1.5453064429     2.4091435659     1.7174736264
    5      C      -2.0605262533     2.1799781691    -0.4309188698
    6      H      -3.1156323372     1.9065597052    -0.2271840595
    7      C      -1.6093021139     1.3060229145    -1.6131825167
    8      H      -2.1607828448     1.5425610367    -2.5194981005
    9      C      -0.0897682055     1.4007382306    -1.7466454656
   10      H       0.2472092991     0.9340344117    -2.6708688834
   11      C       0.2539379394     0.5175229634    -0.5550661800
   12      H       1.2735996334     0.1428130183    -0.5641161649
   13      O       0.4164405662     2.7068847227    -1.6083764749
   14      H       0.2864741789     3.1702682961    -2.4436478262
   15      O      -1.8386476548    -0.0682083285    -1.3072658057
   16      O      -0.5709406614    -0.6223230728    -0.8215539213
   17      O      -2.1486793635     3.5106926389    -0.7683237223
 ----------------------------------------------------------------
 Nuclear Repulsion Energy =         578.34037746 hartrees
 There are       38 alpha and       37 beta electrons
 Requested basis set is 6-311++G(2df,2p)
 There are 122 shells and 410 basis functions

 Total QAlloc Memory Limit 288000 MB
 Mega-Array Size       188 MB
 MEM_STATIC part       192 MB
 
 Citation of the SMD model:
 Marenich, A.V.; Cramer, C.J.; Truhlar, D.G.
 J. Phys. Chem. B 2009, 113, 6378-6396.
 iSolventCode=           1
 Solvent: water                                                           
 
 vradii
            1           2           3           4           5           6
    1   1.2000000   1.8500000   1.8500000   1.2000000   1.8500000   1.2000000
            7           8           9          10          11          12
    1   1.8500000   1.2000000   1.8500000   1.2000000   1.8500000   1.2000000
           13          14          15          16          17
    1   1.5200000   1.2000000   1.5200000   1.5200000   1.5200000
 Changing PCM_VDW_RADII to SMD_RADIUS
 Discretize the solute cavity surface with Lebedev spheres
	Using 110 Lebedev grid points for each H atom
	Using 194 Lebedev grid points for other atoms
	Atomic van der Waals radii will be scaled by 1.20
 Remove points where switching function is < 1.0e-08
 Keep 1252 surface tesserae and discard 1458 interior tesserae
 Molecular Surface Area = 143.274 Angst**2
 A cutoff of  1.0D-12 yielded   7025 shell pairs
 There are     80462 function pairs (    101364 Cartesian)
 Smallest overlap matrix eigenvalue = 3.81E-06
 Guess from superposition of atomic densities
 Warning:  Energy on first SCF cycle will be non-variational
 SAD guess density has 75.000000 electrons

 -----------------------------------------------------------------------
  General SCF calculation program by
  Eric Jon Sundstrom, Paul Horn, Yuezhi Mao, Dmitri Zuev, Alec White,
  David Stuck, Shaama M.S., Shane Yost, Joonho Lee, David Small,
  Daniel Levine, Susi Lehtola, Hugh Burton, Evgeny Epifanovsky,
  Bang C. Huynh
 -----------------------------------------------------------------------
 Exchange:     0.1500 Hartree-Fock + 1.0000 wB97M-V + LR-HF
 Correlation:  1.0000 wB97M-V
 Using SG-2 standard quadrature grid
 Nonlocal Correlation:  VV10 with C = 0.0100 and b = 6.00 and scale = 1.00000
 Grid used for NLC:  SG-1 standard quadrature
 using 16 threads for integral computing
 -------------------------------------------------------
 OpenMP Integral computing Module                
 Release: version 1.0, May 2013, Q-Chem Inc. Pittsburgh 
 -------------------------------------------------------
 
 Citation of the SMD model:
 Marenich, A.V.; Cramer, C.J.; Truhlar, D.G.
 J. Phys. Chem. B 2009, 113, 6378-6396.
 iSolventCode=           1
 Solvent: water                                                           
 
 vradii
            1           2           3           4           5           6
    1   1.2000000   1.8500000   1.8500000   1.2000000   1.8500000   1.2000000
            7           8           9          10          11          12
    1   1.8500000   1.2000000   1.8500000   1.2000000   1.8500000   1.2000000
           13          14          15          16          17
    1   1.5200000   1.2000000   1.5200000   1.5200000   1.5200000
 -------------------------------------------------------
 OpenMP BLAS3 based DFT computing Module                
 Release: version 1.0, May 2013, Q-Chem Inc. Pittsburgh 
 -------------------------------------------------------
 A unrestricted SCF calculation will be
 performed using DIIS, GDM
 SCF converges when RMS gradient is below 1.0e-07
 ---------------------------------------
  Cycle       Energy         DIIS error
 ---------------------------------------
    1    -536.2303730502      1.24e-02  
    2    -533.3077202284      1.71e-03  Done DIIS. Switching to GDM
 ---------------------------------------
  Cycle       Energy        RMS Gradient
 ---------------------------------------
    1    -533.3077202284      5.17e-01   Descent step
    2    -533.5036349613      5.67e-02   Normal BFGS step
    3    -533.5426905440      8.20e-02   Normal BFGS step
    4    -533.5598947167      3.15e-02   Normal BFGS step
    5    -533.5665899232      1.38e-02   Normal BFGS step
    6    -533.5689196151      1.22e-02   Normal BFGS step
    7    -533.5696149078      1.09e-02   Normal BFGS step
    8    -533.5700055107      9.27e-03   Normal BFGS step
    9    -533.5704000730      7.20e-03   Normal BFGS step
   10    -533.5709564173      6.78e-03   Normal BFGS step
   11    -533.5716272294      6.74e-03   Normal BFGS step
   12    -533.5722071636      5.36e-03   Normal BFGS step
   13    -533.5724945725      1.92e-03   Normal BFGS step
   14    -533.5725405465      7.46e-04   Normal BFGS step
   15    -533.5725496092      4.05e-04   Normal BFGS step
   16    -533.5725520329      2.47e-04   Normal BFGS step
   17    -533.5725526527      8.94e-05   Normal BFGS step
   18    -533.5725528020      5.33e-05   Normal BFGS step
   19    -533.5725528432      3.21e-05   Normal BFGS step
   20    -533.5725528517      1.71e-05   Normal BFGS step
   21    -533.5725528532      5.09e-06   Normal BFGS step
   22    -533.5725528536      2.17e-06   Normal BFGS step
   23    -533.5725528536      7.86e-07   Normal BFGS step
   24    -533.5725528537      6.39e-07   Normal BFGS step
   25    -533.5725528537      3.58e-07   Normal BFGS step
   26    -533.5725528537      1.47e-07   Normal BFGS step
   27    -533.5725528537      4.39e-08  Convergence criterion met
 ---------------------------------------
 SCF time:   CPU 3293.34s  wall 223.00s 
<S^2> =          0.754305725
(3)  G-ENP(liq) elect-nuc-pol free energy of system     -533.572552854 a.u.
(4)  G-CDS(liq) cavity-dispersion-solvent structure 
     free energy                                                2.3829 kcal/mol
(6)  G-S(liq) free energy of system                     -533.568755452 a.u.
 SCF   energy in the final basis set =     -533.5687554522
 Total energy in the final basis set =     -533.5687554522
 
 --------------------------------------------------------------
 
                    Orbital Energies (a.u.)
 --------------------------------------------------------------
 
 Alpha MOs
 -- Occupied --
-19.4053 -19.4050 -19.3918 -19.3535 -10.4113 -10.4092 -10.4088 -10.4086
-10.3534 -10.3495  -1.2752  -1.1808  -1.1675  -1.0708  -0.9628  -0.8826
 -0.8299  -0.7582  -0.7279  -0.6885  -0.6667  -0.6327  -0.6086  -0.5843
 -0.5715  -0.5607  -0.5522  -0.5405  -0.5157  -0.4952  -0.4909  -0.4672
 -0.4548  -0.4398  -0.4028  -0.3947  -0.3674  -0.3602
 -- Virtual --
  0.0248   0.0361   0.0378   0.0450   0.0521   0.0575   0.0604   0.0786
  0.0852   0.0936   0.1089   0.1153   0.1314   0.1341   0.1369   0.1400
  0.1434   0.1487   0.1504   0.1546   0.1591   0.1622   0.1730   0.1742
  0.1845   0.1883   0.1937   0.1987   0.2050   0.2251   0.2301   0.2366
  0.2409   0.2501   0.2706   0.2750   0.2891   0.2923   0.2978   0.3155
  0.3191   0.3216   0.3285   0.3366   0.3417   0.3577   0.3601   0.3657
  0.3709   0.3723   0.3817   0.3833   0.3889   0.3955   0.4022   0.4030
  0.4109   0.4206   0.4298   0.4351   0.4504   0.4699   0.4713   0.4921
  0.5037   0.5170   0.5462   0.5499   0.5867   0.5918   0.6042   0.6176
  0.6237   0.6378   0.6445   0.6655   0.6809   0.6879   0.6993   0.7036
  0.7124   0.7204   0.7338   0.7344   0.7450   0.7549   0.7610   0.7719
  0.7822   0.8117   0.8136   0.8328   0.8390   0.8444   0.8670   0.9044
  0.9113   0.9323   0.9778   0.9848   1.0182   1.0327   1.0547   1.0761
  1.0971   1.1143   1.1205   1.1303   1.1387   1.1522   1.1661   1.1732
  1.1797   1.1990   1.2040   1.2123   1.2191   1.2309   1.2402   1.2575
  1.2665   1.2761   1.2824   1.3012   1.3166   1.3282   1.3355   1.3396
  1.3434   1.3726   1.3799   1.3912   1.3957   1.4103   1.4179   1.4247
  1.4578   1.4660   1.4707   1.4844   1.5045   1.5170   1.5292   1.5423
  1.5648   1.5758   1.5868   1.5879   1.6106   1.6161   1.6552   1.6826
  1.7077   1.7221   1.7490   1.7646   1.7764   1.8011   1.8254   1.8465
  1.8612   1.8717   1.9006   1.9446   1.9546   1.9884   2.0264   2.0377
  2.0659   2.0995   2.1231   2.1472   2.1872   2.2240   2.2653   2.2811
  2.3253   2.3428   2.3780   2.4254   2.4419   2.4664   2.5566   2.6440
  2.6587   2.7129   2.7386   2.7502   2.7615   2.7868   2.8025   2.8227
  2.8438   2.8474   2.8773   2.8826   2.9013   2.9341   2.9513   2.9577
  2.9674   2.9947   3.0046   3.0379   3.0435   3.0593   3.0656   3.1017
  3.1455   3.1645   3.1800   3.2252   3.2623   3.2737   3.2967   3.3099
  3.3469   3.3603   3.3902   3.4000   3.4096   3.4212   3.4690   3.4753
  3.4876   3.5063   3.5182   3.5277   3.5521   3.5904   3.6051   3.6167
  3.6374   3.6617   3.6755   3.6950   3.7099   3.7182   3.7417   3.7474
  3.7663   3.7806   3.7913   3.8080   3.8234   3.8489   3.8544   3.8864
  3.8995   3.9105   3.9312   3.9446   3.9602   3.9986   4.0115   4.0326
  4.0552   4.0621   4.0792   4.1152   4.1433   4.1768   4.2078   4.2128
  4.2494   4.2850   4.2918   4.3076   4.3339   4.3517   4.3560   4.3808
  4.3951   4.4245   4.4371   4.4639   4.4887   4.4959   4.5333   4.5621
  4.5859   4.5968   4.6282   4.6391   4.6849   4.7042   4.7148   4.7321
  4.7619   4.8050   4.8242   4.8749   4.9572   5.0063   5.0536   5.0769
  5.1175   5.1326   5.1968   5.2101   5.2532   5.2796   5.2855   5.3034
  5.3105   5.3214   5.3389   5.3605   5.3818   5.3957   5.4114   5.4500
  5.4689   5.4854   5.5071   5.5244   5.5500   5.5755   5.5894   5.6139
  5.6178   5.6670   5.7042   5.7395   5.7665   5.7989   5.8272   5.8874
  5.9498   5.9535   5.9773   6.0354   6.0618   6.0913   6.1667   6.2662
  6.6348   6.6487   6.7049   6.7350   6.7980   6.9108   6.9573   7.0205
  7.1220   7.2954   7.3136   7.3226   7.3817   7.3830   7.3889   7.4346
  7.4607   7.4663   7.5374   7.6270   7.7168   7.7242   7.8389   7.8926
  7.9423   8.2327  24.3685  24.6987  24.7900  24.8292  24.8494  25.2327
 50.5428  50.5899  50.6505  50.6594
 
 Beta MOs
 -- Occupied --
-19.4053 -19.4050 -19.3695 -19.3528 -10.4116 -10.4091 -10.4085 -10.4081
-10.3530 -10.3495  -1.2752  -1.1761  -1.1240  -1.0700  -0.9587  -0.8817
 -0.8204  -0.7572  -0.7223  -0.6871  -0.6622  -0.6273  -0.5938  -0.5780
 -0.5665  -0.5485  -0.5418  -0.5351  -0.5063  -0.4926  -0.4805  -0.4587
 -0.4423  -0.4080  -0.3862  -0.3661  -0.3607
 -- Virtual --
 -0.0605   0.0249   0.0362   0.0379   0.0454   0.0529   0.0576   0.0605
  0.0790   0.0856   0.0946   0.1096   0.1159   0.1316   0.1346   0.1373
  0.1410   0.1437   0.1502   0.1508   0.1549   0.1594   0.1625   0.1735
  0.1746   0.1847   0.1885   0.1938   0.1994   0.2056   0.2255   0.2302
  0.2375   0.2416   0.2506   0.2711   0.2769   0.2900   0.2938   0.2988
  0.3166   0.3205   0.3236   0.3334   0.3393   0.3424   0.3591   0.3605
  0.3686   0.3719   0.3741   0.3828   0.3850   0.3890   0.3966   0.4024
  0.4056   0.4121   0.4215   0.4324   0.4357   0.4523   0.4725   0.4728
  0.4930   0.5053   0.5189   0.5471   0.5506   0.5872   0.5934   0.6053
  0.6183   0.6283   0.6389   0.6458   0.6665   0.6832   0.6934   0.7007
  0.7039   0.7128   0.7209   0.7348   0.7366   0.7459   0.7554   0.7631
  0.7727   0.7825   0.8122   0.8140   0.8337   0.8402   0.8446   0.8682
  0.9047   0.9132   0.9330   0.9786   0.9864   1.0196   1.0340   1.0556
  1.0770   1.0982   1.1159   1.1216   1.1313   1.1413   1.1552   1.1720
  1.1747   1.1829   1.2004   1.2066   1.2201   1.2214   1.2355   1.2435
  1.2631   1.2698   1.2783   1.2833   1.3044   1.3183   1.3330   1.3370
  1.3423   1.3466   1.3771   1.3818   1.3930   1.4015   1.4118   1.4199
  1.4263   1.4601   1.4694   1.4747   1.4875   1.5066   1.5207   1.5328
  1.5443   1.5661   1.5773   1.5885   1.5899   1.6176   1.6210   1.6602
  1.6853   1.7098   1.7269   1.7516   1.7656   1.7833   1.8034   1.8371
  1.8530   1.8650   1.8783   1.9122   1.9537   1.9602   1.9912   2.0288
  2.0456   2.0764   2.1022   2.1246   2.1476   2.1907   2.2300   2.2674
  2.2837   2.3267   2.3537   2.3800   2.4264   2.4443   2.4781   2.5608
  2.6460   2.6666   2.7141   2.7394   2.7513   2.7625   2.7876   2.8049
  2.8239   2.8446   2.8497   2.8804   2.8836   2.9020   2.9353   2.9537
  2.9606   2.9694   2.9954   3.0055   3.0386   3.0449   3.0604   3.0668
  3.1034   3.1473   3.1649   3.1817   3.2264   3.2634   3.2740   3.2982
  3.3111   3.3483   3.3621   3.3910   3.4010   3.4110   3.4231   3.4706
  3.4762   3.4895   3.5074   3.5190   3.5292   3.5532   3.5956   3.6062
  3.6172   3.6392   3.6626   3.6766   3.6955   3.7123   3.7191   3.7426
  3.7488   3.7683   3.7817   3.7924   3.8105   3.8253   3.8504   3.8558
  3.8888   3.9009   3.9117   3.9324   3.9461   3.9620   4.0034   4.0146
  4.0344   4.0583   4.0631   4.0800   4.1169   4.1443   4.1786   4.2090
  4.2149   4.2509   4.2875   4.2935   4.3137   4.3366   4.3549   4.3594
  4.3834   4.3971   4.4268   4.4416   4.4668   4.4902   4.5008   4.5401
  4.5646   4.5882   4.6011   4.6304   4.6400   4.6863   4.7050   4.7173
  4.7352   4.7638   4.8082   4.8259   4.8774   4.9589   5.0095   5.0568
  5.0808   5.1766   5.1976   5.2098   5.2577   5.2760   5.2831   5.2945
  5.3116   5.3241   5.3360   5.3475   5.3789   5.3963   5.4245   5.4314
  5.4634   5.4787   5.4965   5.5166   5.5281   5.5664   5.5816   5.5966
  5.6187   5.6207   5.6687   5.7062   5.7417   5.7686   5.8023   5.8284
  5.8899   5.9527   5.9787   5.9965   6.0367   6.0704   6.1008   6.1709
  6.2666   6.6349   6.6503   6.7151   6.7356   6.8144   7.0076   7.0234
  7.0632   7.1262   7.2964   7.3196   7.3308   7.3878   7.4070   7.4359
  7.4465   7.4667   7.4909   7.5406   7.6271   7.7225   7.7658   7.8399
  7.8933   7.9424   8.2328  24.3686  24.6989  24.7900  24.8292  24.8495
 25.2329  50.5575  50.5899  50.6507  50.6605
 --------------------------------------------------------------
 
          Ground-State Mulliken Net Atomic Charges

     Atom                 Charge (a.u.)    Spin (a.u.)
  --------------------------------------------------------
      1 H                     0.302790       0.002091
      2 C                    -0.286330       0.000639
      3 C                    -0.128935      -0.005070
      4 H                     0.298548      -0.001216
      5 C                    -0.325104       0.039736
      6 H                     0.287687       0.092926
      7 C                    -0.234217      -0.002224
      8 H                     0.285946      -0.001904
      9 C                    -0.061488       0.008237
     10 H                     0.291221       0.002995
     11 C                    -0.142769       0.001394
     12 H                     0.277265      -0.000080
     13 O                    -0.410493       0.013891
     14 H                     0.346689      -0.001397
     15 O                    -0.130310       0.001717
     16 O                    -0.146082      -0.000429
     17 O                    -0.224419       0.848693
  --------------------------------------------------------
  Sum of atomic charges =     0.000000
  Sum of spin   charges =     1.000000

 -----------------------------------------------------------------
                    Cartesian Multipole Moments
 -----------------------------------------------------------------
    Charge (ESU x 10^10)
                 0.0000
    Dipole Moment (Debye)
         X       1.1896      Y       0.6037      Z      -1.4945
       Tot       2.0033
    Quadrupole Moments (Debye-Ang)
        XX     -55.9365     XY      -1.7760     YY     -71.4867
        XZ      -1.4309     YZ      -5.9527     ZZ     -45.0402
    Octopole Moments (Debye-Ang^2)
       XXX     141.7494    XXY     -81.8328    XYY      71.7007
       YYY    -304.6700    XXZ      45.5661    XYZ      -2.5775
       YYZ      35.3383    XZZ      49.7635    YZZ     -47.5787
       ZZZ      93.1189
    Hexadecapole Moments (Debye-Ang^3)
      XXXX    -619.7076   XXXY     238.7286   XXYY    -374.8626
      XYYY     384.7724   YYYY   -1494.3049   XXXZ    -106.8514
      XXYZ      69.1796   XYYZ     -68.3046   YYYZ     152.1409
      XXZZ    -200.5913   XYZZ      80.0202   YYZZ    -222.2056
      XZZZ    -100.0040   YZZZ      85.6728   ZZZZ    -449.4429
 -----------------------------------------------------------------
 Calculating analytic gradient of the SCF energy
 Gradient of CDS energy
            1           2           3           4           5           6
    1   0.0001127   0.0002242  -0.0001444  -0.0000629  -0.0005846  -0.0002133
    2  -0.0000344  -0.0000799   0.0001518   0.0000912   0.0071241  -0.0000755
    3   0.0001626   0.0003165   0.0003051   0.0001696  -0.0019312   0.0000250
            7           8           9          10          11          12
    1  -0.0001326  -0.0001277   0.0008605   0.0000117   0.0001197   0.0001778
    2  -0.0002091   0.0000566   0.0018278  -0.0001785  -0.0002692  -0.0001248
    3  -0.0000825  -0.0001548   0.0001141  -0.0001421  -0.0001730  -0.0000077
           13          14          15          16          17
    1  -0.0008969   0.0002534   0.0000814  -0.0000904   0.0004115
    2  -0.0018254   0.0003737  -0.0000352   0.0000358  -0.0068290
    3  -0.0000630  -0.0002733   0.0000625  -0.0000749   0.0017469
 Gradient of SCF Energy
            1           2           3           4           5           6
    1   0.0036485  -0.0013488   0.0013560  -0.0017581   0.0079327  -0.0071253
    2  -0.0011517   0.0059724  -0.0075295   0.0013890   0.0082744  -0.0012382
    3   0.0046636  -0.0039455  -0.0043965   0.0040655  -0.0023045   0.0012668
            7           8           9          10          11          12
    1   0.0047386  -0.0046758  -0.0024635   0.0037840  -0.0116168   0.0080300
    2  -0.0079576   0.0026489   0.0079238  -0.0026660  -0.0029526  -0.0025623
    3   0.0083766  -0.0089007   0.0106121  -0.0104199  -0.0011633   0.0001174
           13          14          15          16          17
    1   0.0035149  -0.0024850  -0.0018168   0.0004569  -0.0001714
    2  -0.0032414   0.0049902  -0.0021899  -0.0024828   0.0027734
    3   0.0175309  -0.0160183   0.0004277  -0.0003789   0.0004669
 Max gradient component =       1.753E-02
 RMS gradient           =       5.960E-03
 Computing fast CPCM-SWIG gradient
 Updating gradient with PCM contributions...
 -- total gradient after adding PCM contribution --
---------------------------------------------------
  Atom         X              Y              Z     
---------------------------------------------------
   1      -0.000005       0.000005       0.000008
   2       0.000025       0.000008      -0.000012
   3       0.000023      -0.000035       0.000040
   4      -0.000003       0.000032      -0.000006
   5      -0.000013       0.000288      -0.000101
   6      -0.000022      -0.000040       0.000018
   7       0.000047      -0.000025      -0.000018
   8      -0.000027       0.000000      -0.000008
   9      -0.000041       0.000006      -0.000010
  10       0.000025      -0.000022       0.000006
  11      -0.000027       0.000034       0.000046
  12       0.000005      -0.000023       0.000013
  13       0.000039      -0.000037       0.000068
  14      -0.000037       0.000026      -0.000076
  15      -0.000094       0.000036      -0.000026
  16       0.000084      -0.000056       0.000017
  17       0.000019      -0.000197       0.000042
---------------------------------------------------
 Number of fixed atoms: 0
 Gradient time:  CPU 364.46 s  wall 28.84 s
 ######################################################
 ######################################################
 # Starting finite difference calculation for IDERIV  #
 Finite diff step size:  1.88973e-03 a.u.
 ----------------------------------------------------------------
             Standard Nuclear Orientation (Angstroms)
    I     Atom           X                Y                Z
 ----------------------------------------------------------------
    1      H       0.4696272599     0.9877722568     1.6190427441
    2      C      -0.1383583658     1.1728668353     0.7432881650
    3      C      -1.2257957339     1.9304152358     0.8008345553
    4      H      -1.5453064429     2.4091435659     1.7174736264
    5      C      -2.0605262533     2.1799781691    -0.4309188698
    6      H      -3.1156323372     1.9065597052    -0.2271840595
    7      C      -1.6093021139     1.3060229145    -1.6131825167
    8      H      -2.1607828448     1.5425610367    -2.5194981005
    9      C      -0.0897682055     1.4007382306    -1.7466454656
   10      H       0.2472092991     0.9340344117    -2.6708688834
   11      C       0.2539379394     0.5175229634    -0.5550661800
   12      H       1.2735996334     0.1428130183    -0.5641161649
   13      O       0.4164405662     2.7068847227    -1.6083764749
   14      H       0.2864741789     3.1702682961    -2.4436478262
   15      O      -1.8386476548    -0.0682083285    -1.3072658057
   16      O      -0.5709406614    -0.6223230728    -0.8215539213
   17      O      -2.1486793635     3.5106926389    -0.7683237223
 ----------------------------------------------------------------
 Nuclear Repulsion Energy =         578.33732571 hartrees
 There are       38 alpha and       37 beta electrons
 Discretize the solute cavity surface with Lebedev spheres
	Using 110 Lebedev grid points for each H atom
	Using 194 Lebedev grid points for other atoms
	Atomic van der Waals radii will be scaled by 1.20
 Remove points where switching function is < 1.0e-08
 Keep 1252 surface tesserae and discard 1458 interior tesserae
 Molecular Surface Area = 143.277 Angst**2
 Requested basis set is 6-311++G(2df,2p)
 There are 122 shells and 410 basis functions
 A cutoff of  1.0D-12 yielded   7025 shell pairs
 There are     80462 function pairs (    101364 Cartesian)
 Smallest overlap matrix eigenvalue = 3.81E-06
 Guess MOs from SCF MO coefficient file

 -----------------------------------------------------------------------
  General SCF calculation program by
  Eric Jon Sundstrom, Paul Horn, Yuezhi Mao, Dmitri Zuev, Alec White,
  David Stuck, Shaama M.S., Shane Yost, Joonho Lee, David Small,
  Daniel Levine, Susi Lehtola, Hugh Burton, Evgeny Epifanovsky,
  Bang C. Huynh
 -----------------------------------------------------------------------
 Exchange:     0.1500 Hartree-Fock + 1.0000 wB97M-V + LR-HF
 Correlation:  1.0000 wB97M-V
 Using SG-2 standard quadrature grid
 Nonlocal Correlation:  VV10 with C = 0.0100 and b = 6.00 and scale = 1.00000
 Grid used for NLC:  SG-1 standard quadrature
 
 Citation of the SMD model:
 Marenich, A.V.; Cramer, C.J.; Truhlar, D.G.
 J. Phys. Chem. B 2009, 113, 6378-6396.
 iSolventCode=           1
 Solvent: water                                                           
 
 vradii
            1           2           3           4           5           6
    1   1.2000000   1.8500000   1.8500000   1.2000000   1.8500000   1.2000000
            7           8           9          10          11          12
    1   1.8500000   1.2000000   1.8500000   1.2000000   1.8500000   1.2000000
           13          14          15          16          17
    1   1.5200000   1.2000000   1.5200000   1.5200000   1.5200000
 -------------------------------------------------------
 OpenMP BLAS3 based DFT computing Module                
 Release: version 1.0, May 2013, Q-Chem Inc. Pittsburgh 
 -------------------------------------------------------
 A unrestricted SCF calculation will be
 performed using Roothaan-Hall, DIIS, GDM
 SCF converges when RMS gradient is below 1.0e-07
 ---------------------------------------
  Cycle       Energy         DIIS error
 ---------------------------------------
    1    -533.5388938307      1.98e-04  Roothaan Step
 ---------------------------------------
  Cycle       Energy         DIIS error
 ---------------------------------------
    1    -533.5664599830      2.18e-04  
    2    -533.5708945169      1.62e-04  Done DIIS. Switching to GDM
 ---------------------------------------
  Cycle       Energy        RMS Gradient
 ---------------------------------------
    1    -533.5708945169      5.10e-03   Normal BFGS step
    2    -533.5712001090      5.70e-03   Normal BFGS step
    3    -533.5725280050      8.23e-04   Normal BFGS step
    4    -533.5725432268      4.38e-04   Normal BFGS step
    5    -533.5725516622      2.51e-04   Normal BFGS step
    6    -533.5725520823      1.80e-04   Normal BFGS step
    7    -533.5725526440      1.26e-04   Normal BFGS step
    8    -533.5725527175      7.13e-05   Normal BFGS step
    9    -533.5725527440      4.43e-05   Normal BFGS step
   10    -533.5725527539      4.82e-05   Normal BFGS step
   11    -533.5725527660      4.72e-05   Normal BFGS step
   12    -533.5725527905      3.80e-05   Normal BFGS step
   13    -533.5725528092      2.36e-05   Normal BFGS step
   14    -533.5725528183      1.67e-05   Normal BFGS step
   15    -533.5725528204      9.72e-06   Normal BFGS step
   16    -533.5725528211      4.07e-06   Normal BFGS step
   17    -533.5725528213      2.67e-06   Normal BFGS step
   18    -533.5725528213      8.41e-07   Normal BFGS step
   19    -533.5725528213      5.92e-07   Normal BFGS step
   20    -533.5725528213      1.67e-07   Normal BFGS step
   21    -533.5725528213      1.29e-07   Normal BFGS step
   22    -533.5725528213      6.64e-08  Convergence criterion met
 ---------------------------------------
 SCF time:   CPU 2796.85s  wall 189.00s 
<S^2> =          0.754305844
(3)  G-ENP(liq) elect-nuc-pol free energy of system     -533.572552821 a.u.
(4)  G-CDS(liq) cavity-dispersion-solvent structure 
     free energy                                                2.3830 kcal/mol
(6)  G-S(liq) free energy of system                     -533.568755206 a.u.
 SCF   energy in the final basis set =     -533.5687552063
 Total energy in the final basis set =     -533.5687552063
 
 --------------------------------------------------------------
 
                    Orbital Energies (a.u.)
 --------------------------------------------------------------
 
 Alpha MOs
 -- Occupied --
-19.4053 -19.4050 -19.3918 -19.3535 -10.4113 -10.4092 -10.4088 -10.4086
-10.3534 -10.3495  -1.2752  -1.1808  -1.1675  -1.0708  -0.9628  -0.8826
 -0.8299  -0.7582  -0.7279  -0.6885  -0.6667  -0.6327  -0.6086  -0.5843
 -0.5715  -0.5607  -0.5522  -0.5405  -0.5157  -0.4952  -0.4909  -0.4672
 -0.4548  -0.4398  -0.4028  -0.3946  -0.3674  -0.3602
 -- Virtual --
  0.0248   0.0361   0.0378   0.0450   0.0521   0.0575   0.0604   0.0786
  0.0852   0.0936   0.1089   0.1153   0.1314   0.1341   0.1369   0.1400
  0.1434   0.1487   0.1504   0.1546   0.1591   0.1622   0.1730   0.1742
  0.1845   0.1883   0.1937   0.1987   0.2050   0.2251   0.2301   0.2366
  0.2409   0.2501   0.2706   0.2750   0.2891   0.2923   0.2978   0.3155
  0.3191   0.3216   0.3285   0.3366   0.3417   0.3577   0.3601   0.3657
  0.3708   0.3723   0.3817   0.3833   0.3889   0.3955   0.4022   0.4030
  0.4108   0.4206   0.4298   0.4351   0.4504   0.4699   0.4713   0.4921
  0.5037   0.5170   0.5462   0.5498   0.5867   0.5918   0.6042   0.6176
  0.6237   0.6378   0.6445   0.6655   0.6809   0.6879   0.6993   0.7036
  0.7124   0.7204   0.7338   0.7344   0.7450   0.7549   0.7610   0.7719
  0.7822   0.8117   0.8136   0.8328   0.8390   0.8444   0.8670   0.9044
  0.9113   0.9323   0.9778   0.9848   1.0181   1.0327   1.0547   1.0760
  1.0971   1.1143   1.1205   1.1304   1.1387   1.1522   1.1661   1.1732
  1.1797   1.1990   1.2040   1.2123   1.2191   1.2309   1.2402   1.2575
  1.2665   1.2761   1.2824   1.3011   1.3166   1.3281   1.3355   1.3396
  1.3434   1.3725   1.3799   1.3912   1.3957   1.4103   1.4178   1.4247
  1.4578   1.4659   1.4707   1.4844   1.5045   1.5170   1.5292   1.5422
  1.5647   1.5758   1.5868   1.5879   1.6106   1.6160   1.6552   1.6826
  1.7077   1.7221   1.7490   1.7647   1.7764   1.8010   1.8254   1.8465
  1.8612   1.8717   1.9006   1.9446   1.9546   1.9884   2.0264   2.0377
  2.0659   2.0995   2.1231   2.1472   2.1872   2.2240   2.2653   2.2811
  2.3253   2.3428   2.3780   2.4254   2.4419   2.4664   2.5566   2.6441
  2.6587   2.7130   2.7386   2.7502   2.7616   2.7868   2.8025   2.8226
  2.8438   2.8474   2.8772   2.8826   2.9012   2.9341   2.9513   2.9576
  2.9675   2.9947   3.0045   3.0379   3.0435   3.0593   3.0656   3.1017
  3.1454   3.1644   3.1800   3.2251   3.2622   3.2737   3.2966   3.3099
  3.3469   3.3604   3.3900   3.4000   3.4097   3.4212   3.4689   3.4752
  3.4876   3.5062   3.5182   3.5277   3.5521   3.5904   3.6050   3.6167
  3.6374   3.6616   3.6755   3.6950   3.7098   3.7182   3.7417   3.7473
  3.7663   3.7806   3.7913   3.8080   3.8233   3.8489   3.8543   3.8862
  3.8994   3.9105   3.9312   3.9444   3.9603   3.9986   4.0115   4.0327
  4.0552   4.0621   4.0791   4.1152   4.1432   4.1768   4.2077   4.2128
  4.2493   4.2850   4.2917   4.3076   4.3336   4.3516   4.3560   4.3808
  4.3950   4.4245   4.4371   4.4638   4.4886   4.4959   4.5333   4.5619
  4.5859   4.5967   4.6281   4.6390   4.6848   4.7042   4.7147   4.7320
  4.7619   4.8050   4.8241   4.8748   4.9567   5.0061   5.0535   5.0769
  5.1175   5.1326   5.1968   5.2100   5.2532   5.2795   5.2855   5.3033
  5.3105   5.3214   5.3389   5.3605   5.3818   5.3957   5.4114   5.4500
  5.4689   5.4854   5.5068   5.5243   5.5499   5.5754   5.5891   5.6138
  5.6177   5.6670   5.7041   5.7395   5.7665   5.7989   5.8272   5.8874
  5.9497   5.9535   5.9773   6.0354   6.0614   6.0913   6.1665   6.2662
  6.6348   6.6487   6.7049   6.7350   6.7980   6.9108   6.9573   7.0205
  7.1220   7.2954   7.3136   7.3226   7.3817   7.3830   7.3889   7.4346
  7.4607   7.4663   7.5374   7.6270   7.7168   7.7242   7.8389   7.8926
  7.9423   8.2327  24.3680  24.6987  24.7900  24.8291  24.8494  25.2324
 50.5428  50.5899  50.6505  50.6594
 
 Beta MOs
 -- Occupied --
-19.4053 -19.4050 -19.3695 -19.3528 -10.4116 -10.4091 -10.4085 -10.4081
-10.3530 -10.3496  -1.2752  -1.1761  -1.1240  -1.0700  -0.9587  -0.8817
 -0.8204  -0.7572  -0.7223  -0.6871  -0.6622  -0.6273  -0.5938  -0.5780
 -0.5665  -0.5485  -0.5418  -0.5351  -0.5063  -0.4926  -0.4804  -0.4587
 -0.4423  -0.4080  -0.3861  -0.3661  -0.3607
 -- Virtual --
 -0.0605   0.0249   0.0362   0.0379   0.0454   0.0529   0.0576   0.0605
  0.0790   0.0856   0.0946   0.1096   0.1159   0.1316   0.1346   0.1373
  0.1410   0.1437   0.1502   0.1508   0.1549   0.1594   0.1625   0.1735
  0.1746   0.1847   0.1885   0.1938   0.1994   0.2056   0.2255   0.2302
  0.2375   0.2416   0.2506   0.2711   0.2769   0.2900   0.2938   0.2988
  0.3166   0.3205   0.3236   0.3334   0.3393   0.3424   0.3591   0.3605
  0.3686   0.3718   0.3741   0.3828   0.3850   0.3890   0.3966   0.4024
  0.4056   0.4121   0.4215   0.4324   0.4358   0.4523   0.4725   0.4728
  0.4931   0.5053   0.5189   0.5471   0.5505   0.5871   0.5934   0.6053
  0.6183   0.6283   0.6389   0.6458   0.6665   0.6831   0.6934   0.7007
  0.7039   0.7127   0.7209   0.7348   0.7366   0.7459   0.7554   0.7631
  0.7727   0.7825   0.8122   0.8140   0.8337   0.8402   0.8447   0.8682
  0.9047   0.9132   0.9330   0.9786   0.9864   1.0196   1.0340   1.0556
  1.0770   1.0982   1.1159   1.1216   1.1313   1.1413   1.1552   1.1720
  1.1747   1.1829   1.2004   1.2066   1.2200   1.2214   1.2355   1.2435
  1.2631   1.2698   1.2783   1.2833   1.3043   1.3183   1.3330   1.3369
  1.3423   1.3466   1.3770   1.3817   1.3929   1.4015   1.4118   1.4199
  1.4263   1.4601   1.4693   1.4747   1.4875   1.5066   1.5207   1.5328
  1.5443   1.5660   1.5772   1.5884   1.5899   1.6176   1.6210   1.6602
  1.6853   1.7098   1.7269   1.7516   1.7656   1.7834   1.8033   1.8371
  1.8530   1.8650   1.8783   1.9121   1.9537   1.9602   1.9912   2.0287
  2.0456   2.0764   2.1022   2.1246   2.1476   2.1907   2.2301   2.2675
  2.2837   2.3267   2.3537   2.3799   2.4264   2.4443   2.4781   2.5608
  2.6462   2.6666   2.7142   2.7394   2.7513   2.7625   2.7876   2.8050
  2.8238   2.8446   2.8497   2.8803   2.8836   2.9019   2.9353   2.9537
  2.9605   2.9695   2.9954   3.0055   3.0386   3.0449   3.0604   3.0667
  3.1034   3.1473   3.1649   3.1817   3.2263   3.2633   3.2741   3.2982
  3.3111   3.3483   3.3621   3.3908   3.4010   3.4111   3.4231   3.4706
  3.4761   3.4894   3.5073   3.5190   3.5292   3.5532   3.5956   3.6061
  3.6172   3.6392   3.6625   3.6766   3.6956   3.7122   3.7191   3.7425
  3.7487   3.7683   3.7817   3.7924   3.8105   3.8252   3.8504   3.8557
  3.8886   3.9008   3.9117   3.9324   3.9459   3.9620   4.0034   4.0146
  4.0345   4.0583   4.0631   4.0800   4.1169   4.1441   4.1785   4.2089
  4.2149   4.2509   4.2875   4.2935   4.3137   4.3363   4.3548   4.3594
  4.3834   4.3971   4.4268   4.4416   4.4667   4.4901   4.5008   4.5400
  4.5644   4.5881   4.6010   4.6303   4.6399   4.6862   4.7050   4.7173
  4.7351   4.7638   4.8082   4.8258   4.8773   4.9584   5.0093   5.0567
  5.0808   5.1766   5.1975   5.2098   5.2577   5.2759   5.2830   5.2945
  5.3116   5.3241   5.3360   5.3474   5.3789   5.3962   5.4245   5.4313
  5.4634   5.4787   5.4965   5.5162   5.5281   5.5663   5.5816   5.5964
  5.6186   5.6206   5.6686   5.7061   5.7418   5.7686   5.8023   5.8284
  5.8899   5.9527   5.9787   5.9963   6.0367   6.0701   6.1008   6.1707
  6.2666   6.6349   6.6503   6.7151   6.7356   6.8144   7.0076   7.0234
  7.0632   7.1262   7.2964   7.3196   7.3308   7.3878   7.4070   7.4359
  7.4465   7.4667   7.4908   7.5406   7.6271   7.7225   7.7658   7.8399
  7.8934   7.9424   8.2328  24.3681  24.6989  24.7900  24.8292  24.8495
 25.2326  50.5575  50.5899  50.6507  50.6605
 --------------------------------------------------------------
 
          Ground-State Mulliken Net Atomic Charges

     Atom                 Charge (a.u.)    Spin (a.u.)
  --------------------------------------------------------
      1 H                     0.302556       0.002093
      2 C                    -0.286305       0.000643
      3 C                    -0.129026      -0.005079
      4 H                     0.298576      -0.001215
      5 C                    -0.325176       0.039737
      6 H                     0.287690       0.092926
      7 C                    -0.234263      -0.002215
      8 H                     0.285946      -0.001904
      9 C                    -0.061438       0.008235
     10 H                     0.291218       0.002995
     11 C                    -0.142471       0.001393
     12 H                     0.277301      -0.000081
     13 O                    -0.410497       0.013893
     14 H                     0.346693      -0.001396
     15 O                    -0.130307       0.001718
     16 O                    -0.146086      -0.000429
     17 O                    -0.224413       0.848687
  --------------------------------------------------------
  Sum of atomic charges =    -0.000000
  Sum of spin   charges =     1.000000

 -----------------------------------------------------------------
                    Cartesian Multipole Moments
 -----------------------------------------------------------------
    Charge (ESU x 10^10)
                 0.0000
    Dipole Moment (Debye)
         X       1.1900      Y       0.6040      Z      -1.4950
       Tot       2.0040
    Quadrupole Moments (Debye-Ang)
        XX     -55.9356     XY      -1.7761     YY     -71.4864
        XZ      -1.4296     YZ      -5.9530     ZZ     -45.0417
    Octopole Moments (Debye-Ang^2)
       XXX     141.7466    XXY     -81.8311    XYY      71.6984
       YYY    -304.6686    XXZ      45.5672    XYZ      -2.5764
       YYZ      35.3366    XZZ      49.7646    YZZ     -47.5795
       ZZZ      93.1136
    Hexadecapole Moments (Debye-Ang^3)
      XXXX    -619.7097   XXXY     238.7242   XXYY    -374.8588
      XYYY     384.7634   YYYY   -1494.2975   XXXZ    -106.8553
      XXYZ      69.1813   XYYZ     -68.3050   YYYZ     152.1356
      XXZZ    -200.5895   XYZZ      80.0204   YYZZ    -222.2065
      XZZZ    -100.0031   YZZZ      85.6677   ZZZZ    -449.4570
 -----------------------------------------------------------------
 Calculating analytic gradient of the SCF energy
 Gradient of CDS energy
            1           2           3           4           5           6
    1   0.0001133   0.0002236  -0.0001444  -0.0000629  -0.0005846  -0.0002133
    2  -0.0000345  -0.0000798   0.0001518   0.0000912   0.0071241  -0.0000755
    3   0.0001632   0.0003159   0.0003051   0.0001696  -0.0019312   0.0000250
            7           8           9          10          11          12
    1  -0.0001326  -0.0001277   0.0008605   0.0000117   0.0001196   0.0001778
    2  -0.0002091   0.0000566   0.0018278  -0.0001785  -0.0002692  -0.0001248
    3  -0.0000825  -0.0001548   0.0001141  -0.0001421  -0.0001730  -0.0000077
           13          14          15          16          17
    1  -0.0008969   0.0002534   0.0000814  -0.0000904   0.0004115
    2  -0.0018254   0.0003737  -0.0000352   0.0000358  -0.0068290
    3  -0.0000630  -0.0002733   0.0000625  -0.0000749   0.0017469
 Gradient of SCF Energy
            1           2           3           4           5           6
    1   0.0039247  -0.0016209   0.0013359  -0.0017606   0.0079373  -0.0071249
    2  -0.0012350   0.0060396  -0.0075182   0.0013810   0.0082833  -0.0012385
    3   0.0049289  -0.0041924  -0.0044395   0.0040661  -0.0023033   0.0012686
            7           8           9          10          11          12
    1   0.0047388  -0.0046760  -0.0024643   0.0037845  -0.0116029   0.0080321
    2  -0.0079558   0.0026490   0.0079250  -0.0026666  -0.0029533  -0.0025635
    3   0.0083779  -0.0089013   0.0106161  -0.0104190  -0.0011446   0.0001168
           13          14          15          16          17
    1   0.0035152  -0.0024850  -0.0018169   0.0004570  -0.0001741
    2  -0.0032420   0.0049906  -0.0021912  -0.0024823   0.0027780
    3   0.0175310  -0.0160187   0.0004278  -0.0003779   0.0004634
 Max gradient component =       1.753E-02
 RMS gradient           =       5.974E-03
 Computing fast CPCM-SWIG gradient
 Updating gradient with PCM contributions...
 -- total gradient after adding PCM contribution --
---------------------------------------------------
  Atom         X              Y              Z     
---------------------------------------------------
   1       0.000265      -0.000077       0.000278
   2      -0.000240       0.000073      -0.000263
   3       0.000003      -0.000023      -0.000002
   4      -0.000006       0.000024      -0.000004
   5      -0.000008       0.000296      -0.000100
   6      -0.000021      -0.000041       0.000020
   7       0.000048      -0.000023      -0.000016
   8      -0.000027       0.000000      -0.000008
   9      -0.000042       0.000007      -0.000007
  10       0.000025      -0.000023       0.000007
  11      -0.000013       0.000033       0.000063
  12       0.000006      -0.000024       0.000011
  13       0.000040      -0.000037       0.000068
  14      -0.000037       0.000026      -0.000076
  15      -0.000094       0.000035      -0.000026
  16       0.000084      -0.000056       0.000018
  17       0.000016      -0.000192       0.000039
---------------------------------------------------
 Number of fixed atoms: 0
 Gradient time:  CPU 365.48 s  wall 28.56 s
 ----------------------------------------------------------------
             Standard Nuclear Orientation (Angstroms)
    I     Atom           X                Y                Z
 ----------------------------------------------------------------
    1      H       0.4676272599     0.9877722568     1.6190427441
    2      C      -0.1383583658     1.1728668353     0.7432881650
    3      C      -1.2257957339     1.9304152358     0.8008345553
    4      H      -1.5453064429     2.4091435659     1.7174736264
    5      C      -2.0605262533     2.1799781691    -0.4309188698
    6      H      -3.1156323372     1.9065597052    -0.2271840595
    7      C      -1.6093021139     1.3060229145    -1.6131825167
    8      H      -2.1607828448     1.5425610367    -2.5194981005
    9      C      -0.0897682055     1.4007382306    -1.7466454656
   10      H       0.2472092991     0.9340344117    -2.6708688834
   11      C       0.2539379394     0.5175229634    -0.5550661800
   12      H       1.2735996334     0.1428130183    -0.5641161649
   13      O       0.4164405662     2.7068847227    -1.6083764749
   14      H       0.2864741789     3.1702682961    -2.4436478262
   15      O      -1.8386476548    -0.0682083285    -1.3072658057
   16      O      -0.5709406614    -0.6223230728    -0.8215539213
   17      O      -2.1486793635     3.5106926389    -0.7683237223
 ----------------------------------------------------------------
 Nuclear Repulsion Energy =         578.34342892 hartrees
 There are       38 alpha and       37 beta electrons
 Discretize the solute cavity surface with Lebedev spheres
	Using 110 Lebedev grid points for each H atom
	Using 194 Lebedev grid points for other atoms
	Atomic van der Waals radii will be scaled by 1.20
 Remove points where switching function is < 1.0e-08
 Keep 1252 surface tesserae and discard 1458 interior tesserae
 Molecular Surface Area = 143.271 Angst**2
 Requested basis set is 6-311++G(2df,2p)
 There are 122 shells and 410 basis functions
 A cutoff of  1.0D-12 yielded   7025 shell pairs
 There are     80462 function pairs (    101364 Cartesian)
 Smallest overlap matrix eigenvalue = 3.81E-06
 Guess MOs from SCF MO coefficient file

 -----------------------------------------------------------------------
  General SCF calculation program by
  Eric Jon Sundstrom, Paul Horn, Yuezhi Mao, Dmitri Zuev, Alec White,
  David Stuck, Shaama M.S., Shane Yost, Joonho Lee, David Small,
  Daniel Levine, Susi Lehtola, Hugh Burton, Evgeny Epifanovsky,
  Bang C. Huynh
 -----------------------------------------------------------------------
 Exchange:     0.1500 Hartree-Fock + 1.0000 wB97M-V + LR-HF
 Correlation:  1.0000 wB97M-V
 Using SG-2 standard quadrature grid
 Nonlocal Correlation:  VV10 with C = 0.0100 and b = 6.00 and scale = 1.00000
 Grid used for NLC:  SG-1 standard quadrature
 
 Citation of the SMD model:
 Marenich, A.V.; Cramer, C.J.; Truhlar, D.G.
 J. Phys. Chem. B 2009, 113, 6378-6396.
 iSolventCode=           1
 Solvent: water                                                           
 
 vradii
            1           2           3           4           5           6
    1   1.2000000   1.8500000   1.8500000   1.2000000   1.8500000   1.2000000
            7           8           9          10          11          12
    1   1.8500000   1.2000000   1.8500000   1.2000000   1.8500000   1.2000000
           13          14          15          16          17
    1   1.5200000   1.2000000   1.5200000   1.5200000   1.5200000
 -------------------------------------------------------
 OpenMP BLAS3 based DFT computing Module                
 Release: version 1.0, May 2013, Q-Chem Inc. Pittsburgh 
 -------------------------------------------------------
 A unrestricted SCF calculation will be
 performed using Roothaan-Hall, DIIS, GDM
 SCF converges when RMS gradient is below 1.0e-07
 ---------------------------------------
  Cycle       Energy         DIIS error
 ---------------------------------------
    1    -533.5389004733      1.98e-04  Roothaan Step
 ---------------------------------------
  Cycle       Energy         DIIS error
 ---------------------------------------
    1    -533.5664608174      2.18e-04  
    2    -533.5708946527      1.62e-04  Done DIIS. Switching to GDM
 ---------------------------------------
  Cycle       Energy        RMS Gradient
 ---------------------------------------
    1    -533.5708946527      5.10e-03   Normal BFGS step
    2    -533.5711995455      5.70e-03   Normal BFGS step
    3    -533.5725276095      8.25e-04   Normal BFGS step
    4    -533.5725428213      4.35e-04   Normal BFGS step
    5    -533.5725512397      2.46e-04   Normal BFGS step
    6    -533.5725516572      1.76e-04   Normal BFGS step
    7    -533.5725522168      1.23e-04   Normal BFGS step
    8    -533.5725522884      6.89e-05   Normal BFGS step
    9    -533.5725523131      3.95e-05   Normal BFGS step
   10    -533.5725523215      4.30e-05   Normal BFGS step
   11    -533.5725523306      4.20e-05   Normal BFGS step
   12    -533.5725523504      3.44e-05   Normal BFGS step
   13    -533.5725523661      2.24e-05   Normal BFGS step
   14    -533.5725523743      1.65e-05   Normal BFGS step
   15    -533.5725523764      9.93e-06   Normal BFGS step
   16    -533.5725523770      4.01e-06   Normal BFGS step
   17    -533.5725523772      2.61e-06   Normal BFGS step
   18    -533.5725523772      8.47e-07   Normal BFGS step
   19    -533.5725523772      5.80e-07   Normal BFGS step
   20    -533.5725523772      1.64e-07   Normal BFGS step
   21    -533.5725523773      1.27e-07   Normal BFGS step
   22    -533.5725523772      6.50e-08  Convergence criterion met
 ---------------------------------------
 SCF time:   CPU 2807.31s  wall 190.00s 
<S^2> =          0.754305608
(3)  G-ENP(liq) elect-nuc-pol free energy of system     -533.572552377 a.u.
(4)  G-CDS(liq) cavity-dispersion-solvent structure 
     free energy                                                2.3828 kcal/mol
(6)  G-S(liq) free energy of system                     -533.568755188 a.u.
 SCF   energy in the final basis set =     -533.5687551883
 Total energy in the final basis set =     -533.5687551883
 
 --------------------------------------------------------------
 
                    Orbital Energies (a.u.)
 --------------------------------------------------------------
 
 Alpha MOs
 -- Occupied --
-19.4053 -19.4050 -19.3918 -19.3535 -10.4113 -10.4092 -10.4088 -10.4086
-10.3533 -10.3494  -1.2752  -1.1808  -1.1675  -1.0708  -0.9628  -0.8827
 -0.8299  -0.7582  -0.7279  -0.6885  -0.6667  -0.6328  -0.6086  -0.5843
 -0.5715  -0.5607  -0.5522  -0.5405  -0.5157  -0.4952  -0.4909  -0.4672
 -0.4548  -0.4398  -0.4028  -0.3947  -0.3674  -0.3602
 -- Virtual --
  0.0248   0.0361   0.0378   0.0450   0.0521   0.0575   0.0604   0.0786
  0.0852   0.0936   0.1089   0.1153   0.1314   0.1341   0.1369   0.1400
  0.1434   0.1487   0.1504   0.1546   0.1591   0.1622   0.1730   0.1742
  0.1845   0.1883   0.1937   0.1987   0.2050   0.2251   0.2301   0.2366
  0.2409   0.2501   0.2706   0.2750   0.2891   0.2924   0.2978   0.3155
  0.3191   0.3216   0.3285   0.3366   0.3417   0.3577   0.3601   0.3657
  0.3709   0.3723   0.3817   0.3834   0.3889   0.3955   0.4022   0.4030
  0.4109   0.4206   0.4298   0.4351   0.4504   0.4699   0.4713   0.4921
  0.5037   0.5169   0.5462   0.5499   0.5868   0.5918   0.6042   0.6177
  0.6237   0.6378   0.6446   0.6655   0.6810   0.6880   0.6993   0.7036
  0.7124   0.7204   0.7338   0.7344   0.7450   0.7549   0.7610   0.7719
  0.7822   0.8117   0.8136   0.8329   0.8390   0.8444   0.8670   0.9044
  0.9113   0.9323   0.9778   0.9848   1.0182   1.0327   1.0547   1.0761
  1.0971   1.1143   1.1205   1.1303   1.1388   1.1522   1.1661   1.1732
  1.1797   1.1990   1.2040   1.2123   1.2192   1.2309   1.2402   1.2576
  1.2666   1.2761   1.2823   1.3012   1.3166   1.3282   1.3355   1.3396
  1.3434   1.3726   1.3799   1.3913   1.3957   1.4103   1.4179   1.4247
  1.4578   1.4660   1.4707   1.4844   1.5045   1.5171   1.5292   1.5424
  1.5648   1.5758   1.5868   1.5880   1.6106   1.6161   1.6552   1.6826
  1.7077   1.7221   1.7491   1.7646   1.7764   1.8012   1.8254   1.8464
  1.8612   1.8717   1.9006   1.9446   1.9546   1.9885   2.0265   2.0377
  2.0658   2.0996   2.1231   2.1472   2.1872   2.2239   2.2653   2.2811
  2.3253   2.3428   2.3781   2.4254   2.4419   2.4664   2.5566   2.6439
  2.6587   2.7129   2.7386   2.7502   2.7615   2.7868   2.8025   2.8227
  2.8438   2.8474   2.8774   2.8826   2.9013   2.9340   2.9513   2.9577
  2.9673   2.9947   3.0046   3.0379   3.0435   3.0594   3.0656   3.1017
  3.1455   3.1645   3.1800   3.2253   3.2623   3.2737   3.2968   3.3098
  3.3469   3.3603   3.3903   3.4000   3.4095   3.4212   3.4690   3.4753
  3.4877   3.5064   3.5182   3.5277   3.5522   3.5904   3.6052   3.6166
  3.6374   3.6617   3.6756   3.6949   3.7099   3.7181   3.7417   3.7474
  3.7663   3.7806   3.7913   3.8080   3.8235   3.8490   3.8544   3.8865
  3.8996   3.9104   3.9312   3.9448   3.9602   3.9986   4.0115   4.0325
  4.0552   4.0621   4.0792   4.1152   4.1435   4.1769   4.2080   4.2128
  4.2494   4.2850   4.2918   4.3077   4.3342   4.3518   4.3560   4.3809
  4.3951   4.4244   4.4372   4.4640   4.4889   4.4959   4.5334   4.5623
  4.5859   4.5968   4.6283   4.6393   4.6849   4.7042   4.7149   4.7321
  4.7619   4.8050   4.8243   4.8750   4.9577   5.0065   5.0538   5.0769
  5.1175   5.1327   5.1969   5.2101   5.2532   5.2797   5.2855   5.3035
  5.3105   5.3214   5.3389   5.3605   5.3818   5.3957   5.4114   5.4501
  5.4689   5.4854   5.5073   5.5244   5.5501   5.5756   5.5896   5.6139
  5.6178   5.6670   5.7043   5.7395   5.7665   5.7989   5.8273   5.8874
  5.9500   5.9535   5.9773   6.0354   6.0621   6.0913   6.1669   6.2662
  6.6348   6.6487   6.7049   6.7350   6.7981   6.9108   6.9573   7.0205
  7.1220   7.2954   7.3136   7.3226   7.3817   7.3830   7.3889   7.4346
  7.4607   7.4663   7.5374   7.6270   7.7168   7.7242   7.8389   7.8926
  7.9423   8.2327  24.3690  24.6987  24.7901  24.8292  24.8494  25.2331
 50.5428  50.5898  50.6505  50.6594
 
 Beta MOs
 -- Occupied --
-19.4053 -19.4050 -19.3695 -19.3528 -10.4116 -10.4091 -10.4086 -10.4081
-10.3530 -10.3495  -1.2752  -1.1761  -1.1240  -1.0700  -0.9587  -0.8818
 -0.8204  -0.7572  -0.7224  -0.6871  -0.6622  -0.6273  -0.5938  -0.5781
 -0.5665  -0.5485  -0.5418  -0.5351  -0.5063  -0.4926  -0.4805  -0.4587
 -0.4423  -0.4080  -0.3862  -0.3661  -0.3607
 -- Virtual --
 -0.0605   0.0249   0.0362   0.0379   0.0454   0.0529   0.0576   0.0605
  0.0790   0.0856   0.0946   0.1096   0.1159   0.1316   0.1346   0.1373
  0.1410   0.1437   0.1502   0.1508   0.1549   0.1594   0.1625   0.1735
  0.1746   0.1847   0.1885   0.1938   0.1994   0.2056   0.2255   0.2302
  0.2375   0.2416   0.2506   0.2711   0.2769   0.2900   0.2938   0.2988
  0.3166   0.3205   0.3236   0.3334   0.3393   0.3424   0.3591   0.3605
  0.3686   0.3719   0.3741   0.3828   0.3850   0.3890   0.3966   0.4024
  0.4056   0.4122   0.4215   0.4324   0.4357   0.4523   0.4725   0.4728
  0.4930   0.5053   0.5189   0.5471   0.5506   0.5872   0.5934   0.6053
  0.6183   0.6284   0.6390   0.6458   0.6665   0.6832   0.6934   0.7007
  0.7039   0.7128   0.7209   0.7348   0.7366   0.7459   0.7554   0.7631
  0.7727   0.7825   0.8122   0.8141   0.8337   0.8402   0.8446   0.8683
  0.9048   0.9132   0.9330   0.9786   0.9864   1.0197   1.0341   1.0556
  1.0771   1.0982   1.1159   1.1216   1.1313   1.1413   1.1552   1.1720
  1.1747   1.1829   1.2004   1.2066   1.2201   1.2214   1.2355   1.2435
  1.2632   1.2697   1.2783   1.2832   1.3044   1.3183   1.3331   1.3370
  1.3423   1.3466   1.3771   1.3818   1.3930   1.4015   1.4119   1.4199
  1.4263   1.4601   1.4695   1.4747   1.4875   1.5066   1.5207   1.5328
  1.5444   1.5661   1.5773   1.5885   1.5900   1.6176   1.6210   1.6602
  1.6853   1.7099   1.7269   1.7517   1.7655   1.7833   1.8035   1.8371
  1.8530   1.8650   1.8782   1.9122   1.9537   1.9602   1.9913   2.0288
  2.0456   2.0764   2.1022   2.1246   2.1476   2.1908   2.2300   2.2674
  2.2837   2.3267   2.3537   2.3800   2.4263   2.4443   2.4781   2.5608
  2.6459   2.6666   2.7141   2.7394   2.7513   2.7625   2.7876   2.8049
  2.8239   2.8446   2.8496   2.8806   2.8836   2.9020   2.9353   2.9538
  2.9606   2.9693   2.9953   3.0055   3.0386   3.0449   3.0605   3.0668
  3.1034   3.1473   3.1649   3.1817   3.2265   3.2634   3.2740   3.2983
  3.3110   3.3483   3.3621   3.3911   3.4010   3.4109   3.4231   3.4707
  3.4762   3.4895   3.5074   3.5190   3.5292   3.5532   3.5957   3.6063
  3.6171   3.6392   3.6627   3.6766   3.6955   3.7124   3.7191   3.7426
  3.7488   3.7683   3.7817   3.7924   3.8105   3.8253   3.8505   3.8558
  3.8889   3.9010   3.9116   3.9324   3.9463   3.9620   4.0034   4.0146
  4.0343   4.0583   4.0631   4.0801   4.1169   4.1444   4.1787   4.2092
  4.2149   4.2509   4.2875   4.2936   4.3138   4.3369   4.3551   4.3595
  4.3835   4.3972   4.4268   4.4416   4.4668   4.4904   4.5008   4.5401
  4.5648   4.5882   4.6011   4.6305   4.6401   4.6863   4.7050   4.7174
  4.7352   4.7638   4.8082   4.8259   4.8775   4.9594   5.0096   5.0569
  5.0809   5.1766   5.1976   5.2098   5.2577   5.2760   5.2831   5.2945
  5.3116   5.3241   5.3361   5.3475   5.3789   5.3963   5.4246   5.4314
  5.4635   5.4787   5.4966   5.5169   5.5281   5.5665   5.5817   5.5969
  5.6188   5.6207   5.6687   5.7063   5.7417   5.7686   5.8023   5.8284
  5.8899   5.9528   5.9787   5.9967   6.0367   6.0707   6.1008   6.1711
  6.2666   6.6349   6.6503   6.7151   6.7356   6.8144   7.0076   7.0234
  7.0633   7.1262   7.2964   7.3196   7.3308   7.3878   7.4070   7.4359
  7.4465   7.4667   7.4909   7.5406   7.6271   7.7225   7.7658   7.8399
  7.8933   7.9424   8.2328  24.3691  24.6989  24.7901  24.8292  24.8495
 25.2332  50.5575  50.5899  50.6507  50.6606
 --------------------------------------------------------------
 
          Ground-State Mulliken Net Atomic Charges

     Atom                 Charge (a.u.)    Spin (a.u.)
  --------------------------------------------------------
      1 H                     0.303023       0.002089
      2 C                    -0.286356       0.000635
      3 C                    -0.128844      -0.005061
      4 H                     0.298521      -0.001216
      5 C                    -0.325032       0.039736
      6 H                     0.287684       0.092926
      7 C                    -0.234171      -0.002233
      8 H                     0.285945      -0.001904
      9 C                    -0.061539       0.008239
     10 H                     0.291224       0.002994
     11 C                    -0.143066       0.001396
     12 H                     0.277229      -0.000080
     13 O                    -0.410488       0.013889
     14 H                     0.346686      -0.001397
     15 O                    -0.130312       0.001716
     16 O                    -0.146079      -0.000429
     17 O                    -0.224424       0.848700
  --------------------------------------------------------
  Sum of atomic charges =    -0.000000
  Sum of spin   charges =     1.000000

 -----------------------------------------------------------------
                    Cartesian Multipole Moments
 -----------------------------------------------------------------
    Charge (ESU x 10^10)
                -0.0000
    Dipole Moment (Debye)
         X       1.1892      Y       0.6034      Z      -1.4941
       Tot       2.0026
    Quadrupole Moments (Debye-Ang)
        XX     -55.9375     XY      -1.7760     YY     -71.4871
        XZ      -1.4322     YZ      -5.9523     ZZ     -45.0388
    Octopole Moments (Debye-Ang^2)
       XXX     141.7522    XXY     -81.8346    XYY      71.7030
       YYY    -304.6715    XXZ      45.5649    XYZ      -2.5785
       YYZ      35.3400    XZZ      49.7623    YZZ     -47.5780
       ZZZ      93.1241
    Hexadecapole Moments (Debye-Ang^3)
      XXXX    -619.7055   XXXY     238.7330   XXYY    -374.8663
      XYYY     384.7814   YYYY   -1494.3123   XXXZ    -106.8476
      XXYZ      69.1778   XYYZ     -68.3041   YYYZ     152.1462
      XXZZ    -200.5931   XYZZ      80.0200   YYZZ    -222.2048
      XZZZ    -100.0050   YZZZ      85.6779   ZZZZ    -449.4288
 -----------------------------------------------------------------
 Calculating analytic gradient of the SCF energy
 Gradient of CDS energy
            1           2           3           4           5           6
    1   0.0001122   0.0002248  -0.0001445  -0.0000629  -0.0005846  -0.0002133
    2  -0.0000343  -0.0000800   0.0001518   0.0000912   0.0071241  -0.0000755
    3   0.0001621   0.0003171   0.0003051   0.0001696  -0.0019312   0.0000250
            7           8           9          10          11          12
    1  -0.0001326  -0.0001277   0.0008605   0.0000117   0.0001197   0.0001778
    2  -0.0002091   0.0000566   0.0018278  -0.0001785  -0.0002693  -0.0001248
    3  -0.0000825  -0.0001548   0.0001141  -0.0001421  -0.0001731  -0.0000077
           13          14          15          16          17
    1  -0.0008969   0.0002534   0.0000814  -0.0000904   0.0004115
    2  -0.0018254   0.0003737  -0.0000352   0.0000358  -0.0068290
    3  -0.0000630  -0.0002733   0.0000625  -0.0000749   0.0017469
 Gradient of SCF Energy
            1           2           3           4           5           6
    1   0.0033722  -0.0010767   0.0013761  -0.0017555   0.0079281  -0.0071257
    2  -0.0010682   0.0059050  -0.0075408   0.0013970   0.0082656  -0.0012380
    3   0.0043972  -0.0036977  -0.0043533   0.0040648  -0.0023057   0.0012651
            7           8           9          10          11          12
    1   0.0047384  -0.0046757  -0.0024627   0.0037835  -0.0116307   0.0080278
    2  -0.0079594   0.0026489   0.0079226  -0.0026655  -0.0029518  -0.0025612
    3   0.0083753  -0.0089001   0.0106082  -0.0104208  -0.0011821   0.0001180
           13          14          15          16          17
    1   0.0035145  -0.0024849  -0.0018168   0.0004568  -0.0001688
    2  -0.0032408   0.0049897  -0.0021887  -0.0024834   0.0027689
    3   0.0175309  -0.0160179   0.0004276  -0.0003799   0.0004704
 Max gradient component =       1.753E-02
 RMS gradient           =       5.947E-03
 Computing fast CPCM-SWIG gradient
 Updating gradient with PCM contributions...
 -- total gradient after adding PCM contribution --
---------------------------------------------------
  Atom         X              Y              Z     
---------------------------------------------------
   1      -0.000275       0.000087      -0.000263
   2       0.000290      -0.000057       0.000239
   3       0.000043      -0.000046       0.000083
   4      -0.000001       0.000040      -0.000009
   5      -0.000017       0.000279      -0.000101
   6      -0.000022      -0.000040       0.000016
   7       0.000047      -0.000027      -0.000020
   8      -0.000027       0.000000      -0.000007
   9      -0.000040       0.000005      -0.000013
  10       0.000024      -0.000021       0.000005
  11      -0.000040       0.000036       0.000029
  12       0.000004      -0.000022       0.000014
  13       0.000039      -0.000037       0.000068
  14      -0.000037       0.000026      -0.000076
  15      -0.000094       0.000037      -0.000026
  16       0.000084      -0.000057       0.000016
  17       0.000022      -0.000201       0.000046
---------------------------------------------------
 Number of fixed atoms: 0
 Gradient time:  CPU 386.01 s  wall 33.16 s
 ----------------------------------------------------------------
             Standard Nuclear Orientation (Angstroms)
    I     Atom           X                Y                Z
 ----------------------------------------------------------------
    1      H       0.4686272599     0.9887722568     1.6190427441
    2      C      -0.1383583658     1.1728668353     0.7432881650
    3      C      -1.2257957339     1.9304152358     0.8008345553
    4      H      -1.5453064429     2.4091435659     1.7174736264
    5      C      -2.0605262533     2.1799781691    -0.4309188698
    6      H      -3.1156323372     1.9065597052    -0.2271840595
    7      C      -1.6093021139     1.3060229145    -1.6131825167
    8      H      -2.1607828448     1.5425610367    -2.5194981005
    9      C      -0.0897682055     1.4007382306    -1.7466454656
   10      H       0.2472092991     0.9340344117    -2.6708688834
   11      C       0.2539379394     0.5175229634    -0.5550661800
   12      H       1.2735996334     0.1428130183    -0.5641161649
   13      O       0.4164405662     2.7068847227    -1.6083764749
   14      H       0.2864741789     3.1702682961    -2.4436478262
   15      O      -1.8386476548    -0.0682083285    -1.3072658057
   16      O      -0.5709406614    -0.6223230728    -0.8215539213
   17      O      -2.1486793635     3.5106926389    -0.7683237223
 ----------------------------------------------------------------
 Nuclear Repulsion Energy =         578.34118354 hartrees
 There are       38 alpha and       37 beta electrons
 Discretize the solute cavity surface with Lebedev spheres
	Using 110 Lebedev grid points for each H atom
	Using 194 Lebedev grid points for other atoms
	Atomic van der Waals radii will be scaled by 1.20
 Remove points where switching function is < 1.0e-08
 Keep 1252 surface tesserae and discard 1458 interior tesserae
 Molecular Surface Area = 143.273 Angst**2
 Requested basis set is 6-311++G(2df,2p)
 There are 122 shells and 410 basis functions
 A cutoff of  1.0D-12 yielded   7025 shell pairs
 There are     80462 function pairs (    101364 Cartesian)
 Smallest overlap matrix eigenvalue = 3.81E-06
 Guess MOs from SCF MO coefficient file

 -----------------------------------------------------------------------
  General SCF calculation program by
  Eric Jon Sundstrom, Paul Horn, Yuezhi Mao, Dmitri Zuev, Alec White,
  David Stuck, Shaama M.S., Shane Yost, Joonho Lee, David Small,
  Daniel Levine, Susi Lehtola, Hugh Burton, Evgeny Epifanovsky,
  Bang C. Huynh
 -----------------------------------------------------------------------
 Exchange:     0.1500 Hartree-Fock + 1.0000 wB97M-V + LR-HF
 Correlation:  1.0000 wB97M-V
 Using SG-2 standard quadrature grid
 Nonlocal Correlation:  VV10 with C = 0.0100 and b = 6.00 and scale = 1.00000
 Grid used for NLC:  SG-1 standard quadrature
 
 Citation of the SMD model:
 Marenich, A.V.; Cramer, C.J.; Truhlar, D.G.
 J. Phys. Chem. B 2009, 113, 6378-6396.
 iSolventCode=           1
 Solvent: water                                                           
 
 vradii
            1           2           3           4           5           6
    1   1.2000000   1.8500000   1.8500000   1.2000000   1.8500000   1.2000000
            7           8           9          10          11          12
    1   1.8500000   1.2000000   1.8500000   1.2000000   1.8500000   1.2000000
           13          14          15          16          17
    1   1.5200000   1.2000000   1.5200000   1.5200000   1.5200000
 -------------------------------------------------------
 OpenMP BLAS3 based DFT computing Module                
 Release: version 1.0, May 2013, Q-Chem Inc. Pittsburgh 
 -------------------------------------------------------
 A unrestricted SCF calculation will be
 performed using Roothaan-Hall, DIIS, GDM
 SCF converges when RMS gradient is below 1.0e-07
 ---------------------------------------
  Cycle       Energy         DIIS error
 ---------------------------------------
    1    -533.5388960984      1.98e-04  Roothaan Step
 ---------------------------------------
  Cycle       Energy         DIIS error
 ---------------------------------------
    1    -533.5664605460      2.18e-04  
    2    -533.5708945404      1.62e-04  Done DIIS. Switching to GDM
 ---------------------------------------
  Cycle       Energy        RMS Gradient
 ---------------------------------------
    1    -533.5708945404      5.10e-03   Normal BFGS step
    2    -533.5711999504      5.70e-03   Normal BFGS step
    3    -533.5725278797      8.23e-04   Normal BFGS step
    4    -533.5725431041      4.37e-04   Normal BFGS step
    5    -533.5725515415      2.52e-04   Normal BFGS step
    6    -533.5725519629      1.80e-04   Normal BFGS step
    7    -533.5725525253      1.26e-04   Normal BFGS step
    8    -533.5725525988      7.12e-05   Normal BFGS step
    9    -533.5725526253      4.41e-05   Normal BFGS step
   10    -533.5725526351      4.79e-05   Normal BFGS step
   11    -533.5725526470      4.70e-05   Normal BFGS step
   12    -533.5725526712      3.78e-05   Normal BFGS step
   13    -533.5725526898      2.36e-05   Normal BFGS step
   14    -533.5725526989      1.68e-05   Normal BFGS step
   15    -533.5725527010      9.74e-06   Normal BFGS step
   16    -533.5725527016      4.09e-06   Normal BFGS step
   17    -533.5725527018      2.68e-06   Normal BFGS step
   18    -533.5725527019      8.43e-07   Normal BFGS step
   19    -533.5725527019      5.94e-07   Normal BFGS step
   20    -533.5725527019      1.68e-07   Normal BFGS step
   21    -533.5725527019      1.30e-07   Normal BFGS step
   22    -533.5725527019      6.68e-08  Convergence criterion met
 ---------------------------------------
 SCF time:   CPU 2830.08s  wall 191.00s 
<S^2> =          0.754305933
(3)  G-ENP(liq) elect-nuc-pol free energy of system     -533.572552702 a.u.
(4)  G-CDS(liq) cavity-dispersion-solvent structure 
     free energy                                                2.3829 kcal/mol
(6)  G-S(liq) free energy of system                     -533.568755365 a.u.
 SCF   energy in the final basis set =     -533.5687553652
 Total energy in the final basis set =     -533.5687553652
 
 --------------------------------------------------------------
 
                    Orbital Energies (a.u.)
 --------------------------------------------------------------
 
 Alpha MOs
 -- Occupied --
-19.4053 -19.4050 -19.3918 -19.3535 -10.4113 -10.4092 -10.4088 -10.4086
-10.3534 -10.3495  -1.2752  -1.1808  -1.1675  -1.0708  -0.9628  -0.8827
 -0.8299  -0.7582  -0.7279  -0.6885  -0.6667  -0.6327  -0.6086  -0.5843
 -0.5715  -0.5607  -0.5522  -0.5405  -0.5157  -0.4952  -0.4909  -0.4672
 -0.4548  -0.4398  -0.4028  -0.3947  -0.3674  -0.3602
 -- Virtual --
  0.0248   0.0361   0.0378   0.0450   0.0521   0.0575   0.0604   0.0786
  0.0852   0.0936   0.1089   0.1153   0.1314   0.1341   0.1369   0.1400
  0.1434   0.1487   0.1504   0.1546   0.1591   0.1622   0.1730   0.1741
  0.1845   0.1883   0.1937   0.1987   0.2050   0.2251   0.2301   0.2366
  0.2409   0.2501   0.2706   0.2750   0.2891   0.2923   0.2978   0.3155
  0.3191   0.3216   0.3285   0.3366   0.3417   0.3577   0.3601   0.3657
  0.3709   0.3723   0.3817   0.3834   0.3889   0.3955   0.4022   0.4030
  0.4108   0.4206   0.4298   0.4351   0.4504   0.4699   0.4713   0.4921
  0.5037   0.5170   0.5462   0.5499   0.5868   0.5918   0.6042   0.6177
  0.6237   0.6378   0.6445   0.6655   0.6809   0.6880   0.6993   0.7036
  0.7124   0.7204   0.7338   0.7344   0.7450   0.7549   0.7610   0.7719
  0.7822   0.8117   0.8136   0.8328   0.8390   0.8444   0.8670   0.9044
  0.9113   0.9323   0.9778   0.9848   1.0182   1.0327   1.0548   1.0761
  1.0971   1.1143   1.1206   1.1303   1.1387   1.1522   1.1661   1.1732
  1.1797   1.1990   1.2040   1.2123   1.2191   1.2309   1.2402   1.2576
  1.2666   1.2761   1.2823   1.3012   1.3166   1.3282   1.3355   1.3396
  1.3434   1.3726   1.3799   1.3912   1.3957   1.4102   1.4179   1.4247
  1.4578   1.4660   1.4707   1.4844   1.5045   1.5170   1.5292   1.5423
  1.5647   1.5758   1.5868   1.5880   1.6106   1.6160   1.6552   1.6826
  1.7077   1.7221   1.7490   1.7646   1.7764   1.8012   1.8254   1.8465
  1.8612   1.8718   1.9006   1.9446   1.9546   1.9885   2.0265   2.0377
  2.0659   2.0995   2.1231   2.1472   2.1872   2.2240   2.2653   2.2811
  2.3253   2.3427   2.3780   2.4254   2.4419   2.4664   2.5566   2.6440
  2.6587   2.7129   2.7386   2.7501   2.7615   2.7868   2.8025   2.8227
  2.8438   2.8474   2.8773   2.8826   2.9012   2.9341   2.9513   2.9576
  2.9674   2.9947   3.0046   3.0379   3.0435   3.0594   3.0656   3.1018
  3.1454   3.1645   3.1800   3.2253   3.2623   3.2737   3.2967   3.3098
  3.3469   3.3604   3.3902   3.3999   3.4095   3.4213   3.4690   3.4752
  3.4876   3.5063   3.5182   3.5277   3.5522   3.5904   3.6051   3.6167
  3.6374   3.6617   3.6755   3.6950   3.7099   3.7182   3.7418   3.7473
  3.7663   3.7806   3.7913   3.8080   3.8234   3.8489   3.8544   3.8863
  3.8994   3.9105   3.9312   3.9448   3.9603   3.9986   4.0115   4.0325
  4.0552   4.0621   4.0792   4.1152   4.1433   4.1768   4.2081   4.2128
  4.2494   4.2849   4.2918   4.3077   4.3339   4.3517   4.3560   4.3808
  4.3951   4.4245   4.4372   4.4639   4.4888   4.4960   4.5333   4.5621
  4.5859   4.5968   4.6282   4.6392   4.6849   4.7043   4.7148   4.7321
  4.7619   4.8050   4.8243   4.8750   4.9574   5.0064   5.0536   5.0769
  5.1175   5.1326   5.1968   5.2100   5.2532   5.2796   5.2855   5.3034
  5.3105   5.3214   5.3389   5.3605   5.3818   5.3957   5.4114   5.4500
  5.4689   5.4854   5.5071   5.5244   5.5500   5.5755   5.5895   5.6139
  5.6178   5.6670   5.7042   5.7394   5.7665   5.7989   5.8273   5.8874
  5.9498   5.9535   5.9773   6.0354   6.0618   6.0913   6.1668   6.2662
  6.6348   6.6487   6.7049   6.7350   6.7980   6.9108   6.9573   7.0205
  7.1220   7.2954   7.3136   7.3226   7.3817   7.3830   7.3889   7.4346
  7.4607   7.4663   7.5374   7.6270   7.7168   7.7242   7.8389   7.8926
  7.9423   8.2327  24.3686  24.6986  24.7900  24.8292  24.8494  25.2329
 50.5428  50.5899  50.6505  50.6594
 
 Beta MOs
 -- Occupied --
-19.4053 -19.4050 -19.3695 -19.3528 -10.4116 -10.4092 -10.4086 -10.4081
-10.3530 -10.3495  -1.2752  -1.1761  -1.1240  -1.0700  -0.9587  -0.8817
 -0.8204  -0.7572  -0.7224  -0.6871  -0.6622  -0.6273  -0.5938  -0.5781
 -0.5665  -0.5485  -0.5418  -0.5351  -0.5063  -0.4926  -0.4805  -0.4587
 -0.4423  -0.4080  -0.3861  -0.3661  -0.3607
 -- Virtual --
 -0.0605   0.0249   0.0362   0.0379   0.0454   0.0529   0.0576   0.0605
  0.0790   0.0856   0.0946   0.1096   0.1159   0.1316   0.1346   0.1373
  0.1410   0.1437   0.1502   0.1508   0.1549   0.1594   0.1625   0.1735
  0.1746   0.1847   0.1885   0.1938   0.1994   0.2056   0.2255   0.2302
  0.2375   0.2416   0.2506   0.2711   0.2769   0.2900   0.2938   0.2988
  0.3166   0.3205   0.3236   0.3334   0.3393   0.3424   0.3591   0.3605
  0.3686   0.3719   0.3741   0.3828   0.3850   0.3890   0.3966   0.4024
  0.4056   0.4121   0.4215   0.4324   0.4358   0.4523   0.4725   0.4728
  0.4930   0.5053   0.5189   0.5471   0.5506   0.5872   0.5934   0.6053
  0.6184   0.6283   0.6389   0.6458   0.6665   0.6832   0.6934   0.7007
  0.7039   0.7128   0.7209   0.7348   0.7366   0.7459   0.7554   0.7631
  0.7727   0.7826   0.8122   0.8140   0.8336   0.8401   0.8446   0.8682
  0.9047   0.9132   0.9330   0.9786   0.9864   1.0197   1.0340   1.0556
  1.0770   1.0982   1.1159   1.1216   1.1313   1.1413   1.1552   1.1719
  1.1747   1.1829   1.2004   1.2066   1.2200   1.2214   1.2355   1.2435
  1.2632   1.2698   1.2783   1.2833   1.3045   1.3183   1.3330   1.3370
  1.3423   1.3466   1.3771   1.3818   1.3930   1.4014   1.4118   1.4200
  1.4263   1.4601   1.4694   1.4747   1.4874   1.5066   1.5207   1.5328
  1.5444   1.5660   1.5773   1.5885   1.5900   1.6176   1.6210   1.6602
  1.6853   1.7098   1.7269   1.7516   1.7656   1.7833   1.8034   1.8371
  1.8530   1.8650   1.8783   1.9122   1.9537   1.9602   1.9913   2.0288
  2.0456   2.0765   2.1022   2.1247   2.1476   2.1908   2.2301   2.2674
  2.2837   2.3267   2.3536   2.3800   2.4264   2.4443   2.4781   2.5608
  2.6460   2.6666   2.7141   2.7394   2.7513   2.7625   2.7876   2.8049
  2.8239   2.8446   2.8497   2.8804   2.8836   2.9019   2.9354   2.9537
  2.9605   2.9694   2.9954   3.0055   3.0387   3.0449   3.0604   3.0667
  3.1035   3.1473   3.1649   3.1817   3.2265   3.2634   3.2741   3.2983
[...]
 Frequency:       964.15                1008.95                1017.88
 Force Cnst:      2.1340                 2.0320                 0.8175
 Red. Mass:       3.8963                 3.3879                 1.3393
 IR Active:          YES                    YES                    YES
 IR Intens:       43.730                 57.560                 11.606
 Raman Active:       YES                    YES                    YES
               X      Y      Z        X      Y      Z        X      Y      Z
 H         -0.104 -0.024  0.050   -0.108  0.143  0.039    0.348  0.513 -0.148
 C         -0.037  0.007 -0.001   -0.024 -0.011 -0.044   -0.078 -0.078  0.024
 C         -0.052  0.093  0.185   -0.004 -0.045 -0.069    0.031  0.077  0.010
 H          0.132  0.202  0.206    0.268 -0.016  0.006   -0.403 -0.375  0.094
 C          0.012  0.167 -0.073    0.010  0.062  0.098    0.011 -0.054 -0.012
 H         -0.094  0.189 -0.362    0.028 -0.079  0.010    0.072  0.072  0.434
 C         -0.087 -0.113 -0.129   -0.032  0.044 -0.066    0.007 -0.009 -0.017
 H          0.124 -0.238 -0.298   -0.411 -0.009  0.148    0.150 -0.026 -0.109
 C         -0.081  0.028  0.140    0.019 -0.017 -0.014   -0.004 -0.000  0.021
 H         -0.206  0.168  0.023    0.335 -0.202  0.193   -0.015  0.016  0.009
 C          0.251 -0.086 -0.097    0.165  0.233  0.087    0.040  0.017 -0.042
 H          0.226 -0.166 -0.324    0.247  0.488  0.111    0.060  0.076 -0.076
 O          0.024 -0.002 -0.006   -0.007 -0.013  0.008   -0.000 -0.005  0.000
 H         -0.093 -0.163 -0.079    0.037  0.041  0.033   -0.021 -0.045 -0.019
 O          0.039  0.039 -0.005    0.063 -0.014  0.019    0.011  0.009  0.006
 O         -0.067  0.023 -0.006   -0.184 -0.169 -0.049   -0.029 -0.010  0.001
 O          0.000 -0.131  0.048    0.003 -0.025 -0.007    0.001  0.027 -0.006
 TransDip   0.005 -0.157 -0.142    0.087  0.208  0.091    0.065  0.069  0.053

 Mode:                22                     23                     24
 Frequency:      1035.61                1039.30                1063.79
 Force Cnst:      1.1339                 1.4214                 1.5773
 Red. Mass:       1.7944                 2.2335                 2.3656
 IR Active:          YES                    YES                    YES
 IR Intens:       13.619                 77.852                 73.623
 Raman Active:       YES                    YES                    YES
               X      Y      Z        X      Y      Z        X      Y      Z
 H         -0.050 -0.285 -0.011   -0.126 -0.158  0.035    0.166 -0.007 -0.028
 C          0.028  0.043  0.003    0.001  0.036 -0.013    0.037 -0.036  0.053
 C         -0.045 -0.057  0.033   -0.053 -0.048  0.052    0.057  0.004 -0.044
 H          0.020  0.366 -0.165    0.029  0.383 -0.145    0.038 -0.209  0.061
 C          0.007 -0.052 -0.041    0.024 -0.038 -0.006   -0.094  0.180 -0.066
 H          0.004  0.418  0.608    0.062  0.260  0.615   -0.243  0.606 -0.014
 C         -0.015 -0.131  0.051    0.000  0.215 -0.089    0.064  0.024  0.070
 H          0.140 -0.239 -0.075    0.241  0.322 -0.205    0.460  0.006 -0.172
 C          0.039 -0.012  0.007    0.010 -0.016  0.017    0.027  0.001 -0.078
 H          0.110 -0.023  0.039   -0.093  0.021 -0.039   -0.168 -0.012 -0.146
 C         -0.035  0.048 -0.042    0.051 -0.013 -0.037   -0.067  0.086  0.028
 H          0.012  0.185 -0.113    0.017 -0.115  0.054   -0.091  0.030  0.183
 O          0.004  0.005  0.002   -0.014 -0.008  0.003   -0.020 -0.015 -0.003
 H         -0.029 -0.046 -0.022   -0.036 -0.076 -0.031    0.109  0.176  0.086
 O          0.023  0.133 -0.024    0.015 -0.157  0.052    0.002 -0.037  0.002
 O         -0.012 -0.059 -0.000   -0.029  0.031 -0.001   -0.015 -0.028 -0.010
 O         -0.014  0.018 -0.003   -0.003 -0.008 -0.015   -0.001 -0.152  0.041
 TransDip   0.046 -0.000  0.109   -0.021  0.273  0.069   -0.003  0.274  0.016

 Mode:                25                     26                     27
 Frequency:      1081.28                1109.64                1167.70
 Force Cnst:      1.1347                 1.3044                 1.0886
 Red. Mass:       1.6472                 1.7981                 1.3551
 IR Active:          YES                    YES                    YES
 IR Intens:       15.109                  3.152                 14.832
 Raman Active:       YES                    YES                    YES
               X      Y      Z        X      Y      Z        X      Y      Z
 H          0.059 -0.129 -0.168   -0.377  0.331  0.304   -0.269  0.175  0.168
 C         -0.015  0.001 -0.084   -0.027  0.033  0.002   -0.019  0.007 -0.039
 C          0.022 -0.011  0.056   -0.022 -0.055 -0.072    0.025  0.026  0.032
 H          0.158 -0.028  0.110    0.285 -0.088  0.048    0.295 -0.188  0.235
 C          0.025 -0.074 -0.051    0.019  0.071  0.156    0.025 -0.123 -0.041
 H          0.062 -0.084  0.063    0.136 -0.226  0.312   -0.187  0.609 -0.132
 C         -0.002 -0.048 -0.011    0.091 -0.090 -0.070    0.041  0.016 -0.002
 H          0.202 -0.022 -0.129    0.405 -0.075 -0.255   -0.096  0.081  0.099
 C         -0.094  0.030 -0.026   -0.072  0.033 -0.020   -0.042  0.003 -0.018
 H         -0.416  0.084 -0.169   -0.090  0.042 -0.032    0.129 -0.208  0.151
 C          0.070  0.031  0.121   -0.031 -0.029  0.016    0.006 -0.047  0.043
 H          0.009 -0.152  0.691   -0.020  0.009 -0.214    0.057  0.097 -0.243
 O          0.003 -0.002 -0.009    0.003 -0.008 -0.012   -0.003  0.011 -0.009
 H          0.133  0.219  0.097    0.083  0.153  0.066    0.101  0.199  0.082
 O         -0.008  0.029 -0.006   -0.016  0.005  0.004   -0.008 -0.003  0.004
 O         -0.011 -0.013 -0.013    0.010  0.021 -0.002    0.001  0.019 -0.002
 O         -0.002  0.046 -0.007    0.006  0.000 -0.014   -0.019  0.013  0.003
 TransDip   0.044  0.036  0.111    0.050 -0.023 -0.013    0.051  0.093  0.063

 Mode:                28                     29                     30
 Frequency:      1205.26                1217.44                1258.86
 Force Cnst:      1.1833                 1.2103                 1.5975
 Red. Mass:       1.3825                 1.3860                 1.7110
 IR Active:          YES                    YES                    YES
 IR Intens:       31.878                 13.314                  9.156
 Raman Active:       YES                    YES                    YES
               X      Y      Z        X      Y      Z        X      Y      Z
 H         -0.076  0.048  0.085    0.215 -0.216 -0.197    0.136 -0.157 -0.143
 C         -0.006  0.006  0.030    0.016 -0.014 -0.015    0.015 -0.002 -0.028
 C          0.022 -0.001 -0.051   -0.020  0.022 -0.039   -0.010  0.003 -0.003
 H          0.015 -0.049 -0.033   -0.478  0.196 -0.289   -0.187  0.071 -0.099
 C          0.042 -0.069  0.106    0.029 -0.011  0.149   -0.031  0.026  0.025
 H         -0.160  0.411 -0.293   -0.122  0.263 -0.252   -0.034  0.131  0.146
 C         -0.010 -0.030 -0.056    0.004 -0.036 -0.048    0.156  0.037 -0.021
 H          0.032  0.136 -0.039    0.138  0.117 -0.091   -0.318 -0.515  0.131
 C          0.020  0.024  0.014   -0.045 -0.002  0.009   -0.048  0.051 -0.009
 H         -0.101  0.471 -0.254    0.067 -0.271  0.184    0.035  0.317 -0.110
 C         -0.020  0.043 -0.034    0.029 -0.019  0.010    0.028 -0.096  0.089
 H         -0.039 -0.007  0.251    0.001 -0.100 -0.022    0.234  0.461  0.025
 O          0.009 -0.029  0.017   -0.004  0.012 -0.018   -0.004 -0.036 -0.006
 H         -0.228 -0.446 -0.183    0.178  0.347  0.144   -0.060 -0.123 -0.044
 O          0.009  0.013  0.010    0.005  0.004  0.007   -0.059 -0.021 -0.017
 O         -0.001 -0.016  0.003    0.001  0.003  0.002   -0.008  0.050 -0.011
 O         -0.018  0.017 -0.007   -0.012  0.004 -0.009    0.000 -0.018  0.000
 TransDip   0.036 -0.168 -0.057    0.111 -0.023 -0.027   -0.061  0.069  0.030

 Mode:                31                     32                     33
 Frequency:      1272.71                1299.17                1314.54
 Force Cnst:      1.9476                 1.2777                 1.8818
 Red. Mass:       2.0407                 1.2848                 1.8484
 IR Active:          YES                    YES                    YES
 IR Intens:      108.893                  1.237                 73.073
 Raman Active:       YES                    YES                    YES
               X      Y      Z        X      Y      Z        X      Y      Z
 H         -0.007  0.025  0.010    0.085 -0.092 -0.079   -0.197  0.147  0.155
 C          0.000 -0.010 -0.004    0.008  0.005 -0.007    0.008  0.003 -0.018
 C         -0.009  0.003  0.009   -0.011  0.004  0.002    0.039 -0.011  0.028
 H          0.014  0.024  0.007    0.000 -0.020  0.021   -0.096  0.036 -0.046
 C         -0.016  0.005 -0.028   -0.013  0.022 -0.036    0.042 -0.039  0.016
 H          0.007  0.030  0.120    0.027 -0.089  0.045    0.002 -0.078 -0.246
 C          0.059  0.007  0.002   -0.052 -0.071  0.019   -0.124  0.071  0.057
 H         -0.154 -0.019  0.126    0.191  0.675  0.060    0.265 -0.432 -0.307
 C         -0.026  0.200  0.044   -0.014  0.026 -0.025    0.129  0.078  0.049
 H          0.501  0.244  0.224    0.378  0.385 -0.061    0.019  0.114 -0.008
 C          0.021  0.067 -0.034   -0.001 -0.070  0.060   -0.032 -0.048 -0.047
 H         -0.236 -0.642  0.044    0.148  0.343 -0.074    0.141  0.421  0.181
 O         -0.047 -0.150 -0.045   -0.001 -0.032 -0.024   -0.048 -0.080 -0.046
 H          0.078  0.118  0.098    0.032  0.074  0.034    0.170  0.337  0.165
 O         -0.019  0.005 -0.004    0.029 -0.006  0.018    0.007 -0.013 -0.005
 O          0.029 -0.039  0.014   -0.022  0.019 -0.004   -0.023  0.005  0.000
 O          0.001 -0.005  0.002    0.002  0.001  0.004   -0.002  0.013 -0.005
 TransDip   0.111  0.309  0.063    0.024  0.025 -0.008    0.180  0.204 -0.030

 Mode:                34                     35                     36
 Frequency:      1338.82                1360.01                1402.67
 Force Cnst:      1.5988                 1.7446                 1.9615
 Red. Mass:       1.5139                 1.6009                 1.6921
 IR Active:          YES                    YES                    YES
 IR Intens:       42.340                  3.870                 17.316
 Raman Active:       YES                    YES                    YES
               X      Y      Z        X      Y      Z        X      Y      Z
 H         -0.177  0.153  0.160   -0.100  0.105  0.159    0.399 -0.344 -0.260
 C          0.022 -0.017 -0.018    0.025  0.006  0.041   -0.048  0.073  0.133
 C          0.036 -0.013  0.033    0.017 -0.016  0.002   -0.079  0.023 -0.108
 H         -0.159  0.078 -0.083   -0.028  0.001 -0.017    0.528 -0.269  0.251
 C         -0.009  0.008 -0.007   -0.037  0.035 -0.021    0.042 -0.033  0.026
 H         -0.012 -0.038 -0.086   -0.011  0.028  0.120    0.034  0.014  0.016
 C         -0.006  0.029  0.066    0.069 -0.067 -0.057   -0.016  0.039  0.015
 H          0.269 -0.161 -0.144   -0.289  0.325  0.259    0.094 -0.203 -0.108
 C         -0.143 -0.032 -0.080    0.003  0.027  0.068   -0.040 -0.024  0.018
 H          0.604 -0.086  0.223   -0.182 -0.265  0.143    0.232  0.009  0.104
 C          0.019 -0.018 -0.050   -0.018 -0.051 -0.162    0.028 -0.044 -0.086
 H          0.036  0.015  0.420    0.113  0.285  0.618    0.069  0.045  0.182
 O          0.036  0.044  0.029   -0.010 -0.003 -0.009    0.003  0.007 -0.010
 H         -0.139 -0.270 -0.128    0.071  0.140  0.060    0.043  0.092  0.033
 O         -0.004  0.000 -0.008   -0.005  0.005  0.007   -0.003 -0.003 -0.004
 O          0.001  0.013 -0.001   -0.004  0.015  0.011   -0.002  0.010  0.002
 O          0.002 -0.005 -0.000    0.001 -0.006  0.004   -0.001  0.002 -0.000
 TransDip  -0.140 -0.150  0.040   -0.009 -0.048 -0.039    0.103 -0.085  0.001

 Mode:                37                     38                     39
 Frequency:      1456.37                1727.00                2895.45
 Force Cnst:      2.4238                12.4492                 5.3061
 Red. Mass:       1.9396                 7.0844                 1.0742
 IR Active:          YES                    YES                    YES
 IR Intens:       28.878                  2.686                 44.067
 Raman Active:       YES                    YES                    YES
               X      Y      Z        X      Y      Z        X      Y      Z
 H          0.098 -0.099 -0.080    0.016 -0.140 -0.393    0.001  0.000  0.003
 C         -0.001  0.011  0.007   -0.413  0.306  0.085    0.000 -0.001 -0.000
 C         -0.026  0.013 -0.016    0.434 -0.284  0.046   -0.001 -0.001 -0.000
 H          0.060 -0.043  0.044   -0.157  0.007 -0.396   -0.005  0.009  0.011
 C          0.013 -0.003  0.007   -0.056  0.031 -0.024   -0.075 -0.013  0.012
 H          0.015 -0.027 -0.009   -0.065  0.025 -0.120    0.942  0.269 -0.186
 C         -0.031 -0.029  0.010    0.014 -0.010  0.007   -0.001 -0.001  0.002
 H          0.158  0.098 -0.078   -0.034  0.058  0.051   -0.005  0.005 -0.010
 C          0.060  0.226 -0.118   -0.007  0.018 -0.002    0.001  0.000  0.000
 H         -0.212 -0.662  0.204    0.021 -0.058  0.042    0.000 -0.002 -0.004
 C          0.021 -0.060  0.044    0.055 -0.039 -0.015   -0.000 -0.000 -0.000
 H          0.087  0.097 -0.029    0.042 -0.089 -0.222    0.001  0.000  0.000
 O         -0.013 -0.044  0.051   -0.001 -0.002  0.000    0.000 -0.000 -0.000
 H         -0.222 -0.473 -0.166   -0.004 -0.012 -0.004   -0.000 -0.000  0.000
 O         -0.003 -0.009  0.006   -0.001 -0.002 -0.000    0.000 -0.000  0.000
 O         -0.011  0.002 -0.001   -0.004 -0.001 -0.003    0.000 -0.000  0.000
 O          0.000  0.003 -0.000   -0.003  0.002 -0.005   -0.002 -0.007  0.002
 TransDip   0.122  0.015 -0.121    0.047 -0.019 -0.014   -0.004  0.194 -0.086

 Mode:                40                     41                     42
 Frequency:      3107.09                3139.14                3151.36
 Force Cnst:      6.1838                 6.3176                 6.3740
 Red. Mass:       1.0872                 1.0881                 1.0893
 IR Active:          YES                    YES                    YES
 IR Intens:       23.856                 12.589                  7.522
 Raman Active:       YES                    YES                    YES
               X      Y      Z        X      Y      Z        X      Y      Z
 H          0.001 -0.000  0.001   -0.004  0.001 -0.005   -0.052  0.018 -0.071
 C         -0.000  0.000  0.000    0.000 -0.000  0.000    0.005 -0.002  0.005
 C          0.000 -0.000 -0.000    0.001 -0.000 -0.000   -0.000 -0.000 -0.001
 H         -0.001  0.001  0.003   -0.004  0.006  0.012   -0.003  0.003  0.007
 C         -0.001  0.000  0.001   -0.001  0.000  0.000    0.000 -0.000 -0.000
 H          0.001  0.000 -0.001    0.011  0.003 -0.001   -0.003 -0.001  0.000
 C          0.005 -0.003  0.008   -0.043  0.017 -0.070    0.008 -0.003  0.012
 H         -0.062  0.029 -0.105    0.494 -0.205  0.816   -0.080  0.033 -0.132
 C          0.027 -0.034 -0.072    0.004 -0.004 -0.008   -0.003  0.003  0.008
 H         -0.312  0.411  0.839   -0.037  0.045  0.094    0.032 -0.038 -0.085
 C         -0.006  0.002  0.000   -0.013  0.005  0.001   -0.078  0.030  0.001
 H          0.076 -0.024 -0.001    0.159 -0.058 -0.002    0.916 -0.334 -0.008
 O          0.000 -0.000  0.001   -0.000 -0.000  0.000    0.000  0.000 -0.000
 H         -0.005 -0.002 -0.003   -0.001 -0.001  0.000    0.001  0.001  0.000
 O          0.000 -0.000  0.000    0.000  0.001 -0.000    0.001 -0.000  0.000
 O         -0.000  0.000 -0.000    0.000 -0.001  0.000   -0.001 -0.001 -0.000
 O          0.000 -0.000 -0.000   -0.000 -0.000  0.000   -0.000  0.000 -0.000
 TransDip   0.032 -0.101 -0.115   -0.049  0.015 -0.102   -0.060  0.040  0.050

 Mode:                43                     44                     45
 Frequency:      3191.03                3210.66                3824.66
 Force Cnst:      6.5200                 6.6825                 9.1948
 Red. Mass:       1.0868                 1.1003                 1.0669
 IR Active:          YES                    YES                    YES
 IR Intens:        5.188                 11.696                160.884
 Raman Active:       YES                    YES                    YES
               X      Y      Z        X      Y      Z        X      Y      Z
 H         -0.323  0.097 -0.465    0.457 -0.139  0.654    0.000  0.000  0.000
 C          0.026 -0.007  0.040   -0.045  0.016 -0.056    0.000 -0.000  0.000
 C          0.021 -0.031 -0.059    0.021 -0.026 -0.042   -0.000  0.000 -0.000
 H         -0.239  0.358  0.688   -0.172  0.255  0.486   -0.000  0.000  0.000
 C          0.001 -0.000  0.000    0.002 -0.000  0.001    0.000  0.000  0.000
 H         -0.009 -0.001  0.002   -0.010 -0.002  0.001   -0.000 -0.000 -0.000
 C          0.000  0.000  0.001    0.001 -0.000  0.001    0.000 -0.000  0.000
 H         -0.002  0.001 -0.004   -0.006  0.002 -0.010   -0.000  0.000 -0.001
 C         -0.000  0.000 -0.000   -0.000  0.000  0.001   -0.000 -0.001 -0.001
 H          0.000  0.000  0.002    0.003 -0.003 -0.008   -0.002 -0.003  0.003
 C          0.005 -0.002 -0.001   -0.005  0.003  0.002   -0.000 -0.000  0.000
 H         -0.056  0.021  0.002    0.061 -0.024 -0.004    0.000  0.000 -0.000
 O          0.000 -0.000  0.000    0.000  0.000 -0.000   -0.007  0.032 -0.053
 H         -0.000 -0.000 -0.000    0.000  0.000 -0.000    0.126 -0.490  0.860
 O         -0.000 -0.000 -0.000    0.000 -0.000  0.000   -0.000 -0.000  0.000
 O          0.000  0.000  0.000   -0.000 -0.000 -0.000    0.000 -0.000  0.000
 O         -0.000  0.000 -0.000   -0.000  0.000 -0.000    0.000 -0.000 -0.000
 TransDip   0.052 -0.044 -0.028   -0.016 -0.011 -0.108   -0.022 -0.251  0.319

 STANDARD THERMODYNAMIC QUANTITIES AT   298.15 K  AND     1.00 ATM

   This Molecule has  0 Imaginary Frequencies
   Zero point vibrational energy:       80.674 kcal/mol

   Atom    1 Element H  Has Mass    1.00783
   Atom    2 Element C  Has Mass   12.00000
   Atom    3 Element C  Has Mass   12.00000
   Atom    4 Element H  Has Mass    1.00783
   Atom    5 Element C  Has Mass   12.00000
   Atom    6 Element H  Has Mass    1.00783
   Atom    7 Element C  Has Mass   12.00000
   Atom    8 Element H  Has Mass    1.00783
   Atom    9 Element C  Has Mass   12.00000
   Atom   10 Element H  Has Mass    1.00783
   Atom   11 Element C  Has Mass   12.00000
   Atom   12 Element H  Has Mass    1.00783
   Atom   13 Element O  Has Mass   15.99491
   Atom   14 Element H  Has Mass    1.00783
   Atom   15 Element O  Has Mass   15.99491
   Atom   16 Element O  Has Mass   15.99491
   Atom   17 Element O  Has Mass   15.99491
   Molecular Mass:   143.034450 amu
   Principal axes and moments of inertia in amu*Bohr^2:
                             1           2           3
    Eigenvalues --      872.22203  1254.90875  1312.26289
          X              -0.32470     0.86620     0.37983
          Y               0.94454     0.31781     0.08269
          Z               0.04909    -0.38561     0.92135
   Rotational Symmetry Number is   1
   The Molecule is an Asymmetric Top
   Translational Enthalpy:        0.889 kcal/mol
   Rotational Enthalpy:           0.889 kcal/mol
   Vibrational Enthalpy:         83.952 kcal/mol
   gas constant (RT):             0.592 kcal/mol
   Translational Entropy:        40.785  cal/mol.K
   Rotational Entropy:           28.753  cal/mol.K
   Vibrational Entropy:          17.763  cal/mol.K

   Total Enthalpy:               86.322 kcal/mol
   Total Entropy:                87.301  cal/mol.K
 Total job time:  22774.20s(wall), 331826.38s(cpu) 
 Tue May 14 16:22:12 2024

        *************************************************************
        *                                                           *
        *  Thank you very much for using Q-Chem.  Have a nice day.  *
        *                                                           *
        *************************************************************


