
Running Job 1 of 1 Q_in.in
qchem Q_in.in_289786.0 /scratch/ari.fischer/qChem2091619.hpc-mn1/qchem289786/ 0
/usr/local/qchem-5.4.1/exe/qcprog.exe_s Q_in.in_289786.0 /scratch/ari.fischer/qChem2091619.hpc-mn1/qchem289786/
                  Welcome to Q-Chem
     A Quantum Leap Into The Future Of Chemistry


 Q-Chem 5.4, Q-Chem, Inc., Pleasanton, CA (2021)

 License issued to: Nanyang Technological University (site)

 E. Epifanovsky,  A. T. B. Gilbert,  Xintian Feng,  Joonho Lee,  Yuezhi Mao,  
 N. Mardirossian,  P. Pokhilko,  A. White,  M. Wormit,  M. P. Coons,  
 A. L. Dempwolff,  Zhengting Gan,  D. Hait,  P. R. Horn,  L. D. Jacobson,  
 I. Kaliman,  J. Kussmann,  A. W. Lange,  Ka Un Lao,  D. S. Levine,  Jie Liu,  
 S. C. McKenzie,  A. F. Morrison,  K. Nanda,  F. Plasser,  D. R. Rehn,  
 M. L. Vidal,  Zhi-Qiang You,  Ying Zhu,  B. Alam,  B. Albrecht,  
 A. Aldossary,  E. Alguire,  J. H. Andersen,  D. Barton,  K. Begam,  A. Behn,  
 Y. A. Bernard,  E. J. Berquist,  H. Burton,  A. Carreras,  K. Carter-Fenk,  
 R. Chakraborty,  A. D. Chien,  K. D. Closser,  V. Cofer-Shabica,  
 S. Dasgupta,  Jia Deng,  M. de Wergifosse,  M. Diedenhofen,  Hainam Do,  
 S. Ehlert,  Po-Tung Fang,  S. Fatehi,  Qingguo Feng,  T. Friedhoff,  
 J. Gayvert,  Qinghui Ge,  G. Gidofalvi,  M. Goldey,  J. Gomes,  
 C. Gonzalez-Espinoza,  S. Gulania,  A. Gunina,  M. W. D. Hanson-Heine,  
 P. H. P. Harbach,  A. W. Hauser,  M. F. Herbst,  M. Hernandez Vera,  
 M. Hodecker,  Z. C. Holden,  S. Houck,  Xunkun Huang,  Kerwin Hui,  
 B. C. Huynh,  M. Ivanov,  Hyunjun Ji,  Hanjie Jiang,  B. Kaduk,  S. Kaehler,  
 K. Khistyaev,  Jaehoon Kim,  P. Klunzinger,  Z. Koczor-Benda,  
 Joong Hoon Koh,  D. Kosenkov,  L. Koulias,  T. Kowalczyk,  C. M. Krauter,  
 K. Kue,  A. Kunitsa,  T. Kus,  A. Landau,  K. V. Lawler,  D. Lefrancois,  
 S. Lehtola,  Rain Li,  Yi-Pei Li,  Jiashu Liang,  M. Liebenthal,  
 Hung-Hsuan Lin,  You-Sheng Lin,  Fenglai Liu,  Kuan-Yu Liu,  
 M. Loipersberger,  A. Luenser,  A. Manjanath,  P. Manohar,  E. Mansoor,  
 S. F. Manzer,  Shan-Ping Mao,  A. V. Marenich,  T. Markovich,  S. Mason,  
 S. A. Maurer,  P. F. McLaughlin,  M. F. S. J. Menger,  J.-M. Mewes,  
 S. A. Mewes,  P. Morgante,  J. W. Mullinax,  K. J. Oosterbaan,  G. Paran,  
 Alexander C. Paul,  Suranjan K. Paul,  F. Pavosevic,  Zheng Pei,  S. Prager,  
 E. I. Proynov,  E. Ramos,  B. Rana,  A. E. Rask,  A. Rettig,  R. M. Richard,  
 F. Rob,  E. Rossomme,  T. Scheele,  M. Scheurer,  M. Schneider,  
 N. Sergueev,  S. M. Sharada,  W. Skomorowski,  D. W. Small,  C. J. Stein,  
 Yu-Chuan Su,  E. J. Sundstrom,  Zhen Tao,  J. Thirman,  T. Tsuchimochi,  
 N. M. Tubman,  S. P. Veccham,  O. Vydrov,  J. Wenzel,  J. Witte,  A. Yamada,  
 Kun Yao,  S. Yeganeh,  S. R. Yost,  A. Zech,  Igor Ying Zhang,  Xing Zhang,  
 Yu Zhang,  D. Zuev,  A. Aspuru-Guzik,  A. T. Bell,  N. A. Besley,  
 K. B. Bravaya,  B. R. Brooks,  D. Casanova,  Jeng-Da Chai,  S. Coriani,  
 C. J. Cramer,  A. E. DePrince, III,  R. A. DiStasio Jr.,  A. Dreuw,  
 B. D. Dunietz,  T. R. Furlani,  W. A. Goddard III,  S. Grimme,  
 S. Hammes-Schiffer,  T. Head-Gordon,  W. J. Hehre,  Chao-Ping Hsu,  
 T.-C. Jagau,  Yousung Jung,  A. Klamt,  Jing Kong,  D. S. Lambrecht,  
 WanZhen Liang,  N. J. Mayhall,  C. W. McCurdy,  J. B. Neaton,  
 C. Ochsenfeld,  J. A. Parkhill,  R. Peverati,  V. A. Rassolov,  Yihan Shao,  
 L. V. Slipchenko,  T. Stauch,  R. P. Steele,  J. E. Subotnik,  
 A. J. W. Thom,  A. Tkatchenko,  D. G. Truhlar,  T. Van Voorhis,  
 T. A. Wesolowski,  K. B. Whaley,  H. L. Woodcock III,  P. M. Zimmerman,  
 S. Faraji,  P. M. W. Gill,  M. Head-Gordon,  J. M. Herbert,  A. I. Krylov

 Additional authors for Version 5.4.1: 
 S. Kotaru,  Shaozhi Li,  Xiangyuan Li,  F. Matz,  A. Molle,  Haisheng Ren,  
 Yingli Su,  Hung-Yi Tsai,  C. Utku,  Fang Wang

 Contributors to earlier versions of Q-Chem not listed above: 
 R. D. Adamson,  B. Austin,  R. Baer,  J. Baker,  G. J. O. Beran,  
 K. Brandhorst,  S. T. Brown,  E. F. C. Byrd,  A. K. Chakraborty,  
 G. K. L. Chan,  Chun-Min Chang,  Yunqing Chen,  C.-L. Cheng,  
 Siu Hung Chien,  D. M. Chipman,  D. L. Crittenden,  H. Dachsel,  
 R. J. Doerksen,  A. D. Dutoi,  R. G. Edgar,  J. Fosso-Tande,  
 L. Fusti-Molnar,  D. Ghosh,  A. Ghysels,  A. Golubeva-Zadorozhnaya,  
 J. Gonthier,  M. S. Gordon,  S. R. Gwaltney,  G. Hawkins,  J. E. Herr,  
 A. Heyden,  S. Hirata,  E. G. Hohenstein,  G. Kedziora,  F. J. Keil,  
 C. Kelley,  Jihan Kim,  R. A. King,  R. Z. Khaliullin,  P. P. Korambath,  
 W. Kurlancheek,  A. Laurent,  A. M. Lee,  M. S. Lee,  S. V. Levchenko,  
 Ching Yeh Lin,  D. Liotard,  E. Livshits,  R. C. Lochan,  I. Lotan,  
 L. A. Martinez-Martinez,  P. E. Maslen,  N. Nair,  D. P. O'Neill,  
 D. Neuhauser,  E. Neuscamman,  C. M. Oana,  R. Olivares-Amaya,  R. Olson,  
 T. M. Perrine,  B. Peters,  P. A. Pieniazek,  A. Prociuk,  Y. M. Rhee,  
 J. Ritchie,  M. A. Rohrdanz,  E. Rosta,  N. J. Russ,  H. F. Schaefer III,  
 M. W. Schmidt,  N. E. Schultz,  S. Sharma,  N. Shenvi,  C. D. Sherrill,  
 A. C. Simmonett,  A. Sodt,  T. Stein,  D. Stuck,  K. S. Thanthiriwatte,  
 V. Vanovschi,  L. Vogt,  Tao Wang,  A. Warshel,  M. A. Watson,  
 C. F. Williams,  Q. Wu,  X. Xu,  Jun Yang,  W. Zhang,  Yan Zhao

 Please cite Q-Chem as follows:
 Y. Shao et al., Mol. Phys. 113, 184-215 (2015)
 DOI: 10.1080/00268976.2014.952696

 Q-Chem 5.4.1 for Intel X86 EM64T Linux

 Parts of Q-Chem use Armadillo 9.800.1 (Horizon Scraper).
 http://arma.sourceforge.net/

 Q-Chem begins on Fri May 10 14:18:18 2024  

 Host: 
0

     Scratch files written to /scratch/ari.fischer/qChem2091619.hpc-mn1/qchem289786//
 Aug1521 |scratch|qcdevops|jenkins|workspace|build_RNUM 8249   
 Processing $rem in /usr/local/qchem-5.4.1/config/preferences:
 Processing $rem in /home/ari.fischer/.qchemrc:
 Symmetry turned off for PCM/SM12/SMD calculation

 Checking the input file for inconsistencies... 	...done.

--------------------------------------------------------------
User input:
--------------------------------------------------------------
$molecule
0 2
H         0.4681968541    0.9745381518    1.6301017968
C        -0.1351440692    1.1666823858    0.7473981576
C        -1.2326287294    1.9210896175    0.8026150403
H        -1.5596559003    2.3953731384    1.7246147543
C        -2.0556244559    2.1860890334   -0.4397728286
H        -3.1249057720    1.9617082260   -0.2449250475
C        -1.6114200578    1.2925450212   -1.6128207809
H        -2.1695715430    1.5179268618   -2.5239303086
C        -0.0892722375    1.4011241765   -1.7491048218
H         0.2556697320    0.9391352511   -2.6791650212
C         0.2623021096    0.5160723771   -0.5561267261
H         1.2879684498    0.1437191134   -0.5665426714
O         0.3992258352    2.7140696418   -1.5972241787
H         0.2070736117    3.1885649257   -2.4230900662
O        -1.8396904719   -0.0807078505   -1.2877428081
O        -0.5544684559   -0.6333433845   -0.8227421316
O        -2.0655059995    3.5231559132   -0.7975512584
$end

$rem
BASIS = 6-311++G(2df,2p)
GUI = 2
JOB_TYPE = Optimization
METHOD = wB97M-V
SCF_ALGORITHM = DIIS_GDM
MAX_SCF_CYCLES = 400
GEOM_OPT_MAX_CYCLES = 150
SCF_CONVERGENCE = 7
THRESH = 12
Solvent_method = SMD
$end
--------------------------------------------------------------
 ----------------------------------------------------------------
             Standard Nuclear Orientation (Angstroms)
    I     Atom           X                Y                Z
 ----------------------------------------------------------------
    1      H       0.4681968541     0.9745381518     1.6301017968
    2      C      -0.1351440692     1.1666823858     0.7473981576
    3      C      -1.2326287294     1.9210896175     0.8026150403
    4      H      -1.5596559003     2.3953731384     1.7246147543
    5      C      -2.0556244559     2.1860890334    -0.4397728286
    6      H      -3.1249057720     1.9617082260    -0.2449250475
    7      C      -1.6114200578     1.2925450212    -1.6128207809
    8      H      -2.1695715430     1.5179268618    -2.5239303086
    9      C      -0.0892722375     1.4011241765    -1.7491048218
   10      H       0.2556697320     0.9391352511    -2.6791650212
   11      C       0.2623021096     0.5160723771    -0.5561267261
   12      H       1.2879684498     0.1437191134    -0.5665426714
   13      O       0.3992258352     2.7140696418    -1.5972241787
   14      H       0.2070736117     3.1885649257    -2.4230900662
   15      O      -1.8396904719    -0.0807078505    -1.2877428081
   16      O      -0.5544684559    -0.6333433845    -0.8227421316
   17      O      -2.0655059995     3.5231559132    -0.7975512584
 ----------------------------------------------------------------
 Nuclear Repulsion Energy =         577.99875255 hartrees
 There are       38 alpha and       37 beta electrons
 Requested basis set is 6-311++G(2df,2p)
 There are 122 shells and 410 basis functions

 Total QAlloc Memory Limit 288000 MB
 Mega-Array Size       188 MB
 MEM_STATIC part       192 MB
 
 Citation of the SMD model:
 Marenich, A.V.; Cramer, C.J.; Truhlar, D.G.
 J. Phys. Chem. B 2009, 113, 6378-6396.
 iSolventCode=           1
 Solvent: water                                                           
 
 vradii
            1           2           3           4           5           6
    1   1.2000000   1.8500000   1.8500000   1.2000000   1.8500000   1.2000000
            7           8           9          10          11          12
    1   1.8500000   1.2000000   1.8500000   1.2000000   1.8500000   1.2000000
           13          14          15          16          17
    1   1.5200000   1.2000000   1.5200000   1.5200000   1.5200000
 Changing PCM_VDW_RADII to SMD_RADIUS
 Discretize the solute cavity surface with Lebedev spheres
	Using 110 Lebedev grid points for each H atom
	Using 194 Lebedev grid points for other atoms
	Atomic van der Waals radii will be scaled by 1.20
 Remove points where switching function is < 1.0e-08
 Keep 1243 surface tesserae and discard 1467 interior tesserae
 Molecular Surface Area = 143.405 Angst**2
 A cutoff of  1.0D-12 yielded   7023 shell pairs
 There are     80438 function pairs (    101330 Cartesian)
 Smallest overlap matrix eigenvalue = 3.95E-06

 Scale SEOQF with 1.000000e-01/1.000000e-01/1.000000e-01

 Standard Electronic Orientation quadrupole field applied
 Nucleus-field energy     =     0.0000000117 hartrees
 Guess from superposition of atomic densities
 Warning:  Energy on first SCF cycle will be non-variational
 SAD guess density has 75.000000 electrons

 -----------------------------------------------------------------------
  General SCF calculation program by
  Eric Jon Sundstrom, Paul Horn, Yuezhi Mao, Dmitri Zuev, Alec White,
  David Stuck, Shaama M.S., Shane Yost, Joonho Lee, David Small,
  Daniel Levine, Susi Lehtola, Hugh Burton, Evgeny Epifanovsky,
  Bang C. Huynh
 -----------------------------------------------------------------------
 Exchange:     0.1500 Hartree-Fock + 1.0000 wB97M-V + LR-HF
 Correlation:  1.0000 wB97M-V
 Using SG-2 standard quadrature grid
 Nonlocal Correlation:  VV10 with C = 0.0100 and b = 6.00 and scale = 1.00000
 Grid used for NLC:  SG-1 standard quadrature
 
 Citation of the SMD model:
 Marenich, A.V.; Cramer, C.J.; Truhlar, D.G.
 J. Phys. Chem. B 2009, 113, 6378-6396.
 iSolventCode=           1
 Solvent: water                                                           
 
 vradii
            1           2           3           4           5           6
    1   1.2000000   1.8500000   1.8500000   1.2000000   1.8500000   1.2000000
            7           8           9          10          11          12
    1   1.8500000   1.2000000   1.8500000   1.2000000   1.8500000   1.2000000
           13          14          15          16          17
    1   1.5200000   1.2000000   1.5200000   1.5200000   1.5200000
 using 16 threads for integral computing
 -------------------------------------------------------
 OpenMP Integral computing Module                
 Release: version 1.0, May 2013, Q-Chem Inc. Pittsburgh 
 -------------------------------------------------------
 -------------------------------------------------------
 OpenMP BLAS3 based DFT computing Module                
 Release: version 1.0, May 2013, Q-Chem Inc. Pittsburgh 
 -------------------------------------------------------
 A unrestricted SCF calculation will be
 performed using DIIS, GDM
 SCF converges when RMS gradient is below 1.0e-07
 ---------------------------------------
  Cycle       Energy         DIIS error
 ---------------------------------------
    1    -536.1391316207      1.23e-02  
    2    -533.3107465441      1.69e-03  Done DIIS. Switching to GDM
 ---------------------------------------
  Cycle       Energy        RMS Gradient
 ---------------------------------------
    1    -533.3107465441      5.40e-01   Descent step
    2    -533.5050964280      5.39e-02   Normal BFGS step
    3    -533.5448848275      7.77e-02   Normal BFGS step
    4    -533.5616163622      2.48e-02   Normal BFGS step
    5    -533.5671946380      1.23e-02   Normal BFGS step
    6    -533.5689275522      1.09e-02   Normal BFGS step
    7    -533.5694765413      9.77e-03   Normal BFGS step
    8    -533.5698184089      8.21e-03   Normal BFGS step
    9    -533.5701778786      6.27e-03   Normal BFGS step
   10    -533.5706797227      6.82e-03   Normal BFGS step
   11    -533.5712589262      7.18e-03   Normal BFGS step
   12    -533.5716998099      4.34e-03   Normal BFGS step
   13    -533.5718890486      1.37e-03   Normal BFGS step
   14    -533.5719201689      9.26e-04   Normal BFGS step
   15    -533.5719287887      3.60e-04   Normal BFGS step
   16    -533.5719305537      1.82e-04   Normal BFGS step
   17    -533.5719310781      1.10e-04   Normal BFGS step
   18    -533.5719312073      4.80e-05   Normal BFGS step
   19    -533.5719312265      2.50e-05   Normal BFGS step
   20    -533.5719312336      1.18e-05   Normal BFGS step
   21    -533.5719312346      3.65e-06   Normal BFGS step
   22    -533.5719312347      1.19e-06   Normal BFGS step
   23    -533.5719312348      1.02e-06   Normal BFGS step
   24    -533.5719312348      7.76e-07   Normal BFGS step
   25    -533.5719312348      2.68e-07   Normal BFGS step
   26    -533.5719312348      8.50e-08  Convergence criterion met
 ---------------------------------------
 SCF time:   CPU 3508.27s  wall 239.00s 
<S^2> =          0.754317587
(3)  G-ENP(liq) elect-nuc-pol free energy of system     -533.571931235 a.u.
(4)  G-CDS(liq) cavity-dispersion-solvent structure 
     free energy                                                2.3063 kcal/mol
(6)  G-S(liq) free energy of system                     -533.568255942 a.u.
 SCF   energy in the final basis set =     -533.5682559416
 Total energy in the final basis set =     -533.5682559416
 
 --------------------------------------------------------------
 
                    Orbital Energies (a.u.)
 --------------------------------------------------------------
 
 Alpha MOs
 -- Occupied --
-19.4058 -19.4057 -19.3920 -19.3554 -10.4120 -10.4107 -10.4102 -10.4101
-10.3550 -10.3514  -1.2716  -1.1808  -1.1643  -1.0705  -0.9604  -0.8806
 -0.8293  -0.7560  -0.7272  -0.6863  -0.6656  -0.6307  -0.6065  -0.5835
 -0.5689  -0.5594  -0.5511  -0.5403  -0.5158  -0.4943  -0.4916  -0.4665
 -0.4539  -0.4416  -0.4015  -0.3946  -0.3673  -0.3614
 -- Virtual --
  0.0247   0.0361   0.0377   0.0450   0.0503   0.0573   0.0602   0.0793
  0.0833   0.0931   0.1087   0.1144   0.1309   0.1338   0.1364   0.1403
  0.1433   0.1490   0.1500   0.1546   0.1585   0.1619   0.1723   0.1734
  0.1847   0.1881   0.1930   0.1996   0.2052   0.2244   0.2298   0.2365
  0.2409   0.2501   0.2691   0.2748   0.2869   0.2913   0.2973   0.3130
  0.3166   0.3210   0.3288   0.3347   0.3408   0.3592   0.3593   0.3653
  0.3693   0.3723   0.3808   0.3817   0.3889   0.3956   0.4009   0.4030
  0.4090   0.4201   0.4310   0.4387   0.4497   0.4681   0.4703   0.4903
  0.5015   0.5126   0.5452   0.5497   0.5857   0.5913   0.6030   0.6172
  0.6232   0.6351   0.6441   0.6644   0.6782   0.6859   0.6969   0.7026
  0.7117   0.7178   0.7295   0.7306   0.7426   0.7583   0.7595   0.7722
  0.7818   0.8105   0.8181   0.8303   0.8388   0.8444   0.8671   0.9028
  0.9093   0.9361   0.9732   0.9900   1.0170   1.0318   1.0506   1.0763
  1.0951   1.1116   1.1149   1.1268   1.1350   1.1525   1.1612   1.1737
  1.1771   1.1993   1.2024   1.2152   1.2173   1.2318   1.2406   1.2556
  1.2636   1.2768   1.2822   1.2998   1.3161   1.3300   1.3349   1.3376
  1.3439   1.3750   1.3819   1.3898   1.3951   1.4075   1.4140   1.4305
  1.4537   1.4620   1.4702   1.4840   1.5049   1.5123   1.5260   1.5395
  1.5597   1.5724   1.5815   1.5876   1.6085   1.6166   1.6500   1.6791
  1.7058   1.7189   1.7480   1.7584   1.7745   1.7989   1.8286   1.8428
  1.8588   1.8676   1.8911   1.9422   1.9490   1.9840   2.0214   2.0337
  2.0593   2.0973   2.1151   2.1415   2.1810   2.2248   2.2606   2.2738
  2.3201   2.3384   2.3801   2.4212   2.4343   2.4597   2.5570   2.6464
  2.6599   2.7138   2.7406   2.7533   2.7595   2.7858   2.8054   2.8183
  2.8401   2.8423   2.8759   2.8838   2.9015   2.9288   2.9466   2.9590
  2.9685   2.9933   2.9988   3.0344   3.0414   3.0516   3.0651   3.0966
  3.1414   3.1556   3.1713   3.2274   3.2570   3.2710   3.2931   3.3108
  3.3465   3.3572   3.3900   3.3959   3.4121   3.4185   3.4679   3.4715
  3.4846   3.5006   3.5141   3.5294   3.5533   3.5835   3.5968   3.6103
  3.6360   3.6574   3.6793   3.6894   3.7064   3.7141   3.7370   3.7486
  3.7594   3.7875   3.7882   3.7984   3.8167   3.8435   3.8512   3.8831
  3.8931   3.9029   3.9374   3.9410   3.9529   3.9952   4.0080   4.0238
  4.0571   4.0638   4.0710   4.1077   4.1371   4.1640   4.2022   4.2060
  4.2427   4.2733   4.2866   4.3029   4.3202   4.3386   4.3474   4.3734
  4.3872   4.4216   4.4300   4.4561   4.4828   4.4884   4.5285   4.5507
  4.5775   4.5917   4.6179   4.6290   4.6779   4.7012   4.7107   4.7236
  4.7482   4.7965   4.8196   4.8608   4.9471   5.0029   5.0476   5.0751
  5.1136   5.1306   5.1902   5.2047   5.2501   5.2715   5.2790   5.2997
  5.3079   5.3191   5.3348   5.3593   5.3796   5.3849   5.4077   5.4426
  5.4621   5.4764   5.4968   5.5145   5.5453   5.5585   5.5780   5.6004
  5.6155   5.6679   5.6972   5.7193   5.7490   5.7829   5.8135   5.8728
  5.9296   5.9416   5.9699   6.0148   6.0322   6.0611   6.1443   6.2382
  6.6220   6.6323   6.6870   6.7114   6.7727   6.9089   6.9588   7.0124
  7.1185   7.2701   7.3026   7.3231   7.3734   7.3768   7.3875   7.4262
  7.4530   7.4557   7.5272   7.6207   7.7044   7.7189   7.8365   7.8794
  7.9339   8.2328  24.3568  24.6830  24.7725  24.8071  24.8283  25.1990
 50.5412  50.5842  50.6483  50.6560
 
 Beta MOs
 -- Occupied --
-19.4058 -19.4057 -19.3695 -19.3545 -10.4123 -10.4107 -10.4101 -10.4096
-10.3546 -10.3515  -1.2715  -1.1758  -1.1202  -1.0696  -0.9563  -0.8797
 -0.8199  -0.7550  -0.7218  -0.6848  -0.6610  -0.6255  -0.5918  -0.5776
 -0.5639  -0.5476  -0.5420  -0.5344  -0.5063  -0.4920  -0.4801  -0.4564
 -0.4414  -0.4078  -0.3863  -0.3655  -0.3624
 -- Virtual --
 -0.0596   0.0249   0.0362   0.0378   0.0455   0.0511   0.0574   0.0603
  0.0796   0.0837   0.0941   0.1093   0.1153   0.1310   0.1343   0.1369
  0.1410   0.1437   0.1500   0.1509   0.1550   0.1587   0.1622   0.1727
  0.1739   0.1849   0.1882   0.1930   0.2003   0.2058   0.2248   0.2300
  0.2375   0.2416   0.2506   0.2694   0.2768   0.2881   0.2922   0.2982
  0.3140   0.3187   0.3227   0.3337   0.3376   0.3414   0.3597   0.3606
  0.3684   0.3702   0.3741   0.3816   0.3834   0.3890   0.3967   0.4017
  0.4047   0.4106   0.4210   0.4327   0.4409   0.4514   0.4699   0.4732
  0.4913   0.5030   0.5146   0.5460   0.5504   0.5860   0.5929   0.6040
  0.6176   0.6285   0.6363   0.6449   0.6656   0.6802   0.6913   0.6981
  0.7029   0.7121   0.7182   0.7304   0.7327   0.7433   0.7594   0.7611
  0.7732   0.7822   0.8111   0.8184   0.8316   0.8396   0.8445   0.8683
  0.9033   0.9114   0.9367   0.9740   0.9914   1.0183   1.0334   1.0518
  1.0771   1.0963   1.1137   1.1160   1.1283   1.1375   1.1556   1.1680
  1.1756   1.1796   1.2001   1.2057   1.2186   1.2225   1.2363   1.2441
  1.2619   1.2664   1.2791   1.2831   1.3022   1.3172   1.3321   1.3375
  1.3413   1.3461   1.3775   1.3849   1.3916   1.4010   1.4097   1.4149
  1.4347   1.4557   1.4661   1.4738   1.4885   1.5064   1.5151   1.5305
  1.5412   1.5607   1.5742   1.5832   1.5891   1.6109   1.6266   1.6551
  1.6822   1.7079   1.7234   1.7508   1.7592   1.7822   1.8006   1.8403
  1.8495   1.8615   1.8756   1.9024   1.9507   1.9548   1.9883   2.0233
  2.0404   2.0697   2.1003   2.1170   2.1419   2.1850   2.2312   2.2627
  2.2766   2.3229   2.3478   2.3827   2.4222   2.4384   2.4695   2.5615
  2.6487   2.6671   2.7149   2.7414   2.7544   2.7604   2.7865   2.8076
  2.8193   2.8408   2.8446   2.8794   2.8842   2.9020   2.9305   2.9501
  2.9609   2.9698   2.9941   2.9995   3.0351   3.0431   3.0522   3.0661
  3.0982   3.1432   3.1560   3.1729   3.2285   3.2581   3.2714   3.2946
  3.3120   3.3481   3.3588   3.3907   3.3966   3.4133   3.4200   3.4689
  3.4732   3.4860   3.5017   3.5149   3.5305   3.5544   3.5881   3.5980
  3.6110   3.6377   3.6584   3.6799   3.6900   3.7092   3.7152   3.7376
  3.7500   3.7611   3.7886   3.7892   3.8008   3.8184   3.8449   3.8527
  3.8847   3.8943   3.9042   3.9388   3.9425   3.9544   3.9998   4.0106
  4.0257   4.0580   4.0666   4.0720   4.1098   4.1376   4.1657   4.2041
  4.2073   4.2440   4.2767   4.2882   4.3075   4.3230   4.3406   4.3502
  4.3764   4.3895   4.4239   4.4343   4.4590   4.4844   4.4930   4.5341
  4.5531   4.5801   4.5956   4.6200   4.6298   4.6793   4.7026   4.7127
  4.7267   4.7498   4.7991   4.8215   4.8630   4.9487   5.0055   5.0505
  5.0776   5.1730   5.1958   5.2063   5.2547   5.2688   5.2780   5.2863
  5.3093   5.3236   5.3301   5.3439   5.3783   5.3958   5.4144   5.4294
  5.4587   5.4680   5.4855   5.5074   5.5175   5.5616   5.5670   5.5826
  5.6063   5.6183   5.6702   5.6991   5.7218   5.7510   5.7866   5.8147
  5.8750   5.9345   5.9667   5.9888   6.0168   6.0410   6.0700   6.1475
  6.2385   6.6221   6.6343   6.6966   6.7129   6.7875   7.0050   7.0178
  7.0645   7.1243   7.2719   7.3028   7.3373   7.3810   7.4019   7.4306
  7.4431   7.4569   7.4794   7.5318   7.6209   7.7074   7.7639   7.8380
  7.8804   7.9343   8.2329  24.3569  24.6832  24.7725  24.8071  24.8284
 25.1991  50.5559  50.5843  50.6486  50.6572
 --------------------------------------------------------------
 
          Ground-State Mulliken Net Atomic Charges

     Atom                 Charge (a.u.)    Spin (a.u.)
  --------------------------------------------------------
      1 H                     0.303743       0.001941
      2 C                    -0.269372      -0.001857
      3 C                    -0.179110      -0.002406
      4 H                     0.297354      -0.001143
      5 C                    -0.278579       0.031670
      6 H                     0.287153       0.086860
      7 C                    -0.259927       0.001349
      8 H                     0.286094      -0.001900
      9 C                    -0.054348       0.009107
     10 H                     0.292325       0.003282
     11 C                    -0.143086       0.001433
     12 H                     0.276466      -0.000078
     13 O                    -0.398698       0.018687
     14 H                     0.345303      -0.002086
     15 O                    -0.136216       0.002112
     16 O                    -0.145949      -0.000346
     17 O                    -0.223153       0.853375
  --------------------------------------------------------
  Sum of atomic charges =     0.000000
  Sum of spin   charges =     1.000000

 -----------------------------------------------------------------
                    Cartesian Multipole Moments
 -----------------------------------------------------------------
    Charge (ESU x 10^10)
                -0.0000
    Dipole Moment (Debye)
         X       0.9892      Y       0.6788      Z      -1.4964
       Tot       1.9179
    Quadrupole Moments (Debye-Ang)
        XX     -55.4506     XY      -2.7326     YY     -71.3546
        XZ      -0.9882     YZ      -5.8663     ZZ     -45.2064
    Octopole Moments (Debye-Ang^2)
       XXX     138.8966    XXY     -79.3321    XYY      67.7544
       YYY    -303.7090    XXZ      45.1416    XYZ      -1.4048
       YYZ      35.7624    XZZ      48.2803    YZZ     -48.1799
       ZZZ      94.0083
    Hexadecapole Moments (Debye-Ang^3)
      XXXX    -603.2702   XXXY     226.7929   XXYY    -364.3575
      XYYY     368.5744   YYYY   -1496.4991   XXXZ    -104.9727
      XXYZ      68.9402   XYYZ     -64.6234   YYYZ     154.5415
      XXZZ    -198.4618   XYZZ      75.9217   YYZZ    -225.1313
      XZZZ     -97.4868   YZZZ      89.6489   ZZZZ    -452.1545
 -----------------------------------------------------------------
 Calculating analytic gradient of the SCF energy
 Gradient of CDS energy
            1           2           3           4           5           6
    1   0.0001148   0.0002277  -0.0001509  -0.0000649  -0.0001845  -0.0002229
    2  -0.0000366  -0.0000785   0.0001539   0.0000921   0.0069290  -0.0000591
    3   0.0001680   0.0003180   0.0003096   0.0001750  -0.0019793   0.0000240
            7           8           9          10          11          12
    1  -0.0001306  -0.0001319   0.0007391   0.0000171   0.0001196   0.0001830
    2  -0.0002148   0.0000583   0.0015739  -0.0001815  -0.0002662  -0.0001284
    3  -0.0000790  -0.0001612   0.0000946  -0.0001487  -0.0001759  -0.0000083
           13          14          15          16          17
    1  -0.0007770   0.0002423   0.0000841  -0.0000907   0.0000255
    2  -0.0015451   0.0003670  -0.0000361   0.0000347  -0.0066626
    3  -0.0000407  -0.0002786   0.0000603  -0.0000741   0.0017964
 Gradient of SCF Energy
            1           2           3           4           5           6
    1   0.0053574   0.0029635  -0.0023475  -0.0028003   0.0066948  -0.0094981
    2  -0.0018772   0.0039911  -0.0055043   0.0029628   0.0064195  -0.0015365
    3   0.0073519  -0.0044937  -0.0049022   0.0067853  -0.0029522   0.0017592
            7           8           9          10          11          12
    1   0.0067649  -0.0067438  -0.0024576   0.0047167  -0.0125680   0.0108066
    2  -0.0083924   0.0034097   0.0116086  -0.0046768  -0.0021381  -0.0038466
    3   0.0098505  -0.0116937   0.0088239  -0.0132653  -0.0008698   0.0000663
           13          14          15          16          17
    1   0.0066764  -0.0056048  -0.0062890   0.0029966   0.0013322
    2  -0.0043679   0.0067811  -0.0031018  -0.0061322   0.0064011
    3   0.0256501  -0.0219005   0.0000461   0.0002881  -0.0005439
 Max gradient component =       2.565E-02
 RMS gradient           =       7.673E-03
 Computing fast CPCM-SWIG gradient
 Updating gradient with PCM contributions...
 -- total gradient after adding PCM contribution --
---------------------------------------------------
  Atom         X              Y              Z     
---------------------------------------------------
   1       0.001776      -0.000708       0.002786
   2       0.004397      -0.002050      -0.000540
   3      -0.003636       0.001935      -0.000574
   4      -0.000951       0.001567       0.002757
   5      -0.001726      -0.001498      -0.000737
   6      -0.002024      -0.000533       0.000556
   7       0.001748      -0.000152       0.001359
   8      -0.001855       0.000705      -0.002641
   9       0.000228       0.003291      -0.001338
  10       0.001007      -0.001967      -0.002901
  11      -0.001147       0.001141      -0.000061
  12       0.002838      -0.001347      -0.000024
  13       0.002092      -0.001192       0.008717
  14      -0.002383       0.001960      -0.006391
  15      -0.004598      -0.000883      -0.000547
  16       0.002673      -0.003784       0.000735
  17       0.001561       0.003514      -0.001157
---------------------------------------------------
 Number of fixed atoms: 0
 Gradient time:  CPU 427.78 s  wall 32.80 s
 Geometry Optimization Parameters
   NAtoms,    NIC,     NZ,  NCons,   NDum,   NFix, NCnnct, MaxDiis
       17     138       0       0       0       0       0       0


** GEOMETRY OPTIMIZATION IN DELOCALIZED INTERNAL COORDINATES **
   Searching for a Minimum

   Optimization Cycle:   1

                       Coordinates (Angstroms)
     ATOM                X               Y               Z
      1  H         0.4681968541    0.9745381518    1.6301017968
      2  C        -0.1351440692    1.1666823858    0.7473981576
      3  C        -1.2326287294    1.9210896175    0.8026150403
      4  H        -1.5596559003    2.3953731384    1.7246147543
      5  C        -2.0556244559    2.1860890334   -0.4397728286
      6  H        -3.1249057720    1.9617082260   -0.2449250475
      7  C        -1.6114200578    1.2925450212   -1.6128207809
      8  H        -2.1695715430    1.5179268618   -2.5239303086
      9  C        -0.0892722375    1.4011241765   -1.7491048218
     10  H         0.2556697320    0.9391352511   -2.6791650212
     11  C         0.2623021096    0.5160723771   -0.5561267261
     12  H         1.2879684498    0.1437191134   -0.5665426714
     13  O         0.3992258352    2.7140696418   -1.5972241787
     14  H         0.2070736117    3.1885649257   -2.4230900662
     15  O        -1.8396904719   -0.0807078505   -1.2877428081
     16  O        -0.5544684559   -0.6333433845   -0.8227421316
     17  O        -2.0655059995    3.5231559132   -0.7975512584
   Point Group: c1    Number of degrees of freedom:    45


   Energy is   -533.568255942


 Attempting to generate delocalized internal coordinates
 Initial Hessian constructed with Jon Baker's OPTIMIZE code

 45 Hessian modes will be used to form the next step
  Hessian Eigenvalues:
     0.007702    0.013431    0.014223    0.014443    0.019051    0.019709
     0.028452    0.037630    0.041915    0.050657    0.054278    0.056305
     0.058993    0.066698    0.074366    0.079716    0.092875    0.094085
     0.099590    0.102719    0.152843    0.154435    0.159858    0.159991
     0.160000    0.190162    0.213331    0.252253    0.269085    0.277270
     0.297459    0.307602    0.326203    0.330189    0.343236    0.345832
     0.346728    0.351398    0.352406    0.364334    0.402658    0.441473
     0.483527    0.530393    0.552226

 Minimum search - taking simple RFO step
 Searching for Lamda that Minimizes Along All modes
 Value Taken    Lamda =  -0.00086060
 Step Taken.  Stepsize is  0.129935

                             Maximum     Tolerance    Cnvgd?
         Gradient           0.006361      0.000300      NO
         Displacement       0.051587      0.001200      NO
         Energy change     *********      0.000001      NO


 New Cartesian Coordinates Obtained by Inverse Iteration

 Displacement from previous Coordinates is:  0.172439
 ----------------------------------------------------------------
             Standard Nuclear Orientation (Angstroms)
    I     Atom           X                Y                Z
 ----------------------------------------------------------------
    1      H       0.4655343998     0.9846379737     1.6206427748
    2      C      -0.1377913070     1.1731624227     0.7433724664
    3      C      -1.2292615090     1.9241417675     0.8014391421
    4      H      -1.5551661475     2.3917202764     1.7214141038
    5      C      -2.0581489860     2.1806060316    -0.4327215591
    6      H      -3.1175783475     1.9314738437    -0.2339842903
    7      C      -1.6093157341     1.3027203387    -1.6123799711
    8      H      -2.1627202716     1.5320193114    -2.5193779242
    9      C      -0.0888474516     1.3991430944    -1.7482075341
   10      H       0.2492160648     0.9314405375    -2.6713916299
   11      C       0.2569267242     0.5198207880    -0.5548052161
   12      H       1.2769346645     0.1458027112    -0.5635059485
   13      O       0.4195290175     2.7053917921    -1.6145615802
   14      H       0.2501463415     3.1822110056    -2.4360543007
   15      O      -1.8380301673    -0.0694002013    -1.2975633443
   16      O      -0.5646277164    -0.6226910986    -0.8198820128
   17      O      -2.1142506742     3.5155420050    -0.7784420759
 ----------------------------------------------------------------
 Nuclear Repulsion Energy =         578.52545813 hartrees
 There are       38 alpha and       37 beta electrons
 Discretize the solute cavity surface with Lebedev spheres
	Using 110 Lebedev grid points for each H atom
	Using 194 Lebedev grid points for other atoms
	Atomic van der Waals radii will be scaled by 1.20
 Remove points where switching function is < 1.0e-08
 Keep 1251 surface tesserae and discard 1459 interior tesserae
 Molecular Surface Area = 143.248 Angst**2
 Applying Cartesian multipole field
    Component          Value
    ---------          -----
     (2,0,0)        1.00000E-11
     (0,2,0)        2.00000E-11
     (0,0,2)       -3.00000E-11
 Nucleus-field energy     =     0.0000000117 hartrees
 Requested basis set is 6-311++G(2df,2p)
 There are 122 shells and 410 basis functions
 A cutoff of  1.0D-12 yielded   7025 shell pairs
 There are     80449 function pairs (    101338 Cartesian)
 Smallest overlap matrix eigenvalue = 3.83E-06
 Guess MOs from SCF MO coefficient file

 -----------------------------------------------------------------------
  General SCF calculation program by
  Eric Jon Sundstrom, Paul Horn, Yuezhi Mao, Dmitri Zuev, Alec White,
  David Stuck, Shaama M.S., Shane Yost, Joonho Lee, David Small,
  Daniel Levine, Susi Lehtola, Hugh Burton, Evgeny Epifanovsky,
  Bang C. Huynh
 -----------------------------------------------------------------------
 Exchange:     0.1500 Hartree-Fock + 1.0000 wB97M-V + LR-HF
 Correlation:  1.0000 wB97M-V
 Using SG-2 standard quadrature grid
 Nonlocal Correlation:  VV10 with C = 0.0100 and b = 6.00 and scale = 1.00000
 Grid used for NLC:  SG-1 standard quadrature
 
 Citation of the SMD model:
 Marenich, A.V.; Cramer, C.J.; Truhlar, D.G.
 J. Phys. Chem. B 2009, 113, 6378-6396.
 iSolventCode=           1
 Solvent: water                                                           
 
 vradii
            1           2           3           4           5           6
    1   1.2000000   1.8500000   1.8500000   1.2000000   1.8500000   1.2000000
            7           8           9          10          11          12
    1   1.8500000   1.2000000   1.8500000   1.2000000   1.8500000   1.2000000
           13          14          15          16          17
    1   1.5200000   1.2000000   1.5200000   1.5200000   1.5200000
 -------------------------------------------------------
 OpenMP BLAS3 based DFT computing Module                
 Release: version 1.0, May 2013, Q-Chem Inc. Pittsburgh 
 -------------------------------------------------------
 A unrestricted SCF calculation will be
 performed using Roothaan-Hall, DIIS, GDM
 SCF converges when RMS gradient is below 1.0e-07
 ---------------------------------------
  Cycle       Energy         DIIS error
 ---------------------------------------
    1    -533.5379396452      2.18e-04  Roothaan Step
 ---------------------------------------
  Cycle       Energy         DIIS error
 ---------------------------------------
    1    -533.5661607142      2.20e-04  
    2    -533.5706593497      1.66e-04  Done DIIS. Switching to GDM
 ---------------------------------------
  Cycle       Energy        RMS Gradient
 ---------------------------------------
    1    -533.5706593497      5.59e-03   Normal BFGS step
    2    -533.5709531350      6.77e-03   Normal BFGS step
    3    -533.5723907532      1.40e-03   Normal BFGS step
    4    -533.5724115374      8.99e-04   Normal BFGS step
    5    -533.5724213884      4.78e-04   Normal BFGS step
    6    -533.5724228670      2.71e-04   Normal BFGS step
    7    -533.5724239930      1.47e-04   Normal BFGS step
    8    -533.5724242440      9.24e-05   Normal BFGS step
    9    -533.5724242965      7.03e-05   Normal BFGS step
   10    -533.5724243304      6.74e-05   Normal BFGS step
   11    -533.5724243909      6.75e-05   Normal BFGS step
   12    -533.5724244541      4.99e-05   Normal BFGS step
   13    -533.5724245135      4.80e-05   Normal BFGS step
   14    -533.5724245453      3.62e-05   Normal BFGS step
   15    -533.5724245554      1.20e-05   Normal BFGS step
   16    -533.5724245577      5.78e-06   Normal BFGS step
   17    -533.5724245583      3.71e-06   Normal BFGS step
   18    -533.5724245584      2.39e-06   Normal BFGS step
   19    -533.5724245584      1.23e-06   Normal BFGS step
   20    -533.5724245584      4.69e-07   Normal BFGS step
   21    -533.5724245585      2.22e-07   Normal BFGS step
   22    -533.5724245585      1.18e-07   Normal BFGS step
   23    -533.5724245584      3.97e-08  Convergence criterion met
 ---------------------------------------
 SCF time:   CPU 3188.54s  wall 218.00s 
<S^2> =          0.754281390
(3)  G-ENP(liq) elect-nuc-pol free energy of system     -533.572424558 a.u.
(4)  G-CDS(liq) cavity-dispersion-solvent structure 
     free energy                                                2.3322 kcal/mol
(6)  G-S(liq) free energy of system                     -533.568707940 a.u.
 SCF   energy in the final basis set =     -533.5687079402
 Total energy in the final basis set =     -533.5687079402
 
 --------------------------------------------------------------
 
                    Orbital Energies (a.u.)
 --------------------------------------------------------------
 
 Alpha MOs
 -- Occupied --
-19.4053 -19.4052 -19.3920 -19.3537 -10.4111 -10.4094 -10.4090 -10.4087
-10.3532 -10.3495  -1.2747  -1.1806  -1.1663  -1.0712  -0.9626  -0.8826
 -0.8300  -0.7581  -0.7283  -0.6880  -0.6672  -0.6322  -0.6082  -0.5840
 -0.5707  -0.5607  -0.5524  -0.5407  -0.5162  -0.4949  -0.4911  -0.4668
 -0.4543  -0.4409  -0.4025  -0.3948  -0.3678  -0.3608
 -- Virtual --
  0.0248   0.0361   0.0378   0.0451   0.0516   0.0575   0.0603   0.0791
  0.0849   0.0934   0.1088   0.1152   0.1313   0.1341   0.1368   0.1404
  0.1434   0.1491   0.1503   0.1547   0.1588   0.1621   0.1727   0.1738
  0.1847   0.1884   0.1934   0.1991   0.2052   0.2250   0.2301   0.2368
  0.2407   0.2503   0.2701   0.2752   0.2888   0.2926   0.2974   0.3154
  0.3184   0.3220   0.3291   0.3363   0.3418   0.3587   0.3601   0.3656
  0.3708   0.3727   0.3821   0.3830   0.3892   0.3957   0.4020   0.4030
  0.4100   0.4210   0.4307   0.4366   0.4505   0.4696   0.4703   0.4911
  0.5030   0.5157   0.5461   0.5501   0.5863   0.5919   0.6037   0.6186
  0.6239   0.6359   0.6449   0.6662   0.6801   0.6879   0.6993   0.7038
  0.7127   0.7203   0.7327   0.7335   0.7451   0.7594   0.7598   0.7728
  0.7826   0.8121   0.8167   0.8326   0.8394   0.8445   0.8673   0.9053
  0.9113   0.9342   0.9751   0.9863   1.0184   1.0313   1.0537   1.0768
  1.0970   1.1132   1.1176   1.1293   1.1375   1.1531   1.1648   1.1742
  1.1786   1.1990   1.2038   1.2146   1.2188   1.2321   1.2411   1.2572
  1.2661   1.2767   1.2823   1.3017   1.3167   1.3285   1.3360   1.3394
  1.3446   1.3756   1.3813   1.3925   1.3963   1.4091   1.4178   1.4261
  1.4573   1.4652   1.4710   1.4856   1.5061   1.5163   1.5280   1.5422
  1.5641   1.5749   1.5852   1.5896   1.6120   1.6143   1.6537   1.6837
  1.7081   1.7215   1.7494   1.7639   1.7760   1.8014   1.8278   1.8457
  1.8624   1.8701   1.8974   1.9445   1.9539   1.9879   2.0253   2.0364
  2.0628   2.0995   2.1220   2.1469   2.1848   2.2247   2.2654   2.2796
  2.3245   2.3420   2.3797   2.4249   2.4391   2.4634   2.5574   2.6446
  2.6586   2.7131   2.7395   2.7547   2.7603   2.7861   2.8035   2.8223
  2.8427   2.8478   2.8776   2.8827   2.8995   2.9325   2.9503   2.9590
  2.9685   2.9949   3.0035   3.0389   3.0444   3.0573   3.0656   3.1003
  3.1455   3.1635   3.1780   3.2289   3.2608   3.2728   3.2971   3.3113
  3.3486   3.3600   3.3914   3.3990   3.4116   3.4221   3.4698   3.4753
  3.4875   3.5058   3.5191   3.5304   3.5534   3.5880   3.6034   3.6153
  3.6377   3.6608   3.6775   3.6929   3.7090   3.7178   3.7405   3.7485
  3.7636   3.7855   3.7902   3.8066   3.8219   3.8481   3.8551   3.8876
  3.8985   3.9092   3.9360   3.9457   3.9595   3.9986   4.0102   4.0309
  4.0601   4.0634   4.0765   4.1144   4.1433   4.1759   4.2102   4.2129
  4.2503   4.2821   4.2940   4.3103   4.3323   4.3503   4.3576   4.3806
  4.3950   4.4264   4.4379   4.4646   4.4900   4.4961   4.5345   4.5624
  4.5868   4.5966   4.6274   4.6399   4.6849   4.7062   4.7155   4.7329
  4.7614   4.8060   4.8267   4.8763   4.9597   5.0075   5.0548   5.0786
  5.1170   5.1327   5.1952   5.2088   5.2531   5.2785   5.2839   5.3047
  5.3093   5.3208   5.3382   5.3599   5.3825   5.3920   5.4107   5.4508
  5.4686   5.4845   5.5058   5.5242   5.5500   5.5738   5.5902   5.6140
  5.6216   5.6731   5.7035   5.7354   5.7627   5.7955   5.8257   5.8849
  5.9471   5.9507   5.9790   6.0316   6.0565   6.0833   6.1633   6.2605
  6.6349   6.6477   6.6996   6.7289   6.7885   6.9102   6.9576   7.0197
  7.1207   7.2941   7.3139   7.3191   7.3796   7.3813   7.3892   7.4336
  7.4581   7.4637   7.5359   7.6257   7.7182   7.7214   7.8371   7.8894
  7.9410   8.2334  24.3675  24.6981  24.7879  24.8290  24.8482  25.2353
 50.5414  50.5890  50.6505  50.6583
 
 Beta MOs
 -- Occupied --
-19.4053 -19.4052 -19.3696 -19.3530 -10.4114 -10.4093 -10.4086 -10.4084
-10.3529 -10.3496  -1.2746  -1.1758  -1.1223  -1.0703  -0.9585  -0.8818
 -0.8205  -0.7571  -0.7228  -0.6866  -0.6628  -0.6267  -0.5936  -0.5781
 -0.5659  -0.5486  -0.5423  -0.5350  -0.5067  -0.4924  -0.4802  -0.4576
 -0.4423  -0.4078  -0.3864  -0.3663  -0.3614
 -- Virtual --
 -0.0602   0.0250   0.0362   0.0379   0.0455   0.0525   0.0575   0.0604
  0.0794   0.0853   0.0944   0.1095   0.1159   0.1314   0.1346   0.1373
  0.1412   0.1438   0.1503   0.1512   0.1550   0.1591   0.1624   0.1732
  0.1743   0.1849   0.1885   0.1935   0.1998   0.2057   0.2254   0.2303
  0.2377   0.2414   0.2507   0.2705   0.2772   0.2899   0.2938   0.2984
  0.3164   0.3201   0.3239   0.3339   0.3391   0.3425   0.3601   0.3605
  0.3687   0.3720   0.3743   0.3829   0.3848   0.3892   0.3968   0.4023
  0.4054   0.4114   0.4220   0.4330   0.4377   0.4521   0.4713   0.4730
  0.4920   0.5045   0.5176   0.5470   0.5508   0.5868   0.5934   0.6047
  0.6192   0.6288   0.6371   0.6460   0.6672   0.6822   0.6934   0.7006
  0.7041   0.7130   0.7207   0.7341   0.7353   0.7457   0.7600   0.7620
  0.7737   0.7829   0.8128   0.8171   0.8337   0.8403   0.8447   0.8686
  0.9057   0.9134   0.9349   0.9759   0.9878   1.0198   1.0328   1.0547
  1.0778   1.0981   1.1148   1.1188   1.1305   1.1401   1.1561   1.1712
  1.1758   1.1816   1.2000   1.2071   1.2206   1.2222   1.2364   1.2445
  1.2627   1.2687   1.2793   1.2832   1.3047   1.3182   1.3329   1.3380
  1.3421   1.3470   1.3796   1.3837   1.3942   1.4025   1.4107   1.4194
  1.4285   1.4595   1.4691   1.4749   1.4891   1.5080   1.5194   1.5321
  1.5441   1.5653   1.5766   1.5870   1.5913   1.6150   1.6234   1.6587
  1.6865   1.7102   1.7263   1.7520   1.7648   1.7830   1.8037   1.8383
  1.8538   1.8649   1.8775   1.9088   1.9534   1.9595   1.9911   2.0276
  2.0441   2.0733   2.1023   2.1238   2.1474   2.1886   2.2307   2.2675
  2.2823   2.3262   2.3524   2.3820   2.4259   2.4426   2.4739   2.5616
  2.6466   2.6664   2.7141   2.7403   2.7560   2.7611   2.7869   2.8060
  2.8235   2.8434   2.8497   2.8810   2.8834   2.9000   2.9339   2.9535
  2.9610   2.9703   2.9956   3.0043   3.0397   3.0459   3.0582   3.0667
  3.1020   3.1473   3.1639   3.1796   3.2301   3.2619   3.2732   3.2986
  3.3124   3.3501   3.3617   3.3921   3.3998   3.4130   3.4238   3.4714
  3.4764   3.4891   3.5069   3.5199   3.5317   3.5544   3.5931   3.6044
  3.6158   3.6395   3.6617   3.6784   3.6937   3.7112   3.7189   3.7413
  3.7499   3.7655   3.7866   3.7913   3.8089   3.8237   3.8495   3.8566
  3.8895   3.9000   3.9104   3.9373   3.9472   3.9611   4.0033   4.0132
  4.0324   4.0630   4.0646   4.0773   4.1162   4.1441   4.1776   4.2115
  4.2148   4.2518   4.2850   4.2960   4.3155   4.3351   4.3532   4.3601
  4.3835   4.3971   4.4286   4.4425   4.4672   4.4915   4.5009   4.5408
  4.5647   4.5893   4.6008   4.6295   4.6407   4.6862   4.7071   4.7178
  4.7360   4.7632   4.8090   4.8283   4.8788   4.9613   5.0106   5.0581
  5.0823   5.1764   5.1978   5.2101   5.2577   5.2749   5.2830   5.2922
  5.3109   5.3235   5.3349   5.3467   5.3786   5.3971   5.4222   5.4325
  5.4646   5.4771   5.4941   5.5163   5.5281   5.5656   5.5795   5.5971
  5.6196   5.6238   5.6747   5.7057   5.7375   5.7649   5.7993   5.8270
  5.8872   5.9516   5.9793   5.9956   6.0329   6.0647   6.0913   6.1669
  6.2609   6.6350   6.6494   6.7110   6.7293   6.8035   7.0075   7.0226
  7.0646   7.1248   7.2951   7.3166   7.3312   7.3875   7.4047   7.4364
  7.4471   7.4638   7.4856   7.5395   7.6259   7.7220   7.7651   7.8382
  7.8902   7.9413   8.2335  24.3676  24.6983  24.7879  24.8290  24.8483
 25.2354  50.5562  50.5890  50.6507  50.6594
 --------------------------------------------------------------
 
          Ground-State Mulliken Net Atomic Charges

     Atom                 Charge (a.u.)    Spin (a.u.)
  --------------------------------------------------------
      1 H                     0.304142       0.002025
      2 C                    -0.273255      -0.000447
      3 C                    -0.153828      -0.004229
      4 H                     0.298256      -0.001199
      5 C                    -0.309926       0.037252
      6 H                     0.288609       0.089583
      7 C                    -0.239900      -0.001476
      8 H                     0.286126      -0.001905
      9 C                    -0.060864       0.008443
     10 H                     0.292708       0.003023
     11 C                    -0.144871       0.001555
     12 H                     0.277432      -0.000078
     13 O                    -0.409361       0.015249
     14 H                     0.345871      -0.001703
     15 O                    -0.131882       0.001895
     16 O                    -0.145790      -0.000407
     17 O                    -0.223468       0.852419
  --------------------------------------------------------
  Sum of atomic charges =     0.000000
  Sum of spin   charges =     1.000000

 -----------------------------------------------------------------
                    Cartesian Multipole Moments
 -----------------------------------------------------------------
    Charge (ESU x 10^10)
                 0.0000
    Dipole Moment (Debye)
         X       1.0504      Y       0.6266      Z      -1.4599
       Tot       1.9045
    Quadrupole Moments (Debye-Ang)
        XX     -55.7149     XY      -2.2814     YY     -71.3551
        XZ      -1.1580     YZ      -5.8678     ZZ     -45.1698
    Octopole Moments (Debye-Ang^2)
       XXX     140.1833    XXY     -80.8260    XYY      69.6771
       YYY    -303.9790    XXZ      45.5019    XYZ      -1.8295
       YYZ      35.4055    XZZ      48.7849    YZZ     -48.0322
       ZZZ      93.8135
    Hexadecapole Moments (Debye-Ang^3)
      XXXX    -612.3199   XXXY     232.9237   XXYY    -370.1816
      XYYY     376.8432   YYYY   -1491.9492   XXXZ    -105.3158
      XXYZ      69.4357   XYYZ     -65.6740   YYYZ     152.5525
      XXZZ    -199.7520   XYZZ      77.5770   YYZZ    -223.3455
      XZZZ     -97.8351   YZZZ      88.2030   ZZZZ    -451.4280
 -----------------------------------------------------------------
 Calculating analytic gradient of the SCF energy
 Gradient of CDS energy
            1           2           3           4           5           6
    1   0.0001119   0.0002260  -0.0001473  -0.0000632  -0.0004200  -0.0002155
    2  -0.0000350  -0.0000774   0.0001532   0.0000886   0.0070997  -0.0000663
    3   0.0001628   0.0003155   0.0003069   0.0001705  -0.0019628   0.0000237
            7           8           9          10          11          12
    1  -0.0001316  -0.0001289   0.0008402   0.0000123   0.0001201   0.0001778
    2  -0.0002086   0.0000561   0.0017639  -0.0001805  -0.0002657  -0.0001257
    3  -0.0000812  -0.0001557   0.0000944  -0.0001417  -0.0001727  -0.0000077
           13          14          15          16          17
    1  -0.0008747   0.0002486   0.0000824  -0.0000900   0.0002519
    2  -0.0017500   0.0003705  -0.0000351   0.0000354  -0.0068231
    3  -0.0000426  -0.0002777   0.0000609  -0.0000745   0.0017821
 Gradient of SCF Energy
            1           2           3           4           5           6
    1   0.0034635  -0.0012182   0.0016655  -0.0018509   0.0068570  -0.0066639
    2  -0.0011499   0.0064019  -0.0076292   0.0010978   0.0057971  -0.0006670
    3   0.0045857  -0.0039971  -0.0044741   0.0041845  -0.0013298   0.0012442
            7           8           9          10          11          12
    1   0.0048279  -0.0048770  -0.0024585   0.0039522  -0.0119491   0.0079100
    2  -0.0078509   0.0023973   0.0075195  -0.0023724  -0.0026756  -0.0026985
    3   0.0082547  -0.0090459   0.0102961  -0.0101442  -0.0008035   0.0001381
           13          14          15          16          17
    1   0.0048824  -0.0032601  -0.0029527   0.0014950   0.0001769
    2  -0.0035417   0.0056381  -0.0013582  -0.0029072   0.0039987
    3   0.0172200  -0.0161190   0.0003102  -0.0002075  -0.0001126
 Max gradient component =       1.722E-02
 RMS gradient           =       5.899E-03
 Computing fast CPCM-SWIG gradient
 Updating gradient with PCM contributions...
 -- total gradient after adding PCM contribution --
---------------------------------------------------
  Atom         X              Y              Z     
---------------------------------------------------
   1      -0.000164       0.000019      -0.000074
   2       0.000057       0.000506       0.000023
   3       0.000427      -0.000210      -0.000038
   4      -0.000011      -0.000277       0.000044
   5      -0.001435      -0.002151       0.000927
   6       0.000673       0.000442      -0.000005
   7       0.000031       0.000139      -0.000269
   8      -0.000101      -0.000267      -0.000054
   9      -0.000006      -0.000470       0.000098
  10       0.000287       0.000262       0.000101
  11      -0.000420       0.000375       0.000224
  12      -0.000047      -0.000173       0.000018
  13       0.000648      -0.000175       0.000194
  14      -0.000246       0.000546      -0.000581
  15      -0.001234       0.000849      -0.000190
  16       0.001144      -0.000486       0.000211
  17       0.000397       0.001070      -0.000629
---------------------------------------------------
 Number of fixed atoms: 0
 Gradient time:  CPU 422.67 s  wall 34.10 s
 Geometry Optimization Parameters
   NAtoms,    NIC,     NZ,  NCons,   NDum,   NFix, NCnnct, MaxDiis
       17     138       0       0       0       0       0       0

 Cartesian Hessian Update
 Hessian updated using BFGS update


** GEOMETRY OPTIMIZATION IN DELOCALIZED INTERNAL COORDINATES **
   Searching for a Minimum

   Optimization Cycle:   2

                       Coordinates (Angstroms)
     ATOM                X               Y               Z
      1  H         0.4655343998    0.9846379737    1.6206427748
      2  C        -0.1377913070    1.1731624227    0.7433724664
      3  C        -1.2292615090    1.9241417675    0.8014391421
      4  H        -1.5551661475    2.3917202764    1.7214141038
      5  C        -2.0581489860    2.1806060316   -0.4327215591
      6  H        -3.1175783475    1.9314738437   -0.2339842903
      7  C        -1.6093157341    1.3027203387   -1.6123799711
      8  H        -2.1627202716    1.5320193114   -2.5193779242
      9  C        -0.0888474516    1.3991430944   -1.7482075341
     10  H         0.2492160648    0.9314405375   -2.6713916299
     11  C         0.2569267242    0.5198207880   -0.5548052161
     12  H         1.2769346645    0.1458027112   -0.5635059485
     13  O         0.4195290175    2.7053917921   -1.6145615802
     14  H         0.2501463415    3.1822110056   -2.4360543007
     15  O        -1.8380301673   -0.0694002013   -1.2975633443
     16  O        -0.5646277164   -0.6226910986   -0.8198820128
     17  O        -2.1142506742    3.5155420050   -0.7784420759
   Point Group: c1    Number of degrees of freedom:    45


   Energy is   -533.568707940

 Hessian updated using BFGS update

 45 Hessian modes will be used to form the next step
  Hessian Eigenvalues:
     0.007269    0.013418    0.014283    0.014341    0.019045    0.019819
     0.028631    0.037592    0.042408    0.050274    0.054168    0.056493
     0.059107    0.066751    0.074499    0.079716    0.092854    0.094059
     0.099367    0.102843    0.152082    0.154180    0.159655    0.159901
     0.163267    0.189976    0.213583    0.252390    0.269273    0.277088
     0.297721    0.308360    0.314427    0.329731    0.344177    0.346190
     0.347753    0.351781    0.357611    0.364543    0.407557    0.440717
     0.474286    0.523384    0.566854

 Minimum search - taking simple RFO step
 Searching for Lamda that Minimizes Along All modes
 Value Taken    Lamda =  -0.00005233
 Step Taken.  Stepsize is  0.055393

                             Maximum     Tolerance    Cnvgd?
         Gradient           0.001010      0.000300      NO
         Displacement       0.030027      0.001200      NO
         Energy change     -0.000452      0.000001      NO


 New Cartesian Coordinates Obtained by Inverse Iteration

 Displacement from previous Coordinates is:  0.053313
 ----------------------------------------------------------------
             Standard Nuclear Orientation (Angstroms)
    I     Atom           X                Y                Z
 ----------------------------------------------------------------
    1      H       0.4674631982     0.9864753100     1.6187786930
    2      C      -0.1381548027     1.1724251807     0.7425745879
    3      C      -1.2264296258     1.9284423296     0.7996444788
    4      H      -1.5487976637     2.4022684692     1.7174998133
    5      C      -2.0578578177     2.1808160227    -0.4331516788
    6      H      -3.1154659971     1.9209209531    -0.2324573964
    7      C      -1.6083907745     1.3038619500    -1.6130309996
    8      H      -2.1595321300     1.5371588929    -2.5199800276
    9      C      -0.0889328102     1.3984629234    -1.7472394552
   10      H       0.2473689020     0.9311052116    -2.6710985544
   11      C       0.2555898020     0.5173807392    -0.5551031381
   12      H       1.2753439519     0.1434984118    -0.5639457964
   13      O       0.4190703303     2.7037259711    -1.6093868727
   14      H       0.2569964513     3.1797722106    -2.4313712170
   15      O      -1.8372670603    -0.0695576792    -1.3025584579
   16      O      -0.5683248280    -0.6232989181    -0.8199588862
   17      O      -2.1301302255     3.5142846207    -0.7752239928
 ----------------------------------------------------------------
 Nuclear Repulsion Energy =         578.57053240 hartrees
 There are       38 alpha and       37 beta electrons
 Discretize the solute cavity surface with Lebedev spheres
	Using 110 Lebedev grid points for each H atom
	Using 194 Lebedev grid points for other atoms
	Atomic van der Waals radii will be scaled by 1.20
 Remove points where switching function is < 1.0e-08
 Keep 1252 surface tesserae and discard 1458 interior tesserae
 Molecular Surface Area = 143.217 Angst**2
 Applying Cartesian multipole field
    Component          Value
    ---------          -----
     (2,0,0)        1.00000E-11
     (0,2,0)        2.00000E-11
     (0,0,2)       -3.00000E-11
 Nucleus-field energy     =     0.0000000117 hartrees
 Requested basis set is 6-311++G(2df,2p)
 There are 122 shells and 410 basis functions
 A cutoff of  1.0D-12 yielded   7026 shell pairs
 There are     80478 function pairs (    101380 Cartesian)
 Smallest overlap matrix eigenvalue = 3.81E-06
 Guess MOs from SCF MO coefficient file

 -----------------------------------------------------------------------
  General SCF calculation program by
  Eric Jon Sundstrom, Paul Horn, Yuezhi Mao, Dmitri Zuev, Alec White,
  David Stuck, Shaama M.S., Shane Yost, Joonho Lee, David Small,
  Daniel Levine, Susi Lehtola, Hugh Burton, Evgeny Epifanovsky,
  Bang C. Huynh
 -----------------------------------------------------------------------
 Exchange:     0.1500 Hartree-Fock + 1.0000 wB97M-V + LR-HF
 Correlation:  1.0000 wB97M-V
 Using SG-2 standard quadrature grid
 Nonlocal Correlation:  VV10 with C = 0.0100 and b = 6.00 and scale = 1.00000
 Grid used for NLC:  SG-1 standard quadrature
 
 Citation of the SMD model:
 Marenich, A.V.; Cramer, C.J.; Truhlar, D.G.
 J. Phys. Chem. B 2009, 113, 6378-6396.
 iSolventCode=           1
 Solvent: water                                                           
 
 vradii
            1           2           3           4           5           6
    1   1.2000000   1.8500000   1.8500000   1.2000000   1.8500000   1.2000000
            7           8           9          10          11          12
    1   1.8500000   1.2000000   1.8500000   1.2000000   1.8500000   1.2000000
           13          14          15          16          17
    1   1.5200000   1.2000000   1.5200000   1.5200000   1.5200000
 -------------------------------------------------------
 OpenMP BLAS3 based DFT computing Module                
 Release: version 1.0, May 2013, Q-Chem Inc. Pittsburgh 
 -------------------------------------------------------
 A unrestricted SCF calculation will be
 performed using Roothaan-Hall, DIIS, GDM
 SCF converges when RMS gradient is below 1.0e-07
 ---------------------------------------
  Cycle       Energy         DIIS error
 ---------------------------------------
    1    -533.5388423238      2.00e-04  Roothaan Step
 ---------------------------------------
  Cycle       Energy         DIIS error
 ---------------------------------------
    1    -533.5664173292      2.17e-04  
    2    -533.5708336811      1.61e-04  Done DIIS. Switching to GDM
 ---------------------------------------
  Cycle       Energy        RMS Gradient
 ---------------------------------------
    1    -533.5708336811      5.18e-03   Normal BFGS step
    2    -533.5711441967      5.95e-03   Normal BFGS step
    3    -533.5724562139      8.84e-04   Normal BFGS step
    4    -533.5724724341      5.61e-04   Normal BFGS step
    5    -533.5724808224      3.58e-04   Normal BFGS step
    6    -533.5724814171      2.35e-04   Normal BFGS step
    7    -533.5724820531      1.47e-04   Normal BFGS step
    8    -533.5724821646      6.03e-05   Normal BFGS step
    9    -533.5724821894      1.74e-05   Normal BFGS step
   10    -533.5724821954      1.01e-05   Normal BFGS step
   11    -533.5724821964      5.94e-06   Normal BFGS step
   12    -533.5724821968      2.13e-06   Normal BFGS step
   13    -533.5724821969      1.99e-06   Normal BFGS step
   14    -533.5724821969      1.47e-06   Normal BFGS step
   15    -533.5724821969      1.33e-06   Normal BFGS step
   16    -533.5724821970      1.43e-06   Normal BFGS step
   17    -533.5724821970      1.25e-06   Normal BFGS step
   18    -533.5724821970      9.36e-07   Normal BFGS step
   19    -533.5724821970      7.96e-07   Normal BFGS step
   20    -533.5724821970      4.49e-07   Normal BFGS step
   21    -533.5724821970      1.76e-07   Normal BFGS step
   22    -533.5724821970      1.10e-07   Normal BFGS step
   23    -533.5724821970      3.48e-08  Convergence criterion met
 ---------------------------------------
 SCF time:   CPU 3064.18s  wall 210.00s 
<S^2> =          0.754290440
(3)  G-ENP(liq) elect-nuc-pol free energy of system     -533.572482197 a.u.
(4)  G-CDS(liq) cavity-dispersion-solvent structure 
     free energy                                                2.3477 kcal/mol
(6)  G-S(liq) free energy of system                     -533.568740897 a.u.
 SCF   energy in the final basis set =     -533.5687408971
 Total energy in the final basis set =     -533.5687408971
 
 --------------------------------------------------------------
 
                    Orbital Energies (a.u.)
 --------------------------------------------------------------
 
 Alpha MOs
 -- Occupied --
-19.4053 -19.4050 -19.3920 -19.3535 -10.4112 -10.4091 -10.4088 -10.4085
-10.3532 -10.3494  -1.2754  -1.1809  -1.1669  -1.0709  -0.9629  -0.8828
 -0.8301  -0.7583  -0.7283  -0.6883  -0.6672  -0.6325  -0.6086  -0.5841
 -0.5712  -0.5606  -0.5523  -0.5406  -0.5164  -0.4952  -0.4908  -0.4669
 -0.4543  -0.4406  -0.4027  -0.3948  -0.3675  -0.3605
 -- Virtual --
  0.0248   0.0361   0.0378   0.0451   0.0519   0.0575   0.0604   0.0789
  0.0853   0.0935   0.1090   0.1154   0.1314   0.1341   0.1368   0.1403
  0.1435   0.1490   0.1504   0.1547   0.1590   0.1622   0.1729   0.1739
  0.1846   0.1883   0.1936   0.1990   0.2051   0.2250   0.2301   0.2367
  0.2408   0.2502   0.2704   0.2753   0.2891   0.2925   0.2978   0.3155
  0.3186   0.3220   0.3289   0.3364   0.3417   0.3584   0.3601   0.3657
  0.3709   0.3727   0.3820   0.3833   0.3891   0.3956   0.4022   0.4030
  0.4105   0.4211   0.4305   0.4364   0.4505   0.4700   0.4705   0.4915
  0.5034   0.5166   0.5463   0.5500   0.5865   0.5920   0.6040   0.6183
  0.6237   0.6364   0.6449   0.6662   0.6804   0.6879   0.6993   0.7039
  0.7126   0.7203   0.7331   0.7336   0.7455   0.7582   0.7605   0.7723
  0.7827   0.8121   0.8156   0.8326   0.8392   0.8443   0.8674   0.9045
  0.9117   0.9339   0.9762   0.9865   1.0182   1.0309   1.0542   1.0764
  1.0971   1.1136   1.1187   1.1299   1.1384   1.1529   1.1660   1.1739
  1.1788   1.1991   1.2041   1.2141   1.2192   1.2316   1.2406   1.2575
  1.2663   1.2763   1.2823   1.3018   1.3166   1.3284   1.3362   1.3396
  1.3444   1.3749   1.3812   1.3920   1.3963   1.4099   1.4178   1.4258
  1.4578   1.4657   1.4707   1.4855   1.5062   1.5169   1.5282   1.5425
  1.5647   1.5757   1.5860   1.5892   1.6117   1.6148   1.6546   1.6846
  1.7075   1.7218   1.7495   1.7644   1.7763   1.8016   1.8265   1.8465
  1.8620   1.8708   1.8989   1.9448   1.9551   1.9881   2.0261   2.0369
  2.0644   2.0994   2.1231   2.1476   2.1871   2.2249   2.2657   2.2804
  2.3249   2.3424   2.3795   2.4254   2.4404   2.4648   2.5572   2.6443
  2.6593   2.7131   2.7391   2.7544   2.7603   2.7867   2.8036   2.8225
  2.8436   2.8478   2.8770   2.8826   2.9002   2.9336   2.9505   2.9584
  2.9681   2.9950   3.0037   3.0390   3.0439   3.0581   3.0665   3.1015
  3.1461   3.1643   3.1787   3.2276   3.2619   3.2738   3.2971   3.3113
  3.3475   3.3605   3.3909   3.3998   3.4109   3.4219   3.4693   3.4756
  3.4876   3.5064   3.5189   3.5294   3.5535   3.5890   3.6044   3.6161
  3.6381   3.6614   3.6770   3.6943   3.7096   3.7183   3.7412   3.7484
  3.7650   3.7832   3.7910   3.8074   3.8228   3.8487   3.8550   3.8871
  3.8994   3.9097   3.9354   3.9456   3.9603   3.9988   4.0116   4.0326
  4.0584   4.0634   4.0779   4.1157   4.1434   4.1767   4.2096   4.2134
  4.2510   4.2842   4.2934   4.3105   4.3338   4.3522   4.3580   4.3810
  4.3961   4.4263   4.4385   4.4647   4.4901   4.4971   4.5344   4.5626
  4.5873   4.5971   4.6283   4.6400   4.6850   4.7056   4.7151   4.7329
  4.7622   4.8057   4.8259   4.8759   4.9589   5.0070   5.0547   5.0780
  5.1172   5.1326   5.1960   5.2095   5.2531   5.2794   5.2849   5.3045
  5.3102   5.3213   5.3389   5.3604   5.3820   5.3939   5.4110   5.4509
  5.4692   5.4854   5.5065   5.5250   5.5504   5.5755   5.5909   5.6152
  5.6218   5.6736   5.7052   5.7376   5.7652   5.7981   5.8264   5.8872
  5.9488   5.9512   5.9804   6.0354   6.0594   6.0871   6.1662   6.2659
  6.6354   6.6474   6.7028   6.7351   6.7936   6.9104   6.9573   7.0210
  7.1215   7.2964   7.3145   7.3223   7.3805   7.3826   7.3895   7.4343
  7.4600   7.4661   7.5375   7.6268   7.7180   7.7228   7.8381   7.8924
  7.9430   8.2327  24.3687  24.6993  24.7899  24.8311  24.8495  25.2345
 50.5416  50.5900  50.6501  50.6600
 
 Beta MOs
 -- Occupied --
-19.4053 -19.4051 -19.3696 -19.3528 -10.4115 -10.4091 -10.4085 -10.4082
-10.3529 -10.3495  -1.2753  -1.1762  -1.1229  -1.0700  -0.9588  -0.8819
 -0.8206  -0.7573  -0.7227  -0.6869  -0.6628  -0.6270  -0.5940  -0.5782
 -0.5662  -0.5486  -0.5421  -0.5350  -0.5068  -0.4927  -0.4802  -0.4579
 -0.4424  -0.4079  -0.3864  -0.3661  -0.3610
 -- Virtual --
 -0.0603   0.0250   0.0362   0.0379   0.0455   0.0527   0.0576   0.0605
  0.0793   0.0857   0.0945   0.1096   0.1160   0.1315   0.1346   0.1373
  0.1411   0.1438   0.1503   0.1511   0.1550   0.1593   0.1624   0.1733
  0.1744   0.1848   0.1885   0.1937   0.1997   0.2056   0.2254   0.2303
  0.2376   0.2414   0.2507   0.2708   0.2772   0.2900   0.2938   0.2988
  0.3165   0.3203   0.3239   0.3337   0.3391   0.3424   0.3598   0.3605
  0.3689   0.3720   0.3743   0.3830   0.3850   0.3891   0.3967   0.4025
  0.4055   0.4118   0.4221   0.4329   0.4374   0.4521   0.4718   0.4731
  0.4924   0.5050   0.5185   0.5471   0.5507   0.5869   0.5935   0.6051
  0.6190   0.6285   0.6376   0.6461   0.6672   0.6826   0.6934   0.7006
  0.7042   0.7129   0.7207   0.7341   0.7359   0.7462   0.7588   0.7626
  0.7732   0.7830   0.8128   0.8159   0.8336   0.8401   0.8446   0.8687
  0.9049   0.9137   0.9346   0.9770   0.9881   1.0196   1.0323   1.0552
  1.0774   1.0982   1.1152   1.1198   1.1310   1.1409   1.1559   1.1722
  1.1755   1.1820   1.2002   1.2072   1.2209   1.2221   1.2362   1.2441
  1.2627   1.2692   1.2788   1.2832   1.3049   1.3182   1.3331   1.3379
  1.3423   1.3472   1.3789   1.3834   1.3937   1.4023   1.4114   1.4196
  1.4279   1.4599   1.4694   1.4747   1.4888   1.5081   1.5203   1.5321
  1.5445   1.5659   1.5773   1.5878   1.5910   1.6163   1.6222   1.6597
  1.6874   1.7096   1.7267   1.7522   1.7653   1.7833   1.8040   1.8373
  1.8542   1.8650   1.8779   1.9104   1.9540   1.9603   1.9911   2.0284
  2.0447   2.0750   2.1021   2.1248   2.1481   2.1907   2.2310   2.2678
  2.2831   2.3264   2.3530   2.3817   2.4264   2.4434   2.4759   2.5614
  2.6463   2.6671   2.7142   2.7399   2.7556   2.7611   2.7874   2.8061
  2.8237   2.8443   2.8498   2.8806   2.8830   2.9007   2.9350   2.9533
  2.9610   2.9698   2.9956   3.0046   3.0397   3.0454   3.0591   3.0676
  3.1032   3.1479   3.1647   3.1803   3.2288   3.2630   3.2741   3.2987
  3.3124   3.3489   3.3622   3.3917   3.4007   3.4123   3.4237   3.4710
  3.4766   3.4893   3.5074   3.5197   3.5308   3.5545   3.5942   3.6055
  3.6166   3.6399   3.6624   3.6780   3.6950   3.7119   3.7193   3.7421
  3.7499   3.7669   3.7842   3.7920   3.8099   3.8246   3.8502   3.8566
  3.8892   3.9008   3.9110   3.9366   3.9471   3.9620   4.0036   4.0147
  4.0341   4.0616   4.0644   4.0787   4.1175   4.1442   4.1785   4.2109
  4.2154   4.2525   4.2870   4.2955   4.3159   4.3365   4.3554   4.3607
  4.3837   4.3981   4.4285   4.4431   4.4675   4.4916   4.5019   4.5409
  4.5650   4.5897   4.6013   4.6305   4.6408   4.6863   4.7064   4.7175
  4.7360   4.7641   4.8088   4.8275   4.8784   4.9605   5.0101   5.0579
  5.0818   5.1765   5.1976   5.2100   5.2577   5.2763   5.2832   5.2937
  5.3112   5.3242   5.3357   5.3474   5.3786   5.3968   5.4237   5.4317
  5.4646   5.4781   5.4956   5.5168   5.5288   5.5666   5.5814   5.5978
  5.6209   5.6237   5.6752   5.7073   5.7398   5.7674   5.8017   5.8276
  5.8896   5.9527   5.9815   5.9950   6.0368   6.0678   6.0956   6.1700
  6.2663   6.6356   6.6491   6.7139   6.7358   6.8087   7.0080   7.0233
  7.0642   7.1255   7.2972   7.3204   7.3315   7.3885   7.4059   7.4361
  7.4471   7.4660   7.4888   7.5408   7.6270   7.7228   7.7655   7.8391
  7.8931   7.9432   8.2327  24.3688  24.6995  24.7898  24.8312  24.8496
 25.2347  50.5563  50.5900  50.6504  50.6611
 --------------------------------------------------------------
 
          Ground-State Mulliken Net Atomic Charges

     Atom                 Charge (a.u.)    Spin (a.u.)
  --------------------------------------------------------
      1 H                     0.303205       0.002050
      2 C                    -0.279759       0.000100
      3 C                    -0.140161      -0.004767
      4 H                     0.298683      -0.001208
      5 C                    -0.320072       0.038732
      6 H                     0.287869       0.091098
      7 C                    -0.235164      -0.002248
      8 H                     0.286052      -0.001895
      9 C                    -0.060995       0.008443
     10 H                     0.292322       0.002997
     11 C                    -0.145210       0.001538
     12 H                     0.277474      -0.000079
     13 O                    -0.409295       0.014517
     14 H                     0.345835      -0.001615
     15 O                    -0.131305       0.001770
     16 O                    -0.145672      -0.000414
     17 O                    -0.223809       0.850982
  --------------------------------------------------------
  Sum of atomic charges =     0.000000
  Sum of spin   charges =     1.000000

 -----------------------------------------------------------------
                    Cartesian Multipole Moments
 -----------------------------------------------------------------
    Charge (ESU x 10^10)
                 0.0000
    Dipole Moment (Debye)
         X       1.0949      Y       0.6298      Z      -1.4661
       Tot       1.9352
    Quadrupole Moments (Debye-Ang)
        XX     -55.8485     XY      -2.1189     YY     -71.3262
        XZ      -1.2145     YZ      -5.8882     ZZ     -45.1899
    Octopole Moments (Debye-Ang^2)
       XXX     140.8889    XXY     -81.3404    XYY      70.3695
       YYY    -303.8071    XXZ      45.5791    XYZ      -1.9706
       YYZ      35.3837    XZZ      49.0521    YZZ     -47.9934
       ZZZ      93.8118
    Hexadecapole Moments (Debye-Ang^3)
      XXXX    -615.4022   XXXY     235.6273   XXYY    -372.4476
      XYYY     379.7982   YYYY   -1491.2760   XXXZ    -106.1373
      XXYZ      69.4024   XYYZ     -66.3496   YYYZ     152.0515
      XXZZ    -200.1483   XYZZ      78.1811   YYZZ    -223.1719
      XZZZ     -98.4819   YZZZ      87.7802   ZZZZ    -451.2112
 -----------------------------------------------------------------
 Calculating analytic gradient of the SCF energy
 Gradient of CDS energy
            1           2           3           4           5           6
    1   0.0001123   0.0002243  -0.0001456  -0.0000629  -0.0005028  -0.0002148
    2  -0.0000345  -0.0000793   0.0001539   0.0000900   0.0071238  -0.0000699
    3   0.0001625   0.0003162   0.0003054   0.0001698  -0.0019519   0.0000241
            7           8           9          10          11          12
    1  -0.0001329  -0.0001275   0.0008842   0.0000115   0.0001200   0.0001777
    2  -0.0002090   0.0000572   0.0018780  -0.0001802  -0.0002683  -0.0001247
    3  -0.0000812  -0.0001552   0.0001126  -0.0001419  -0.0001725  -0.0000077
           13          14          15          16          17
    1  -0.0009178   0.0002499   0.0000822  -0.0000904   0.0003325
    2  -0.0018669   0.0003716  -0.0000353   0.0000357  -0.0068421
    3  -0.0000621  -0.0002759   0.0000618  -0.0000747   0.0017706
 Gradient of SCF Energy
            1           2           3           4           5           6
    1   0.0035697  -0.0013767   0.0014604  -0.0017920   0.0077081  -0.0068545
    2  -0.0010999   0.0059805  -0.0073303   0.0011755   0.0066730  -0.0008841
    3   0.0044972  -0.0040151  -0.0045014   0.0040203  -0.0017967   0.0011418
            7           8           9          10          11          12
    1   0.0046804  -0.0046001  -0.0024609   0.0036207  -0.0116517   0.0078455
    2  -0.0078988   0.0026204   0.0078129  -0.0025452  -0.0028389  -0.0025044
    3   0.0083039  -0.0088677   0.0104205  -0.0101075  -0.0011222   0.0000954
           13          14          15          16          17
    1   0.0041594  -0.0030058  -0.0017508   0.0006111  -0.0001625
    2  -0.0034968   0.0050214  -0.0019901  -0.0024643   0.0037690
    3   0.0167123  -0.0151898   0.0004865  -0.0002871   0.0002095
 Max gradient component =       1.671E-02
 RMS gradient           =       5.796E-03
 Computing fast CPCM-SWIG gradient
 Updating gradient with PCM contributions...
 -- total gradient after adding PCM contribution --
---------------------------------------------------
  Atom         X              Y              Z     
---------------------------------------------------
   1      -0.000073       0.000058      -0.000156
   2      -0.000089       0.000083      -0.000033
   3       0.000207       0.000098      -0.000088
   4       0.000011      -0.000203      -0.000098
   5      -0.000472      -0.001264       0.000457
   6       0.000401       0.000269      -0.000100
   7      -0.000116       0.000113      -0.000208
   8       0.000128      -0.000078       0.000133
   9      -0.000015      -0.000140       0.000043
  10      -0.000032       0.000103       0.000187
  11      -0.000089       0.000170       0.000010
  12      -0.000135       0.000020      -0.000022
  13       0.000042      -0.000076      -0.000374
  14      -0.000068      -0.000120       0.000413
  15      -0.000019       0.000205       0.000016
  16       0.000236      -0.000034       0.000105
  17       0.000085       0.000797      -0.000286
---------------------------------------------------
 Number of fixed atoms: 0
 Gradient time:  CPU 415.84 s  wall 33.82 s
 Geometry Optimization Parameters
   NAtoms,    NIC,     NZ,  NCons,   NDum,   NFix, NCnnct, MaxDiis
       17     138       0       0       0       0       0       0

 Cartesian Hessian Update
 Hessian updated using BFGS update


** GEOMETRY OPTIMIZATION IN DELOCALIZED INTERNAL COORDINATES **
   Searching for a Minimum

   Optimization Cycle:   3

                       Coordinates (Angstroms)
     ATOM                X               Y               Z
      1  H         0.4674631982    0.9864753100    1.6187786930
      2  C        -0.1381548027    1.1724251807    0.7425745879
      3  C        -1.2264296258    1.9284423296    0.7996444788
      4  H        -1.5487976637    2.4022684692    1.7174998133
      5  C        -2.0578578177    2.1808160227   -0.4331516788
      6  H        -3.1154659971    1.9209209531   -0.2324573964
      7  C        -1.6083907745    1.3038619500   -1.6130309996
      8  H        -2.1595321300    1.5371588929   -2.5199800276
      9  C        -0.0889328102    1.3984629234   -1.7472394552
     10  H         0.2473689020    0.9311052116   -2.6710985544
     11  C         0.2555898020    0.5173807392   -0.5551031381
     12  H         1.2753439519    0.1434984118   -0.5639457964
     13  O         0.4190703303    2.7037259711   -1.6093868727
     14  H         0.2569964513    3.1797722106   -2.4313712170
     15  O        -1.8372670603   -0.0695576792   -1.3025584579
     16  O        -0.5683248280   -0.6232989181   -0.8199588862
     17  O        -2.1301302255    3.5142846207   -0.7752239928
   Point Group: c1    Number of degrees of freedom:    45


   Energy is   -533.568740897

 Hessian updated using BFGS update

 45 Hessian modes will be used to form the next step
  Hessian Eigenvalues:
     0.005422    0.012898    0.013936    0.014355    0.018923    0.019759
     0.028859    0.037553    0.043631    0.049621    0.053481    0.056473
     0.059693    0.066777    0.074780    0.079925    0.092726    0.094011
     0.100397    0.102347    0.152129    0.155080    0.159503    0.159940
     0.162816    0.192126    0.214739    0.256589    0.268706    0.277694
     0.296840    0.305546    0.313577    0.332487    0.343989    0.346421
     0.348408    0.351910    0.356898    0.364521    0.404307    0.443447
     0.459261    0.551959    0.561088

 Minimum search - taking simple RFO step
 Searching for Lamda that Minimizes Along All modes
 Value Taken    Lamda =  -0.00001705
 Step Taken.  Stepsize is  0.043596

                             Maximum     Tolerance    Cnvgd?
         Gradient           0.000503      0.000300      NO
         Displacement       0.023324      0.001200      NO
         Energy change     -0.000033      0.000001      NO


 New Cartesian Coordinates Obtained by Inverse Iteration

 Displacement from previous Coordinates is:  0.046375
 ----------------------------------------------------------------
             Standard Nuclear Orientation (Angstroms)
    I     Atom           X                Y                Z
 ----------------------------------------------------------------
    1      H       0.4681588512     0.9872361359     1.6192137828
    2      C      -0.1384732867     1.1724360124     0.7432323919
    3      C      -1.2257242947     1.9303536715     0.8002696798
    4      H      -1.5458240827     2.4083869603     1.7170128053
    5      C      -2.0588642740     2.1803822701    -0.4319358675
    6      H      -3.1150610820     1.9109970632    -0.2296646562
    7      C      -1.6078577197     1.3058847601    -1.6133796654
    8      H      -2.1586053331     1.5419135049    -2.5201287391
    9      C      -0.0883363425     1.3990814032    -1.7471913777
   10      H       0.2472334281     0.9305028404    -2.6710694825
   11      C       0.2546355852     0.5167828298    -0.5548704621
   12      H       1.2742200488     0.1420787818    -0.5632717786
   13      O       0.4208911765     2.7040751789    -1.6101463021
   14      H       0.2684017003     3.1762994230    -2.4363088070
   15      O      -1.8376190163    -0.0684286788    -1.3067605280
   16      O      -0.5711272692    -0.6225919027    -0.8207885775
   17      O      -2.1434991893     3.5123523458    -0.7702213164
 ----------------------------------------------------------------
 Nuclear Repulsion Energy =         578.37270806 hartrees
 There are       38 alpha and       37 beta electrons
 Discretize the solute cavity surface with Lebedev spheres
	Using 110 Lebedev grid points for each H atom
	Using 194 Lebedev grid points for other atoms
	Atomic van der Waals radii will be scaled by 1.20
 Remove points where switching function is < 1.0e-08
 Keep 1254 surface tesserae and discard 1456 interior tesserae
 Molecular Surface Area = 143.283 Angst**2
 Applying Cartesian multipole field
    Component          Value
    ---------          -----
     (2,0,0)        1.00000E-11
     (0,2,0)        2.00000E-11
     (0,0,2)       -3.00000E-11
 Nucleus-field energy     =     0.0000000117 hartrees
 Requested basis set is 6-311++G(2df,2p)
 There are 122 shells and 410 basis functions
 A cutoff of  1.0D-12 yielded   7025 shell pairs
 There are     80462 function pairs (    101364 Cartesian)
 Smallest overlap matrix eigenvalue = 3.81E-06
 Guess MOs from SCF MO coefficient file

 -----------------------------------------------------------------------
  General SCF calculation program by
  Eric Jon Sundstrom, Paul Horn, Yuezhi Mao, Dmitri Zuev, Alec White,
  David Stuck, Shaama M.S., Shane Yost, Joonho Lee, David Small,
  Daniel Levine, Susi Lehtola, Hugh Burton, Evgeny Epifanovsky,
  Bang C. Huynh
 -----------------------------------------------------------------------
 Exchange:     0.1500 Hartree-Fock + 1.0000 wB97M-V + LR-HF
 Correlation:  1.0000 wB97M-V
 Using SG-2 standard quadrature grid
 Nonlocal Correlation:  VV10 with C = 0.0100 and b = 6.00 and scale = 1.00000
 Grid used for NLC:  SG-1 standard quadrature
 
 Citation of the SMD model:
 Marenich, A.V.; Cramer, C.J.; Truhlar, D.G.
 J. Phys. Chem. B 2009, 113, 6378-6396.
 iSolventCode=           1
 Solvent: water                                                           
 
 vradii
            1           2           3           4           5           6
    1   1.2000000   1.8500000   1.8500000   1.2000000   1.8500000   1.2000000
            7           8           9          10          11          12
    1   1.8500000   1.2000000   1.8500000   1.2000000   1.8500000   1.2000000
           13          14          15          16          17
    1   1.5200000   1.2000000   1.5200000   1.5200000   1.5200000
[...]
     14 H                     0.346689      -0.001397
     15 O                    -0.130310       0.001717
     16 O                    -0.146082      -0.000429
     17 O                    -0.224419       0.848693
  --------------------------------------------------------
  Sum of atomic charges =     0.000000
  Sum of spin   charges =     1.000000

 -----------------------------------------------------------------
                    Cartesian Multipole Moments
 -----------------------------------------------------------------
    Charge (ESU x 10^10)
                 0.0000
    Dipole Moment (Debye)
         X       1.1896      Y       0.6037      Z      -1.4945
       Tot       2.0033
    Quadrupole Moments (Debye-Ang)
        XX     -55.9365     XY      -1.7760     YY     -71.4867
        XZ      -1.4309     YZ      -5.9527     ZZ     -45.0402
    Octopole Moments (Debye-Ang^2)
       XXX     141.7494    XXY     -81.8328    XYY      71.7007
       YYY    -304.6701    XXZ      45.5660    XYZ      -2.5775
       YYZ      35.3383    XZZ      49.7635    YZZ     -47.5787
       ZZZ      93.1189
    Hexadecapole Moments (Debye-Ang^3)
      XXXX    -619.7076   XXXY     238.7286   XXYY    -374.8625
      XYYY     384.7724   YYYY   -1494.3049   XXXZ    -106.8514
      XXYZ      69.1796   XYYZ     -68.3046   YYYZ     152.1409
      XXZZ    -200.5913   XYZZ      80.0202   YYZZ    -222.2056
      XZZZ    -100.0040   YZZZ      85.6728   ZZZZ    -449.4429
 -----------------------------------------------------------------
 Calculating analytic gradient of the SCF energy
 Gradient of CDS energy
            1           2           3           4           5           6
    1   0.0001127   0.0002242  -0.0001444  -0.0000629  -0.0005846  -0.0002133
    2  -0.0000344  -0.0000799   0.0001518   0.0000912   0.0071241  -0.0000755
    3   0.0001626   0.0003165   0.0003051   0.0001696  -0.0019312   0.0000250
            7           8           9          10          11          12
    1  -0.0001326  -0.0001277   0.0008605   0.0000117   0.0001197   0.0001778
    2  -0.0002091   0.0000566   0.0018278  -0.0001785  -0.0002692  -0.0001248
    3  -0.0000825  -0.0001548   0.0001141  -0.0001421  -0.0001730  -0.0000077
           13          14          15          16          17
    1  -0.0008969   0.0002534   0.0000814  -0.0000904   0.0004115
    2  -0.0018254   0.0003737  -0.0000352   0.0000358  -0.0068290
    3  -0.0000630  -0.0002733   0.0000625  -0.0000749   0.0017469
 Gradient of SCF Energy
            1           2           3           4           5           6
    1   0.0036485  -0.0013488   0.0013560  -0.0017581   0.0079327  -0.0071253
    2  -0.0011517   0.0059724  -0.0075295   0.0013890   0.0082745  -0.0012382
    3   0.0046636  -0.0039455  -0.0043965   0.0040655  -0.0023045   0.0012668
            7           8           9          10          11          12
    1   0.0047386  -0.0046758  -0.0024635   0.0037840  -0.0116168   0.0080300
    2  -0.0079576   0.0026489   0.0079238  -0.0026660  -0.0029525  -0.0025623
    3   0.0083766  -0.0089007   0.0106121  -0.0104199  -0.0011633   0.0001174
           13          14          15          16          17
    1   0.0035149  -0.0024850  -0.0018168   0.0004569  -0.0001714
    2  -0.0032414   0.0049902  -0.0021899  -0.0024828   0.0027734
    3   0.0175309  -0.0160183   0.0004277  -0.0003789   0.0004669
 Max gradient component =       1.753E-02
 RMS gradient           =       5.960E-03
 Computing fast CPCM-SWIG gradient
 Updating gradient with PCM contributions...
 -- total gradient after adding PCM contribution --
---------------------------------------------------
  Atom         X              Y              Z     
---------------------------------------------------
   1      -0.000005       0.000005       0.000008
   2       0.000025       0.000008      -0.000012
   3       0.000023      -0.000035       0.000040
   4      -0.000003       0.000032      -0.000006
   5      -0.000013       0.000288      -0.000101
   6      -0.000022      -0.000040       0.000018
   7       0.000047      -0.000025      -0.000018
   8      -0.000027       0.000000      -0.000008
   9      -0.000041       0.000006      -0.000010
  10       0.000025      -0.000022       0.000006
  11      -0.000027       0.000034       0.000046
  12       0.000005      -0.000023       0.000013
  13       0.000039      -0.000037       0.000068
  14      -0.000037       0.000026      -0.000076
  15      -0.000094       0.000036      -0.000026
  16       0.000084      -0.000056       0.000017
  17       0.000019      -0.000197       0.000042
---------------------------------------------------
 Number of fixed atoms: 0
 Gradient time:  CPU 425.23 s  wall 32.90 s
 Geometry Optimization Parameters
   NAtoms,    NIC,     NZ,  NCons,   NDum,   NFix, NCnnct, MaxDiis
       17     138       0       0       0       0       0       0

 Cartesian Hessian Update
 Hessian updated using BFGS update


** GEOMETRY OPTIMIZATION IN DELOCALIZED INTERNAL COORDINATES **
   Searching for a Minimum

   Optimization Cycle:   7

                       Coordinates (Angstroms)
     ATOM                X               Y               Z
      1  H         0.4686272599    0.9877722568    1.6190427441
      2  C        -0.1383583658    1.1728668353    0.7432881650
      3  C        -1.2257957339    1.9304152358    0.8008345553
      4  H        -1.5453064429    2.4091435659    1.7174736264
      5  C        -2.0605262533    2.1799781691   -0.4309188698
      6  H        -3.1156323372    1.9065597052   -0.2271840595
      7  C        -1.6093021139    1.3060229145   -1.6131825167
      8  H        -2.1607828448    1.5425610367   -2.5194981005
      9  C        -0.0897682055    1.4007382306   -1.7466454656
     10  H         0.2472092991    0.9340344117   -2.6708688834
     11  C         0.2539379394    0.5175229634   -0.5550661800
     12  H         1.2735996334    0.1428130183   -0.5641161649
     13  O         0.4164405662    2.7068847227   -1.6083764749
     14  H         0.2864741789    3.1702682961   -2.4436478262
     15  O        -1.8386476548   -0.0682083285   -1.3072658057
     16  O        -0.5709406614   -0.6223230728   -0.8215539213
     17  O        -2.1486793635    3.5106926389   -0.7683237223
   Point Group: c1    Number of degrees of freedom:    45


   Energy is   -533.568755453

 Hessian updated using BFGS update

 45 Hessian modes will be used to form the next step
  Hessian Eigenvalues:
     0.002320    0.005764    0.013366    0.014264    0.019016    0.020003
     0.028808    0.037718    0.043576    0.049660    0.053047    0.056806
     0.059863    0.066727    0.074778    0.080233    0.092721    0.095231
     0.100747    0.102443    0.152567    0.155888    0.159498    0.159935
     0.165383    0.194478    0.215408    0.261415    0.268797    0.278981
     0.296925    0.310871    0.313909    0.332131    0.344046    0.346571
     0.348332    0.351885    0.357417    0.364927    0.403696    0.451212
     0.453343    0.550309    0.564824

 Minimum search - taking simple RFO step
 Searching for Lamda that Minimizes Along All modes
 Value Taken    Lamda =  -0.00000047
 Step Taken.  Stepsize is  0.009667

                             Maximum     Tolerance    Cnvgd?
         Gradient           0.000114      0.000300     YES
         Displacement       0.004596      0.001200      NO
         Energy change     -0.000001      0.000001     YES

 Final energy is   -533.568755452734     


 ******************************
 **  OPTIMIZATION CONVERGED  **
 ******************************

                       Coordinates (Angstroms)
     ATOM                X               Y               Z
      1  H         0.4686272599    0.9877722568    1.6190427441
      2  C        -0.1383583658    1.1728668353    0.7432881650
      3  C        -1.2257957339    1.9304152358    0.8008345553
      4  H        -1.5453064429    2.4091435659    1.7174736264
      5  C        -2.0605262533    2.1799781691   -0.4309188698
      6  H        -3.1156323372    1.9065597052   -0.2271840595
      7  C        -1.6093021139    1.3060229145   -1.6131825167
      8  H        -2.1607828448    1.5425610367   -2.5194981005
      9  C        -0.0897682055    1.4007382306   -1.7466454656
     10  H         0.2472092991    0.9340344117   -2.6708688834
     11  C         0.2539379394    0.5175229634   -0.5550661800
     12  H         1.2735996334    0.1428130183   -0.5641161649
     13  O         0.4164405662    2.7068847227   -1.6083764749
     14  H         0.2864741789    3.1702682961   -2.4436478262
     15  O        -1.8386476548   -0.0682083285   -1.3072658057
     16  O        -0.5709406614   -0.6223230728   -0.8215539213
     17  O        -2.1486793635    3.5106926389   -0.7683237223

Z-matrix Print:
$molecule
0 2
O 
C  1 1.426428
H  2 1.086963 1 107.872310
O  1 1.466302 2 107.223838 3 140.972854 0
C  4 1.432023 1 105.002056 2 13.740789 0
H  5 1.086370 4 105.340659 1 -159.162906 0
C  5 1.506352 4 110.896004 1 77.430690 0
H  7 1.081498 5 118.510958 4 101.773347 0
C  7 1.326541 5 119.955285 4 -76.594060 0
H  9 1.082356 7 122.094359 5 179.352505 0
C  9 1.508732 7 120.836334 5 -1.761252 0
H  11 1.108835 9 109.612889 7 125.975428 0
O  11 1.375650 9 113.309939 7 -119.765193 0
C  5 1.522519 4 100.723180 1 -40.486799 0
H  14 1.088832 5 110.230944 4 -65.302474 0
O  14 1.407617 5 112.347448 4 169.412992 0
H  16 0.963999 14 108.206427 5 171.356600 0
$end

 
 --------------------------------------------------------------
 
                    Orbital Energies (a.u.)
 --------------------------------------------------------------
 
 Alpha MOs
 -- Occupied --
-19.4053 -19.4050 -19.3918 -19.3535 -10.4113 -10.4092 -10.4088 -10.4086
-10.3534 -10.3495  -1.2752  -1.1808  -1.1675  -1.0708  -0.9628  -0.8826
 -0.8299  -0.7582  -0.7279  -0.6885  -0.6667  -0.6327  -0.6086  -0.5843
 -0.5715  -0.5607  -0.5522  -0.5405  -0.5157  -0.4952  -0.4909  -0.4672
 -0.4548  -0.4398  -0.4028  -0.3947  -0.3674  -0.3602
 -- Virtual --
  0.0248   0.0361   0.0378   0.0450   0.0521   0.0575   0.0604   0.0786
  0.0852   0.0936   0.1089   0.1153   0.1314   0.1341   0.1369   0.1400
  0.1434   0.1487   0.1504   0.1546   0.1591   0.1622   0.1730   0.1742
  0.1845   0.1883   0.1937   0.1987   0.2050   0.2251   0.2301   0.2366
  0.2409   0.2501   0.2706   0.2750   0.2891   0.2923   0.2978   0.3155
  0.3191   0.3216   0.3285   0.3366   0.3417   0.3577   0.3601   0.3657
  0.3709   0.3723   0.3817   0.3833   0.3889   0.3955   0.4022   0.4030
  0.4109   0.4206   0.4298   0.4351   0.4504   0.4699   0.4713   0.4921
  0.5037   0.5170   0.5462   0.5499   0.5867   0.5918   0.6042   0.6176
  0.6237   0.6378   0.6445   0.6655   0.6809   0.6879   0.6993   0.7036
  0.7124   0.7204   0.7338   0.7344   0.7450   0.7549   0.7610   0.7719
  0.7822   0.8117   0.8136   0.8328   0.8390   0.8444   0.8670   0.9044
  0.9113   0.9323   0.9778   0.9848   1.0182   1.0327   1.0547   1.0761
  1.0971   1.1143   1.1205   1.1303   1.1387   1.1522   1.1661   1.1732
  1.1797   1.1990   1.2040   1.2123   1.2191   1.2309   1.2402   1.2575
  1.2665   1.2761   1.2824   1.3012   1.3166   1.3282   1.3355   1.3396
  1.3434   1.3726   1.3799   1.3912   1.3957   1.4103   1.4179   1.4247
  1.4578   1.4660   1.4707   1.4844   1.5045   1.5170   1.5292   1.5423
  1.5648   1.5758   1.5868   1.5879   1.6106   1.6161   1.6552   1.6826
  1.7077   1.7221   1.7490   1.7646   1.7764   1.8011   1.8254   1.8465
  1.8612   1.8717   1.9006   1.9446   1.9546   1.9884   2.0264   2.0377
  2.0659   2.0995   2.1231   2.1472   2.1872   2.2240   2.2653   2.2811
  2.3253   2.3428   2.3780   2.4254   2.4419   2.4664   2.5566   2.6440
  2.6587   2.7129   2.7386   2.7502   2.7615   2.7868   2.8025   2.8227
  2.8438   2.8474   2.8773   2.8826   2.9013   2.9341   2.9513   2.9577
  2.9674   2.9947   3.0046   3.0379   3.0435   3.0593   3.0656   3.1017
  3.1455   3.1645   3.1800   3.2252   3.2623   3.2737   3.2967   3.3099
  3.3469   3.3603   3.3902   3.4000   3.4096   3.4212   3.4690   3.4753
  3.4876   3.5063   3.5182   3.5277   3.5521   3.5904   3.6051   3.6167
  3.6374   3.6617   3.6755   3.6950   3.7099   3.7182   3.7417   3.7474
  3.7663   3.7806   3.7913   3.8080   3.8234   3.8489   3.8544   3.8864
  3.8995   3.9105   3.9312   3.9446   3.9602   3.9986   4.0115   4.0326
  4.0552   4.0621   4.0792   4.1152   4.1433   4.1768   4.2078   4.2128
  4.2494   4.2850   4.2918   4.3076   4.3339   4.3517   4.3560   4.3808
  4.3951   4.4245   4.4371   4.4639   4.4887   4.4959   4.5333   4.5621
  4.5859   4.5968   4.6282   4.6391   4.6849   4.7042   4.7148   4.7321
  4.7619   4.8050   4.8242   4.8749   4.9572   5.0063   5.0536   5.0769
  5.1175   5.1326   5.1968   5.2101   5.2532   5.2796   5.2855   5.3034
  5.3105   5.3214   5.3389   5.3605   5.3818   5.3957   5.4114   5.4500
  5.4689   5.4854   5.5071   5.5244   5.5500   5.5755   5.5894   5.6139
  5.6178   5.6670   5.7042   5.7395   5.7665   5.7989   5.8272   5.8874
  5.9498   5.9535   5.9773   6.0354   6.0618   6.0913   6.1667   6.2662
  6.6348   6.6487   6.7049   6.7350   6.7980   6.9108   6.9573   7.0205
  7.1220   7.2954   7.3136   7.3226   7.3817   7.3830   7.3889   7.4346
  7.4607   7.4663   7.5374   7.6270   7.7168   7.7242   7.8389   7.8926
  7.9423   8.2327  24.3685  24.6987  24.7900  24.8292  24.8494  25.2327
 50.5428  50.5899  50.6505  50.6594
 
 Beta MOs
 -- Occupied --
-19.4053 -19.4050 -19.3695 -19.3528 -10.4116 -10.4091 -10.4085 -10.4081
-10.3530 -10.3495  -1.2752  -1.1761  -1.1240  -1.0700  -0.9587  -0.8817
 -0.8204  -0.7572  -0.7223  -0.6871  -0.6622  -0.6273  -0.5938  -0.5780
 -0.5665  -0.5485  -0.5418  -0.5351  -0.5063  -0.4926  -0.4805  -0.4587
 -0.4423  -0.4080  -0.3862  -0.3661  -0.3607
 -- Virtual --
 -0.0605   0.0249   0.0362   0.0379   0.0454   0.0529   0.0576   0.0605
  0.0790   0.0856   0.0946   0.1096   0.1159   0.1316   0.1346   0.1373
  0.1410   0.1437   0.1502   0.1508   0.1549   0.1594   0.1625   0.1735
  0.1746   0.1847   0.1885   0.1938   0.1994   0.2056   0.2255   0.2302
  0.2375   0.2416   0.2506   0.2711   0.2769   0.2900   0.2938   0.2988
  0.3166   0.3205   0.3236   0.3334   0.3393   0.3424   0.3591   0.3605
  0.3686   0.3719   0.3741   0.3828   0.3850   0.3890   0.3966   0.4024
  0.4056   0.4121   0.4215   0.4324   0.4357   0.4523   0.4725   0.4728
  0.4930   0.5053   0.5189   0.5471   0.5506   0.5872   0.5934   0.6053
  0.6183   0.6283   0.6389   0.6458   0.6665   0.6832   0.6934   0.7007
  0.7039   0.7128   0.7209   0.7348   0.7366   0.7459   0.7554   0.7631
  0.7727   0.7825   0.8122   0.8140   0.8337   0.8402   0.8446   0.8682
  0.9047   0.9132   0.9330   0.9786   0.9864   1.0196   1.0340   1.0556
  1.0770   1.0982   1.1159   1.1216   1.1313   1.1413   1.1552   1.1720
  1.1747   1.1829   1.2004   1.2066   1.2201   1.2214   1.2355   1.2435
  1.2631   1.2698   1.2783   1.2833   1.3044   1.3183   1.3330   1.3370
  1.3423   1.3466   1.3771   1.3818   1.3930   1.4015   1.4118   1.4199
  1.4263   1.4601   1.4694   1.4747   1.4875   1.5066   1.5207   1.5328
  1.5443   1.5661   1.5773   1.5885   1.5899   1.6176   1.6210   1.6602
  1.6853   1.7098   1.7269   1.7516   1.7656   1.7833   1.8034   1.8371
  1.8530   1.8650   1.8783   1.9122   1.9537   1.9602   1.9912   2.0288
  2.0456   2.0764   2.1022   2.1246   2.1476   2.1907   2.2300   2.2674
  2.2837   2.3267   2.3537   2.3800   2.4264   2.4443   2.4781   2.5608
  2.6460   2.6666   2.7141   2.7394   2.7513   2.7625   2.7876   2.8049
  2.8239   2.8446   2.8497   2.8804   2.8836   2.9020   2.9353   2.9537
  2.9606   2.9694   2.9954   3.0055   3.0386   3.0449   3.0604   3.0668
  3.1034   3.1473   3.1649   3.1817   3.2264   3.2634   3.2740   3.2982
  3.3111   3.3483   3.3621   3.3910   3.4010   3.4110   3.4231   3.4706
  3.4762   3.4895   3.5074   3.5190   3.5292   3.5532   3.5956   3.6062
  3.6172   3.6392   3.6626   3.6766   3.6955   3.7123   3.7191   3.7426
  3.7488   3.7683   3.7817   3.7924   3.8105   3.8253   3.8504   3.8558
  3.8888   3.9009   3.9117   3.9324   3.9461   3.9620   4.0034   4.0146
  4.0344   4.0583   4.0631   4.0800   4.1169   4.1443   4.1786   4.2090
  4.2149   4.2509   4.2875   4.2935   4.3137   4.3366   4.3549   4.3594
  4.3834   4.3971   4.4268   4.4416   4.4668   4.4902   4.5008   4.5401
  4.5646   4.5882   4.6011   4.6304   4.6400   4.6863   4.7050   4.7173
  4.7352   4.7638   4.8082   4.8259   4.8774   4.9589   5.0095   5.0568
  5.0808   5.1766   5.1976   5.2098   5.2577   5.2760   5.2831   5.2945
  5.3116   5.3241   5.3360   5.3475   5.3789   5.3963   5.4245   5.4314
  5.4634   5.4787   5.4965   5.5166   5.5281   5.5664   5.5816   5.5966
  5.6187   5.6207   5.6687   5.7062   5.7417   5.7686   5.8023   5.8284
  5.8899   5.9527   5.9787   5.9965   6.0367   6.0704   6.1008   6.1709
  6.2666   6.6349   6.6503   6.7151   6.7356   6.8144   7.0076   7.0234
  7.0632   7.1262   7.2964   7.3196   7.3308   7.3878   7.4070   7.4359
  7.4465   7.4667   7.4909   7.5406   7.6271   7.7225   7.7658   7.8399
  7.8933   7.9424   8.2328  24.3686  24.6989  24.7900  24.8292  24.8495
 25.2329  50.5575  50.5899  50.6507  50.6605
 --------------------------------------------------------------
 
          Ground-State Mulliken Net Atomic Charges

     Atom                 Charge (a.u.)    Spin (a.u.)
  --------------------------------------------------------
      1 H                     0.302790       0.002091
      2 C                    -0.286330       0.000639
      3 C                    -0.128935      -0.005070
      4 H                     0.298548      -0.001216
      5 C                    -0.325103       0.039736
      6 H                     0.287687       0.092926
      7 C                    -0.234217      -0.002224
      8 H                     0.285946      -0.001904
      9 C                    -0.061488       0.008237
     10 H                     0.291221       0.002995
     11 C                    -0.142768       0.001394
     12 H                     0.277265      -0.000080
     13 O                    -0.410493       0.013891
     14 H                     0.346689      -0.001397
     15 O                    -0.130310       0.001717
     16 O                    -0.146082      -0.000429
     17 O                    -0.224419       0.848693
  --------------------------------------------------------
  Sum of atomic charges =     0.000000
  Sum of spin   charges =     1.000000

 -----------------------------------------------------------------
                    Cartesian Multipole Moments
 -----------------------------------------------------------------
    Charge (ESU x 10^10)
                 0.0000
    Dipole Moment (Debye)
         X       1.1896      Y       0.6037      Z      -1.4945
       Tot       2.0033
    Quadrupole Moments (Debye-Ang)
        XX     -55.9365     XY      -1.7760     YY     -71.4867
        XZ      -1.4309     YZ      -5.9527     ZZ     -45.0402
    Octopole Moments (Debye-Ang^2)
       XXX     141.7494    XXY     -81.8328    XYY      71.7007
       YYY    -304.6701    XXZ      45.5660    XYZ      -2.5775
       YYZ      35.3383    XZZ      49.7635    YZZ     -47.5787
       ZZZ      93.1189
    Hexadecapole Moments (Debye-Ang^3)
      XXXX    -619.7076   XXXY     238.7286   XXYY    -374.8625
      XYYY     384.7724   YYYY   -1494.3049   XXXZ    -106.8514
      XXYZ      69.1796   XYYZ     -68.3046   YYYZ     152.1409
      XXZZ    -200.5913   XYZZ      80.0202   YYZZ    -222.2056
      XZZZ    -100.0040   YZZZ      85.6728   ZZZZ    -449.4429
 -----------------------------------------------------------------
 Total job time:  1742.68s(wall), 24994.20s(cpu) 
 Fri May 10 14:47:21 2024

        *************************************************************
        *                                                           *
        *  Thank you very much for using Q-Chem.  Have a nice day.  *
        *                                                           *
        *************************************************************


