
Running Job 1 of 2 Q_in.in
qchem Q_in.in_126298.0 /scratch/ari.fischer/qChem2102530.hpc-mn1/qchem126298/ 0
/usr/local/qchem-5.4.1/exe/qcprog.exe_s Q_in.in_126298.0 /scratch/ari.fischer/qChem2102530.hpc-mn1/qchem126298/
                  Welcome to Q-Chem
     A Quantum Leap Into The Future Of Chemistry


 Q-Chem 5.4, Q-Chem, Inc., Pleasanton, CA (2021)

 License issued to: Nanyang Technological University (site)

 E. Epifanovsky,  A. T. B. Gilbert,  Xintian Feng,  Joonho Lee,  Yuezhi Mao,  
 N. Mardirossian,  P. Pokhilko,  A. White,  M. Wormit,  M. P. Coons,  
 A. L. Dempwolff,  Zhengting Gan,  D. Hait,  P. R. Horn,  L. D. Jacobson,  
 I. Kaliman,  J. Kussmann,  A. W. Lange,  Ka Un Lao,  D. S. Levine,  Jie Liu,  
 S. C. McKenzie,  A. F. Morrison,  K. Nanda,  F. Plasser,  D. R. Rehn,  
 M. L. Vidal,  Zhi-Qiang You,  Ying Zhu,  B. Alam,  B. Albrecht,  
 A. Aldossary,  E. Alguire,  J. H. Andersen,  D. Barton,  K. Begam,  A. Behn,  
 Y. A. Bernard,  E. J. Berquist,  H. Burton,  A. Carreras,  K. Carter-Fenk,  
 R. Chakraborty,  A. D. Chien,  K. D. Closser,  V. Cofer-Shabica,  
 S. Dasgupta,  Jia Deng,  M. de Wergifosse,  M. Diedenhofen,  Hainam Do,  
 S. Ehlert,  Po-Tung Fang,  S. Fatehi,  Qingguo Feng,  T. Friedhoff,  
 J. Gayvert,  Qinghui Ge,  G. Gidofalvi,  M. Goldey,  J. Gomes,  
 C. Gonzalez-Espinoza,  S. Gulania,  A. Gunina,  M. W. D. Hanson-Heine,  
 P. H. P. Harbach,  A. W. Hauser,  M. F. Herbst,  M. Hernandez Vera,  
 M. Hodecker,  Z. C. Holden,  S. Houck,  Xunkun Huang,  Kerwin Hui,  
 B. C. Huynh,  M. Ivanov,  Hyunjun Ji,  Hanjie Jiang,  B. Kaduk,  S. Kaehler,  
 K. Khistyaev,  Jaehoon Kim,  P. Klunzinger,  Z. Koczor-Benda,  
 Joong Hoon Koh,  D. Kosenkov,  L. Koulias,  T. Kowalczyk,  C. M. Krauter,  
 K. Kue,  A. Kunitsa,  T. Kus,  A. Landau,  K. V. Lawler,  D. Lefrancois,  
 S. Lehtola,  Rain Li,  Yi-Pei Li,  Jiashu Liang,  M. Liebenthal,  
 Hung-Hsuan Lin,  You-Sheng Lin,  Fenglai Liu,  Kuan-Yu Liu,  
 M. Loipersberger,  A. Luenser,  A. Manjanath,  P. Manohar,  E. Mansoor,  
 S. F. Manzer,  Shan-Ping Mao,  A. V. Marenich,  T. Markovich,  S. Mason,  
 S. A. Maurer,  P. F. McLaughlin,  M. F. S. J. Menger,  J.-M. Mewes,  
 S. A. Mewes,  P. Morgante,  J. W. Mullinax,  K. J. Oosterbaan,  G. Paran,  
 Alexander C. Paul,  Suranjan K. Paul,  F. Pavosevic,  Zheng Pei,  S. Prager,  
 E. I. Proynov,  E. Ramos,  B. Rana,  A. E. Rask,  A. Rettig,  R. M. Richard,  
 F. Rob,  E. Rossomme,  T. Scheele,  M. Scheurer,  M. Schneider,  
 N. Sergueev,  S. M. Sharada,  W. Skomorowski,  D. W. Small,  C. J. Stein,  
 Yu-Chuan Su,  E. J. Sundstrom,  Zhen Tao,  J. Thirman,  T. Tsuchimochi,  
 N. M. Tubman,  S. P. Veccham,  O. Vydrov,  J. Wenzel,  J. Witte,  A. Yamada,  
 Kun Yao,  S. Yeganeh,  S. R. Yost,  A. Zech,  Igor Ying Zhang,  Xing Zhang,  
 Yu Zhang,  D. Zuev,  A. Aspuru-Guzik,  A. T. Bell,  N. A. Besley,  
 K. B. Bravaya,  B. R. Brooks,  D. Casanova,  Jeng-Da Chai,  S. Coriani,  
 C. J. Cramer,  A. E. DePrince, III,  R. A. DiStasio Jr.,  A. Dreuw,  
 B. D. Dunietz,  T. R. Furlani,  W. A. Goddard III,  S. Grimme,  
 S. Hammes-Schiffer,  T. Head-Gordon,  W. J. Hehre,  Chao-Ping Hsu,  
 T.-C. Jagau,  Yousung Jung,  A. Klamt,  Jing Kong,  D. S. Lambrecht,  
 WanZhen Liang,  N. J. Mayhall,  C. W. McCurdy,  J. B. Neaton,  
 C. Ochsenfeld,  J. A. Parkhill,  R. Peverati,  V. A. Rassolov,  Yihan Shao,  
 L. V. Slipchenko,  T. Stauch,  R. P. Steele,  J. E. Subotnik,  
 A. J. W. Thom,  A. Tkatchenko,  D. G. Truhlar,  T. Van Voorhis,  
 T. A. Wesolowski,  K. B. Whaley,  H. L. Woodcock III,  P. M. Zimmerman,  
 S. Faraji,  P. M. W. Gill,  M. Head-Gordon,  J. M. Herbert,  A. I. Krylov

 Additional authors for Version 5.4.1: 
 S. Kotaru,  Shaozhi Li,  Xiangyuan Li,  F. Matz,  A. Molle,  Haisheng Ren,  
 Yingli Su,  Hung-Yi Tsai,  C. Utku,  Fang Wang

 Contributors to earlier versions of Q-Chem not listed above: 
 R. D. Adamson,  B. Austin,  R. Baer,  J. Baker,  G. J. O. Beran,  
 K. Brandhorst,  S. T. Brown,  E. F. C. Byrd,  A. K. Chakraborty,  
 G. K. L. Chan,  Chun-Min Chang,  Yunqing Chen,  C.-L. Cheng,  
 Siu Hung Chien,  D. M. Chipman,  D. L. Crittenden,  H. Dachsel,  
 R. J. Doerksen,  A. D. Dutoi,  R. G. Edgar,  J. Fosso-Tande,  
 L. Fusti-Molnar,  D. Ghosh,  A. Ghysels,  A. Golubeva-Zadorozhnaya,  
 J. Gonthier,  M. S. Gordon,  S. R. Gwaltney,  G. Hawkins,  J. E. Herr,  
 A. Heyden,  S. Hirata,  E. G. Hohenstein,  G. Kedziora,  F. J. Keil,  
 C. Kelley,  Jihan Kim,  R. A. King,  R. Z. Khaliullin,  P. P. Korambath,  
 W. Kurlancheek,  A. Laurent,  A. M. Lee,  M. S. Lee,  S. V. Levchenko,  
 Ching Yeh Lin,  D. Liotard,  E. Livshits,  R. C. Lochan,  I. Lotan,  
 L. A. Martinez-Martinez,  P. E. Maslen,  N. Nair,  D. P. O'Neill,  
 D. Neuhauser,  E. Neuscamman,  C. M. Oana,  R. Olivares-Amaya,  R. Olson,  
 T. M. Perrine,  B. Peters,  P. A. Pieniazek,  A. Prociuk,  Y. M. Rhee,  
 J. Ritchie,  M. A. Rohrdanz,  E. Rosta,  N. J. Russ,  H. F. Schaefer III,  
 M. W. Schmidt,  N. E. Schultz,  S. Sharma,  N. Shenvi,  C. D. Sherrill,  
 A. C. Simmonett,  A. Sodt,  T. Stein,  D. Stuck,  K. S. Thanthiriwatte,  
 V. Vanovschi,  L. Vogt,  Tao Wang,  A. Warshel,  M. A. Watson,  
 C. F. Williams,  Q. Wu,  X. Xu,  Jun Yang,  W. Zhang,  Yan Zhao

 Please cite Q-Chem as follows:
 Y. Shao et al., Mol. Phys. 113, 184-215 (2015)
 DOI: 10.1080/00268976.2014.952696

 Q-Chem 5.4.1 for Intel X86 EM64T Linux

 Parts of Q-Chem use Armadillo 9.800.1 (Horizon Scraper).
 http://arma.sourceforge.net/

 Q-Chem begins on Tue May 14 20:31:48 2024  

 Host: 
0

     Scratch files written to /scratch/ari.fischer/qChem2102530.hpc-mn1/qchem126298//
 Aug1521 |scratch|qcdevops|jenkins|workspace|build_RNUM 8249   
 Processing $rem in /usr/local/qchem-5.4.1/config/preferences:
 Processing $rem in /home/ari.fischer/.qchemrc:
 Symmetry turned off for PCM/SM12/SMD calculation


!!********************************************.
!!******************Warning*******************.
!!Desired Analytical derivatives not available.
!!Finite difference job might take a long time.
!!********************************************.
!!********************************************.


 2-order derivative to be evaluated numerically with 1-order analytical derivatives

 Checking the input file for inconsistencies... 	...done.

--------------------------------------------------------------
User input:
--------------------------------------------------------------
$molecule
0 2
H         0.7559052129    1.3263816691    1.5161091300
C         0.0959208877    1.3676723246    0.6609695140
C        -1.1351846146    1.9002483902    0.7514798628
H        -1.4985377309    2.2981243920    1.6891391835
C        -2.0236014199    1.8557488379   -0.3816089369
H        -3.0785052877    2.0432969651   -0.2360062006
C        -1.5465329160    1.4678106376   -1.6037513575
H        -2.2090014541    1.3666924031   -2.4514781084
C        -0.0583692069    1.5052039563   -1.8345967408
H         0.2038154008    0.9572992749   -2.7387836447
C         0.5719011830    0.7955988773   -0.6394362824
H         1.6571322971    0.7809781198   -0.7065231861
O         0.4483245000    2.8323688761   -1.8888138095
H         0.0608984573    3.2700662804   -2.6546087598
O        -1.2277839935   -0.5736399879   -0.8975431141
O         0.1630978845   -0.5727391164   -0.8426519496
$end

$rem
BASIS = 6-311++G(2df,2p)
GUI = 2
JOB_TYPE = Frequency
METHOD = wB97M-V
SOLVENT_METHOD = SMD
SCF_ALGORITHM = DIIS_GDM
MAX_SCF_CYCLES = 400
SCF_CONVERGENCE = 7
THRESH = 12
$end

--------------------------------------------------------------
 ----------------------------------------------------------------
             Standard Nuclear Orientation (Angstroms)
    I     Atom           X                Y                Z
 ----------------------------------------------------------------
    1      H       0.7559052129     1.3263816691     1.5161091300
    2      C       0.0959208877     1.3676723246     0.6609695140
    3      C      -1.1351846146     1.9002483902     0.7514798628
    4      H      -1.4985377309     2.2981243920     1.6891391835
    5      C      -2.0236014199     1.8557488379    -0.3816089369
    6      H      -3.0785052877     2.0432969651    -0.2360062006
    7      C      -1.5465329160     1.4678106376    -1.6037513575
    8      H      -2.2090014541     1.3666924031    -2.4514781084
    9      C      -0.0583692069     1.5052039563    -1.8345967408
   10      H       0.2038154008     0.9572992749    -2.7387836447
   11      C       0.5719011830     0.7955988773    -0.6394362824
   12      H       1.6571322971     0.7809781198    -0.7065231861
   13      O       0.4483245000     2.8323688761    -1.8888138095
   14      H       0.0608984573     3.2700662804    -2.6546087598
   15      O      -1.2277839935    -0.5736399879    -0.8975431141
   16      O       0.1630978845    -0.5727391164    -0.8426519496
 ----------------------------------------------------------------
 Nuclear Repulsion Energy =         467.94519261 hartrees
 There are       34 alpha and       33 beta electrons
 Requested basis set is 6-311++G(2df,2p)
 There are 114 shells and 376 basis functions

 Total QAlloc Memory Limit 288000 MB
 Mega-Array Size       188 MB
 MEM_STATIC part       192 MB
 
 Citation of the SMD model:
 Marenich, A.V.; Cramer, C.J.; Truhlar, D.G.
 J. Phys. Chem. B 2009, 113, 6378-6396.
 iSolventCode=           1
 Solvent: water                                                           
 
 vradii
            1           2           3           4           5           6
    1   1.2000000   1.8500000   1.8500000   1.2000000   1.8500000   1.2000000
            7           8           9          10          11          12
    1   1.8500000   1.2000000   1.8500000   1.2000000   1.8500000   1.2000000
           13          14          15          16
    1   1.5200000   1.2000000   1.5200000   1.5200000
 Changing PCM_VDW_RADII to SMD_RADIUS
 Discretize the solute cavity surface with Lebedev spheres
	Using 110 Lebedev grid points for each H atom
	Using 194 Lebedev grid points for other atoms
	Atomic van der Waals radii will be scaled by 1.20
 Remove points where switching function is < 1.0e-08
 Keep 1173 surface tesserae and discard 1343 interior tesserae
 Molecular Surface Area = 138.338 Angst**2
 A cutoff of  1.0D-12 yielded   6185 shell pairs
 There are     68468 function pairs (     86079 Cartesian)
 Smallest overlap matrix eigenvalue = 2.79E-06
 Guess from superposition of atomic densities
 Warning:  Energy on first SCF cycle will be non-variational
 SAD guess density has 67.000000 electrons

 -----------------------------------------------------------------------
  General SCF calculation program by
  Eric Jon Sundstrom, Paul Horn, Yuezhi Mao, Dmitri Zuev, Alec White,
  David Stuck, Shaama M.S., Shane Yost, Joonho Lee, David Small,
  Daniel Levine, Susi Lehtola, Hugh Burton, Evgeny Epifanovsky,
  Bang C. Huynh
 -----------------------------------------------------------------------
 Exchange:     0.1500 Hartree-Fock + 1.0000 wB97M-V + LR-HF
 Correlation:  1.0000 wB97M-V
 Using SG-2 standard quadrature grid
 Nonlocal Correlation:  VV10 with C = 0.0100 and b = 6.00 and scale = 1.00000
 Grid used for NLC:  SG-1 standard quadrature
 using 16 threads for integral computing
 -------------------------------------------------------
 OpenMP Integral computing Module                
 Release: version 1.0, May 2013, Q-Chem Inc. Pittsburgh 
 -------------------------------------------------------
 
 Citation of the SMD model:
 Marenich, A.V.; Cramer, C.J.; Truhlar, D.G.
 J. Phys. Chem. B 2009, 113, 6378-6396.
 iSolventCode=           1
 Solvent: water                                                           
 
 vradii
            1           2           3           4           5           6
    1   1.2000000   1.8500000   1.8500000   1.2000000   1.8500000   1.2000000
            7           8           9          10          11          12
    1   1.8500000   1.2000000   1.8500000   1.2000000   1.8500000   1.2000000
           13          14          15          16
    1   1.5200000   1.2000000   1.5200000   1.5200000
 -------------------------------------------------------
 OpenMP BLAS3 based DFT computing Module                
 Release: version 1.0, May 2013, Q-Chem Inc. Pittsburgh 
 -------------------------------------------------------
 A unrestricted SCF calculation will be
 performed using DIIS, GDM
 SCF converges when RMS gradient is below 1.0e-07
 ---------------------------------------
  Cycle       Energy         DIIS error
 ---------------------------------------
    1    -460.6491853378      1.28e-02  
    2    -458.2387068101      1.15e-03  Done DIIS. Switching to GDM
 ---------------------------------------
  Cycle       Energy        RMS Gradient
 ---------------------------------------
    1    -458.2387068101      6.35e-02   Descent step
    2    -458.3073214611      1.84e-02   Normal BFGS step
    3    -458.3214348981      2.78e-02   Normal BFGS step
    4    -458.3238422533      6.73e-03   Normal BFGS step
    5    -458.3248994090      7.10e-03   Normal BFGS step
    6    -458.3253060218      6.55e-03   Normal BFGS step
    7    -458.3255615627      4.39e-03   Normal BFGS step
    8    -458.3256426177      3.70e-03   Normal BFGS step
    9    -458.3256788053      1.97e-03   Normal BFGS step
   10    -458.3256983411      1.47e-03   Normal BFGS step
   11    -458.3257073863      1.20e-03   Normal BFGS step
   12    -458.3257138770      8.43e-04   Normal BFGS step
   13    -458.3257185743      4.15e-04   Normal BFGS step
   14    -458.3257203215      3.56e-04   Normal BFGS step
   15    -458.3257212080      2.41e-04   Normal BFGS step
   16    -458.3257215380      1.90e-04   Normal BFGS step
   17    -458.3257216763      1.11e-04   Normal BFGS step
   18    -458.3257217487      3.67e-05   Normal BFGS step
   19    -458.3257217682      1.92e-05   Normal BFGS step
   20    -458.3257217711      5.68e-06   Normal BFGS step
   21    -458.3257217720      2.08e-06   Normal BFGS step
   22    -458.3257217721      5.82e-07   Normal BFGS step
   23    -458.3257217721      5.83e-07   Normal BFGS step
   24    -458.3257217721      4.01e-07   Normal BFGS step
   25    -458.3257217721      7.59e-08  Convergence criterion met
 ---------------------------------------
 SCF time:   CPU 2450.68s  wall 166.00s 
<S^2> =          0.788550101
(3)  G-ENP(liq) elect-nuc-pol free energy of system     -458.325721772 a.u.
(4)  G-CDS(liq) cavity-dispersion-solvent structure 
     free energy                                                2.4348 kcal/mol
(6)  G-S(liq) free energy of system                     -458.321841743 a.u.
 SCF   energy in the final basis set =     -458.3218417429
 Total energy in the final basis set =     -458.3218417429
 
 --------------------------------------------------------------
 
                    Orbital Energies (a.u.)
 --------------------------------------------------------------
 
 Alpha MOs
 -- Occupied --
-19.4059 -19.3865 -19.3475 -10.4081 -10.4065 -10.3782 -10.3703 -10.3610
-10.3580  -1.2680  -1.1688  -1.0057  -0.9783  -0.8825  -0.8585  -0.7461
 -0.7294  -0.6656  -0.6533  -0.6023  -0.5881  -0.5808  -0.5702  -0.5494
 -0.5219  -0.5087  -0.5007  -0.4657  -0.4499  -0.4308  -0.4093  -0.3991
 -0.3545  -0.3159
 -- Virtual --
  0.0106   0.0251   0.0371   0.0379   0.0525   0.0577   0.0588   0.0837
  0.0957   0.0987   0.1131   0.1184   0.1356   0.1378   0.1403   0.1465
  0.1495   0.1545   0.1581   0.1603   0.1618   0.1669   0.1715   0.1796
  0.1865   0.1948   0.1957   0.2023   0.2098   0.2156   0.2297   0.2320
  0.2450   0.2561   0.2678   0.2753   0.2934   0.2968   0.3106   0.3147
  0.3242   0.3332   0.3427   0.3486   0.3552   0.3596   0.3699   0.3750
  0.3849   0.3919   0.3931   0.4001   0.4050   0.4122   0.4282   0.4345
  0.4544   0.4645   0.4774   0.5072   0.5164   0.5308   0.5406   0.5754
  0.5841   0.5925   0.6052   0.6123   0.6176   0.6358   0.6537   0.6617
  0.6778   0.6960   0.7004   0.7101   0.7169   0.7263   0.7333   0.7492
  0.7587   0.7811   0.7876   0.7958   0.8072   0.8174   0.8313   0.8406
  0.8523   0.8644   0.8692   0.8982   0.9067   0.9280   0.9421   0.9677
  0.9984   1.0373   1.0669   1.0701   1.0876   1.1142   1.1262   1.1309
  1.1534   1.1671   1.1823   1.1862   1.1986   1.2206   1.2224   1.2391
  1.2438   1.2526   1.2637   1.2773   1.2808   1.2933   1.3132   1.3213
  1.3365   1.3506   1.3694   1.3900   1.3964   1.4096   1.4141   1.4230
  1.4352   1.4488   1.4664   1.4890   1.5101   1.5290   1.5385   1.5544
  1.5594   1.5669   1.5859   1.6190   1.6290   1.6487   1.6610   1.6948
  1.7008   1.7371   1.7486   1.7775   1.7878   1.8029   1.8636   1.8755
  1.8975   1.9247   1.9566   1.9836   2.0048   2.0314   2.0495   2.0816
  2.1246   2.1850   2.2394   2.2550   2.2908   2.3271   2.3753   2.3966
  2.4377   2.6204   2.6527   2.6662   2.6720   2.6917   2.7235   2.7613
  2.7834   2.8041   2.8200   2.8348   2.8518   2.8562   2.8620   2.8922
  2.9059   2.9337   2.9415   2.9515   2.9676   2.9772   2.9884   3.0048
  3.0368   3.0589   3.0683   3.0918   3.1163   3.1411   3.1975   3.2175
  3.2381   3.2480   3.2659   3.3087   3.3273   3.3590   3.3699   3.3839
  3.4022   3.4107   3.4195   3.4488   3.4512   3.4810   3.4992   3.5143
  3.5351   3.5523   3.5763   3.5934   3.6329   3.6513   3.6552   3.6702
  3.6908   3.6974   3.7242   3.7560   3.7663   3.7753   3.7945   3.8066
  3.8331   3.8575   3.8653   3.8732   3.8879   3.9314   3.9429   3.9735
  3.9818   3.9975   4.0298   4.0704   4.0893   4.1070   4.1339   4.1595
  4.1794   4.2182   4.2363   4.2725   4.2977   4.3262   4.3500   4.3610
  4.3866   4.4034   4.4416   4.4574   4.4672   4.5138   4.5306   4.5428
  4.5857   4.5948   4.6110   4.6453   4.6672   4.6925   4.7076   4.7195
  4.7621   4.7783   4.8023   4.8687   4.8787   4.9575   4.9769   5.0434
  5.0765   5.0896   5.1715   5.1958   5.2227   5.2312   5.2638   5.2686
  5.2876   5.3113   5.3182   5.3453   5.3559   5.3873   5.4296   5.4739
  5.4924   5.5190   5.5810   5.6061   5.6533   5.6752   5.6967   5.7126
  5.7372   5.8083   5.8759   5.9066   5.9518   6.0439   6.0826   6.1739
  6.2060   6.3175   6.5969   6.6547   6.9815   6.9979   7.0501   7.1105
  7.1271   7.2513   7.3072   7.3264   7.3963   7.4163   7.4617   7.4790
  7.7028   7.8029   7.8424   7.9555   8.1430  24.3532  24.5964  24.7357
 24.8083  25.0557  25.2630  50.4861  50.5994  50.6392
 
 Beta MOs
 -- Occupied --
-19.4034 -19.3714 -19.3477 -10.4082 -10.4060 -10.3787 -10.3653 -10.3596
-10.3576  -1.2539  -1.1688  -0.9888  -0.9686  -0.8795  -0.8493  -0.7434
 -0.7245  -0.6595  -0.6494  -0.5981  -0.5810  -0.5729  -0.5656  -0.5454
 -0.5153  -0.5021  -0.4853  -0.4591  -0.4269  -0.4216  -0.3980  -0.3646
 -0.3306
 -- Virtual --
 -0.0587   0.0194   0.0257   0.0372   0.0379   0.0535   0.0576   0.0589
  0.0836   0.0988   0.0992   0.1131   0.1242   0.1361   0.1376   0.1411
  0.1472   0.1511   0.1557   0.1581   0.1609   0.1619   0.1667   0.1750
  0.1802   0.1867   0.1955   0.2013   0.2039   0.2114   0.2171   0.2296
  0.2321   0.2450   0.2552   0.2696   0.2779   0.2960   0.2986   0.3121
  0.3158   0.3264   0.3339   0.3443   0.3494   0.3572   0.3604   0.3706
  0.3765   0.3861   0.3919   0.3939   0.4008   0.4065   0.4130   0.4299
  0.4355   0.4552   0.4667   0.4784   0.5094   0.5173   0.5329   0.5413
  0.5779   0.5862   0.5956   0.6092   0.6141   0.6192   0.6396   0.6581
  0.6642   0.6798   0.6977   0.7018   0.7125   0.7188   0.7268   0.7348
  0.7511   0.7607   0.7836   0.7904   0.7983   0.8106   0.8192   0.8329
  0.8419   0.8552   0.8666   0.8722   0.8996   0.9086   0.9296   0.9452
  0.9686   1.0006   1.0393   1.0689   1.0713   1.0890   1.1154   1.1294
  1.1321   1.1546   1.1708   1.1851   1.1880   1.2012   1.2233   1.2257
  1.2431   1.2463   1.2548   1.2656   1.2797   1.2854   1.2953   1.3146
  1.3283   1.3428   1.3536   1.3731   1.3917   1.3993   1.4115   1.4170
  1.4272   1.4397   1.4525   1.4691   1.4905   1.5133   1.5318   1.5412
  1.5564   1.5616   1.5695   1.5896   1.6205   1.6318   1.6528   1.6648
  1.6983   1.7035   1.7397   1.7556   1.7844   1.7936   1.8081   1.8687
  1.8775   1.9058   1.9286   1.9659   1.9890   2.0107   2.0361   2.0563
  2.0854   2.1288   2.1925   2.2416   2.2572   2.2974   2.3310   2.3775
  2.3995   2.4395   2.6247   2.6592   2.6694   2.6759   2.6987   2.7296
  2.7659   2.7863   2.8088   2.8243   2.8414   2.8542   2.8625   2.8771
  2.9012   2.9125   2.9387   2.9538   2.9635   2.9756   2.9827   2.9916
  3.0162   3.0399   3.0584   3.0691   3.0973   3.1192   3.1474   3.2035
  3.2224   3.2444   3.2534   3.2695   3.3133   3.3374   3.3641   3.3743
  3.3912   3.4078   3.4146   3.4258   3.4543   3.4569   3.4853   3.5072
  3.5171   3.5416   3.5583   3.5824   3.5976   3.6368   3.6579   3.6622
  3.6727   3.6931   3.7039   3.7272   3.7641   3.7724   3.7793   3.7991
  3.8083   3.8371   3.8629   3.8721   3.8780   3.8925   3.9352   3.9463
  3.9760   3.9869   4.0032   4.0340   4.0735   4.0909   4.1117   4.1380
  4.1628   4.1825   4.2235   4.2411   4.2791   4.2998   4.3291   4.3545
  4.3649   4.3885   4.4080   4.4460   4.4606   4.4713   4.5180   4.5354
  4.5504   4.5912   4.6000   4.6205   4.6531   4.6757   4.7000   4.7130
  4.7247   4.7692   4.7835   4.8072   4.8797   4.8899   4.9650   4.9882
  5.0591   5.0886   5.1036   5.2002   5.2282   5.2362   5.2525   5.2793
  5.2875   5.2993   5.3198   5.3292   5.3582   5.3735   5.4039   5.4361
  5.4874   5.5054   5.5289   5.5911   5.6090   5.6582   5.6792   5.7013
  5.7153   5.7457   5.8152   5.8843   5.9123   5.9537   6.0510   6.0864
  6.1813   6.2182   6.3351   6.6039   6.6572   6.9969   7.0311   7.0974
  7.1124   7.1894   7.2830   7.3132   7.3268   7.4055   7.4181   7.4754
  7.5061   7.7038   7.8124   7.8442   7.9726   8.1505  24.3543  24.5977
 24.7360  24.8086  25.0579  25.2648  50.4967  50.6024  50.6391
 --------------------------------------------------------------
 
          Ground-State Mulliken Net Atomic Charges

     Atom                 Charge (a.u.)    Spin (a.u.)
  --------------------------------------------------------
      1 H                     0.322300      -0.005708
      2 C                    -0.117174       0.217384
      3 C                    -0.262879      -0.069676
      4 H                     0.293915       0.002802
      5 C                    -0.180042       0.333606
      6 H                     0.292374      -0.007088
      7 C                    -0.265812      -0.062884
      8 H                     0.326700       0.001531
      9 C                    -0.243000       0.020182
     10 H                     0.292758      -0.000538
     11 C                    -0.282615      -0.007976
     12 H                     0.263799       0.001564
     13 O                    -0.422904      -0.004403
     14 H                     0.344253       0.001767
     15 O                    -0.279255       0.500385
     16 O                    -0.082417       0.079051
  --------------------------------------------------------
  Sum of atomic charges =    -0.000000
  Sum of spin   charges =     1.000000

 -----------------------------------------------------------------
                    Cartesian Multipole Moments
 -----------------------------------------------------------------
    Charge (ESU x 10^10)
                -0.0000
    Dipole Moment (Debye)
         X      -0.8596      Y       4.7643      Z      -0.8733
       Tot       4.9194
    Quadrupole Moments (Debye-Ang)
        XX     -47.0213     XY      -9.7583     YY     -52.4362
        XZ       2.6270     YZ      -7.0302     ZZ     -40.3221
    Octopole Moments (Debye-Ang^2)
       XXX      67.7764    XXY     -47.5374    XYY       8.3409
       YYY    -188.6247    XXZ      38.6171    XYZ       9.6459
       YYZ      26.7535    XZZ      17.7548    YZZ     -26.9594
       ZZZ      85.1636
    Hexadecapole Moments (Debye-Ang^3)
      XXXX    -383.3681   XXXY      59.7615   XXYY    -206.8952
      XYYY      60.1945   YYYY    -878.9923   XXXZ     -31.0075
      XXYZ      50.3070   XYYZ       1.6322   YYYZ      91.0248
      XXZZ    -154.8466   XYZZ       6.4919   YYZZ    -147.8438
      XZZZ     -19.2507   YZZZ      57.0835   ZZZZ    -433.6621
 -----------------------------------------------------------------
 Calculating analytic gradient of the SCF energy
 Gradient of CDS energy
            1           2           3           4           5           6
    1   0.0001219   0.0002898  -0.0000710  -0.0000693  -0.0004259  -0.0001991
    2  -0.0000076  -0.0000428   0.0001866   0.0000758   0.0000987   0.0000354
    3   0.0001580   0.0002971   0.0004165   0.0001787  -0.0000948   0.0000275
            7           8           9          10          11          12
    1  -0.0001332  -0.0001204   0.0002471   0.0000211   0.0001142   0.0002147
    2  -0.0001712  -0.0000184   0.0001703  -0.0001964  -0.0002492  -0.0000035
    3  -0.0002499  -0.0001541  -0.0000793  -0.0001210  -0.0001587  -0.0000410
           13          14          15          16
    1  -0.0000686   0.0000805   0.0001043  -0.0001062
    2  -0.0002652   0.0004337  -0.0000465   0.0000002
    3   0.0001487  -0.0002748   0.0000028  -0.0000558
 Gradient of SCF Energy
            1           2           3           4           5           6
    1   0.0038463  -0.0009382   0.0040072  -0.0030263   0.0082407  -0.0093657
    2   0.0002880   0.0082498  -0.0068136   0.0031489   0.0059822   0.0025429
    3   0.0048836  -0.0036223  -0.0085221   0.0066968   0.0050042   0.0014557
            7           8           9          10          11          12
    1   0.0023555  -0.0056826   0.0019671   0.0013993  -0.0090022   0.0044059
    2  -0.0081446   0.0011707   0.0100104  -0.0004507  -0.0143507  -0.0000067
    3   0.0023042  -0.0079593   0.0046771  -0.0067183   0.0000910   0.0002056
           13          14          15          16
    1   0.0093206  -0.0079077  -0.0029761   0.0033561
    2  -0.0032162   0.0056261  -0.0014151  -0.0026213
    3   0.0153345  -0.0140422   0.0014813  -0.0012698
 Max gradient component =       1.533E-02
 RMS gradient           =       6.217E-03
 Computing fast CPCM-SWIG gradient
 Updating gradient with PCM contributions...
 -- total gradient after adding PCM contribution --
---------------------------------------------------
  Atom         X              Y              Z     
---------------------------------------------------
   1       0.000007       0.000005      -0.000003
   2       0.000008       0.000009      -0.000011
   3       0.000011       0.000016      -0.000004
   4       0.000013       0.000018      -0.000002
   5       0.000009       0.000012      -0.000005
   6       0.000005       0.000018       0.000005
   7      -0.000004      -0.000001       0.000014
   8      -0.000006       0.000004       0.000006
   9       0.000040      -0.000002      -0.000021
  10      -0.000016      -0.000047      -0.000003
  11      -0.000019      -0.000003       0.000008
  12      -0.000003      -0.000008      -0.000003
  13      -0.000022      -0.000005       0.000027
  14      -0.000009      -0.000014      -0.000017
  15      -0.000002       0.000002       0.000013
  16      -0.000012      -0.000003      -0.000004
---------------------------------------------------
 Number of fixed atoms: 0
 Gradient time:  CPU 277.08 s  wall 22.53 s
 ######################################################
 ######################################################
 # Starting finite difference calculation for IDERIV  #
 Finite diff step size:  1.88973e-03 a.u.
 ----------------------------------------------------------------
             Standard Nuclear Orientation (Angstroms)
    I     Atom           X                Y                Z
 ----------------------------------------------------------------
    1      H       0.7569052129     1.3263816691     1.5161091300
    2      C       0.0959208877     1.3676723246     0.6609695140
    3      C      -1.1351846146     1.9002483902     0.7514798628
    4      H      -1.4985377309     2.2981243920     1.6891391835
    5      C      -2.0236014199     1.8557488379    -0.3816089369
    6      H      -3.0785052877     2.0432969651    -0.2360062006
    7      C      -1.5465329160     1.4678106376    -1.6037513575
    8      H      -2.2090014541     1.3666924031    -2.4514781084
    9      C      -0.0583692069     1.5052039563    -1.8345967408
   10      H       0.2038154008     0.9572992749    -2.7387836447
   11      C       0.5719011830     0.7955988773    -0.6394362824
   12      H       1.6571322971     0.7809781198    -0.7065231861
   13      O       0.4483245000     2.8323688761    -1.8888138095
   14      H       0.0608984573     3.2700662804    -2.6546087598
   15      O      -1.2277839935    -0.5736399879    -0.8975431141
   16      O       0.1630978845    -0.5727391164    -0.8426519496
 ----------------------------------------------------------------
 Nuclear Repulsion Energy =         467.94206255 hartrees
 There are       34 alpha and       33 beta electrons
 Discretize the solute cavity surface with Lebedev spheres
	Using 110 Lebedev grid points for each H atom
	Using 194 Lebedev grid points for other atoms
	Atomic van der Waals radii will be scaled by 1.20
 Remove points where switching function is < 1.0e-08
 Keep 1173 surface tesserae and discard 1343 interior tesserae
 Molecular Surface Area = 138.342 Angst**2
 Requested basis set is 6-311++G(2df,2p)
 There are 114 shells and 376 basis functions
 A cutoff of  1.0D-12 yielded   6185 shell pairs
 There are     68468 function pairs (     86079 Cartesian)
 Smallest overlap matrix eigenvalue = 2.79E-06
 Guess MOs from SCF MO coefficient file

 -----------------------------------------------------------------------
  General SCF calculation program by
  Eric Jon Sundstrom, Paul Horn, Yuezhi Mao, Dmitri Zuev, Alec White,
  David Stuck, Shaama M.S., Shane Yost, Joonho Lee, David Small,
  Daniel Levine, Susi Lehtola, Hugh Burton, Evgeny Epifanovsky,
  Bang C. Huynh
 -----------------------------------------------------------------------
 Exchange:     0.1500 Hartree-Fock + 1.0000 wB97M-V + LR-HF
 Correlation:  1.0000 wB97M-V
 Using SG-2 standard quadrature grid
 Nonlocal Correlation:  VV10 with C = 0.0100 and b = 6.00 and scale = 1.00000
 Grid used for NLC:  SG-1 standard quadrature
 
 Citation of the SMD model:
 Marenich, A.V.; Cramer, C.J.; Truhlar, D.G.
 J. Phys. Chem. B 2009, 113, 6378-6396.
 iSolventCode=           1
 Solvent: water                                                           
 
 vradii
            1           2           3           4           5           6
    1   1.2000000   1.8500000   1.8500000   1.2000000   1.8500000   1.2000000
            7           8           9          10          11          12
    1   1.8500000   1.2000000   1.8500000   1.2000000   1.8500000   1.2000000
           13          14          15          16
    1   1.5200000   1.2000000   1.5200000   1.5200000
 -------------------------------------------------------
 OpenMP BLAS3 based DFT computing Module                
 Release: version 1.0, May 2013, Q-Chem Inc. Pittsburgh 
 -------------------------------------------------------
 A unrestricted SCF calculation will be
 performed using Roothaan-Hall, DIIS, GDM
 SCF converges when RMS gradient is below 1.0e-07
 ---------------------------------------
  Cycle       Energy         DIIS error
 ---------------------------------------
    1    -458.2918555978      2.22e-04  Roothaan Step
 ---------------------------------------
  Cycle       Energy         DIIS error
 ---------------------------------------
    1    -458.3175714366      2.72e-04  
    2    -458.3217364726      2.77e-04  Done DIIS. Switching to GDM
 ---------------------------------------
  Cycle       Energy        RMS Gradient
 ---------------------------------------
    1    -458.3217364726      2.32e-02   Normal BFGS step
    2    -458.3206456171      3.76e-02  Line search: overstep
    3    -458.3254315524      5.10e-03   Normal BFGS step
    4    -458.3255939195      2.77e-03   Normal BFGS step
    5    -458.3256817455      1.63e-03   Normal BFGS step
    6    -458.3256981664      1.73e-03   Normal BFGS step
    7    -458.3257100539      1.25e-03   Normal BFGS step
    8    -458.3257186254      5.50e-04   Normal BFGS step
    9    -458.3257198664      4.04e-04   Normal BFGS step
   10    -458.3257206359      2.87e-04   Normal BFGS step
   11    -458.3257209904      2.42e-04   Normal BFGS step
   12    -458.3257213761      1.35e-04   Normal BFGS step
   13    -458.3257215620      9.62e-05   Normal BFGS step
   14    -458.3257216384      5.86e-05   Normal BFGS step
   15    -458.3257216700      5.17e-05   Normal BFGS step
   16    -458.3257216838      3.22e-05   Normal BFGS step
   17    -458.3257216898      1.37e-05   Normal BFGS step
   18    -458.3257216919      6.94e-06   Normal BFGS step
   19    -458.3257216923      3.27e-06   Normal BFGS step
   20    -458.3257216923      1.98e-06   Normal BFGS step
   21    -458.3257216924      6.88e-07   Normal BFGS step
   22    -458.3257216924      3.62e-07   Normal BFGS step
   23    -458.3257216924      1.18e-07   Normal BFGS step
   24    -458.3257216924      9.20e-08  Convergence criterion met
 ---------------------------------------
 SCF time:   CPU 2454.14s  wall 166.00s 
<S^2> =          0.788553169
(3)  G-ENP(liq) elect-nuc-pol free energy of system     -458.325721692 a.u.
(4)  G-CDS(liq) cavity-dispersion-solvent structure 
     free energy                                                2.4349 kcal/mol
(6)  G-S(liq) free energy of system                     -458.321841432 a.u.
 SCF   energy in the final basis set =     -458.3218414322
 Total energy in the final basis set =     -458.3218414322
 
 --------------------------------------------------------------
 
                    Orbital Energies (a.u.)
 --------------------------------------------------------------
 
 Alpha MOs
 -- Occupied --
-19.4059 -19.3865 -19.3475 -10.4081 -10.4065 -10.3782 -10.3703 -10.3611
-10.3580  -1.2680  -1.1688  -1.0057  -0.9783  -0.8824  -0.8585  -0.7461
 -0.7293  -0.6656  -0.6533  -0.6023  -0.5881  -0.5808  -0.5702  -0.5493
 -0.5219  -0.5087  -0.5007  -0.4657  -0.4499  -0.4308  -0.4093  -0.3991
 -0.3545  -0.3159
 -- Virtual --
  0.0106   0.0251   0.0371   0.0379   0.0525   0.0577   0.0588   0.0837
  0.0957   0.0986   0.1131   0.1184   0.1356   0.1377   0.1403   0.1465
  0.1495   0.1545   0.1581   0.1603   0.1618   0.1669   0.1714   0.1796
  0.1865   0.1948   0.1957   0.2023   0.2098   0.2157   0.2297   0.2320
  0.2450   0.2561   0.2678   0.2753   0.2934   0.2968   0.3106   0.3147
  0.3242   0.3332   0.3427   0.3486   0.3552   0.3596   0.3699   0.3749
  0.3849   0.3919   0.3931   0.4001   0.4050   0.4121   0.4282   0.4345
  0.4544   0.4645   0.4774   0.5072   0.5163   0.5308   0.5406   0.5754
  0.5841   0.5925   0.6052   0.6123   0.6176   0.6358   0.6537   0.6617
  0.6778   0.6960   0.7004   0.7101   0.7169   0.7263   0.7333   0.7492
  0.7587   0.7811   0.7876   0.7958   0.8071   0.8173   0.8313   0.8406
  0.8523   0.8644   0.8692   0.8982   0.9067   0.9280   0.9421   0.9677
  0.9985   1.0373   1.0668   1.0701   1.0876   1.1142   1.1262   1.1309
  1.1534   1.1671   1.1823   1.1862   1.1985   1.2206   1.2224   1.2391
  1.2438   1.2525   1.2637   1.2773   1.2807   1.2932   1.3133   1.3213
  1.3365   1.3506   1.3694   1.3900   1.3964   1.4096   1.4141   1.4230
  1.4352   1.4487   1.4664   1.4890   1.5100   1.5290   1.5385   1.5543
  1.5594   1.5669   1.5859   1.6190   1.6290   1.6487   1.6609   1.6948
  1.7008   1.7371   1.7486   1.7775   1.7878   1.8029   1.8636   1.8755
  1.8975   1.9247   1.9567   1.9836   2.0047   2.0314   2.0495   2.0816
  2.1246   2.1850   2.2394   2.2550   2.2908   2.3271   2.3753   2.3966
  2.4376   2.6205   2.6528   2.6662   2.6721   2.6917   2.7236   2.7613
  2.7834   2.8041   2.8199   2.8347   2.8518   2.8561   2.8619   2.8922
  2.9059   2.9337   2.9415   2.9515   2.9676   2.9772   2.9884   3.0047
  3.0367   3.0589   3.0683   3.0918   3.1163   3.1411   3.1974   3.2174
  3.2380   3.2480   3.2659   3.3086   3.3273   3.3590   3.3700   3.3838
  3.4022   3.4107   3.4194   3.4488   3.4512   3.4810   3.4992   3.5142
  3.5352   3.5523   3.5763   3.5932   3.6329   3.6514   3.6553   3.6702
  3.6906   3.6973   3.7242   3.7561   3.7663   3.7753   3.7945   3.8065
  3.8330   3.8575   3.8653   3.8732   3.8879   3.9312   3.9430   3.9736
  3.9818   3.9973   4.0296   4.0705   4.0893   4.1070   4.1338   4.1594
  4.1793   4.2182   4.2363   4.2725   4.2977   4.3261   4.3499   4.3607
  4.3866   4.4034   4.4415   4.4573   4.4671   4.5137   4.5305   4.5426
  4.5856   4.5946   4.6110   4.6453   4.6671   4.6924   4.7076   4.7195
  4.7620   4.7782   4.8022   4.8686   4.8786   4.9575   4.9768   5.0433
  5.0764   5.0895   5.1714   5.1958   5.2226   5.2311   5.2638   5.2686
  5.2875   5.3112   5.3182   5.3452   5.3559   5.3872   5.4296   5.4738
  5.4924   5.5188   5.5807   5.6061   5.6533   5.6752   5.6967   5.7126
  5.7372   5.8081   5.8758   5.9066   5.9517   6.0439   6.0826   6.1735
  6.2059   6.3174   6.5968   6.6547   6.9815   6.9979   7.0501   7.1105
  7.1271   7.2512   7.3072   7.3264   7.3963   7.4163   7.4617   7.4790
  7.7028   7.8029   7.8424   7.9555   8.1430  24.3528  24.5961  24.7357
 24.8083  25.0556  25.2628  50.4861  50.5994  50.6391
 
 Beta MOs
 -- Occupied --
-19.4034 -19.3714 -19.3477 -10.4082 -10.4060 -10.3787 -10.3653 -10.3596
-10.3577  -1.2539  -1.1688  -0.9888  -0.9686  -0.8795  -0.8493  -0.7434
 -0.7245  -0.6595  -0.6494  -0.5981  -0.5810  -0.5729  -0.5656  -0.5454
 -0.5153  -0.5021  -0.4853  -0.4591  -0.4269  -0.4216  -0.3980  -0.3646
 -0.3306
 -- Virtual --
 -0.0587   0.0194   0.0257   0.0372   0.0379   0.0535   0.0576   0.0589
  0.0836   0.0988   0.0992   0.1131   0.1242   0.1361   0.1376   0.1411
  0.1472   0.1511   0.1557   0.1581   0.1609   0.1619   0.1667   0.1750
  0.1802   0.1867   0.1955   0.2013   0.2039   0.2114   0.2171   0.2296
  0.2321   0.2450   0.2552   0.2696   0.2779   0.2960   0.2986   0.3121
  0.3158   0.3264   0.3339   0.3443   0.3494   0.3572   0.3604   0.3706
  0.3765   0.3860   0.3919   0.3939   0.4008   0.4065   0.4130   0.4299
  0.4355   0.4552   0.4667   0.4784   0.5094   0.5173   0.5329   0.5413
  0.5779   0.5862   0.5956   0.6092   0.6141   0.6192   0.6396   0.6581
  0.6642   0.6798   0.6976   0.7018   0.7125   0.7187   0.7268   0.7348
  0.7511   0.7607   0.7836   0.7903   0.7983   0.8106   0.8192   0.8329
  0.8420   0.8553   0.8666   0.8722   0.8996   0.9086   0.9295   0.9452
  0.9686   1.0006   1.0393   1.0688   1.0713   1.0889   1.1154   1.1294
  1.1321   1.1546   1.1708   1.1851   1.1880   1.2012   1.2233   1.2257
  1.2431   1.2463   1.2547   1.2655   1.2796   1.2854   1.2952   1.3147
  1.3283   1.3428   1.3536   1.3731   1.3916   1.3993   1.4115   1.4170
  1.4272   1.4397   1.4524   1.4691   1.4905   1.5132   1.5317   1.5413
  1.5563   1.5616   1.5694   1.5896   1.6205   1.6318   1.6528   1.6648
  1.6983   1.7035   1.7398   1.7556   1.7844   1.7935   1.8081   1.8687
  1.8775   1.9057   1.9286   1.9659   1.9890   2.0107   2.0360   2.0563
  2.0854   2.1288   2.1925   2.2416   2.2572   2.2974   2.3310   2.3775
  2.3995   2.4395   2.6248   2.6593   2.6693   2.6759   2.6987   2.7296
  2.7660   2.7863   2.8088   2.8242   2.8413   2.8542   2.8625   2.8770
  2.9012   2.9125   2.9387   2.9538   2.9635   2.9756   2.9827   2.9916
  3.0161   3.0399   3.0584   3.0691   3.0973   3.1192   3.1473   3.2034
  3.2224   3.2444   3.2533   3.2695   3.3132   3.3375   3.3641   3.3743
  3.3911   3.4078   3.4146   3.4258   3.4542   3.4570   3.4853   3.5071
  3.5170   3.5417   3.5582   3.5824   3.5975   3.6368   3.6579   3.6622
  3.6727   3.6929   3.7038   3.7273   3.7641   3.7724   3.7793   3.7991
  3.8083   3.8370   3.8628   3.8721   3.8780   3.8925   3.9350   3.9464
  3.9761   3.9869   4.0030   4.0338   4.0735   4.0909   4.1117   4.1380
  4.1626   4.1824   4.2235   4.2410   4.2790   4.2997   4.3290   4.3544
  4.3646   4.3885   4.4080   4.4459   4.4606   4.4712   4.5178   4.5353
  4.5502   4.5911   4.5998   4.6205   4.6531   4.6756   4.7000   4.7130
  4.7246   4.7691   4.7834   4.8071   4.8797   4.8898   4.9650   4.9880
  5.0590   5.0884   5.1034   5.2001   5.2281   5.2361   5.2525   5.2793
  5.2874   5.2992   5.3198   5.3292   5.3582   5.3733   5.4038   5.4361
  5.4873   5.5054   5.5287   5.5908   5.6090   5.6581   5.6792   5.7013
  5.7153   5.7456   5.8151   5.8842   5.9123   5.9536   6.0509   6.0865
  6.1809   6.2182   6.3351   6.6039   6.6572   6.9969   7.0311   7.0974
  7.1124   7.1894   7.2830   7.3132   7.3268   7.4055   7.4181   7.4754
  7.5061   7.7038   7.8124   7.8442   7.9726   8.1505  24.3539  24.5975
 24.7360  24.8086  25.0578  25.2646  50.4967  50.6024  50.6391
 --------------------------------------------------------------
 
          Ground-State Mulliken Net Atomic Charges

     Atom                 Charge (a.u.)    Spin (a.u.)
  --------------------------------------------------------
      1 H                     0.322121      -0.005718
      2 C                    -0.117076       0.217389
      3 C                    -0.263093      -0.069656
      4 H                     0.293937       0.002802
      5 C                    -0.180087       0.333598
      6 H                     0.292377      -0.007087
      7 C                    -0.265858      -0.062894
      8 H                     0.326699       0.001532
      9 C                    -0.242925       0.020186
     10 H                     0.292757      -0.000539
     11 C                    -0.282358      -0.007988
     12 H                     0.263817       0.001563
     13 O                    -0.422905      -0.004403
     14 H                     0.344255       0.001767
     15 O                    -0.279253       0.500390
     16 O                    -0.082407       0.079058
  --------------------------------------------------------
  Sum of atomic charges =     0.000000
  Sum of spin   charges =     1.000000

 -----------------------------------------------------------------
                    Cartesian Multipole Moments
 -----------------------------------------------------------------
    Charge (ESU x 10^10)
                 0.0000
    Dipole Moment (Debye)
         X      -0.8592      Y       4.7644      Z      -0.8736
       Tot       4.9195
    Quadrupole Moments (Debye-Ang)
        XX     -47.0198     XY      -9.7580     YY     -52.4366
        XZ       2.6281     YZ      -7.0305     ZZ     -40.3237
    Octopole Moments (Debye-Ang^2)
       XXX      67.7735    XXY     -47.5353    XYY       8.3397
       YYY    -188.6264    XXZ      38.6186    XYZ       9.6472
       YYZ      26.7520    XZZ      17.7551    YZZ     -26.9612
       ZZZ      85.1592
    Hexadecapole Moments (Debye-Ang^3)
      XXXX    -383.3684   XXXY      59.7566   XXYY    -206.8931
      XYYY      60.1891   YYYY    -878.9975   XXXZ     -31.0084
      XXYZ      50.3090   XYYZ       1.6319   YYYZ      91.0203
      XXZZ    -154.8443   XYZZ       6.4922   YYZZ    -147.8480
      XZZZ     -19.2522   YZZZ      57.0782   ZZZZ    -433.6762
 -----------------------------------------------------------------
 Calculating analytic gradient of the SCF energy
 Gradient of CDS energy
            1           2           3           4           5           6
    1   0.0001226   0.0002891  -0.0000709  -0.0000693  -0.0004259  -0.0001991
    2  -0.0000077  -0.0000428   0.0001866   0.0000758   0.0000987   0.0000354
    3   0.0001585   0.0002965   0.0004165   0.0001787  -0.0000948   0.0000275
            7           8           9          10          11          12
    1  -0.0001332  -0.0001204   0.0002471   0.0000211   0.0001142   0.0002147
    2  -0.0001712  -0.0000184   0.0001703  -0.0001964  -0.0002491  -0.0000035
    3  -0.0002499  -0.0001541  -0.0000793  -0.0001210  -0.0001586  -0.0000410
           13          14          15          16
    1  -0.0000686   0.0000805   0.0001043  -0.0001062
    2  -0.0002652   0.0004337  -0.0000465   0.0000002
    3   0.0001487  -0.0002748   0.0000028  -0.0000558
 Gradient of SCF Energy
            1           2           3           4           5           6
    1   0.0041671  -0.0012471   0.0039806  -0.0030257   0.0082392  -0.0093672
    2   0.0002515   0.0082739  -0.0068068   0.0031435   0.0059909   0.0025420
    3   0.0051645  -0.0038831  -0.0085703   0.0066960   0.0050109   0.0014540
            7           8           9          10          11          12
    1   0.0023554  -0.0056826   0.0019663   0.0013997  -0.0089865   0.0044086
    2  -0.0081464   0.0011698   0.0100135  -0.0004508  -0.0143474  -0.0000076
    3   0.0023008  -0.0079597   0.0046842  -0.0067172   0.0001103   0.0002046
           13          14          15          16
    1   0.0093210  -0.0079077  -0.0029781   0.0033570
    2  -0.0032162   0.0056262  -0.0014148  -0.0026212
    3   0.0153344  -0.0140422   0.0014801  -0.0012672
 Max gradient component =       1.533E-02
 RMS gradient           =       6.232E-03
 Computing fast CPCM-SWIG gradient
 Updating gradient with PCM contributions...
 -- total gradient after adding PCM contribution --
---------------------------------------------------
  Atom         X              Y              Z     
---------------------------------------------------
   1       0.000322      -0.000029       0.000283
   2      -0.000296       0.000034      -0.000278
   3      -0.000012       0.000021      -0.000049
   4       0.000014       0.000013      -0.000000
   5       0.000006       0.000021      -0.000002
   6       0.000004       0.000017       0.000004
   7      -0.000004      -0.000002       0.000013
   8      -0.000005       0.000003       0.000006
   9       0.000039       0.000001      -0.000017
  10      -0.000016      -0.000047      -0.000002
  11      -0.000003      -0.000001       0.000027
  12      -0.000002      -0.000009      -0.000004
  13      -0.000021      -0.000005       0.000027
  14      -0.000009      -0.000014      -0.000017
  15      -0.000005       0.000002       0.000011
  16      -0.000011      -0.000003      -0.000001
---------------------------------------------------
 Number of fixed atoms: 0
 Gradient time:  CPU 293.37 s  wall 22.99 s
 ----------------------------------------------------------------
             Standard Nuclear Orientation (Angstroms)
    I     Atom           X                Y                Z
 ----------------------------------------------------------------
    1      H       0.7549052129     1.3263816691     1.5161091300
    2      C       0.0959208877     1.3676723246     0.6609695140
    3      C      -1.1351846146     1.9002483902     0.7514798628
    4      H      -1.4985377309     2.2981243920     1.6891391835
    5      C      -2.0236014199     1.8557488379    -0.3816089369
    6      H      -3.0785052877     2.0432969651    -0.2360062006
    7      C      -1.5465329160     1.4678106376    -1.6037513575
    8      H      -2.2090014541     1.3666924031    -2.4514781084
    9      C      -0.0583692069     1.5052039563    -1.8345967408
   10      H       0.2038154008     0.9572992749    -2.7387836447
   11      C       0.5719011830     0.7955988773    -0.6394362824
   12      H       1.6571322971     0.7809781198    -0.7065231861
   13      O       0.4483245000     2.8323688761    -1.8888138095
   14      H       0.0608984573     3.2700662804    -2.6546087598
   15      O      -1.2277839935    -0.5736399879    -0.8975431141
   16      O       0.1630978845    -0.5727391164    -0.8426519496
 ----------------------------------------------------------------
 Nuclear Repulsion Energy =         467.94832298 hartrees
 There are       34 alpha and       33 beta electrons
 Discretize the solute cavity surface with Lebedev spheres
	Using 110 Lebedev grid points for each H atom
	Using 194 Lebedev grid points for other atoms
	Atomic van der Waals radii will be scaled by 1.20
 Remove points where switching function is < 1.0e-08
 Keep 1173 surface tesserae and discard 1343 interior tesserae
 Molecular Surface Area = 138.334 Angst**2
 Requested basis set is 6-311++G(2df,2p)
 There are 114 shells and 376 basis functions
 A cutoff of  1.0D-12 yielded   6185 shell pairs
 There are     68468 function pairs (     86079 Cartesian)
 Smallest overlap matrix eigenvalue = 2.79E-06
 Guess MOs from SCF MO coefficient file

 -----------------------------------------------------------------------
  General SCF calculation program by
  Eric Jon Sundstrom, Paul Horn, Yuezhi Mao, Dmitri Zuev, Alec White,
  David Stuck, Shaama M.S., Shane Yost, Joonho Lee, David Small,
  Daniel Levine, Susi Lehtola, Hugh Burton, Evgeny Epifanovsky,
  Bang C. Huynh
 -----------------------------------------------------------------------
 Exchange:     0.1500 Hartree-Fock + 1.0000 wB97M-V + LR-HF
 Correlation:  1.0000 wB97M-V
 Using SG-2 standard quadrature grid
 Nonlocal Correlation:  VV10 with C = 0.0100 and b = 6.00 and scale = 1.00000
 Grid used for NLC:  SG-1 standard quadrature
 
 Citation of the SMD model:
 Marenich, A.V.; Cramer, C.J.; Truhlar, D.G.
 J. Phys. Chem. B 2009, 113, 6378-6396.
 iSolventCode=           1
 Solvent: water                                                           
 
 vradii
            1           2           3           4           5           6
    1   1.2000000   1.8500000   1.8500000   1.2000000   1.8500000   1.2000000
            7           8           9          10          11          12
    1   1.8500000   1.2000000   1.8500000   1.2000000   1.8500000   1.2000000
           13          14          15          16
    1   1.5200000   1.2000000   1.5200000   1.5200000
 -------------------------------------------------------
 OpenMP BLAS3 based DFT computing Module                
 Release: version 1.0, May 2013, Q-Chem Inc. Pittsburgh 
 -------------------------------------------------------
 A unrestricted SCF calculation will be
 performed using Roothaan-Hall, DIIS, GDM
 SCF converges when RMS gradient is below 1.0e-07
 ---------------------------------------
  Cycle       Energy         DIIS error
 ---------------------------------------
    1    -458.2918628794      2.22e-04  Roothaan Step
 ---------------------------------------
  Cycle       Energy         DIIS error
 ---------------------------------------
    1    -458.3175737747      2.72e-04  
    2    -458.3217377228      2.77e-04  Done DIIS. Switching to GDM
 ---------------------------------------
  Cycle       Energy        RMS Gradient
 ---------------------------------------
    1    -458.3217377228      2.33e-02   Normal BFGS step
    2    -458.3206461957      3.76e-02  Line search: overstep
    3    -458.3254310198      5.09e-03   Normal BFGS step
    4    -458.3255934485      2.78e-03   Normal BFGS step
    5    -458.3256812095      1.63e-03   Normal BFGS step
    6    -458.3256976629      1.74e-03   Normal BFGS step
    7    -458.3257095799      1.25e-03   Normal BFGS step
    8    -458.3257181749      5.51e-04   Normal BFGS step
    9    -458.3257194193      4.05e-04   Normal BFGS step
   10    -458.3257201933      2.89e-04   Normal BFGS step
   11    -458.3257205509      2.43e-04   Normal BFGS step
   12    -458.3257209396      1.35e-04   Normal BFGS step
   13    -458.3257211272      9.60e-05   Normal BFGS step
   14    -458.3257212035      5.91e-05   Normal BFGS step
   15    -458.3257212352      5.17e-05   Normal BFGS step
   16    -458.3257212490      3.22e-05   Normal BFGS step
   17    -458.3257212551      1.36e-05   Normal BFGS step
   18    -458.3257212571      6.89e-06   Normal BFGS step
   19    -458.3257212575      3.25e-06   Normal BFGS step
   20    -458.3257212576      1.98e-06   Normal BFGS step
   21    -458.3257212576      6.93e-07   Normal BFGS step
   22    -458.3257212576      3.61e-07   Normal BFGS step
   23    -458.3257212576      1.15e-07   Normal BFGS step
   24    -458.3257212576      9.02e-08  Convergence criterion met
 ---------------------------------------
 SCF time:   CPU 2485.42s  wall 170.00s 
<S^2> =          0.788547075
(3)  G-ENP(liq) elect-nuc-pol free energy of system     -458.325721258 a.u.
(4)  G-CDS(liq) cavity-dispersion-solvent structure 
     free energy                                                2.4346 kcal/mol
(6)  G-S(liq) free energy of system                     -458.321841458 a.u.
 SCF   energy in the final basis set =     -458.3218414582
 Total energy in the final basis set =     -458.3218414582
 
 --------------------------------------------------------------
 
                    Orbital Energies (a.u.)
 --------------------------------------------------------------
 
 Alpha MOs
 -- Occupied --
-19.4059 -19.3865 -19.3475 -10.4081 -10.4065 -10.3782 -10.3703 -10.3609
-10.3579  -1.2680  -1.1688  -1.0057  -0.9783  -0.8825  -0.8585  -0.7461
 -0.7294  -0.6656  -0.6533  -0.6023  -0.5881  -0.5808  -0.5702  -0.5494
 -0.5219  -0.5087  -0.5007  -0.4657  -0.4499  -0.4308  -0.4093  -0.3991
 -0.3545  -0.3159
 -- Virtual --
  0.0106   0.0251   0.0371   0.0379   0.0525   0.0577   0.0588   0.0837
  0.0957   0.0987   0.1131   0.1184   0.1356   0.1378   0.1403   0.1465
  0.1495   0.1545   0.1581   0.1603   0.1618   0.1669   0.1715   0.1796
  0.1865   0.1948   0.1957   0.2023   0.2098   0.2156   0.2297   0.2320
  0.2450   0.2561   0.2678   0.2753   0.2934   0.2968   0.3106   0.3147
  0.3242   0.3332   0.3427   0.3486   0.3552   0.3596   0.3699   0.3750
  0.3849   0.3919   0.3931   0.4001   0.4050   0.4122   0.4283   0.4345
  0.4544   0.4645   0.4774   0.5072   0.5164   0.5308   0.5406   0.5754
  0.5841   0.5926   0.6052   0.6123   0.6176   0.6358   0.6537   0.6617
  0.6778   0.6960   0.7005   0.7101   0.7169   0.7263   0.7333   0.7492
  0.7587   0.7811   0.7877   0.7958   0.8072   0.8174   0.8313   0.8405
  0.8523   0.8644   0.8692   0.8981   0.9067   0.9281   0.9421   0.9677
  0.9984   1.0374   1.0670   1.0701   1.0877   1.1142   1.1262   1.1309
  1.1534   1.1671   1.1823   1.1862   1.1986   1.2206   1.2224   1.2391
  1.2438   1.2526   1.2637   1.2774   1.2808   1.2933   1.3132   1.3212
  1.3365   1.3506   1.3694   1.3901   1.3965   1.4097   1.4141   1.4229
  1.4352   1.4489   1.4664   1.4890   1.5102   1.5290   1.5385   1.5545
  1.5594   1.5669   1.5860   1.6190   1.6290   1.6487   1.6610   1.6948
  1.7008   1.7371   1.7486   1.7775   1.7879   1.8029   1.8635   1.8754
  1.8976   1.9247   1.9566   1.9837   2.0048   2.0315   2.0495   2.0816
  2.1246   2.1850   2.2394   2.2550   2.2908   2.3271   2.3754   2.3966
  2.4377   2.6202   2.6527   2.6662   2.6720   2.6917   2.7235   2.7612
  2.7834   2.8041   2.8201   2.8349   2.8519   2.8562   2.8620   2.8922
  2.9059   2.9336   2.9416   2.9515   2.9677   2.9772   2.9884   3.0049
  3.0368   3.0589   3.0684   3.0918   3.1163   3.1412   3.1976   3.2176
  3.2382   3.2481   3.2659   3.3088   3.3272   3.3590   3.3699   3.3839
  3.4022   3.4107   3.4195   3.4489   3.4512   3.4810   3.4992   3.5144
  3.5351   3.5523   3.5763   3.5936   3.6329   3.6513   3.6552   3.6702
  3.6909   3.6975   3.7241   3.7560   3.7663   3.7753   3.7945   3.8066
  3.8331   3.8576   3.8653   3.8732   3.8879   3.9316   3.9428   3.9734
  3.9819   3.9977   4.0300   4.0704   4.0893   4.1070   4.1340   4.1597
  4.1795   4.2182   4.2363   4.2726   4.2978   4.3262   4.3501   4.3612
  4.3866   4.4034   4.4417   4.4574   4.4673   4.5139   4.5307   4.5430
  4.5858   4.5949   4.6110   4.6453   4.6674   4.6925   4.7076   4.7196
  4.7622   4.7784   4.8024   4.8688   4.8787   4.9575   4.9771   5.0435
  5.0767   5.0898   5.1716   5.1959   5.2228   5.2314   5.2638   5.2686
  5.2877   5.3113   5.3182   5.3453   5.3559   5.3875   5.4297   5.4739
  5.4925   5.5192   5.5814   5.6061   5.6534   5.6753   5.6968   5.7127
  5.7372   5.8085   5.8761   5.9067   5.9520   6.0439   6.0826   6.1743
  6.2060   6.3175   6.5969   6.6548   6.9815   6.9979   7.0501   7.1105
  7.1271   7.2513   7.3072   7.3264   7.3963   7.4163   7.4617   7.4790
  7.7028   7.8029   7.8424   7.9555   8.1430  24.3535  24.5966  24.7357
 24.8083  25.0559  25.2632  50.4861  50.5994  50.6392
 
 Beta MOs
 -- Occupied --
-19.4034 -19.3714 -19.3477 -10.4082 -10.4060 -10.3787 -10.3653 -10.3596
-10.3575  -1.2539  -1.1688  -0.9888  -0.9686  -0.8795  -0.8493  -0.7434
 -0.7245  -0.6595  -0.6494  -0.5981  -0.5810  -0.5729  -0.5656  -0.5455
 -0.5153  -0.5021  -0.4853  -0.4591  -0.4269  -0.4216  -0.3980  -0.3646
 -0.3306
 -- Virtual --
 -0.0587   0.0194   0.0257   0.0372   0.0379   0.0535   0.0576   0.0589
  0.0836   0.0988   0.0992   0.1131   0.1242   0.1361   0.1376   0.1411
  0.1472   0.1511   0.1557   0.1581   0.1609   0.1619   0.1667   0.1750
  0.1802   0.1867   0.1955   0.2013   0.2039   0.2114   0.2171   0.2296
  0.2321   0.2450   0.2552   0.2696   0.2779   0.2960   0.2986   0.3121
  0.3158   0.3265   0.3339   0.3443   0.3494   0.3572   0.3604   0.3706
  0.3765   0.3861   0.3919   0.3939   0.4008   0.4065   0.4130   0.4299
  0.4355   0.4552   0.4667   0.4784   0.5093   0.5173   0.5329   0.5413
  0.5779   0.5862   0.5956   0.6092   0.6141   0.6193   0.6397   0.6581
  0.6642   0.6798   0.6977   0.7018   0.7125   0.7188   0.7268   0.7348
  0.7511   0.7607   0.7835   0.7904   0.7983   0.8106   0.8192   0.8329
  0.8419   0.8552   0.8665   0.8722   0.8996   0.9086   0.9296   0.9452
  0.9686   1.0006   1.0393   1.0690   1.0713   1.0890   1.1154   1.1294
  1.1321   1.1546   1.1708   1.1851   1.1880   1.2012   1.2233   1.2258
  1.2431   1.2463   1.2549   1.2656   1.2797   1.2855   1.2954   1.3146
  1.3283   1.3428   1.3537   1.3731   1.3917   1.3993   1.4115   1.4170
  1.4272   1.4397   1.4526   1.4691   1.4905   1.5134   1.5318   1.5412
  1.5565   1.5616   1.5695   1.5896   1.6205   1.6318   1.6528   1.6648
  1.6983   1.7035   1.7397   1.7557   1.7844   1.7936   1.8081   1.8687
  1.8775   1.9058   1.9286   1.9659   1.9891   2.0107   2.0362   2.0563
  2.0855   2.1288   2.1925   2.2416   2.2572   2.2974   2.3310   2.3776
  2.3995   2.4395   2.6246   2.6592   2.6694   2.6758   2.6988   2.7295
  2.7658   2.7863   2.8088   2.8244   2.8415   2.8543   2.8626   2.8771
  2.9012   2.9125   2.9387   2.9538   2.9635   2.9756   2.9827   2.9916
  3.0162   3.0399   3.0584   3.0691   3.0973   3.1192   3.1474   3.2035
  3.2225   3.2444   3.2535   3.2695   3.3134   3.3374   3.3641   3.3743
  3.3912   3.4079   3.4146   3.4258   3.4543   3.4569   3.4853   3.5072
  3.5172   3.5416   3.5584   3.5823   3.5978   3.6368   3.6579   3.6622
  3.6728   3.6932   3.7039   3.7271   3.7641   3.7725   3.7793   3.7991
  3.8084   3.8371   3.8629   3.8721   3.8780   3.8925   3.9354   3.9462
  3.9759   3.9869   4.0033   4.0342   4.0735   4.0910   4.1117   4.1381
  4.1629   4.1826   4.2235   4.2411   4.2791   4.2998   4.3291   4.3546
  4.3651   4.3885   4.4080   4.4462   4.4607   4.4714   4.5181   4.5355
  4.5505   4.5912   4.6002   4.6205   4.6531   4.6758   4.7000   4.7130
  4.7247   4.7693   4.7836   4.8073   4.8798   4.8899   4.9651   4.9883
  5.0592   5.0887   5.1037   5.2003   5.2283   5.2364   5.2525   5.2794
  5.2875   5.2993   5.3199   5.3293   5.3582   5.3736   5.4039   5.4361
  5.4874   5.5055   5.5291   5.5914   5.6090   5.6582   5.6792   5.7014
  5.7153   5.7457   5.8154   5.8845   5.9124   5.9539   6.0510   6.0864
  6.1817   6.2183   6.3352   6.6039   6.6572   6.9969   7.0311   7.0974
  7.1124   7.1894   7.2830   7.3132   7.3268   7.4055   7.4181   7.4754
  7.5061   7.7038   7.8125   7.8442   7.9726   8.1505  24.3546  24.5980
 24.7360  24.8086  25.0580  25.2650  50.4967  50.6024  50.6391
 --------------------------------------------------------------
 
          Ground-State Mulliken Net Atomic Charges

     Atom                 Charge (a.u.)    Spin (a.u.)
  --------------------------------------------------------
      1 H                     0.322479      -0.005699
      2 C                    -0.117273       0.217380
      3 C                    -0.262664      -0.069696
      4 H                     0.293892       0.002802
      5 C                    -0.179998       0.333614
      6 H                     0.292371      -0.007088
      7 C                    -0.265766      -0.062873
      8 H                     0.326700       0.001530
      9 C                    -0.243076       0.020177
     10 H                     0.292758      -0.000537
     11 C                    -0.282871      -0.007964
     12 H                     0.263781       0.001566
     13 O                    -0.422903      -0.004402
     14 H                     0.344252       0.001766
     15 O                    -0.279257       0.500381
     16 O                    -0.082426       0.079043
  --------------------------------------------------------
  Sum of atomic charges =     0.000000
  Sum of spin   charges =     1.000000

 -----------------------------------------------------------------
                    Cartesian Multipole Moments
 -----------------------------------------------------------------
    Charge (ESU x 10^10)
                 0.0000
    Dipole Moment (Debye)
         X      -0.8599      Y       4.7642      Z      -0.8729
       Tot       4.9193
    Quadrupole Moments (Debye-Ang)
        XX     -47.0227     XY      -9.7586     YY     -52.4359
        XZ       2.6259     YZ      -7.0298     ZZ     -40.3205
    Octopole Moments (Debye-Ang^2)
       XXX      67.7794    XXY     -47.5396    XYY       8.3421
       YYY    -188.6230    XXZ      38.6157    XYZ       9.6447
       YYZ      26.7550    XZZ      17.7545    YZZ     -26.9575
       ZZZ      85.1681
    Hexadecapole Moments (Debye-Ang^3)
      XXXX    -383.3678   XXXY      59.7664   XXYY    -206.8973
      XYYY      60.1999   YYYY    -878.9870   XXXZ     -31.0065
      XXYZ      50.3050   XYYZ       1.6325   YYYZ      91.0293
      XXZZ    -154.8489   XYZZ       6.4916   YYZZ    -147.8397
      XZZZ     -19.2492   YZZZ      57.0889   ZZZZ    -433.6480
 -----------------------------------------------------------------
 Calculating analytic gradient of the SCF energy
 Gradient of CDS energy
            1           2           3           4           5           6
    1   0.0001213   0.0002904  -0.0000710  -0.0000693  -0.0004259  -0.0001991
    2  -0.0000076  -0.0000429   0.0001867   0.0000758   0.0000987   0.0000354
    3   0.0001574   0.0002977   0.0004165   0.0001787  -0.0000948   0.0000275
            7           8           9          10          11          12
    1  -0.0001332  -0.0001204   0.0002471   0.0000211   0.0001142   0.0002147
    2  -0.0001712  -0.0000184   0.0001703  -0.0001964  -0.0002492  -0.0000035
    3  -0.0002499  -0.0001541  -0.0000793  -0.0001210  -0.0001587  -0.0000410
           13          14          15          16
    1  -0.0000686   0.0000805   0.0001043  -0.0001062
    2  -0.0002652   0.0004337  -0.0000465   0.0000002
    3   0.0001487  -0.0002748   0.0000028  -0.0000558
 Gradient of SCF Energy
            1           2           3           4           5           6
    1   0.0035250  -0.0006288   0.0040340  -0.0030269   0.0082422  -0.0093642
    2   0.0003245   0.0082257  -0.0068205   0.0031543   0.0059735   0.0025438
    3   0.0046015  -0.0033604  -0.0084738   0.0066976   0.0049975   0.0014573
            7           8           9          10          11          12
    1   0.0023556  -0.0056825   0.0019679   0.0013989  -0.0090178   0.0044032
    2  -0.0081429   0.0011715   0.0100072  -0.0004505  -0.0143539  -0.0000057
    3   0.0023076  -0.0079588   0.0046699  -0.0067193   0.0000715   0.0002066
           13          14          15          16
    1   0.0093202  -0.0079076  -0.0029741   0.0033551
    2  -0.0032163   0.0056261  -0.0014154  -0.0026214
    3   0.0153347  -0.0140421   0.0014825  -0.0012724
 Max gradient component =       1.533E-02
 RMS gradient           =       6.203E-03
 Computing fast CPCM-SWIG gradient
 Updating gradient with PCM contributions...
 -- total gradient after adding PCM contribution --
---------------------------------------------------
  Atom         X              Y              Z     
---------------------------------------------------
   1      -0.000308       0.000040      -0.000291
   2       0.000312      -0.000016       0.000257
   3       0.000035       0.000011       0.000041
   4       0.000012       0.000023      -0.000003
   5       0.000013       0.000002      -0.000008
   6       0.000006       0.000019       0.000007
   7      -0.000005       0.000000       0.000015
   8      -0.000006       0.000004       0.000006
   9       0.000042      -0.000005      -0.000026
  10      -0.000017      -0.000047      -0.000004
  11      -0.000035      -0.000005      -0.000011
  12      -0.000005      -0.000007      -0.000001
  13      -0.000022      -0.000005       0.000027
  14      -0.000009      -0.000014      -0.000018
  15       0.000000       0.000002       0.000014
  16      -0.000013      -0.000003      -0.000006
---------------------------------------------------
 Number of fixed atoms: 0
 Gradient time:  CPU 303.67 s  wall 23.64 s
 ----------------------------------------------------------------
             Standard Nuclear Orientation (Angstroms)
    I     Atom           X                Y                Z
 ----------------------------------------------------------------
    1      H       0.7559052129     1.3273816691     1.5161091300
    2      C       0.0959208877     1.3676723246     0.6609695140
    3      C      -1.1351846146     1.9002483902     0.7514798628
    4      H      -1.4985377309     2.2981243920     1.6891391835
    5      C      -2.0236014199     1.8557488379    -0.3816089369
    6      H      -3.0785052877     2.0432969651    -0.2360062006
    7      C      -1.5465329160     1.4678106376    -1.6037513575
    8      H      -2.2090014541     1.3666924031    -2.4514781084
    9      C      -0.0583692069     1.5052039563    -1.8345967408
   10      H       0.2038154008     0.9572992749    -2.7387836447
   11      C       0.5719011830     0.7955988773    -0.6394362824
   12      H       1.6571322971     0.7809781198    -0.7065231861
   13      O       0.4483245000     2.8323688761    -1.8888138095
   14      H       0.0608984573     3.2700662804    -2.6546087598
   15      O      -1.2277839935    -0.5736399879    -0.8975431141
   16      O       0.1630978845    -0.5727391164    -0.8426519496
 ----------------------------------------------------------------
 Nuclear Repulsion Energy =         467.94510977 hartrees
 There are       34 alpha and       33 beta electrons
 Discretize the solute cavity surface with Lebedev spheres
	Using 110 Lebedev grid points for each H atom
	Using 194 Lebedev grid points for other atoms
	Atomic van der Waals radii will be scaled by 1.20
 Remove points where switching function is < 1.0e-08
 Keep 1173 surface tesserae and discard 1343 interior tesserae
 Molecular Surface Area = 138.337 Angst**2
 Requested basis set is 6-311++G(2df,2p)
 There are 114 shells and 376 basis functions
 A cutoff of  1.0D-12 yielded   6185 shell pairs
 There are     68468 function pairs (     86079 Cartesian)
 Smallest overlap matrix eigenvalue = 2.79E-06
 Guess MOs from SCF MO coefficient file

 -----------------------------------------------------------------------
  General SCF calculation program by
  Eric Jon Sundstrom, Paul Horn, Yuezhi Mao, Dmitri Zuev, Alec White,
  David Stuck, Shaama M.S., Shane Yost, Joonho Lee, David Small,
  Daniel Levine, Susi Lehtola, Hugh Burton, Evgeny Epifanovsky,
  Bang C. Huynh
 -----------------------------------------------------------------------
 Exchange:     0.1500 Hartree-Fock + 1.0000 wB97M-V + LR-HF
 Correlation:  1.0000 wB97M-V
 Using SG-2 standard quadrature grid
 Nonlocal Correlation:  VV10 with C = 0.0100 and b = 6.00 and scale = 1.00000
 Grid used for NLC:  SG-1 standard quadrature
 
 Citation of the SMD model:
 Marenich, A.V.; Cramer, C.J.; Truhlar, D.G.
 J. Phys. Chem. B 2009, 113, 6378-6396.
 iSolventCode=           1
 Solvent: water                                                           
 
 vradii
            1           2           3           4           5           6
    1   1.2000000   1.8500000   1.8500000   1.2000000   1.8500000   1.2000000
            7           8           9          10          11          12
    1   1.8500000   1.2000000   1.8500000   1.2000000   1.8500000   1.2000000
           13          14          15          16
    1   1.5200000   1.2000000   1.5200000   1.5200000
 -------------------------------------------------------
 OpenMP BLAS3 based DFT computing Module                
 Release: version 1.0, May 2013, Q-Chem Inc. Pittsburgh 
 -------------------------------------------------------
 A unrestricted SCF calculation will be
 performed using Roothaan-Hall, DIIS, GDM
 SCF converges when RMS gradient is below 1.0e-07
 ---------------------------------------
  Cycle       Energy         DIIS error
 ---------------------------------------
    1    -458.2918559181      2.22e-04  Roothaan Step
 ---------------------------------------
  Cycle       Energy         DIIS error
 ---------------------------------------
    1    -458.3175707870      2.72e-04  
    2    -458.3217360690      2.77e-04  Done DIIS. Switching to GDM
 ---------------------------------------
  Cycle       Energy        RMS Gradient
 ---------------------------------------
    1    -458.3217360690      2.33e-02   Normal BFGS step
    2    -458.3206450694      3.76e-02  Line search: overstep
    3    -458.3254314780      5.10e-03   Normal BFGS step
    4    -458.3255939012      2.77e-03   Normal BFGS step
    5    -458.3256817491      1.64e-03   Normal BFGS step
    6    -458.3256981792      1.73e-03   Normal BFGS step
    7    -458.3257100696      1.25e-03   Normal BFGS step
    8    -458.3257186359      5.49e-04   Normal BFGS step
    9    -458.3257198755      4.04e-04   Normal BFGS step
   10    -458.3257206433      2.87e-04   Normal BFGS step
   11    -458.3257209965      2.41e-04   Normal BFGS step
   12    -458.3257213806      1.34e-04   Normal BFGS step
   13    -458.3257215660      9.66e-05   Normal BFGS step
   14    -458.3257216423      5.86e-05   Normal BFGS step
   15    -458.3257216740      5.17e-05   Normal BFGS step
   16    -458.3257216877      3.22e-05   Normal BFGS step
   17    -458.3257216938      1.38e-05   Normal BFGS step
   18    -458.3257216958      6.97e-06   Normal BFGS step
   19    -458.3257216962      3.28e-06   Normal BFGS step
   20    -458.3257216963      1.98e-06   Normal BFGS step
   21    -458.3257216963      6.89e-07   Normal BFGS step
   22    -458.3257216963      3.61e-07   Normal BFGS step
   23    -458.3257216963      1.17e-07   Normal BFGS step
   24    -458.3257216963      9.17e-08  Convergence criterion met
 ---------------------------------------
 SCF time:   CPU 2477.38s  wall 169.00s 
<S^2> =          0.788551689
(3)  G-ENP(liq) elect-nuc-pol free energy of system     -458.325721696 a.u.
(4)  G-CDS(liq) cavity-dispersion-solvent structure 
     free energy                                                2.4347 kcal/mol
(6)  G-S(liq) free energy of system                     -458.321841681 a.u.
 SCF   energy in the final basis set =     -458.3218416814
 Total energy in the final basis set =     -458.3218416814
 
 --------------------------------------------------------------
 
                    Orbital Energies (a.u.)
 --------------------------------------------------------------
 
 Alpha MOs
 -- Occupied --
-19.4059 -19.3865 -19.3475 -10.4081 -10.4065 -10.3782 -10.3703 -10.3610
-10.3580  -1.2680  -1.1688  -1.0057  -0.9783  -0.8825  -0.8585  -0.7461
 -0.7294  -0.6656  -0.6533  -0.6023  -0.5881  -0.5808  -0.5702  -0.5494
 -0.5219  -0.5087  -0.5007  -0.4657  -0.4499  -0.4308  -0.4093  -0.3991
 -0.3545  -0.3159
 -- Virtual --
  0.0106   0.0251   0.0371   0.0379   0.0525   0.0577   0.0588   0.0837
  0.0957   0.0986   0.1131   0.1184   0.1356   0.1378   0.1403   0.1465
  0.1495   0.1545   0.1581   0.1603   0.1618   0.1669   0.1715   0.1796
  0.1865   0.1948   0.1957   0.2023   0.2098   0.2156   0.2297   0.2320
  0.2450   0.2561   0.2678   0.2753   0.2934   0.2968   0.3106   0.3147
  0.3242   0.3332   0.3427   0.3486   0.3552   0.3596   0.3699   0.3750
  0.3849   0.3919   0.3931   0.4001   0.4050   0.4122   0.4282   0.4345
  0.4544   0.4645   0.4774   0.5072   0.5163   0.5308   0.5406   0.5754
  0.5841   0.5925   0.6053   0.6123   0.6176   0.6358   0.6537   0.6617
  0.6778   0.6960   0.7005   0.7101   0.7169   0.7263   0.7333   0.7492
  0.7587   0.7811   0.7876   0.7958   0.8071   0.8174   0.8313   0.8406
  0.8523   0.8644   0.8692   0.8982   0.9067   0.9280   0.9421   0.9677
  0.9984   1.0373   1.0668   1.0701   1.0876   1.1142   1.1262   1.1309
  1.1534   1.1670   1.1824   1.1862   1.1986   1.2206   1.2223   1.2391
  1.2438   1.2526   1.2637   1.2773   1.2807   1.2932   1.3132   1.3212
  1.3365   1.3506   1.3694   1.3901   1.3964   1.4097   1.4141   1.4230
  1.4352   1.4488   1.4664   1.4890   1.5101   1.5290   1.5385   1.5544
  1.5594   1.5669   1.5860   1.6190   1.6290   1.6487   1.6609   1.6948
  1.7008   1.7371   1.7486   1.7775   1.7878   1.8029   1.8636   1.8755
  1.8975   1.9247   1.9566   1.9836   2.0048   2.0315   2.0495   2.0816
  2.1246   2.1850   2.2394   2.2550   2.2908   2.3271   2.3753   2.3965
  2.4377   2.6203   2.6528   2.6662   2.6720   2.6917   2.7235   2.7613
  2.7834   2.8041   2.8201   2.8348   2.8518   2.8562   2.8620   2.8922
  2.9059   2.9336   2.9415   2.9516   2.9676   2.9772   2.9884   3.0047
  3.0368   3.0589   3.0683   3.0918   3.1163   3.1411   3.1976   3.2175
  3.2381   3.2480   3.2659   3.3087   3.3273   3.3590   3.3699   3.3839
  3.4022   3.4106   3.4195   3.4489   3.4512   3.4810   3.4992   3.5143
  3.5351   3.5523   3.5762   3.5934   3.6329   3.6514   3.6552   3.6702
  3.6908   3.6974   3.7241   3.7561   3.7663   3.7753   3.7945   3.8066
  3.8331   3.8575   3.8653   3.8732   3.8879   3.9314   3.9429   3.9736
  3.9818   3.9976   4.0298   4.0704   4.0893   4.1069   4.1339   4.1595
  4.1794   4.2181   4.2363   4.2725   4.2978   4.3262   4.3500   4.3610
  4.3866   4.4034   4.4416   4.4574   4.4672   4.5139   4.5306   4.5428
  4.5857   4.5947   4.6110   4.6453   4.6673   4.6925   4.7075   4.7195
  4.7622   4.7783   4.8023   4.8687   4.8787   4.9575   4.9769   5.0435
  5.0766   5.0897   5.1715   5.1959   5.2227   5.2312   5.2638   5.2686
  5.2877   5.3113   5.3182   5.3453   5.3559   5.3874   5.4296   5.4739
  5.4924   5.5189   5.5810   5.6061   5.6534   5.6752   5.6967   5.7126
  5.7372   5.8084   5.8760   5.9066   5.9518   6.0438   6.0825   6.1739
  6.2060   6.3175   6.5969   6.6547   6.9815   6.9979   7.0501   7.1105
  7.1271   7.2513   7.3072   7.3264   7.3963   7.4163   7.4617   7.4790
  7.7028   7.8029   7.8424   7.9555   8.1430  24.3532  24.5964  24.7357
 24.8083  25.0558  25.2630  50.4861  50.5995  50.6391
 
 Beta MOs
 -- Occupied --
-19.4034 -19.3714 -19.3477 -10.4082 -10.4060 -10.3787 -10.3653 -10.3596
-10.3576  -1.2539  -1.1688  -0.9888  -0.9686  -0.8795  -0.8493  -0.7434
 -0.7245  -0.6595  -0.6494  -0.5981  -0.5810  -0.5729  -0.5656  -0.5454
 -0.5153  -0.5021  -0.4853  -0.4591  -0.4269  -0.4216  -0.3981  -0.3646
 -0.3306
 -- Virtual --
 -0.0587   0.0194   0.0257   0.0372   0.0379   0.0535   0.0576   0.0589
  0.0836   0.0988   0.0992   0.1131   0.1242   0.1361   0.1376   0.1412
  0.1472   0.1511   0.1557   0.1581   0.1609   0.1619   0.1667   0.1750
  0.1802   0.1867   0.1955   0.2013   0.2039   0.2114   0.2171   0.2296
  0.2321   0.2450   0.2552   0.2696   0.2779   0.2960   0.2986   0.3121
  0.3158   0.3265   0.3339   0.3443   0.3494   0.3572   0.3604   0.3706
  0.3765   0.3861   0.3919   0.3939   0.4008   0.4065   0.4130   0.4299
  0.4355   0.4552   0.4667   0.4784   0.5094   0.5173   0.5329   0.5413
  0.5779   0.5862   0.5956   0.6092   0.6141   0.6193   0.6396   0.6581
  0.6642   0.6798   0.6977   0.7018   0.7125   0.7188   0.7268   0.7348
  0.7511   0.7607   0.7836   0.7904   0.7983   0.8106   0.8192   0.8329
  0.8419   0.8553   0.8665   0.8721   0.8996   0.9086   0.9295   0.9452
  0.9686   1.0006   1.0393   1.0688   1.0713   1.0889   1.1154   1.1294
  1.1321   1.1546   1.1708   1.1851   1.1880   1.2012   1.2233   1.2257
  1.2431   1.2463   1.2548   1.2655   1.2797   1.2854   1.2952   1.3146
  1.3283   1.3428   1.3537   1.3731   1.3917   1.3993   1.4115   1.4170
  1.4272   1.4397   1.4525   1.4692   1.4905   1.5133   1.5317   1.5413
  1.5564   1.5616   1.5695   1.5896   1.6205   1.6318   1.6528   1.6648
  1.6983   1.7035   1.7397   1.7556   1.7844   1.7935   1.8081   1.8687
  1.8775   1.9057   1.9286   1.9659   1.9891   2.0107   2.0362   2.0563
  2.0854   2.1288   2.1926   2.2416   2.2572   2.2974   2.3310   2.3775
  2.3995   2.4395   2.6246   2.6592   2.6693   2.6759   2.6987   2.7296
  2.7659   2.7863   2.8087   2.8244   2.8414   2.8543   2.8626   2.8770
  2.9012   2.9125   2.9387   2.9538   2.9635   2.9756   2.9827   2.9916
  3.0161   3.0399   3.0584   3.0691   3.0973   3.1192   3.1474   3.2035
  3.2224   3.2444   3.2534   3.2696   3.3133   3.3375   3.3641   3.3742
  3.3912   3.4078   3.4146   3.4259   3.4543   3.4569   3.4853   3.5071
  3.5171   3.5416   3.5583   3.5823   3.5977   3.6368   3.6579   3.6623
  3.6727   3.6931   3.7039   3.7272   3.7641   3.7724   3.7793   3.7991
  3.8084   3.8371   3.8628   3.8721   3.8780   3.8925   3.9352   3.9463
  3.9760   3.9868   4.0033   4.0340   4.0735   4.0909   4.1116   4.1380
  4.1628   4.1825   4.2235   4.2411   4.2791   4.2998   4.3291   4.3545
  4.3649   4.3884   4.4080   4.4461   4.4606   4.4713   4.5180   4.5355
  4.5504   4.5911   4.6000   4.6205   4.6531   4.6757   4.7000   4.7129
  4.7247   4.7693   4.7835   4.8072   4.8798   4.8899   4.9651   4.9882
  5.0592   5.0886   5.1037   5.2002   5.2283   5.2362   5.2525   5.2793
  5.2875   5.2993   5.3199   5.3292   5.3582   5.3735   5.4039   5.4361
  5.4874   5.5054   5.5288   5.5911   5.6090   5.6582   5.6792   5.7013
  5.7153   5.7457   5.8153   5.8844   5.9123   5.9537   6.0509   6.0864
  6.1813   6.2183   6.3351   6.6039   6.6572   6.9969   7.0311   7.0974
  7.1124   7.1894   7.2831   7.3132   7.3268   7.4055   7.4181   7.4754
  7.5062   7.7038   7.8124   7.8442   7.9726   8.1505  24.3543  24.5978
 24.7360  24.8086  25.0579  25.2648  50.4967  50.6024  50.6391
 --------------------------------------------------------------
 
          Ground-State Mulliken Net Atomic Charges

     Atom                 Charge (a.u.)    Spin (a.u.)
  --------------------------------------------------------
      1 H                     0.322276      -0.005707
      2 C                    -0.117522       0.217395
      3 C                    -0.262238      -0.069694
      4 H                     0.293946       0.002802
      5 C                    -0.180302       0.333618
      6 H                     0.292363      -0.007085
      7 C                    -0.265786      -0.062891
      8 H                     0.326702       0.001531
      9 C                    -0.242819       0.020191
     10 H                     0.292762      -0.000539
     11 C                    -0.282865      -0.007974
     12 H                     0.263796       0.001561
     13 O                    -0.422908      -0.004403
     14 H                     0.344257       0.001768
     15 O                    -0.279247       0.500373
     16 O                    -0.082415       0.079055
  --------------------------------------------------------
  Sum of atomic charges =     0.000000
  Sum of spin   charges =     1.000000

 -----------------------------------------------------------------
                    Cartesian Multipole Moments
 -----------------------------------------------------------------
    Charge (ESU x 10^10)
                 0.0000
    Dipole Moment (Debye)
         X      -0.8594      Y       4.7652      Z      -0.8735
       Tot       4.9203
    Quadrupole Moments (Debye-Ang)
        XX     -47.0217     XY      -9.7570     YY     -52.4339
        XZ       2.6269     YZ      -7.0290     ZZ     -40.3215
    Octopole Moments (Debye-Ang^2)
       XXX      67.7781    XXY     -47.5381    XYY       8.3444
[...]
   13      O       0.5624858333     2.7611312181    -1.9631335453
   14      H       0.1031864974     3.2939887498    -2.6217417175
   15      O      -0.9131332221    -1.0126583165    -0.5722647465
   16      O       0.3139753286    -0.6463842454    -0.8132622108
 ----------------------------------------------------------------
 Nuclear Repulsion Energy =         457.59387235 hartrees
 There are       34 alpha and       33 beta electrons
 Discretize the solute cavity surface with Lebedev spheres
	Using 110 Lebedev grid points for each H atom
	Using 194 Lebedev grid points for other atoms
	Atomic van der Waals radii will be scaled by 1.20
 Remove points where switching function is < 1.0e-08
 Keep 1208 surface tesserae and discard 1308 interior tesserae
 Molecular Surface Area = 142.881 Angst**2
 Applying Cartesian multipole field
    Component          Value
    ---------          -----
     (2,0,0)        1.00000E-11
     (0,2,0)        2.00000E-11
     (0,0,2)       -3.00000E-11
 Nucleus-field energy     =     0.0000000043 hartrees
 Requested basis set is 6-311++G(2df,2p)
 There are 114 shells and 376 basis functions
 A cutoff of  1.0D-12 yielded   6128 shell pairs
 There are     67778 function pairs (     85194 Cartesian)
 Smallest overlap matrix eigenvalue = 2.43E-06
 Guess MOs from SCF MO coefficient file

 -----------------------------------------------------------------------
  General SCF calculation program by
  Eric Jon Sundstrom, Paul Horn, Yuezhi Mao, Dmitri Zuev, Alec White,
  David Stuck, Shaama M.S., Shane Yost, Joonho Lee, David Small,
  Daniel Levine, Susi Lehtola, Hugh Burton, Evgeny Epifanovsky,
  Bang C. Huynh
 -----------------------------------------------------------------------
 Exchange:     0.1500 Hartree-Fock + 1.0000 wB97M-V + LR-HF
 Correlation:  1.0000 wB97M-V
 Using SG-2 standard quadrature grid
 Nonlocal Correlation:  VV10 with C = 0.0100 and b = 6.00 and scale = 1.00000
 Grid used for NLC:  SG-1 standard quadrature
 
 Citation of the SMD model:
 Marenich, A.V.; Cramer, C.J.; Truhlar, D.G.
 J. Phys. Chem. B 2009, 113, 6378-6396.
 iSolventCode=           1
 Solvent: water                                                           
 
 vradii
            1           2           3           4           5           6
    1   1.2000000   1.8500000   1.8500000   1.2000000   1.8500000   1.2000000
            7           8           9          10          11          12
    1   1.8500000   1.2000000   1.8500000   1.2000000   1.8500000   1.2000000
           13          14          15          16
    1   1.5200000   1.2000000   1.5200000   1.5200000
 -------------------------------------------------------
 OpenMP BLAS3 based DFT computing Module                
 Release: version 1.0, May 2013, Q-Chem Inc. Pittsburgh 
 -------------------------------------------------------
 A unrestricted SCF calculation will be
 performed using Roothaan-Hall, DIIS, GDM
 SCF converges when RMS gradient is below 1.0e-07
 ---------------------------------------
  Cycle       Energy         DIIS error
 ---------------------------------------
    1    -458.3266581512      1.76e-04  Roothaan Step
 ---------------------------------------
  Cycle       Energy         DIIS error
 ---------------------------------------
    1    -458.3472080007      2.04e-04  
    2    -458.3497688559      1.86e-04  Done DIIS. Switching to GDM
 ---------------------------------------
  Cycle       Energy        RMS Gradient
 ---------------------------------------
    1    -458.3497688559      1.24e-02   Normal BFGS step
    2    -458.3491310502      2.13e-02  Line search: overstep
    3    -458.3514001488      2.92e-03   Normal BFGS step
    4    -458.3514920587      1.42e-03   Normal BFGS step
    5    -458.3515315593      5.67e-04   Normal BFGS step
    6    -458.3515339959      2.71e-04   Normal BFGS step
    7    -458.3515355443      2.07e-04   Normal BFGS step
    8    -458.3515358791      9.24e-05   Normal BFGS step
    9    -458.3515359664      3.40e-05   Normal BFGS step
   10    -458.3515359807      3.14e-05   Normal BFGS step
   11    -458.3515359840      1.33e-05   Normal BFGS step
   12    -458.3515359844      3.21e-06   Normal BFGS step
   13    -458.3515359845      2.08e-06   Normal BFGS step
   14    -458.3515359846      1.87e-06   Normal BFGS step
   15    -458.3515359846      1.02e-06   Normal BFGS step
   16    -458.3515359846      4.48e-07   Normal BFGS step
   17    -458.3515359846      2.19e-07   Normal BFGS step
   18    -458.3515359846      7.10e-08  Convergence criterion met
 ---------------------------------------
 SCF time:   CPU 1753.55s  wall 119.00s 
<S^2> =          0.754279918
(3)  G-ENP(liq) elect-nuc-pol free energy of system     -458.351535985 a.u.
(4)  G-CDS(liq) cavity-dispersion-solvent structure 
     free energy                                                2.4673 kcal/mol
(6)  G-S(liq) free energy of system                     -458.347604150 a.u.
 SCF   energy in the final basis set =     -458.3476041495
 Total energy in the final basis set =     -458.3476041495
 
 --------------------------------------------------------------
 
                    Orbital Energies (a.u.)
 --------------------------------------------------------------
 
 Alpha MOs
 -- Occupied --
-19.4620 -19.4143 -19.3442 -10.4111 -10.4054 -10.3539 -10.3490 -10.3487
-10.3447  -1.3408  -1.1639  -1.0226  -0.9628  -0.8757  -0.8566  -0.7451
 -0.7258  -0.6696  -0.6483  -0.6256  -0.6106  -0.5921  -0.5751  -0.5556
 -0.5309  -0.5164  -0.4994  -0.4622  -0.4355  -0.4289  -0.4054  -0.3935
 -0.3875  -0.3302
 -- Virtual --
  0.0164   0.0253   0.0370   0.0383   0.0533   0.0575   0.0584   0.0820
  0.0996   0.1033   0.1152   0.1185   0.1361   0.1377   0.1411   0.1479
  0.1537   0.1569   0.1598   0.1620   0.1637   0.1716   0.1754   0.1806
  0.1883   0.1962   0.2008   0.2050   0.2135   0.2188   0.2299   0.2346
  0.2417   0.2565   0.2613   0.2666   0.2875   0.2940   0.2988   0.3117
  0.3207   0.3299   0.3355   0.3432   0.3544   0.3620   0.3671   0.3774
  0.3879   0.3888   0.3906   0.4031   0.4051   0.4119   0.4200   0.4354
  0.4510   0.4635   0.4720   0.5236   0.5284   0.5378   0.5565   0.5783
  0.5911   0.5996   0.6109   0.6246   0.6349   0.6404   0.6509   0.6618
  0.6789   0.6855   0.6901   0.7014   0.7158   0.7244   0.7273   0.7346
  0.7475   0.7658   0.7981   0.8047   0.8151   0.8180   0.8359   0.8453
  0.8549   0.8620   0.8728   0.8931   0.9037   0.9244   0.9332   0.9753
  0.9918   1.0140   1.0558   1.0700   1.0863   1.0990   1.1182   1.1385
  1.1493   1.1619   1.1737   1.1783   1.1983   1.2106   1.2211   1.2270
  1.2311   1.2421   1.2536   1.2633   1.2710   1.2935   1.3047   1.3119
  1.3325   1.3470   1.3732   1.3843   1.3933   1.4085   1.4143   1.4160
  1.4369   1.4407   1.4777   1.4831   1.5133   1.5166   1.5271   1.5398
  1.5552   1.5648   1.5691   1.6025   1.6252   1.6292   1.6483   1.6666
  1.6894   1.7082   1.7191   1.7547   1.7737   1.7879   1.7959   1.8290
  1.8613   1.8708   1.9268   1.9400   2.0057   2.0128   2.0520   2.0816
  2.0956   2.1577   2.2269   2.2622   2.3104   2.3159   2.3584   2.4163
  2.4257   2.6077   2.6406   2.6524   2.6767   2.6880   2.7074   2.7441
  2.7808   2.8032   2.8162   2.8320   2.8432   2.8579   2.8633   2.8708
  2.9106   2.9398   2.9445   2.9705   2.9746   2.9786   2.9881   3.0023
  3.0148   3.0266   3.0385   3.0821   3.1186   3.1531   3.1904   3.2025
  3.2430   3.2473   3.2649   3.3034   3.3248   3.3338   3.3525   3.3840
  3.3912   3.4240   3.4303   3.4561   3.4633   3.4782   3.4984   3.5168
  3.5243   3.5423   3.5575   3.5813   3.6022   3.6108   3.6598   3.6734
  3.6934   3.7280   3.7409   3.7506   3.7641   3.7825   3.7918   3.8152
  3.8385   3.8503   3.8664   3.8768   3.8995   3.9196   3.9367   3.9536
  3.9815   3.9863   4.0399   4.0651   4.0713   4.0947   4.1103   4.1583
  4.1849   4.2205   4.2375   4.2526   4.2897   4.3202   4.3362   4.3538
  4.3784   4.3960   4.4123   4.4400   4.4564   4.5019   4.5215   4.5688
  4.5801   4.6027   4.6341   4.6520   4.6830   4.6987   4.7164   4.7564
  4.7713   4.8051   4.8151   4.8917   4.8958   4.9311   5.0013   5.0249
  5.0460   5.0772   5.0859   5.1093   5.1190   5.2136   5.2180   5.2456
  5.2684   5.2843   5.2984   5.3196   5.3708   5.3817   5.4103   5.4347
  5.4459   5.5015   5.5466   5.5886   5.6305   5.6712   5.6972   5.7100
  5.7446   5.7977   5.8353   5.9307   5.9430   6.0258   6.0865   6.2378
  6.4414   6.4776   6.6061   6.6218   6.8703   6.9071   6.9745   7.1095
  7.1161   7.2102   7.2594   7.3235   7.3431   7.3879   7.4025   7.4403
  7.7024   7.8004   7.8473   8.0294   8.0914  24.3047  24.5445  24.7033
 24.7840  25.1515  25.3288  50.4290  50.5587  50.6303
 
 Beta MOs
 -- Occupied --
-19.4517 -19.3956 -19.3442 -10.4115 -10.4050 -10.3540 -10.3488 -10.3483
-10.3448  -1.3144  -1.1638  -1.0001  -0.9532  -0.8748  -0.8487  -0.7408
 -0.7233  -0.6605  -0.6441  -0.6022  -0.5890  -0.5838  -0.5712  -0.5416
 -0.5205  -0.5021  -0.4957  -0.4589  -0.4302  -0.4192  -0.3934  -0.3867
 -0.3297
 -- Virtual --
 -0.0303   0.0185   0.0256   0.0374   0.0383   0.0535   0.0576   0.0587
  0.0821   0.1004   0.1043   0.1159   0.1191   0.1365   0.1388   0.1420
  0.1483   0.1543   0.1578   0.1600   0.1623   0.1639   0.1720   0.1756
  0.1811   0.1886   0.1969   0.2017   0.2062   0.2149   0.2229   0.2312
  0.2348   0.2420   0.2571   0.2671   0.2714   0.2880   0.2969   0.3024
  0.3122   0.3217   0.3312   0.3382   0.3450   0.3550   0.3634   0.3678
  0.3793   0.3884   0.3904   0.3916   0.4039   0.4075   0.4131   0.4205
  0.4362   0.4527   0.4651   0.4730   0.5241   0.5291   0.5379   0.5573
  0.5785   0.5919   0.5998   0.6114   0.6250   0.6354   0.6408   0.6513
  0.6623   0.6793   0.6861   0.6910   0.7017   0.7161   0.7249   0.7276
  0.7361   0.7479   0.7660   0.7988   0.8050   0.8153   0.8184   0.8360
  0.8456   0.8551   0.8624   0.8730   0.8947   0.9042   0.9248   0.9349
  0.9763   0.9939   1.0148   1.0573   1.0714   1.0897   1.1002   1.1199
  1.1401   1.1524   1.1654   1.1772   1.1985   1.2009   1.2194   1.2239
  1.2320   1.2375   1.2461   1.2571   1.2677   1.2729   1.2954   1.3080
  1.3148   1.3355   1.3480   1.3746   1.3860   1.3939   1.4098   1.4164
  1.4192   1.4386   1.4414   1.4804   1.4845   1.5169   1.5194   1.5313
  1.5428   1.5586   1.5665   1.5697   1.6041   1.6280   1.6328   1.6512
  1.6768   1.7099   1.7213   1.7231   1.7625   1.7757   1.7906   1.8025
  1.8345   1.8638   1.8746   1.9358   1.9415   2.0063   2.0152   2.0534
  2.0843   2.1039   2.1640   2.2319   2.2659   2.3204   2.3346   2.3610
  2.4220   2.4267   2.6093   2.6440   2.6549   2.6770   2.6890   2.7093
  2.7452   2.7811   2.8040   2.8163   2.8324   2.8436   2.8586   2.8639
  2.8713   2.9119   2.9400   2.9451   2.9712   2.9748   2.9788   2.9888
  3.0033   3.0154   3.0268   3.0392   3.0826   3.1195   3.1538   3.1910
  3.2029   3.2434   3.2476   3.2655   3.3036   3.3253   3.3342   3.3526
  3.3846   3.3916   3.4243   3.4304   3.4566   3.4641   3.4784   3.4991
  3.5169   3.5247   3.5428   3.5583   3.5817   3.6027   3.6111   3.6603
  3.6741   3.6940   3.7282   3.7411   3.7511   3.7650   3.7829   3.7922
  3.8156   3.8388   3.8510   3.8668   3.8773   3.8998   3.9199   3.9367
  3.9540   3.9821   3.9867   4.0401   4.0655   4.0717   4.0950   4.1108
  4.1588   4.1854   4.2212   4.2379   4.2531   4.2902   4.3208   4.3367
  4.3543   4.3793   4.3966   4.4134   4.4406   4.4576   4.5029   4.5218
  4.5699   4.5818   4.6315   4.6355   4.6554   4.6842   4.7035   4.7197
  4.7608   4.7796   4.8075   4.8174   4.9005   4.9144   4.9340   5.0035
  5.0314   5.0595   5.0828   5.1414   5.1625   5.1768   5.2311   5.2470
  5.2788   5.2898   5.3042   5.3158   5.3222   5.3753   5.3982   5.4186
  5.4457   5.4516   5.5193   5.5516   5.5938   5.6347   5.6721   5.6981
  5.7119   5.7552   5.8048   5.8532   5.9313   5.9441   6.0277   6.0877
  6.2388   6.4553   6.5242   6.6126   6.6288   6.9549   6.9862   7.0363
  7.1102   7.1549   7.2375   7.3011   7.3246   7.3497   7.3999   7.4189
  7.4879   7.7034   7.8061   7.8546   8.0412   8.1134  24.3048  24.5445
 24.7032  24.7841  25.1515  25.3288  50.4413  50.5686  50.6304
 --------------------------------------------------------------
 
          Ground-State Mulliken Net Atomic Charges

     Atom                 Charge (a.u.)    Spin (a.u.)
  --------------------------------------------------------
      1 H                     0.319946      -0.001100
      2 C                    -0.280951       0.014778
      3 C                    -0.213972      -0.004910
      4 H                     0.284385       0.000962
      5 C                    -0.250692       0.006368
      6 H                     0.285977      -0.000718
      7 C                    -0.179582       0.001057
      8 H                     0.304801       0.000517
      9 C                    -0.473408       0.004183
     10 H                     0.266457      -0.001144
     11 C                    -0.097143      -0.002242
     12 H                     0.263172       0.001389
     13 O                    -0.413097      -0.000429
     14 H                     0.338555       0.000289
     15 O                    -0.202797       0.669705
     16 O                     0.048352       0.311294
  --------------------------------------------------------
  Sum of atomic charges =    -0.000000
  Sum of spin   charges =     1.000000

 -----------------------------------------------------------------
                    Cartesian Multipole Moments
 -----------------------------------------------------------------
    Charge (ESU x 10^10)
                -0.0000
    Dipole Moment (Debye)
         X      -0.5645      Y       2.9022      Z      -1.0782
       Tot       3.1470
    Quadrupole Moments (Debye-Ang)
        XX     -49.5432     XY      -7.7465     YY     -55.1849
        XZ       2.8249     YZ      -4.5221     ZZ     -41.5535
    Octopole Moments (Debye-Ang^2)
       XXX      68.3421    XXY     -53.8431    XYY      10.7050
       YYY    -186.1079    XXZ      40.9010    XYZ       7.8480
       YYZ      28.7673    XZZ      15.3016    YZZ     -34.1557
       ZZZ      86.8900
    Hexadecapole Moments (Debye-Ang^3)
      XXXX    -400.2762   XXXY      84.6928   XXYY    -227.3625
      XYYY      80.2713   YYYY    -928.0255   XXXZ     -26.6781
      XXYZ      63.3825   XYYZ       3.6919   YYYZ     108.1707
      XXZZ    -161.0918   XYZZ      11.1607   YYZZ    -167.9955
      XZZZ      -5.9439   YZZZ      90.6070   ZZZZ    -454.5671
 -----------------------------------------------------------------
 Calculating analytic gradient of the SCF energy
 Gradient of CDS energy
            1           2           3           4           5           6
    1   0.0001235   0.0002787  -0.0000290  -0.0000663  -0.0004627  -0.0001997
    2  -0.0000116  -0.0000606   0.0001555   0.0000776   0.0000949   0.0000324
    3   0.0001584   0.0002713   0.0004617   0.0001779  -0.0000964   0.0000332
            7           8           9          10          11          12
    1  -0.0001816  -0.0001205   0.0002802   0.0000397   0.0000817   0.0002092
    2  -0.0000866  -0.0000043   0.0000868  -0.0001713  -0.0002094   0.0000195
    3  -0.0002609  -0.0001607  -0.0000868  -0.0001296  -0.0001484  -0.0000544
           13          14          15          16
    1  -0.0000525   0.0001101   0.0000823  -0.0000932
    2  -0.0002581   0.0004310  -0.0000776  -0.0000182
    3   0.0001488  -0.0002637  -0.0000181  -0.0000323
 Gradient of SCF Energy
            1           2           3           4           5           6
    1   0.0040926  -0.0031783   0.0033869  -0.0017002   0.0063403  -0.0058466
    2   0.0003842   0.0039265  -0.0026441   0.0031992   0.0008904   0.0003683
    3   0.0040615  -0.0026116  -0.0064626   0.0047397   0.0029861   0.0013885
            7           8           9          10          11          12
    1   0.0034001  -0.0046584   0.0011524   0.0018401  -0.0088110   0.0059144
    2  -0.0035736  -0.0015685   0.0078572  -0.0023310  -0.0083581  -0.0016347
    3   0.0046083  -0.0074857   0.0095076  -0.0070358  -0.0044750   0.0001412
           13          14          15          16
    1   0.0085296  -0.0074708  -0.0018346  -0.0011566
    2  -0.0028436   0.0059139   0.0011172  -0.0007033
    3   0.0123370  -0.0106889  -0.0007319  -0.0002784
 Max gradient component =       1.234E-02
 RMS gradient           =       5.074E-03
 Computing fast CPCM-SWIG gradient
 Updating gradient with PCM contributions...
 -- total gradient after adding PCM contribution --
---------------------------------------------------
  Atom         X              Y              Z     
---------------------------------------------------
   1       0.000437       0.000625      -0.000020
   2       0.000403       0.000164       0.000044
   3       0.000050       0.000568      -0.000006
   4       0.000533       0.000825      -0.000275
   5       0.000228      -0.000330       0.000088
   6       0.000031      -0.001087       0.000184
   7       0.000154      -0.000647       0.000174
   8      -0.000105      -0.001979       0.000128
   9       0.000383       0.000000       0.000267
  10       0.000818       0.000834       0.000023
  11      -0.000053       0.000007      -0.000186
  12       0.000077      -0.000968       0.000169
  13      -0.000334       0.000672       0.000886
  14       0.000069       0.000218       0.000095
  15      -0.001622       0.001007      -0.001319
  16      -0.001070       0.000093      -0.000252
---------------------------------------------------
 Number of fixed atoms: 0
 Gradient time:  CPU 285.57 s  wall 22.48 s
rPathMan2.  file_steps = 952
 IRC --- Status = 4.  Checking bisector search.
 IRC --- Bisector search finished successfully.
 ------------------------------------------------------------------------
 Reaction path following.  The coordinates are cartesian              
 Step  19 E=    -458.347604 |G|=  0.004306 S_lin= 1.5694 S_tot= 1.7393
 ------------------------------------------------------------------------
  IRC -- convergence criterion reached.
 ----------------------------------------------------------------
             Standard Nuclear Orientation (Angstroms)
    I     Atom           X                Y                Z
 ----------------------------------------------------------------
    1      H       0.7559052129     1.3263816691     1.5161091300
    2      C       0.0959208877     1.3676723246     0.6609695140
    3      C      -1.1351846146     1.9002483902     0.7514798628
    4      H      -1.4985377309     2.2981243920     1.6891391835
    5      C      -2.0236014199     1.8557488379    -0.3816089369
    6      H      -3.0785052877     2.0432969651    -0.2360062006
    7      C      -1.5465329160     1.4678106376    -1.6037513575
    8      H      -2.2090014541     1.3666924031    -2.4514781084
    9      C      -0.0583692069     1.5052039563    -1.8345967408
   10      H       0.2038154008     0.9572992749    -2.7387836447
   11      C       0.5719011830     0.7955988773    -0.6394362824
   12      H       1.6571322971     0.7809781198    -0.7065231861
   13      O       0.4483245000     2.8323688761    -1.8888138095
   14      H       0.0608984573     3.2700662804    -2.6546087598
   15      O      -1.2277839935    -0.5736399879    -0.8975431141
   16      O       0.1630978845    -0.5727391164    -0.8426519496
 ----------------------------------------------------------------
 Nuclear Repulsion Energy =         467.94519261 hartrees
 There are       34 alpha and       33 beta electrons
 Here is where we should summarize the reaction path
 Total job time:  17041.56s(wall), 247092.12s(cpu) 
 Wed May 15 06:20:08 2024

        *************************************************************
        *                                                           *
        *  Thank you very much for using Q-Chem.  Have a nice day.  *
        *                                                           *
        *************************************************************


