
Running Job 1 of 2 Q_in.in
qchem Q_in.in_44078.0 /scratch/ari.fischer/qChem2100616.hpc-mn1/qchem44078/ 0
/usr/local/qchem-5.4.1/exe/qcprog.exe_s Q_in.in_44078.0 /scratch/ari.fischer/qChem2100616.hpc-mn1/qchem44078/
                  Welcome to Q-Chem
     A Quantum Leap Into The Future Of Chemistry


 Q-Chem 5.4, Q-Chem, Inc., Pleasanton, CA (2021)

 License issued to: Nanyang Technological University (site)

 E. Epifanovsky,  A. T. B. Gilbert,  Xintian Feng,  Joonho Lee,  Yuezhi Mao,  
 N. Mardirossian,  P. Pokhilko,  A. White,  M. Wormit,  M. P. Coons,  
 A. L. Dempwolff,  Zhengting Gan,  D. Hait,  P. R. Horn,  L. D. Jacobson,  
 I. Kaliman,  J. Kussmann,  A. W. Lange,  Ka Un Lao,  D. S. Levine,  Jie Liu,  
 S. C. McKenzie,  A. F. Morrison,  K. Nanda,  F. Plasser,  D. R. Rehn,  
 M. L. Vidal,  Zhi-Qiang You,  Ying Zhu,  B. Alam,  B. Albrecht,  
 A. Aldossary,  E. Alguire,  J. H. Andersen,  D. Barton,  K. Begam,  A. Behn,  
 Y. A. Bernard,  E. J. Berquist,  H. Burton,  A. Carreras,  K. Carter-Fenk,  
 R. Chakraborty,  A. D. Chien,  K. D. Closser,  V. Cofer-Shabica,  
 S. Dasgupta,  Jia Deng,  M. de Wergifosse,  M. Diedenhofen,  Hainam Do,  
 S. Ehlert,  Po-Tung Fang,  S. Fatehi,  Qingguo Feng,  T. Friedhoff,  
 J. Gayvert,  Qinghui Ge,  G. Gidofalvi,  M. Goldey,  J. Gomes,  
 C. Gonzalez-Espinoza,  S. Gulania,  A. Gunina,  M. W. D. Hanson-Heine,  
 P. H. P. Harbach,  A. W. Hauser,  M. F. Herbst,  M. Hernandez Vera,  
 M. Hodecker,  Z. C. Holden,  S. Houck,  Xunkun Huang,  Kerwin Hui,  
 B. C. Huynh,  M. Ivanov,  Hyunjun Ji,  Hanjie Jiang,  B. Kaduk,  S. Kaehler,  
 K. Khistyaev,  Jaehoon Kim,  P. Klunzinger,  Z. Koczor-Benda,  
 Joong Hoon Koh,  D. Kosenkov,  L. Koulias,  T. Kowalczyk,  C. M. Krauter,  
 K. Kue,  A. Kunitsa,  T. Kus,  A. Landau,  K. V. Lawler,  D. Lefrancois,  
 S. Lehtola,  Rain Li,  Yi-Pei Li,  Jiashu Liang,  M. Liebenthal,  
 Hung-Hsuan Lin,  You-Sheng Lin,  Fenglai Liu,  Kuan-Yu Liu,  
 M. Loipersberger,  A. Luenser,  A. Manjanath,  P. Manohar,  E. Mansoor,  
 S. F. Manzer,  Shan-Ping Mao,  A. V. Marenich,  T. Markovich,  S. Mason,  
 S. A. Maurer,  P. F. McLaughlin,  M. F. S. J. Menger,  J.-M. Mewes,  
 S. A. Mewes,  P. Morgante,  J. W. Mullinax,  K. J. Oosterbaan,  G. Paran,  
 Alexander C. Paul,  Suranjan K. Paul,  F. Pavosevic,  Zheng Pei,  S. Prager,  
 E. I. Proynov,  E. Ramos,  B. Rana,  A. E. Rask,  A. Rettig,  R. M. Richard,  
 F. Rob,  E. Rossomme,  T. Scheele,  M. Scheurer,  M. Schneider,  
 N. Sergueev,  S. M. Sharada,  W. Skomorowski,  D. W. Small,  C. J. Stein,  
 Yu-Chuan Su,  E. J. Sundstrom,  Zhen Tao,  J. Thirman,  T. Tsuchimochi,  
 N. M. Tubman,  S. P. Veccham,  O. Vydrov,  J. Wenzel,  J. Witte,  A. Yamada,  
 Kun Yao,  S. Yeganeh,  S. R. Yost,  A. Zech,  Igor Ying Zhang,  Xing Zhang,  
 Yu Zhang,  D. Zuev,  A. Aspuru-Guzik,  A. T. Bell,  N. A. Besley,  
 K. B. Bravaya,  B. R. Brooks,  D. Casanova,  Jeng-Da Chai,  S. Coriani,  
 C. J. Cramer,  A. E. DePrince, III,  R. A. DiStasio Jr.,  A. Dreuw,  
 B. D. Dunietz,  T. R. Furlani,  W. A. Goddard III,  S. Grimme,  
 S. Hammes-Schiffer,  T. Head-Gordon,  W. J. Hehre,  Chao-Ping Hsu,  
 T.-C. Jagau,  Yousung Jung,  A. Klamt,  Jing Kong,  D. S. Lambrecht,  
 WanZhen Liang,  N. J. Mayhall,  C. W. McCurdy,  J. B. Neaton,  
 C. Ochsenfeld,  J. A. Parkhill,  R. Peverati,  V. A. Rassolov,  Yihan Shao,  
 L. V. Slipchenko,  T. Stauch,  R. P. Steele,  J. E. Subotnik,  
 A. J. W. Thom,  A. Tkatchenko,  D. G. Truhlar,  T. Van Voorhis,  
 T. A. Wesolowski,  K. B. Whaley,  H. L. Woodcock III,  P. M. Zimmerman,  
 S. Faraji,  P. M. W. Gill,  M. Head-Gordon,  J. M. Herbert,  A. I. Krylov

 Additional authors for Version 5.4.1: 
 S. Kotaru,  Shaozhi Li,  Xiangyuan Li,  F. Matz,  A. Molle,  Haisheng Ren,  
 Yingli Su,  Hung-Yi Tsai,  C. Utku,  Fang Wang

 Contributors to earlier versions of Q-Chem not listed above: 
 R. D. Adamson,  B. Austin,  R. Baer,  J. Baker,  G. J. O. Beran,  
 K. Brandhorst,  S. T. Brown,  E. F. C. Byrd,  A. K. Chakraborty,  
 G. K. L. Chan,  Chun-Min Chang,  Yunqing Chen,  C.-L. Cheng,  
 Siu Hung Chien,  D. M. Chipman,  D. L. Crittenden,  H. Dachsel,  
 R. J. Doerksen,  A. D. Dutoi,  R. G. Edgar,  J. Fosso-Tande,  
 L. Fusti-Molnar,  D. Ghosh,  A. Ghysels,  A. Golubeva-Zadorozhnaya,  
 J. Gonthier,  M. S. Gordon,  S. R. Gwaltney,  G. Hawkins,  J. E. Herr,  
 A. Heyden,  S. Hirata,  E. G. Hohenstein,  G. Kedziora,  F. J. Keil,  
 C. Kelley,  Jihan Kim,  R. A. King,  R. Z. Khaliullin,  P. P. Korambath,  
 W. Kurlancheek,  A. Laurent,  A. M. Lee,  M. S. Lee,  S. V. Levchenko,  
 Ching Yeh Lin,  D. Liotard,  E. Livshits,  R. C. Lochan,  I. Lotan,  
 L. A. Martinez-Martinez,  P. E. Maslen,  N. Nair,  D. P. O'Neill,  
 D. Neuhauser,  E. Neuscamman,  C. M. Oana,  R. Olivares-Amaya,  R. Olson,  
 T. M. Perrine,  B. Peters,  P. A. Pieniazek,  A. Prociuk,  Y. M. Rhee,  
 J. Ritchie,  M. A. Rohrdanz,  E. Rosta,  N. J. Russ,  H. F. Schaefer III,  
 M. W. Schmidt,  N. E. Schultz,  S. Sharma,  N. Shenvi,  C. D. Sherrill,  
 A. C. Simmonett,  A. Sodt,  T. Stein,  D. Stuck,  K. S. Thanthiriwatte,  
 V. Vanovschi,  L. Vogt,  Tao Wang,  A. Warshel,  M. A. Watson,  
 C. F. Williams,  Q. Wu,  X. Xu,  Jun Yang,  W. Zhang,  Yan Zhao

 Please cite Q-Chem as follows:
 Y. Shao et al., Mol. Phys. 113, 184-215 (2015)
 DOI: 10.1080/00268976.2014.952696

 Q-Chem 5.4.1 for Intel X86 EM64T Linux

 Parts of Q-Chem use Armadillo 9.800.1 (Horizon Scraper).
 http://arma.sourceforge.net/

 Q-Chem begins on Tue May 14 10:03:47 2024  

 Host: 
0

     Scratch files written to /scratch/ari.fischer/qChem2100616.hpc-mn1/qchem44078//
 Aug1521 |scratch|qcdevops|jenkins|workspace|build_RNUM 8249   
 Processing $rem in /usr/local/qchem-5.4.1/config/preferences:
 Processing $rem in /home/ari.fischer/.qchemrc:
 Symmetry turned off for PCM/SM12/SMD calculation


!!********************************************.
!!******************Warning*******************.
!!Desired Analytical derivatives not available.
!!Finite difference job might take a long time.
!!********************************************.
!!********************************************.


 2-order derivative to be evaluated numerically with 1-order analytical derivatives

 Checking the input file for inconsistencies... 	...done.

--------------------------------------------------------------
User input:
--------------------------------------------------------------
$molecule
0 2
H    0.7926905    1.3941284    1.4429930
C    0.1207049    1.4019480    0.5964905
C   -1.1070210    1.9474664    0.6821119
H   -1.4476472    2.3906280    1.6079875
C   -2.0184623    1.8531483   -0.4277097
H   -3.0722855    2.0398280   -0.2767847
C   -1.5447954    1.4124395   -1.6346116
H   -2.1986808    1.2637455   -2.4829499
C   -0.0698248    1.4517111   -1.8629128
H    0.2023765    0.9962250   -2.7651580
C    0.5666735    0.7417442   -0.6752856
H    1.6490509    0.6940414   -0.7615026
O    0.3610273    2.8642260   -1.6803517
H    0.0768528    3.4159670   -2.4173346
O   -1.2575391   -0.6212224   -0.8025958
O    0.1263589   -0.6249125   -0.8004903
$end

$rem
BASIS = 6-311++G(2df,2p)
GUI = 2
JOB_TYPE = Frequency
METHOD = wB97M-V
SCF_ALGORITHM = DIIS_GDM
MAX_SCF_CYCLES = 400
SCF_CONVERGENCE = 6
THRESH = 11
solvent_method = SMD
$end

--------------------------------------------------------------
 ----------------------------------------------------------------
             Standard Nuclear Orientation (Angstroms)
    I     Atom           X                Y                Z
 ----------------------------------------------------------------
    1      H       0.7926905000     1.3941284000     1.4429930000
    2      C       0.1207049000     1.4019480000     0.5964905000
    3      C      -1.1070210000     1.9474664000     0.6821119000
    4      H      -1.4476472000     2.3906280000     1.6079875000
    5      C      -2.0184623000     1.8531483000    -0.4277097000
    6      H      -3.0722855000     2.0398280000    -0.2767847000
    7      C      -1.5447954000     1.4124395000    -1.6346116000
    8      H      -2.1986808000     1.2637455000    -2.4829499000
    9      C      -0.0698248000     1.4517111000    -1.8629128000
   10      H       0.2023765000     0.9962250000    -2.7651580000
   11      C       0.5666735000     0.7417442000    -0.6752856000
   12      H       1.6490509000     0.6940414000    -0.7615026000
   13      O       0.3610273000     2.8642260000    -1.6803517000
   14      H       0.0768528000     3.4159670000    -2.4173346000
   15      O      -1.2575391000    -0.6212224000    -0.8025958000
   16      O       0.1263589000    -0.6249125000    -0.8004903000
 ----------------------------------------------------------------
 Nuclear Repulsion Energy =         469.57682808 hartrees
 There are       34 alpha and       33 beta electrons
 Requested basis set is 6-311++G(2df,2p)
 There are 114 shells and 376 basis functions

 Total QAlloc Memory Limit 288000 MB
 Mega-Array Size       188 MB
 MEM_STATIC part       192 MB
 
 Citation of the SMD model:
 Marenich, A.V.; Cramer, C.J.; Truhlar, D.G.
 J. Phys. Chem. B 2009, 113, 6378-6396.
 iSolventCode=           1
 Solvent: water                                                           
 
 vradii
            1           2           3           4           5           6
    1   1.2000000   1.8500000   1.8500000   1.2000000   1.8500000   1.2000000
            7           8           9          10          11          12
    1   1.8500000   1.2000000   1.8500000   1.2000000   1.8500000   1.2000000
           13          14          15          16
    1   1.5200000   1.2000000   1.5200000   1.5200000
 Changing PCM_VDW_RADII to SMD_RADIUS
 Discretize the solute cavity surface with Lebedev spheres
	Using 110 Lebedev grid points for each H atom
	Using 194 Lebedev grid points for other atoms
	Atomic van der Waals radii will be scaled by 1.20
 Remove points where switching function is < 1.0e-08
 Keep 1167 surface tesserae and discard 1349 interior tesserae
 Molecular Surface Area = 137.394 Angst**2
 A cutoff of  1.0D-11 yielded   6107 shell pairs
 There are     67805 function pairs (     85264 Cartesian)
 Smallest overlap matrix eigenvalue = 3.03E-06

 Q-Chem warning in module stvman/mkSTV.C, line 323:

 Overlap eigenvalue is smaller than square root of threshold
 Use THRESH >= 12 to get rid of this warning

 Guess from superposition of atomic densities
 Warning:  Energy on first SCF cycle will be non-variational
 SAD guess density has 67.000000 electrons

 -----------------------------------------------------------------------
  General SCF calculation program by
  Eric Jon Sundstrom, Paul Horn, Yuezhi Mao, Dmitri Zuev, Alec White,
  David Stuck, Shaama M.S., Shane Yost, Joonho Lee, David Small,
  Daniel Levine, Susi Lehtola, Hugh Burton, Evgeny Epifanovsky,
  Bang C. Huynh
 -----------------------------------------------------------------------
 Exchange:     0.1500 Hartree-Fock + 1.0000 wB97M-V + LR-HF
 Correlation:  1.0000 wB97M-V
 Using SG-2 standard quadrature grid
 Nonlocal Correlation:  VV10 with C = 0.0100 and b = 6.00 and scale = 1.00000
 Grid used for NLC:  SG-1 standard quadrature
 using 16 threads for integral computing
 -------------------------------------------------------
 OpenMP Integral computing Module                
 Release: version 1.0, May 2013, Q-Chem Inc. Pittsburgh 
 -------------------------------------------------------
 
 Citation of the SMD model:
 Marenich, A.V.; Cramer, C.J.; Truhlar, D.G.
 J. Phys. Chem. B 2009, 113, 6378-6396.
 iSolventCode=           1
 Solvent: water                                                           
 
 vradii
            1           2           3           4           5           6
    1   1.2000000   1.8500000   1.8500000   1.2000000   1.8500000   1.2000000
            7           8           9          10          11          12
    1   1.8500000   1.2000000   1.8500000   1.2000000   1.8500000   1.2000000
           13          14          15          16
    1   1.5200000   1.2000000   1.5200000   1.5200000
 -------------------------------------------------------
 OpenMP BLAS3 based DFT computing Module                
 Release: version 1.0, May 2013, Q-Chem Inc. Pittsburgh 
 -------------------------------------------------------
 A unrestricted SCF calculation will be
 performed using DIIS, GDM
 SCF converges when RMS gradient is below 1.0e-06
 ---------------------------------------
  Cycle       Energy         DIIS error
 ---------------------------------------
    1    -460.6101271443      1.27e-02  
    2    -458.2277475537      1.17e-03  Done DIIS. Switching to GDM
 ---------------------------------------
  Cycle       Energy        RMS Gradient
 ---------------------------------------
    1    -458.2277475537      6.31e-02   Descent step
    2    -458.2984388621      1.92e-02   Normal BFGS step
    3    -458.3128768302      2.61e-02   Normal BFGS step
    4    -458.3152619424      7.17e-03   Normal BFGS step
    5    -458.3162908850      7.16e-03   Normal BFGS step
    6    -458.3167313060      6.84e-03   Normal BFGS step
    7    -458.3170215951      5.28e-03   Normal BFGS step
    8    -458.3171208301      4.04e-03   Normal BFGS step
    9    -458.3171698825      2.36e-03   Normal BFGS step
   10    -458.3171970928      1.77e-03   Normal BFGS step
   11    -458.3172102798      1.43e-03   Normal BFGS step
   12    -458.3172205618      9.29e-04   Normal BFGS step
   13    -458.3172275969      5.21e-04   Normal BFGS step
   14    -458.3172301007      5.31e-04   Normal BFGS step
   15    -458.3172313509      3.04e-04   Normal BFGS step
   16    -458.3172318345      2.04e-04   Normal BFGS step
   17    -458.3172320439      1.48e-04   Normal BFGS step
   18    -458.3172321539      5.84e-05   Normal BFGS step
   19    -458.3172321912      2.59e-05   Normal BFGS step
   20    -458.3172321969      8.51e-06   Normal BFGS step
   21    -458.3172321986      2.85e-06   Normal BFGS step
   22    -458.3172321987      1.06e-06   Normal BFGS step
   23    -458.3172321989      9.40e-07  Convergence criterion met
 ---------------------------------------
 SCF time:   CPU 2488.46s  wall 169.00s 
<S^2> =          0.791332902
(3)  G-ENP(liq) elect-nuc-pol free energy of system     -458.317232199 a.u.
(4)  G-CDS(liq) cavity-dispersion-solvent structure 
     free energy                                                2.4575 kcal/mol
(6)  G-S(liq) free energy of system                     -458.313315865 a.u.
 SCF   energy in the final basis set =     -458.3133158651
 Total energy in the final basis set =     -458.3133158651
 
 --------------------------------------------------------------
 
                    Orbital Energies (a.u.)
 --------------------------------------------------------------
 
 Alpha MOs
 -- Occupied --
-19.4086 -19.3865 -19.3437 -10.4090 -10.4062 -10.3753 -10.3685 -10.3596
-10.3556  -1.2721  -1.1498  -1.0063  -0.9768  -0.8833  -0.8604  -0.7466
 -0.7268  -0.6659  -0.6521  -0.6029  -0.5865  -0.5758  -0.5689  -0.5484
 -0.5231  -0.5052  -0.4940  -0.4694  -0.4475  -0.4353  -0.4063  -0.3985
 -0.3554  -0.3139
 -- Virtual --
  0.0085   0.0247   0.0370   0.0375   0.0508   0.0576   0.0583   0.0841
  0.0959   0.0976   0.1123   0.1172   0.1354   0.1368   0.1411   0.1467
  0.1490   0.1534   0.1581   0.1594   0.1622   0.1662   0.1724   0.1776
  0.1863   0.1950   0.1988   0.2048   0.2102   0.2154   0.2292   0.2328
  0.2436   0.2547   0.2576   0.2731   0.2900   0.3014   0.3076   0.3139
  0.3244   0.3326   0.3426   0.3459   0.3564   0.3629   0.3691   0.3749
  0.3836   0.3885   0.3940   0.4050   0.4059   0.4159   0.4269   0.4328
  0.4472   0.4649   0.4817   0.5110   0.5137   0.5277   0.5416   0.5817
  0.5853   0.5950   0.6071   0.6144   0.6160   0.6366   0.6541   0.6662
  0.6815   0.6890   0.7016   0.7058   0.7185   0.7256   0.7372   0.7516
  0.7641   0.7833   0.7871   0.7944   0.8073   0.8191   0.8324   0.8380
  0.8534   0.8640   0.8699   0.8976   0.9123   0.9347   0.9529   0.9739
  1.0057   1.0360   1.0668   1.0695   1.0902   1.1191   1.1228   1.1295
  1.1507   1.1734   1.1840   1.2003   1.2095   1.2175   1.2199   1.2371
  1.2464   1.2627   1.2710   1.2818   1.2913   1.3015   1.3106   1.3208
  1.3412   1.3508   1.3659   1.3914   1.4014   1.4044   1.4112   1.4163
  1.4404   1.4567   1.4738   1.4976   1.5219   1.5292   1.5367   1.5582
  1.5647   1.5768   1.5841   1.6180   1.6377   1.6397   1.6584   1.6693
  1.7159   1.7391   1.7616   1.7777   1.7907   1.8167   1.8573   1.8797
  1.8963   1.9120   1.9300   1.9789   1.9950   2.0206   2.0501   2.0703
  2.1016   2.1990   2.2066   2.2440   2.2885   2.3054   2.3745   2.4053
  2.4295   2.6234   2.6529   2.6635   2.6810   2.6908   2.7240   2.7494
  2.7774   2.8017   2.8119   2.8329   2.8452   2.8597   2.8696   2.8835
  2.9117   2.9176   2.9381   2.9524   2.9735   2.9780   2.9979   3.0146
  3.0421   3.0530   3.0686   3.1079   3.1175   3.1550   3.1977   3.2107
  3.2393   3.2460   3.2539   3.3228   3.3461   3.3562   3.3704   3.3873
  3.3966   3.4088   3.4255   3.4375   3.4509   3.4737   3.5001   3.5089
  3.5336   3.5539   3.5779   3.5990   3.6290   3.6426   3.6600   3.6702
  3.6872   3.7024   3.7311   3.7499   3.7693   3.7768   3.8015   3.8135
  3.8395   3.8595   3.8683   3.8851   3.8931   3.9389   3.9554   3.9854
  3.9882   4.0154   4.0368   4.0660   4.0971   4.1225   4.1523   4.1597
  4.1783   4.2345   4.2422   4.2792   4.2949   4.3345   4.3557   4.3603
  4.4058   4.4394   4.4698   4.4743   4.4855   4.5280   4.5363   4.5530
  4.5825   4.6080   4.6283   4.6418   4.6790   4.6950   4.7185   4.7353
  4.7685   4.7809   4.8340   4.8635   4.8870   4.9649   4.9808   5.0479
  5.0806   5.0878   5.1700   5.1914   5.2188   5.2443   5.2573   5.2691
  5.2786   5.2935   5.3235   5.3518   5.3601   5.3919   5.4413   5.4695
  5.4989   5.5150   5.5551   5.5842   5.6336   5.6915   5.6953   5.7190
  5.7739   5.8032   5.8500   5.8881   5.9479   6.0156   6.0677   6.1765
  6.2274   6.3499   6.4594   6.6014   6.9922   7.0020   7.0250   7.1024
  7.1175   7.2436   7.2817   7.3147   7.3629   7.3954   7.4599   7.4725
  7.7171   7.8070   7.8404   7.9708   8.1357  24.3706  24.6084  24.7362
 24.8141  25.0590  25.2578  50.4816  50.5946  50.6360
 
 Beta MOs
 -- Occupied --
-19.4057 -19.3712 -19.3438 -10.4091 -10.4058 -10.3760 -10.3636 -10.3573
-10.3562  -1.2575  -1.1497  -0.9896  -0.9671  -0.8811  -0.8505  -0.7435
 -0.7223  -0.6616  -0.6452  -0.5988  -0.5780  -0.5692  -0.5637  -0.5438
 -0.5162  -0.4961  -0.4822  -0.4612  -0.4346  -0.4204  -0.3955  -0.3627
 -0.3266
 -- Virtual --
 -0.0576   0.0173   0.0249   0.0371   0.0373   0.0519   0.0576   0.0585
  0.0839   0.0976   0.0993   0.1124   0.1230   0.1362   0.1367   0.1416
  0.1472   0.1505   0.1539   0.1584   0.1598   0.1623   0.1662   0.1755
  0.1792   0.1866   0.1959   0.2042   0.2073   0.2116   0.2164   0.2297
  0.2327   0.2436   0.2549   0.2587   0.2754   0.2927   0.3025   0.3088
  0.3160   0.3263   0.3348   0.3444   0.3479   0.3577   0.3642   0.3709
  0.3756   0.3842   0.3892   0.3944   0.4061   0.4077   0.4163   0.4278
  0.4345   0.4482   0.4671   0.4827   0.5128   0.5146   0.5297   0.5425
  0.5834   0.5877   0.5977   0.6108   0.6160   0.6182   0.6394   0.6606
  0.6673   0.6832   0.6906   0.7030   0.7085   0.7199   0.7267   0.7396
  0.7534   0.7663   0.7862   0.7898   0.7969   0.8098   0.8207   0.8339
  0.8387   0.8554   0.8667   0.8727   0.9002   0.9139   0.9362   0.9562
  0.9749   1.0067   1.0376   1.0680   1.0712   1.0918   1.1205   1.1259
  1.1314   1.1520   1.1761   1.1880   1.2034   1.2116   1.2207   1.2226
  1.2414   1.2479   1.2648   1.2745   1.2863   1.2930   1.3053   1.3129
  1.3268   1.3455   1.3559   1.3689   1.3937   1.4035   1.4078   1.4131
  1.4201   1.4431   1.4605   1.4769   1.4997   1.5240   1.5323   1.5402
  1.5617   1.5663   1.5789   1.5870   1.6212   1.6414   1.6420   1.6618
  1.6729   1.7198   1.7473   1.7640   1.7849   1.7961   1.8207   1.8636
  1.8816   1.9050   1.9151   1.9397   1.9849   2.0011   2.0245   2.0544
  2.0751   2.1060   2.2073   2.2086   2.2468   2.2934   2.3115   2.3768
  2.4090   2.4319   2.6276   2.6598   2.6656   2.6850   2.6970   2.7293
  2.7538   2.7811   2.8057   2.8161   2.8384   2.8484   2.8651   2.8805
  2.8896   2.9179   2.9257   2.9498   2.9667   2.9799   2.9862   3.0027
  3.0239   3.0405   3.0580   3.0709   3.1113   3.1209   3.1622   3.2024
  3.2161   3.2438   3.2527   3.2577   3.3286   3.3531   3.3616   3.3736
  3.3911   3.4036   3.4166   3.4320   3.4413   3.4555   3.4794   3.5068
  3.5114   3.5386   3.5610   3.5818   3.6068   3.6361   3.6497   3.6629
  3.6726   3.6901   3.7066   3.7344   3.7553   3.7763   3.7820   3.8058
  3.8165   3.8430   3.8662   3.8755   3.8900   3.8965   3.9412   3.9586
  3.9909   3.9928   4.0183   4.0415   4.0686   4.1002   4.1251   4.1547
  4.1643   4.1814   4.2404   4.2463   4.2858   4.2974   4.3366   4.3598
  4.3649   4.4096   4.4447   4.4729   4.4783   4.4891   4.5314   4.5405
  4.5612   4.5885   4.6137   4.6364   4.6512   4.6867   4.7045   4.7249
  4.7378   4.7744   4.7873   4.8390   4.8741   4.8978   4.9777   4.9867
  5.0647   5.0925   5.1012   5.2005   5.2282   5.2375   5.2587   5.2646
  5.2792   5.3046   5.3116   5.3417   5.3557   5.3759   5.4040   5.4573
  5.4750   5.5081   5.5231   5.5638   5.5897   5.6406   5.6963   5.7004
  5.7251   5.7787   5.8090   5.8536   5.8957   5.9535   6.0201   6.0744
  6.1837   6.2423   6.3670   6.4600   6.6085   7.0154   7.0296   7.0771
  7.1174   7.1689   7.2732   7.2862   7.3158   7.3736   7.3988   7.4744
  7.4999   7.7190   7.8101   7.8479   7.9872   8.1433  24.3717  24.6097
 24.7366  24.8145  25.0609  25.2596  50.4922  50.5979  50.6360
 --------------------------------------------------------------
 
          Ground-State Mulliken Net Atomic Charges

     Atom                 Charge (a.u.)    Spin (a.u.)
  --------------------------------------------------------
      1 H                     0.315818      -0.005676
      2 C                    -0.143458       0.221989
      3 C                    -0.212196      -0.076771
      4 H                     0.301650       0.002921
      5 C                    -0.213244       0.329162
      6 H                     0.290274      -0.007085
      7 C                    -0.271230      -0.072510
      8 H                     0.325565       0.001348
      9 C                    -0.232432       0.020858
     10 H                     0.307958      -0.001322
     11 C                    -0.311796      -0.006294
     12 H                     0.270459       0.000953
     13 O                    -0.412543      -0.004527
     14 H                     0.345063       0.000990
     15 O                    -0.285889       0.508477
     16 O                    -0.073998       0.087487
  --------------------------------------------------------
  Sum of atomic charges =     0.000000
  Sum of spin   charges =     1.000000

 -----------------------------------------------------------------
                    Cartesian Multipole Moments
 -----------------------------------------------------------------
    Charge (ESU x 10^10)
                 0.0000
    Dipole Moment (Debye)
         X      -0.3960      Y       4.7957      Z      -1.4658
       Tot       5.0303
    Quadrupole Moments (Debye-Ang)
        XX     -47.3995     XY      -9.0561     YY     -51.6554
        XZ       2.0373     YZ      -7.2289     ZZ     -40.0897
    Octopole Moments (Debye-Ang^2)
       XXX      70.9882    XXY     -47.3530    XYY      11.3523
       YYY    -178.7054    XXZ      37.2381    XYZ       7.5151
       YYZ      24.7397    XZZ      20.5838    YZZ     -28.4436
       ZZZ      84.1516
    Hexadecapole Moments (Debye-Ang^3)
      XXXX    -382.9984   XXXY      61.9236   XXYY    -209.5563
      XYYY      65.9154   YYYY    -850.9079   XXXZ     -39.2760
      XXYZ      47.2042   XYYZ      -7.7531   YYYZ      70.9632
      XXZZ    -147.7626   XYZZ      14.2007   YYZZ    -147.3371
      XZZZ     -30.5088   YZZZ      62.6632   ZZZZ    -412.3939
 -----------------------------------------------------------------
 Calculating analytic gradient of the SCF energy
 Gradient of CDS energy
            1           2           3           4           5           6
    1   0.0001238   0.0002831  -0.0000543  -0.0000649  -0.0004236  -0.0001984
    2  -0.0000014  -0.0000201   0.0001995   0.0000845   0.0001001   0.0000351
    3   0.0001559   0.0002818   0.0003877   0.0001765  -0.0000784   0.0000284
            7           8           9          10          11          12
    1  -0.0001624  -0.0001202   0.0002836   0.0000176   0.0001176   0.0002138
    2  -0.0001792  -0.0000273   0.0001536  -0.0001597  -0.0002789  -0.0000182
    3  -0.0002459  -0.0001560  -0.0001831  -0.0000911  -0.0001174  -0.0000377
           13          14          15          16
    1  -0.0000954   0.0000892   0.0000983  -0.0001078
    2  -0.0003002   0.0004663  -0.0000511  -0.0000030
    3   0.0001203  -0.0002077   0.0000122  -0.0000457
 Gradient of SCF Energy
            1           2           3           4           5           6
    1   0.0034072   0.0016720   0.0017115  -0.0026204   0.0072045  -0.0084436
    2  -0.0000318   0.0110324  -0.0048156   0.0028259   0.0086630   0.0025316
    3   0.0038295  -0.0067604  -0.0112414   0.0055284   0.0099484   0.0012771
            7           8           9          10          11          12
    1   0.0102767  -0.0040640   0.0086364  -0.0103471  -0.0089055   0.0049428
    2  -0.0063893   0.0003161  -0.0317419   0.0027308  -0.0120386  -0.0005714
    3   0.0019920  -0.0092052  -0.0321232   0.0184102  -0.0023114  -0.0006378
           13          14          15          16
    1   0.0009221  -0.0029557  -0.0023847   0.0009477
    2   0.0188486   0.0138191  -0.0014073  -0.0037714
    3   0.0288059  -0.0101901   0.0014404   0.0012376
 Max gradient component =       3.212E-02
 RMS gradient           =       1.050E-02
 Computing fast CPCM-SWIG gradient
 Updating gradient with PCM contributions...
 -- total gradient after adding PCM contribution --
---------------------------------------------------
  Atom         X              Y              Z     
---------------------------------------------------
   1       0.000028      -0.000317      -0.000211
   2       0.003219       0.003203      -0.003772
   3      -0.001958       0.002031      -0.003346
   4      -0.000049      -0.000137      -0.000061
   5      -0.001424       0.002488       0.003950
   6       0.000069       0.000156      -0.000048
   7       0.008920       0.001394       0.000904
   8       0.001044      -0.000258      -0.001410
   9       0.006942      -0.042086      -0.039579
  10      -0.012350       0.004666       0.027136
  11       0.000514       0.001142      -0.002549
  12      -0.000061      -0.000509      -0.000328
  13      -0.006075       0.023292       0.014093
  14       0.002846       0.006236       0.003211
  15       0.000506      -0.000135      -0.000556
  16      -0.002170      -0.001166       0.002566
---------------------------------------------------
 Number of fixed atoms: 0
 Gradient time:  CPU 300.41 s  wall 23.98 s
 ######################################################
 ######################################################
 # Starting finite difference calculation for IDERIV  #
 Finite diff step size:  1.88973e-03 a.u.
 ----------------------------------------------------------------
             Standard Nuclear Orientation (Angstroms)
    I     Atom           X                Y                Z
 ----------------------------------------------------------------
    1      H       0.7936905000     1.3941284000     1.4429930000
    2      C       0.1207049000     1.4019480000     0.5964905000
    3      C      -1.1070210000     1.9474664000     0.6821119000
    4      H      -1.4476472000     2.3906280000     1.6079875000
    5      C      -2.0184623000     1.8531483000    -0.4277097000
    6      H      -3.0722855000     2.0398280000    -0.2767847000
    7      C      -1.5447954000     1.4124395000    -1.6346116000
    8      H      -2.1986808000     1.2637455000    -2.4829499000
    9      C      -0.0698248000     1.4517111000    -1.8629128000
   10      H       0.2023765000     0.9962250000    -2.7651580000
   11      C       0.5666735000     0.7417442000    -0.6752856000
   12      H       1.6490509000     0.6940414000    -0.7615026000
   13      O       0.3610273000     2.8642260000    -1.6803517000
   14      H       0.0768528000     3.4159670000    -2.4173346000
   15      O      -1.2575391000    -0.6212224000    -0.8025958000
   16      O       0.1263589000    -0.6249125000    -0.8004903000
 ----------------------------------------------------------------
 Nuclear Repulsion Energy =         469.57360264 hartrees
 There are       34 alpha and       33 beta electrons
 Discretize the solute cavity surface with Lebedev spheres
	Using 110 Lebedev grid points for each H atom
	Using 194 Lebedev grid points for other atoms
	Atomic van der Waals radii will be scaled by 1.20
 Remove points where switching function is < 1.0e-08
 Keep 1167 surface tesserae and discard 1349 interior tesserae
 Molecular Surface Area = 137.398 Angst**2
 Requested basis set is 6-311++G(2df,2p)
 There are 114 shells and 376 basis functions
 A cutoff of  1.0D-11 yielded   6107 shell pairs
 There are     67805 function pairs (     85264 Cartesian)
 Smallest overlap matrix eigenvalue = 3.02E-06

 Q-Chem warning in module stvman/mkSTV.C, line 323:

 Overlap eigenvalue is smaller than square root of threshold
 Use THRESH >= 12 to get rid of this warning

 Guess MOs from SCF MO coefficient file

 -----------------------------------------------------------------------
  General SCF calculation program by
  Eric Jon Sundstrom, Paul Horn, Yuezhi Mao, Dmitri Zuev, Alec White,
  David Stuck, Shaama M.S., Shane Yost, Joonho Lee, David Small,
  Daniel Levine, Susi Lehtola, Hugh Burton, Evgeny Epifanovsky,
  Bang C. Huynh
 -----------------------------------------------------------------------
 Exchange:     0.1500 Hartree-Fock + 1.0000 wB97M-V + LR-HF
 Correlation:  1.0000 wB97M-V
 Using SG-2 standard quadrature grid
 Nonlocal Correlation:  VV10 with C = 0.0100 and b = 6.00 and scale = 1.00000
 Grid used for NLC:  SG-1 standard quadrature
 
 Citation of the SMD model:
 Marenich, A.V.; Cramer, C.J.; Truhlar, D.G.
 J. Phys. Chem. B 2009, 113, 6378-6396.
 iSolventCode=           1
 Solvent: water                                                           
 
 vradii
            1           2           3           4           5           6
    1   1.2000000   1.8500000   1.8500000   1.2000000   1.8500000   1.2000000
            7           8           9          10          11          12
    1   1.8500000   1.2000000   1.8500000   1.2000000   1.8500000   1.2000000
           13          14          15          16
    1   1.5200000   1.2000000   1.5200000   1.5200000
 -------------------------------------------------------
 OpenMP BLAS3 based DFT computing Module                
 Release: version 1.0, May 2013, Q-Chem Inc. Pittsburgh 
 -------------------------------------------------------
 A unrestricted SCF calculation will be
 performed using Roothaan-Hall, DIIS, GDM
 SCF converges when RMS gradient is below 1.0e-06
 ---------------------------------------
  Cycle       Energy         DIIS error
 ---------------------------------------
    1    -458.2839948037      2.19e-04  Roothaan Step
 ---------------------------------------
  Cycle       Energy         DIIS error
 ---------------------------------------
    1    -458.3093522726      2.68e-04  
    2    -458.3133673678      2.73e-04  Done DIIS. Switching to GDM
 ---------------------------------------
  Cycle       Energy        RMS Gradient
 ---------------------------------------
    1    -458.3133673678      2.03e-02   Normal BFGS step
    2    -458.3123329890      3.32e-02  Line search: overstep
    3    -458.3169519733      4.56e-03   Normal BFGS step
    4    -458.3171080055      2.83e-03   Normal BFGS step
    5    -458.3171927980      1.47e-03   Normal BFGS step
    6    -458.3172080657      1.85e-03   Normal BFGS step
    7    -458.3172196404      1.34e-03   Normal BFGS step
    8    -458.3172284313      5.64e-04   Normal BFGS step
    9    -458.3172297997      4.35e-04   Normal BFGS step
   10    -458.3172307094      3.53e-04   Normal BFGS step
   11    -458.3172311541      2.80e-04   Normal BFGS step
   12    -458.3172316377      1.75e-04   Normal BFGS step
   13    -458.3172318879      1.23e-04   Normal BFGS step
   14    -458.3172319975      5.97e-05   Normal BFGS step
   15    -458.3172320429      5.31e-05   Normal BFGS step
   16    -458.3172320631      3.70e-05   Normal BFGS step
   17    -458.3172320721      1.90e-05   Normal BFGS step
   18    -458.3172320754      9.83e-06   Normal BFGS step
   19    -458.3172320760      4.54e-06   Normal BFGS step
   20    -458.3172320760      2.01e-06   Normal BFGS step
   21    -458.3172320757      8.27e-07  Convergence criterion met
 ---------------------------------------
 SCF time:   CPU 2392.60s  wall 162.00s 
<S^2> =          0.791337280
(3)  G-ENP(liq) elect-nuc-pol free energy of system     -458.317232076 a.u.
(4)  G-CDS(liq) cavity-dispersion-solvent structure 
     free energy                                                2.4577 kcal/mol
(6)  G-S(liq) free energy of system                     -458.313315507 a.u.
 SCF   energy in the final basis set =     -458.3133155075
 Total energy in the final basis set =     -458.3133155075
 
 --------------------------------------------------------------
 
                    Orbital Energies (a.u.)
 --------------------------------------------------------------
 
 Alpha MOs
 -- Occupied --
-19.4086 -19.3865 -19.3437 -10.4090 -10.4062 -10.3753 -10.3685 -10.3597
-10.3556  -1.2721  -1.1498  -1.0063  -0.9768  -0.8833  -0.8604  -0.7466
 -0.7268  -0.6659  -0.6521  -0.6029  -0.5865  -0.5758  -0.5689  -0.5484
 -0.5231  -0.5052  -0.4940  -0.4694  -0.4475  -0.4353  -0.4063  -0.3985
 -0.3554  -0.3139
 -- Virtual --
  0.0085   0.0247   0.0370   0.0375   0.0508   0.0576   0.0583   0.0841
  0.0959   0.0976   0.1123   0.1172   0.1354   0.1368   0.1411   0.1467
  0.1490   0.1534   0.1581   0.1594   0.1622   0.1662   0.1724   0.1776
  0.1863   0.1950   0.1988   0.2048   0.2102   0.2154   0.2292   0.2328
  0.2436   0.2547   0.2576   0.2731   0.2900   0.3014   0.3076   0.3139
  0.3244   0.3326   0.3426   0.3459   0.3564   0.3629   0.3690   0.3749
  0.3836   0.3885   0.3940   0.4050   0.4059   0.4159   0.4269   0.4328
  0.4472   0.4649   0.4817   0.5110   0.5137   0.5277   0.5416   0.5817
  0.5853   0.5950   0.6071   0.6144   0.6160   0.6366   0.6541   0.6662
  0.6814   0.6890   0.7016   0.7058   0.7185   0.7256   0.7372   0.7516
  0.7641   0.7833   0.7871   0.7944   0.8072   0.8191   0.8324   0.8380
  0.8534   0.8640   0.8699   0.8976   0.9123   0.9347   0.9528   0.9739
  1.0057   1.0360   1.0668   1.0694   1.0901   1.1191   1.1228   1.1295
  1.1507   1.1734   1.1840   1.2003   1.2095   1.2175   1.2199   1.2371
  1.2464   1.2627   1.2709   1.2818   1.2913   1.3015   1.3106   1.3208
  1.3412   1.3508   1.3659   1.3914   1.4013   1.4045   1.4112   1.4163
  1.4404   1.4566   1.4737   1.4976   1.5218   1.5292   1.5367   1.5581
  1.5647   1.5768   1.5840   1.6180   1.6377   1.6397   1.6584   1.6692
  1.7159   1.7391   1.7617   1.7777   1.7907   1.8167   1.8573   1.8797
  1.8963   1.9120   1.9300   1.9788   1.9950   2.0205   2.0501   2.0703
  2.1016   2.1990   2.2066   2.2440   2.2885   2.3054   2.3745   2.4053
  2.4295   2.6235   2.6529   2.6635   2.6811   2.6908   2.7240   2.7494
  2.7774   2.8016   2.8118   2.8329   2.8452   2.8596   2.8696   2.8835
  2.9117   2.9176   2.9381   2.9524   2.9735   2.9780   2.9979   3.0145
  3.0421   3.0530   3.0686   3.1079   3.1175   3.1550   3.1976   3.2107
  3.2393   3.2459   3.2539   3.3227   3.3461   3.3561   3.3704   3.3873
  3.3966   3.4088   3.4255   3.4374   3.4509   3.4737   3.5001   3.5089
  3.5336   3.5538   3.5779   3.5989   3.6290   3.6426   3.6600   3.6701
  3.6870   3.7024   3.7312   3.7499   3.7694   3.7768   3.8015   3.8135
  3.8395   3.8595   3.8683   3.8851   3.8931   3.9388   3.9554   3.9854
  3.9882   4.0154   4.0366   4.0659   4.0971   4.1224   4.1522   4.1596
  4.1782   4.2345   4.2422   4.2791   4.2948   4.3345   4.3557   4.3601
  4.4058   4.4393   4.4696   4.4742   4.4854   4.5279   4.5362   4.5528
  4.5824   4.6079   4.6283   4.6418   4.6789   4.6950   4.7185   4.7353
  4.7684   4.7809   4.8339   4.8634   4.8869   4.9648   4.9807   5.0478
  5.0803   5.0877   5.1699   5.1913   5.2188   5.2441   5.2572   5.2691
  5.2786   5.2934   5.3235   5.3518   5.3600   5.3918   5.4412   5.4694
  5.4988   5.5148   5.5551   5.5841   5.6334   5.6914   5.6953   5.7190
  5.7739   5.8031   5.8499   5.8878   5.9479   6.0156   6.0677   6.1761
  6.2274   6.3499   6.4594   6.6014   6.9922   7.0020   7.0250   7.1024
  7.1175   7.2436   7.2817   7.3147   7.3629   7.3954   7.4599   7.4725
  7.7171   7.8070   7.8404   7.9708   8.1357  24.3703  24.6082  24.7362
 24.8141  25.0588  25.2576  50.4816  50.5946  50.6360
 
 Beta MOs
 -- Occupied --
-19.4057 -19.3712 -19.3438 -10.4091 -10.4057 -10.3760 -10.3636 -10.3573
-10.3562  -1.2575  -1.1497  -0.9896  -0.9671  -0.8811  -0.8505  -0.7435
 -0.7223  -0.6616  -0.6451  -0.5988  -0.5780  -0.5692  -0.5637  -0.5438
 -0.5162  -0.4961  -0.4822  -0.4612  -0.4345  -0.4204  -0.3955  -0.3627
 -0.3266
 -- Virtual --
 -0.0576   0.0173   0.0249   0.0371   0.0373   0.0519   0.0576   0.0585
  0.0839   0.0976   0.0993   0.1124   0.1230   0.1362   0.1367   0.1416
  0.1472   0.1505   0.1539   0.1584   0.1598   0.1623   0.1662   0.1755
  0.1792   0.1866   0.1959   0.2042   0.2073   0.2116   0.2164   0.2297
  0.2327   0.2436   0.2549   0.2587   0.2754   0.2927   0.3025   0.3088
  0.3160   0.3263   0.3348   0.3444   0.3479   0.3577   0.3642   0.3708
  0.3756   0.3842   0.3892   0.3944   0.4061   0.4077   0.4162   0.4278
  0.4345   0.4482   0.4671   0.4827   0.5128   0.5146   0.5297   0.5425
  0.5834   0.5876   0.5977   0.6108   0.6160   0.6182   0.6394   0.6606
  0.6673   0.6832   0.6906   0.7030   0.7085   0.7199   0.7267   0.7396
  0.7534   0.7663   0.7862   0.7898   0.7969   0.8098   0.8207   0.8339
  0.8388   0.8554   0.8667   0.8727   0.9002   0.9138   0.9362   0.9562
  0.9749   1.0067   1.0376   1.0680   1.0712   1.0918   1.1205   1.1259
  1.1314   1.1520   1.1761   1.1880   1.2034   1.2117   1.2206   1.2226
  1.2414   1.2479   1.2647   1.2744   1.2863   1.2929   1.3052   1.3129
  1.3268   1.3455   1.3559   1.3690   1.3937   1.4034   1.4078   1.4130
  1.4201   1.4431   1.4605   1.4769   1.4997   1.5239   1.5323   1.5401
  1.5616   1.5663   1.5789   1.5870   1.6212   1.6414   1.6420   1.6617
  1.6729   1.7198   1.7472   1.7640   1.7849   1.7960   1.8207   1.8636
  1.8816   1.9050   1.9151   1.9397   1.9848   2.0011   2.0245   2.0544
  2.0750   2.1060   2.2072   2.2086   2.2468   2.2934   2.3115   2.3768
  2.4090   2.4319   2.6277   2.6598   2.6656   2.6851   2.6969   2.7293
  2.7538   2.7811   2.8056   2.8160   2.8384   2.8483   2.8651   2.8804
  2.8895   2.9180   2.9257   2.9498   2.9667   2.9799   2.9862   3.0027
  3.0238   3.0405   3.0580   3.0709   3.1113   3.1209   3.1621   3.2023
  3.2161   3.2438   3.2526   3.2577   3.3286   3.3531   3.3615   3.3736
  3.3910   3.4035   3.4166   3.4320   3.4412   3.4555   3.4794   3.5068
  3.5114   3.5386   3.5609   3.5818   3.6067   3.6361   3.6497   3.6629
  3.6726   3.6899   3.7065   3.7344   3.7553   3.7763   3.7820   3.8058
  3.8166   3.8430   3.8662   3.8755   3.8900   3.8965   3.9412   3.9586
  3.9910   3.9928   4.0184   4.0413   4.0685   4.1002   4.1250   4.1547
  4.1642   4.1813   4.2404   4.2462   4.2858   4.2973   4.3365   4.3597
  4.3647   4.4096   4.4447   4.4727   4.4782   4.4891   4.5313   4.5404
  4.5610   4.5884   4.6136   4.6364   4.6512   4.6866   4.7045   4.7249
  4.7378   4.7742   4.7872   4.8389   4.8740   4.8977   4.9776   4.9867
  5.0646   5.0922   5.1011   5.2004   5.2281   5.2374   5.2586   5.2646
  5.2791   5.3046   5.3115   5.3417   5.3557   5.3758   5.4039   5.4572
  5.4750   5.5080   5.5229   5.5638   5.5896   5.6404   5.6963   5.7003
  5.7251   5.7787   5.8089   5.8536   5.8953   5.9535   6.0201   6.0744
  6.1832   6.2423   6.3669   6.4600   6.6085   7.0154   7.0296   7.0771
  7.1174   7.1689   7.2732   7.2862   7.3158   7.3735   7.3988   7.4744
  7.4999   7.7190   7.8101   7.8479   7.9872   8.1433  24.3713  24.6095
 24.7365  24.8145  25.0608  25.2594  50.4922  50.5979  50.6360
 --------------------------------------------------------------
 
          Ground-State Mulliken Net Atomic Charges

     Atom                 Charge (a.u.)    Spin (a.u.)
  --------------------------------------------------------
      1 H                     0.315622      -0.005686
      2 C                    -0.143337       0.221991
      3 C                    -0.212375      -0.076750
      4 H                     0.301673       0.002922
      5 C                    -0.213289       0.329158
      6 H                     0.290278      -0.007085
      7 C                    -0.271271      -0.072526
      8 H                     0.325564       0.001349
      9 C                    -0.232366       0.020867
     10 H                     0.307959      -0.001323
     11 C                    -0.311585      -0.006306
     12 H                     0.270480       0.000952
     13 O                    -0.412545      -0.004528
     14 H                     0.345065       0.000991
     15 O                    -0.285887       0.508479
     16 O                    -0.073987       0.087496
  --------------------------------------------------------
  Sum of atomic charges =     0.000000
  Sum of spin   charges =     1.000000

 -----------------------------------------------------------------
                    Cartesian Multipole Moments
 -----------------------------------------------------------------
    Charge (ESU x 10^10)
                 0.0000
    Dipole Moment (Debye)
         X      -0.3957      Y       4.7957      Z      -1.4662
       Tot       5.0305
    Quadrupole Moments (Debye-Ang)
        XX     -47.3980     XY      -9.0557     YY     -51.6557
        XZ       2.0384     YZ      -7.2294     ZZ     -40.0913
    Octopole Moments (Debye-Ang^2)
       XXX      70.9853    XXY     -47.3508    XYY      11.3512
       YYY    -178.7074    XXZ      37.2395    XYZ       7.5164
       YYZ      24.7381    XZZ      20.5839    YZZ     -28.4455
       ZZZ      84.1472
    Hexadecapole Moments (Debye-Ang^3)
      XXXX    -382.9992   XXXY      61.9188   XXYY    -209.5542
      XYYY      65.9098   YYYY    -850.9141   XXXZ     -39.2767
      XXYZ      47.2063   XYYZ      -7.7533   YYYZ      70.9583
      XXZZ    -147.7605   XYZZ      14.2007   YYZZ    -147.3412
      XZZZ     -30.5107   YZZZ      62.6577   ZZZZ    -412.4067
 -----------------------------------------------------------------
 Calculating analytic gradient of the SCF energy
 Gradient of CDS energy
            1           2           3           4           5           6
    1   0.0001244   0.0002824  -0.0000542  -0.0000649  -0.0004236  -0.0001984
    2  -0.0000014  -0.0000201   0.0001994   0.0000845   0.0001001   0.0000351
    3   0.0001565   0.0002812   0.0003877   0.0001765  -0.0000784   0.0000284
            7           8           9          10          11          12
    1  -0.0001624  -0.0001202   0.0002836   0.0000176   0.0001175   0.0002138
    2  -0.0001792  -0.0000273   0.0001536  -0.0001597  -0.0002789  -0.0000182
    3  -0.0002459  -0.0001560  -0.0001831  -0.0000911  -0.0001174  -0.0000377
           13          14          15          16
    1  -0.0000954   0.0000892   0.0000983  -0.0001078
    2  -0.0003002   0.0004663  -0.0000511  -0.0000030
    3   0.0001203  -0.0002077   0.0000122  -0.0000457
 Gradient of SCF Energy
            1           2           3           4           5           6
    1   0.0037341   0.0013563   0.0016861  -0.0026199   0.0072029  -0.0084450
    2  -0.0000575   0.0110453  -0.0048093   0.0028204   0.0086712   0.0025306
    3   0.0041152  -0.0070250  -0.0112890   0.0055279   0.0099549   0.0012755
            7           8           9          10          11          12
    1   0.0102769  -0.0040640   0.0086353  -0.0103467  -0.0088901   0.0049455
    2  -0.0063909   0.0003152  -0.0317390   0.0027304  -0.0120335  -0.0005724
    3   0.0019886  -0.0092056  -0.0321163   0.0184111  -0.0022936  -0.0006388
           13          14          15          16
    1   0.0009224  -0.0029557  -0.0023870   0.0009489
    2   0.0188486   0.0138192  -0.0014071  -0.0037712
    3   0.0288059  -0.0101902   0.0014392   0.0012402
 Max gradient component =       3.212E-02
 RMS gradient           =       1.051E-02
 Computing fast CPCM-SWIG gradient
 Updating gradient with PCM contributions...
 -- total gradient after adding PCM contribution --
---------------------------------------------------
  Atom         X              Y              Z     
---------------------------------------------------
   1       0.000350      -0.000341       0.000079
   2       0.002909       0.003217      -0.004043
   3      -0.001983       0.002034      -0.003390
   4      -0.000048      -0.000142      -0.000059
   5      -0.001427       0.002497       0.003953
   6       0.000068       0.000155      -0.000050
   7       0.008921       0.001392       0.000903
   8       0.001044      -0.000258      -0.001410
   9       0.006940      -0.042083      -0.039575
  10      -0.012349       0.004666       0.027137
  11       0.000529       0.001146      -0.002531
  12      -0.000060      -0.000510      -0.000329
  13      -0.006075       0.023292       0.014093
  14       0.002846       0.006236       0.003211
  15       0.000503      -0.000135      -0.000557
  16      -0.002169      -0.001166       0.002569
---------------------------------------------------
 Number of fixed atoms: 0
 Gradient time:  CPU 292.29 s  wall 23.04 s
 ----------------------------------------------------------------
             Standard Nuclear Orientation (Angstroms)
    I     Atom           X                Y                Z
 ----------------------------------------------------------------
    1      H       0.7916905000     1.3941284000     1.4429930000
    2      C       0.1207049000     1.4019480000     0.5964905000
    3      C      -1.1070210000     1.9474664000     0.6821119000
    4      H      -1.4476472000     2.3906280000     1.6079875000
    5      C      -2.0184623000     1.8531483000    -0.4277097000
    6      H      -3.0722855000     2.0398280000    -0.2767847000
    7      C      -1.5447954000     1.4124395000    -1.6346116000
    8      H      -2.1986808000     1.2637455000    -2.4829499000
    9      C      -0.0698248000     1.4517111000    -1.8629128000
   10      H       0.2023765000     0.9962250000    -2.7651580000
   11      C       0.5666735000     0.7417442000    -0.6752856000
   12      H       1.6490509000     0.6940414000    -0.7615026000
   13      O       0.3610273000     2.8642260000    -1.6803517000
   14      H       0.0768528000     3.4159670000    -2.4173346000
   15      O      -1.2575391000    -0.6212224000    -0.8025958000
   16      O       0.1263589000    -0.6249125000    -0.8004903000
 ----------------------------------------------------------------
 Nuclear Repulsion Energy =         469.58005393 hartrees
 There are       34 alpha and       33 beta electrons
 Discretize the solute cavity surface with Lebedev spheres
	Using 110 Lebedev grid points for each H atom
	Using 194 Lebedev grid points for other atoms
	Atomic van der Waals radii will be scaled by 1.20
 Remove points where switching function is < 1.0e-08
 Keep 1167 surface tesserae and discard 1349 interior tesserae
 Molecular Surface Area = 137.390 Angst**2
 Requested basis set is 6-311++G(2df,2p)
 There are 114 shells and 376 basis functions
 A cutoff of  1.0D-11 yielded   6107 shell pairs
 There are     67805 function pairs (     85264 Cartesian)
 Smallest overlap matrix eigenvalue = 3.03E-06

 Q-Chem warning in module stvman/mkSTV.C, line 323:

 Overlap eigenvalue is smaller than square root of threshold
 Use THRESH >= 12 to get rid of this warning

 Guess MOs from SCF MO coefficient file

 -----------------------------------------------------------------------
  General SCF calculation program by
  Eric Jon Sundstrom, Paul Horn, Yuezhi Mao, Dmitri Zuev, Alec White,
  David Stuck, Shaama M.S., Shane Yost, Joonho Lee, David Small,
  Daniel Levine, Susi Lehtola, Hugh Burton, Evgeny Epifanovsky,
  Bang C. Huynh
 -----------------------------------------------------------------------
 Exchange:     0.1500 Hartree-Fock + 1.0000 wB97M-V + LR-HF
 Correlation:  1.0000 wB97M-V
 Using SG-2 standard quadrature grid
 Nonlocal Correlation:  VV10 with C = 0.0100 and b = 6.00 and scale = 1.00000
 Grid used for NLC:  SG-1 standard quadrature
 
 Citation of the SMD model:
 Marenich, A.V.; Cramer, C.J.; Truhlar, D.G.
 J. Phys. Chem. B 2009, 113, 6378-6396.
 iSolventCode=           1
 Solvent: water                                                           
 
 vradii
            1           2           3           4           5           6
    1   1.2000000   1.8500000   1.8500000   1.2000000   1.8500000   1.2000000
            7           8           9          10          11          12
    1   1.8500000   1.2000000   1.8500000   1.2000000   1.8500000   1.2000000
           13          14          15          16
    1   1.5200000   1.2000000   1.5200000   1.5200000
 -------------------------------------------------------
 OpenMP BLAS3 based DFT computing Module                
 Release: version 1.0, May 2013, Q-Chem Inc. Pittsburgh 
 -------------------------------------------------------
 A unrestricted SCF calculation will be
 performed using Roothaan-Hall, DIIS, GDM
 SCF converges when RMS gradient is below 1.0e-06
 ---------------------------------------
  Cycle       Energy         DIIS error
 ---------------------------------------
    1    -458.2840025662      2.19e-04  Roothaan Step
 ---------------------------------------
  Cycle       Energy         DIIS error
 ---------------------------------------
    1    -458.3093558080      2.68e-04  
    2    -458.3133693156      2.73e-04  Done DIIS. Switching to GDM
 ---------------------------------------
  Cycle       Energy        RMS Gradient
 ---------------------------------------
    1    -458.3133693156      2.03e-02   Normal BFGS step
    2    -458.3123340289      3.33e-02  Line search: overstep
    3    -458.3169515631      4.55e-03   Normal BFGS step
    4    -458.3171076341      2.85e-03   Normal BFGS step
    5    -458.3171923305      1.47e-03   Normal BFGS step
    6    -458.3172076270      1.86e-03   Normal BFGS step
    7    -458.3172192290      1.34e-03   Normal BFGS step
    8    -458.3172280482      5.65e-04   Normal BFGS step
    9    -458.3172294205      4.36e-04   Normal BFGS step
   10    -458.3172303359      3.55e-04   Normal BFGS step
   11    -458.3172307846      2.82e-04   Normal BFGS step
   12    -458.3172312724      1.76e-04   Normal BFGS step
   13    -458.3172315251      1.23e-04   Normal BFGS step
   14    -458.3172316346      5.96e-05   Normal BFGS step
   15    -458.3172316799      5.34e-05   Normal BFGS step
   16    -458.3172317001      3.70e-05   Normal BFGS step
   17    -458.3172317091      1.90e-05   Normal BFGS step
   18    -458.3172317124      9.74e-06   Normal BFGS step
   19    -458.3172317130      4.51e-06   Normal BFGS step
   20    -458.3172317131      1.99e-06   Normal BFGS step
   21    -458.3172317128      8.15e-07  Convergence criterion met
 ---------------------------------------
 SCF time:   CPU 2393.38s  wall 163.00s 
<S^2> =          0.791329522
(3)  G-ENP(liq) elect-nuc-pol free energy of system     -458.317231713 a.u.
(4)  G-CDS(liq) cavity-dispersion-solvent structure 
     free energy                                                2.4574 kcal/mol
(6)  G-S(liq) free energy of system                     -458.313315612 a.u.
 SCF   energy in the final basis set =     -458.3133156122
 Total energy in the final basis set =     -458.3133156122
 
 --------------------------------------------------------------
 
                    Orbital Energies (a.u.)
 --------------------------------------------------------------
 
 Alpha MOs
 -- Occupied --
-19.4085 -19.3865 -19.3437 -10.4090 -10.4062 -10.3753 -10.3685 -10.3596
-10.3556  -1.2721  -1.1498  -1.0063  -0.9768  -0.8833  -0.8604  -0.7466
 -0.7268  -0.6659  -0.6521  -0.6029  -0.5865  -0.5758  -0.5689  -0.5484
 -0.5231  -0.5052  -0.4940  -0.4694  -0.4475  -0.4353  -0.4063  -0.3985
 -0.3554  -0.3139
 -- Virtual --
  0.0085   0.0247   0.0370   0.0375   0.0508   0.0576   0.0583   0.0841
  0.0959   0.0976   0.1123   0.1172   0.1354   0.1368   0.1411   0.1467
  0.1490   0.1534   0.1581   0.1594   0.1622   0.1662   0.1724   0.1776
  0.1863   0.1950   0.1988   0.2048   0.2102   0.2154   0.2292   0.2328
  0.2436   0.2547   0.2576   0.2731   0.2900   0.3014   0.3076   0.3139
  0.3244   0.3326   0.3426   0.3459   0.3564   0.3629   0.3691   0.3749
  0.3836   0.3885   0.3940   0.4050   0.4059   0.4159   0.4269   0.4328
  0.4472   0.4649   0.4817   0.5110   0.5137   0.5277   0.5417   0.5817
  0.5853   0.5951   0.6071   0.6145   0.6160   0.6366   0.6541   0.6662
  0.6815   0.6890   0.7017   0.7058   0.7185   0.7257   0.7372   0.7517
  0.7641   0.7833   0.7872   0.7944   0.8073   0.8191   0.8325   0.8379
  0.8534   0.8640   0.8699   0.8976   0.9123   0.9348   0.9529   0.9739
  1.0056   1.0360   1.0668   1.0696   1.0902   1.1191   1.1228   1.1295
  1.1506   1.1734   1.1840   1.2003   1.2094   1.2176   1.2199   1.2372
  1.2465   1.2628   1.2710   1.2818   1.2913   1.3016   1.3105   1.3208
  1.3412   1.3508   1.3659   1.3914   1.4014   1.4044   1.4113   1.4164
  1.4404   1.4567   1.4738   1.4976   1.5219   1.5292   1.5367   1.5584
  1.5647   1.5768   1.5841   1.6180   1.6378   1.6397   1.6585   1.6693
  1.7160   1.7391   1.7616   1.7777   1.7908   1.8167   1.8573   1.8797
  1.8963   1.9120   1.9301   1.9789   1.9950   2.0206   2.0501   2.0704
  2.1016   2.1990   2.2066   2.2440   2.2885   2.3054   2.3745   2.4053
  2.4295   2.6232   2.6529   2.6635   2.6810   2.6908   2.7239   2.7493
  2.7774   2.8017   2.8120   2.8329   2.8453   2.8597   2.8696   2.8835
  2.9117   2.9175   2.9381   2.9524   2.9736   2.9780   2.9979   3.0147
  3.0421   3.0530   3.0687   3.1079   3.1176   3.1551   3.1978   3.2108
  3.2393   3.2461   3.2539   3.3228   3.3461   3.3562   3.3704   3.3874
  3.3967   3.4087   3.4255   3.4376   3.4509   3.4737   3.5001   3.5089
  3.5336   3.5540   3.5779   3.5991   3.6290   3.6426   3.6600   3.6702
  3.6874   3.7025   3.7311   3.7499   3.7693   3.7768   3.8016   3.8135
  3.8395   3.8596   3.8683   3.8851   3.8932   3.9389   3.9554   3.9854
  3.9883   4.0154   4.0369   4.0661   4.0971   4.1225   4.1524   4.1599
  4.1783   4.2345   4.2423   4.2792   4.2950   4.3345   4.3557   4.3606
  4.4058   4.4395   4.4700   4.4744   4.4855   4.5281   4.5364   4.5532
  4.5826   4.6082   4.6283   4.6418   4.6792   4.6950   4.7186   4.7353
  4.7687   4.7810   4.8341   4.8637   4.8870   4.9650   4.9809   5.0480
  5.0808   5.0878   5.1700   5.1914   5.2188   5.2444   5.2573   5.2691
  5.2786   5.2936   5.3235   5.3519   5.3602   5.3920   5.4414   5.4695
  5.4989   5.5152   5.5551   5.5843   5.6339   5.6916   5.6953   5.7190
  5.7739   5.8033   5.8500   5.8884   5.9480   6.0157   6.0677   6.1769
  6.2275   6.3500   6.4594   6.6014   6.9922   7.0020   7.0250   7.1024
  7.1175   7.2436   7.2817   7.3147   7.3629   7.3954   7.4599   7.4725
  7.7171   7.8070   7.8404   7.9708   8.1357  24.3710  24.6087  24.7363
 24.8141  25.0591  25.2580  50.4816  50.5946  50.6360
 
 Beta MOs
 -- Occupied --
-19.4057 -19.3712 -19.3438 -10.4091 -10.4058 -10.3760 -10.3636 -10.3573
-10.3561  -1.2575  -1.1497  -0.9896  -0.9671  -0.8811  -0.8505  -0.7435
 -0.7223  -0.6616  -0.6452  -0.5988  -0.5780  -0.5692  -0.5637  -0.5439
 -0.5162  -0.4961  -0.4822  -0.4612  -0.4346  -0.4204  -0.3955  -0.3627
 -0.3266
 -- Virtual --
 -0.0576   0.0173   0.0249   0.0371   0.0373   0.0519   0.0576   0.0585
  0.0839   0.0976   0.0993   0.1124   0.1230   0.1362   0.1367   0.1416
  0.1472   0.1505   0.1539   0.1584   0.1598   0.1623   0.1662   0.1755
  0.1792   0.1866   0.1959   0.2042   0.2073   0.2116   0.2164   0.2297
  0.2327   0.2436   0.2549   0.2587   0.2754   0.2927   0.3025   0.3088
  0.3160   0.3263   0.3348   0.3444   0.3479   0.3578   0.3642   0.3709
  0.3756   0.3842   0.3892   0.3944   0.4061   0.4077   0.4163   0.4278
  0.4346   0.4482   0.4671   0.4827   0.5128   0.5146   0.5297   0.5425
  0.5834   0.5877   0.5977   0.6108   0.6161   0.6182   0.6394   0.6606
  0.6674   0.6833   0.6906   0.7030   0.7085   0.7199   0.7267   0.7396
  0.7534   0.7662   0.7862   0.7899   0.7969   0.8099   0.8207   0.8339
  0.8387   0.8554   0.8666   0.8727   0.9002   0.9139   0.9363   0.9562
  0.9749   1.0066   1.0376   1.0680   1.0713   1.0918   1.1204   1.1260
  1.1314   1.1520   1.1762   1.1880   1.2035   1.2116   1.2207   1.2226
  1.2414   1.2480   1.2649   1.2745   1.2863   1.2930   1.3053   1.3129
  1.3267   1.3455   1.3559   1.3689   1.3937   1.4036   1.4078   1.4131
  1.4201   1.4431   1.4605   1.4770   1.4998   1.5240   1.5323   1.5402
  1.5619   1.5663   1.5789   1.5871   1.6212   1.6414   1.6420   1.6618
  1.6729   1.7198   1.7473   1.7639   1.7849   1.7962   1.8207   1.8636
  1.8816   1.9050   1.9152   1.9397   1.9849   2.0011   2.0246   2.0544
  2.0752   2.1060   2.2073   2.2086   2.2467   2.2934   2.3115   2.3767
  2.4090   2.4319   2.6274   2.6597   2.6655   2.6850   2.6970   2.7292
  2.7538   2.7811   2.8057   2.8162   2.8384   2.8485   2.8652   2.8805
  2.8896   2.9179   2.9257   2.9497   2.9667   2.9799   2.9863   3.0027
  3.0240   3.0405   3.0580   3.0710   3.1113   3.1209   3.1622   3.2025
  3.2162   3.2438   3.2528   3.2577   3.3286   3.3531   3.3616   3.3736
  3.3911   3.4036   3.4165   3.4320   3.4414   3.4555   3.4793   3.5068
  3.5115   3.5385   3.5612   3.5819   3.6068   3.6361   3.6496   3.6629
  3.6726   3.6902   3.7066   3.7344   3.7553   3.7763   3.7820   3.8059
  3.8165   3.8430   3.8663   3.8755   3.8900   3.8965   3.9413   3.9587
  3.9909   3.9929   4.0183   4.0417   4.0687   4.1002   4.1252   4.1548
  4.1644   4.1814   4.2404   4.2463   4.2859   4.2975   4.3366   4.3598
  4.3651   4.4096   4.4448   4.4731   4.4785   4.4891   4.5315   4.5406
  4.5613   4.5886   4.6139   4.6364   4.6513   4.6868   4.7045   4.7250
  4.7379   4.7745   4.7873   4.8391   4.8742   4.8978   4.9778   4.9868
  5.0648   5.0928   5.1013   5.2006   5.2283   5.2375   5.2588   5.2647
  5.2792   5.3046   5.3116   5.3417   5.3557   5.3760   5.4040   5.4574
  5.4751   5.5081   5.5233   5.5638   5.5898   5.6409   5.6963   5.7006
  5.7251   5.7787   5.8091   5.8537   5.8960   5.9536   6.0202   6.0744
  6.1841   6.2424   6.3670   6.4600   6.6085   7.0154   7.0296   7.0771
  7.1174   7.1689   7.2732   7.2862   7.3158   7.3736   7.3988   7.4744
  7.4999   7.7190   7.8101   7.8479   7.9872   8.1433  24.3721  24.6100
 24.7366  24.8145  25.0611  25.2598  50.4922  50.5979  50.6360
 --------------------------------------------------------------
 
          Ground-State Mulliken Net Atomic Charges

     Atom                 Charge (a.u.)    Spin (a.u.)
  --------------------------------------------------------
      1 H                     0.316013      -0.005665
      2 C                    -0.143581       0.221984
      3 C                    -0.212018      -0.076790
      4 H                     0.301627       0.002920
      5 C                    -0.213198       0.329173
      6 H                     0.290271      -0.007086
      7 C                    -0.271186      -0.072499
      8 H                     0.325567       0.001348
      9 C                    -0.232499       0.020848
     10 H                     0.307957      -0.001321
     11 C                    -0.312009      -0.006281
     12 H                     0.270437       0.000954
     13 O                    -0.412542      -0.004525
     14 H                     0.345061       0.000990
     15 O                    -0.285894       0.508472
     16 O                    -0.074007       0.087478
  --------------------------------------------------------
  Sum of atomic charges =     0.000000
  Sum of spin   charges =     1.000000

 -----------------------------------------------------------------
                    Cartesian Multipole Moments
 -----------------------------------------------------------------
    Charge (ESU x 10^10)
                 0.0000
    Dipole Moment (Debye)
         X      -0.3964      Y       4.7956      Z      -1.4654
       Tot       5.0302
    Quadrupole Moments (Debye-Ang)
        XX     -47.4009     XY      -9.0564     YY     -51.6550
        XZ       2.0363     YZ      -7.2285     ZZ     -40.0882
    Octopole Moments (Debye-Ang^2)
       XXX      70.9910    XXY     -47.3551    XYY      11.3534
       YYY    -178.7034    XXZ      37.2367    XYZ       7.5139
       YYZ      24.7413    XZZ      20.5838    YZZ     -28.4416
       ZZZ      84.1559
    Hexadecapole Moments (Debye-Ang^3)
      XXXX    -382.9975   XXXY      61.9282   XXYY    -209.5583
      XYYY      65.9209   YYYY    -850.9017   XXXZ     -39.2753
      XXYZ      47.2021   XYYZ      -7.7528   YYYZ      70.9681
      XXZZ    -147.7646   XYZZ      14.2005   YYZZ    -147.3329
      XZZZ     -30.5068   YZZZ      62.6686   ZZZZ    -412.3811
 -----------------------------------------------------------------
 Calculating analytic gradient of the SCF energy
 Gradient of CDS energy
            1           2           3           4           5           6
    1   0.0001231   0.0002838  -0.0000543  -0.0000649  -0.0004236  -0.0001984
    2  -0.0000014  -0.0000201   0.0001995   0.0000845   0.0001001   0.0000351
    3   0.0001553   0.0002825   0.0003877   0.0001765  -0.0000784   0.0000284
            7           8           9          10          11          12
    1  -0.0001624  -0.0001202   0.0002836   0.0000176   0.0001176   0.0002138
    2  -0.0001792  -0.0000273   0.0001536  -0.0001597  -0.0002789  -0.0000182
    3  -0.0002459  -0.0001560  -0.0001831  -0.0000911  -0.0001175  -0.0000377
           13          14          15          16
    1  -0.0000954   0.0000892   0.0000983  -0.0001078
    2  -0.0003002   0.0004663  -0.0000511  -0.0000030
    3   0.0001203  -0.0002077   0.0000122  -0.0000457
 Gradient of SCF Energy
            1           2           3           4           5           6
    1   0.0030799   0.0019882   0.0017367  -0.0026208   0.0072062  -0.0084421
    2  -0.0000060   0.0110194  -0.0048219   0.0028315   0.0086547   0.0025325
    3   0.0035426  -0.0064945  -0.0111939   0.0055289   0.0099418   0.0012787
            7           8           9          10          11          12
    1   0.0102762  -0.0040639   0.0086375  -0.0103474  -0.0089210   0.0049403
    2  -0.0063876   0.0003169  -0.0317449   0.0027311  -0.0120434  -0.0005705
    3   0.0019956  -0.0092048  -0.0321302   0.0184093  -0.0023294  -0.0006368
           13          14          15          16
    1   0.0009218  -0.0029558  -0.0023825   0.0009465
    2   0.0188486   0.0138189  -0.0014078  -0.0037716
    3   0.0288060  -0.0101900   0.0014418   0.0012349
 Max gradient component =       3.213E-02
 RMS gradient           =       1.049E-02
 Computing fast CPCM-SWIG gradient
 Updating gradient with PCM contributions...
 -- total gradient after adding PCM contribution --
---------------------------------------------------
  Atom         X              Y              Z     
---------------------------------------------------
   1      -0.000295      -0.000293      -0.000503
   2       0.003530       0.003189      -0.003500
   3      -0.001934       0.002027      -0.003301
   4      -0.000049      -0.000132      -0.000063
   5      -0.001421       0.002478       0.003947
   6       0.000070       0.000157      -0.000047
   7       0.008920       0.001396       0.000905
   8       0.001044      -0.000257      -0.001410
   9       0.006943      -0.042088      -0.039583
  10      -0.012350       0.004667       0.027135
  11       0.000498       0.001139      -0.002568
  12      -0.000063      -0.000508      -0.000326
  13      -0.006075       0.023292       0.014093
  14       0.002846       0.006236       0.003211
  15       0.000509      -0.000135      -0.000554
  16      -0.002172      -0.001166       0.002564
---------------------------------------------------
 Number of fixed atoms: 0
 Gradient time:  CPU 306.22 s  wall 24.07 s
 ----------------------------------------------------------------
             Standard Nuclear Orientation (Angstroms)
    I     Atom           X                Y                Z
 ----------------------------------------------------------------
    1      H       0.7926905000     1.3951284000     1.4429930000
    2      C       0.1207049000     1.4019480000     0.5964905000
    3      C      -1.1070210000     1.9474664000     0.6821119000
    4      H      -1.4476472000     2.3906280000     1.6079875000
    5      C      -2.0184623000     1.8531483000    -0.4277097000
    6      H      -3.0722855000     2.0398280000    -0.2767847000
    7      C      -1.5447954000     1.4124395000    -1.6346116000
    8      H      -2.1986808000     1.2637455000    -2.4829499000
    9      C      -0.0698248000     1.4517111000    -1.8629128000
   10      H       0.2023765000     0.9962250000    -2.7651580000
   11      C       0.5666735000     0.7417442000    -0.6752856000
   12      H       1.6490509000     0.6940414000    -0.7615026000
   13      O       0.3610273000     2.8642260000    -1.6803517000
   14      H       0.0768528000     3.4159670000    -2.4173346000
   15      O      -1.2575391000    -0.6212224000    -0.8025958000
   16      O       0.1263589000    -0.6249125000    -0.8004903000
 ----------------------------------------------------------------
 Nuclear Repulsion Energy =         469.57659258 hartrees
 There are       34 alpha and       33 beta electrons
 Discretize the solute cavity surface with Lebedev spheres
	Using 110 Lebedev grid points for each H atom
	Using 194 Lebedev grid points for other atoms
	Atomic van der Waals radii will be scaled by 1.20
 Remove points where switching function is < 1.0e-08
 Keep 1167 surface tesserae and discard 1349 interior tesserae
 Molecular Surface Area = 137.394 Angst**2
 Requested basis set is 6-311++G(2df,2p)
 There are 114 shells and 376 basis functions
 A cutoff of  1.0D-11 yielded   6107 shell pairs
 There are     67805 function pairs (     85264 Cartesian)
 Smallest overlap matrix eigenvalue = 3.02E-06

 Q-Chem warning in module stvman/mkSTV.C, line 323:

 Overlap eigenvalue is smaller than square root of threshold
 Use THRESH >= 12 to get rid of this warning

 Guess MOs from SCF MO coefficient file

 -----------------------------------------------------------------------
  General SCF calculation program by
  Eric Jon Sundstrom, Paul Horn, Yuezhi Mao, Dmitri Zuev, Alec White,
  David Stuck, Shaama M.S., Shane Yost, Joonho Lee, David Small,
  Daniel Levine, Susi Lehtola, Hugh Burton, Evgeny Epifanovsky,
  Bang C. Huynh
 -----------------------------------------------------------------------
 Exchange:     0.1500 Hartree-Fock + 1.0000 wB97M-V + LR-HF
 Correlation:  1.0000 wB97M-V
 Using SG-2 standard quadrature grid
 Nonlocal Correlation:  VV10 with C = 0.0100 and b = 6.00 and scale = 1.00000
 Grid used for NLC:  SG-1 standard quadrature
 
 Citation of the SMD model:
 Marenich, A.V.; Cramer, C.J.; Truhlar, D.G.
 J. Phys. Chem. B 2009, 113, 6378-6396.
 iSolventCode=           1
 Solvent: water                                                           
 
 vradii
            1           2           3           4           5           6
    1   1.2000000   1.8500000   1.8500000   1.2000000   1.8500000   1.2000000
            7           8           9          10          11          12
    1   1.8500000   1.2000000   1.8500000   1.2000000   1.8500000   1.2000000
           13          14          15          16
    1   1.5200000   1.2000000   1.5200000   1.5200000
 -------------------------------------------------------
 OpenMP BLAS3 based DFT computing Module                
 Release: version 1.0, May 2013, Q-Chem Inc. Pittsburgh 
 -------------------------------------------------------
 A unrestricted SCF calculation will be
 performed using Roothaan-Hall, DIIS, GDM
 SCF converges when RMS gradient is below 1.0e-06
 ---------------------------------------
  Cycle       Energy         DIIS error
 ---------------------------------------
    1    -458.2839958935      2.19e-04  Roothaan Step
 ---------------------------------------
  Cycle       Energy         DIIS error
 ---------------------------------------
    1    -458.3093523317      2.68e-04  
    2    -458.3133674895      2.73e-04  Done DIIS. Switching to GDM
 ---------------------------------------
  Cycle       Energy        RMS Gradient
 ---------------------------------------
    1    -458.3133674895      2.03e-02   Normal BFGS step
    2    -458.3123328112      3.32e-02  Line search: overstep
    3    -458.3169525492      4.57e-03   Normal BFGS step
    4    -458.3171086412      2.83e-03   Normal BFGS step
    5    -458.3171934595      1.47e-03   Normal BFGS step
    6    -458.3172087380      1.85e-03   Normal BFGS step
    7    -458.3172203176      1.34e-03   Normal BFGS step
    8    -458.3172291044      5.64e-04   Normal BFGS step
    9    -458.3172304715      4.35e-04   Normal BFGS step
   10    -458.3172313795      3.52e-04   Normal BFGS step
   11    -458.3172318227      2.80e-04   Normal BFGS step
   12    -458.3172323048      1.75e-04   Normal BFGS step
   13    -458.3172325545      1.23e-04   Normal BFGS step
   14    -458.3172326640      5.97e-05   Normal BFGS step
   15    -458.3172327094      5.31e-05   Normal BFGS step
   16    -458.3172327296      3.70e-05   Normal BFGS step
   17    -458.3172327385      1.90e-05   Normal BFGS step
   18    -458.3172327419      9.83e-06   Normal BFGS step
   19    -458.3172327424      4.54e-06   Normal BFGS step
   20    -458.3172327425      2.01e-06   Normal BFGS step
   21    -458.3172327422      8.28e-07  Convergence criterion met
 ---------------------------------------
 SCF time:   CPU 2391.51s  wall 163.00s 
<S^2> =          0.791335222
(3)  G-ENP(liq) elect-nuc-pol free energy of system     -458.317232742 a.u.
(4)  G-CDS(liq) cavity-dispersion-solvent structure 
     free energy                                                2.4575 kcal/mol
(6)  G-S(liq) free energy of system                     -458.313316411 a.u.
 SCF   energy in the final basis set =     -458.3133164110
 Total energy in the final basis set =     -458.3133164110
 
 --------------------------------------------------------------
 
                    Orbital Energies (a.u.)
 --------------------------------------------------------------
 
 Alpha MOs
 -- Occupied --
-19.4086 -19.3865 -19.3437 -10.4090 -10.4062 -10.3753 -10.3685 -10.3596
-10.3556  -1.2721  -1.1498  -1.0063  -0.9768  -0.8833  -0.8604  -0.7466
 -0.7268  -0.6659  -0.6521  -0.6029  -0.5865  -0.5758  -0.5689  -0.5484
 -0.5231  -0.5052  -0.4940  -0.4694  -0.4475  -0.4353  -0.4063  -0.3985
 -0.3554  -0.3139
 -- Virtual --
  0.0085   0.0247   0.0370   0.0375   0.0508   0.0576   0.0583   0.0841
  0.0959   0.0976   0.1123   0.1172   0.1354   0.1368   0.1411   0.1467
  0.1490   0.1534   0.1581   0.1594   0.1622   0.1662   0.1724   0.1776
  0.1863   0.1950   0.1988   0.2048   0.2102   0.2154   0.2292   0.2328
  0.2436   0.2547   0.2576   0.2731   0.2900   0.3014   0.3075   0.3139
  0.3244   0.3326   0.3426   0.3459   0.3564   0.3629   0.3690   0.3749
  0.3836   0.3885   0.3940   0.4050   0.4059   0.4159   0.4269   0.4328
  0.4472   0.4649   0.4817   0.5110   0.5137   0.5276   0.5417   0.5817
  0.5853   0.5950   0.6071   0.6144   0.6160   0.6366   0.6541   0.6662
  0.6815   0.6890   0.7017   0.7058   0.7185   0.7257   0.7372   0.7516
  0.7641   0.7833   0.7871   0.7944   0.8072   0.8191   0.8324   0.8380
  0.8534   0.8640   0.8699   0.8976   0.9123   0.9347   0.9529   0.9739
  1.0057   1.0360   1.0668   1.0695   1.0901   1.1191   1.1228   1.1294
  1.1507   1.1734   1.1840   1.2003   1.2095   1.2175   1.2199   1.2372
  1.2464   1.2628   1.2710   1.2818   1.2913   1.3015   1.3105   1.3208
  1.3411   1.3508   1.3659   1.3914   1.4014   1.4044   1.4112   1.4164
  1.4404   1.4567   1.4738   1.4976   1.5218   1.5292   1.5366   1.5582
  1.5647   1.5768   1.5841   1.6180   1.6377   1.6397   1.6584   1.6693
  1.7159   1.7391   1.7616   1.7776   1.7907   1.8167   1.8573   1.8797
  1.8963   1.9120   1.9300   1.9789   1.9950   2.0206   2.0501   2.0704
  2.1016   2.1991   2.2066   2.2440   2.2885   2.3054   2.3745   2.4053
  2.4295   2.6233   2.6529   2.6635   2.6810   2.6908   2.7240   2.7494
  2.7774   2.8016   2.8119   2.8329   2.8452   2.8597   2.8696   2.8835
  2.9118   2.9175   2.9381   2.9524   2.9735   2.9780   2.9980   3.0146
  3.0421   3.0530   3.0686   3.1078   3.1176   3.1550   3.1978   3.2107
  3.2393   3.2460   3.2539   3.3228   3.3461   3.3562   3.3704   3.3873
  3.3966   3.4088   3.4255   3.4375   3.4509   3.4737   3.5001   3.5089
  3.5336   3.5538   3.5779   3.5989   3.6290   3.6426   3.6600   3.6702
  3.6872   3.7024   3.7311   3.7499   3.7694   3.7769   3.8016   3.8136
  3.8395   3.8596   3.8683   3.8851   3.8931   3.9389   3.9554   3.9854
  3.9883   4.0155   4.0368   4.0660   4.0971   4.1224   4.1522   4.1597
  4.1783   4.2346   4.2422   4.2792   4.2949   4.3345   4.3557   4.3604
  4.4058   4.4394   4.4698   4.4743   4.4855   4.5280   4.5363   4.5530
  4.5825   4.6080   4.6283   4.6418   4.6791   4.6950   4.7185   4.7353
  4.7686   4.7809   4.8340   4.8636   4.8870   4.9649   4.9808   5.0479
  5.0807   5.0878   5.1700   5.1914   5.2188   5.2443   5.2573   5.2691
  5.2786   5.2935   5.3235   5.3518   5.3601   5.3919   5.4413   5.4695
  5.4989   5.5150   5.5551   5.5842   5.6335   5.6915   5.6953   5.7190
  5.7739   5.8033   5.8499   5.8881   5.9479   6.0156   6.0676   6.1765
  6.2274   6.3500   6.4594   6.6014   6.9922   7.0020   7.0250   7.1024
  7.1175   7.2436   7.2816   7.3147   7.3629   7.3954   7.4599   7.4725
  7.7171   7.8070   7.8404   7.9708   8.1357  24.3706  24.6085  24.7362
 24.8141  25.0590  25.2578  50.4816  50.5946  50.6360
 
 Beta MOs
 -- Occupied --
-19.4057 -19.3712 -19.3438 -10.4091 -10.4058 -10.3760 -10.3636 -10.3573
-10.3561  -1.2575  -1.1497  -0.9896  -0.9671  -0.8811  -0.8505  -0.7435
 -0.7223  -0.6616  -0.6452  -0.5988  -0.5780  -0.5692  -0.5637  -0.5438
 -0.5162  -0.4960  -0.4822  -0.4612  -0.4346  -0.4204  -0.3955  -0.3627
 -0.3266
 -- Virtual --
 -0.0576   0.0173   0.0249   0.0371   0.0373   0.0519   0.0576   0.0585
  0.0839   0.0976   0.0993   0.1124   0.1230   0.1362   0.1367   0.1416
  0.1472   0.1505   0.1539   0.1584   0.1598   0.1623   0.1662   0.1755
  0.1792   0.1866   0.1959   0.2042   0.2073   0.2116   0.2164   0.2297
  0.2327   0.2436   0.2549   0.2587   0.2754   0.2927   0.3025   0.3088
  0.3160   0.3263   0.3348   0.3444   0.3479   0.3578   0.3642   0.3708
  0.3756   0.3842   0.3892   0.3944   0.4061   0.4077   0.4163   0.4278
  0.4345   0.4482   0.4671   0.4827   0.5128   0.5146   0.5297   0.5425
  0.5834   0.5877   0.5977   0.6108   0.6161   0.6182   0.6394   0.6606
  0.6673   0.6832   0.6906   0.7030   0.7085   0.7199   0.7267   0.7396
  0.7534   0.7663   0.7862   0.7898   0.7969   0.8098   0.8207   0.8339
  0.8387   0.8554   0.8666   0.8727   0.9002   0.9138   0.9362   0.9562
  0.9749   1.0066   1.0376   1.0681   1.0712   1.0918   1.1205   1.1260
  1.1314   1.1520   1.1762   1.1879   1.2035   1.2117   1.2206   1.2226
  1.2414   1.2479   1.2648   1.2744   1.2863   1.2929   1.3053   1.3129
  1.3268   1.3455   1.3559   1.3689   1.3937   1.4036   1.4078   1.4131
  1.4201   1.4431   1.4605   1.4770   1.4997   1.5240   1.5323   1.5401
  1.5617   1.5663   1.5789   1.5870   1.6212   1.6414   1.6420   1.6617
  1.6729   1.7198   1.7473   1.7640   1.7849   1.7961   1.8207   1.8636
  1.8816   1.9050   1.9151   1.9397   1.9849   2.0011   2.0246   2.0544
  2.0751   2.1060   2.2073   2.2086   2.2468   2.2933   2.3115   2.3768
  2.4090   2.4319   2.6275   2.6598   2.6656   2.6850   2.6969   2.7293
  2.7538   2.7811   2.8057   2.8161   2.8384   2.8484   2.8651   2.8805
  2.8896   2.9179   2.9257   2.9498   2.9667   2.9799   2.9862   3.0027
  3.0239   3.0405   3.0580   3.0709   3.1112   3.1209   3.1622   3.2024
  3.2161   3.2438   3.2527   3.2577   3.3286   3.3531   3.3616   3.3736
  3.3911   3.4035   3.4166   3.4320   3.4413   3.4555   3.4793   3.5068
  3.5114   3.5385   3.5610   3.5818   3.6067   3.6361   3.6497   3.6629
  3.6727   3.6901   3.7065   3.7344   3.7553   3.7763   3.7820   3.8059
  3.8166   3.8430   3.8662   3.8755   3.8900   3.8965   3.9413   3.9586
  3.9909   3.9928   4.0184   4.0415   4.0685   4.1003   4.1251   4.1547
  4.1643   4.1814   4.2404   4.2463   4.2858   4.2975   4.3366   4.3598
  4.3650   4.4096   4.4447   4.4728   4.4783   4.4891   4.5314   4.5405
  4.5612   4.5884   4.6137   4.6364   4.6513   4.6868   4.7045   4.7249
  4.7378   4.7745   4.7873   4.8390   4.8741   4.8978   4.9777   4.9867
  5.0648   5.0926   5.1012   5.2005   5.2283   5.2374   5.2587   5.2646
  5.2792   5.3046   5.3116   5.3417   5.3557   5.3759   5.4040   5.4573
  5.4750   5.5081   5.5231   5.5638   5.5898   5.6405   5.6963   5.7004
  5.7251   5.7787   5.8091   5.8535   5.8957   5.9535   6.0201   6.0744
  6.1837   6.2423   6.3670   6.4600   6.6085   7.0154   7.0296   7.0771
  7.1174   7.1689   7.2732   7.2862   7.3158   7.3735   7.3988   7.4744
  7.4999   7.7190   7.8101   7.8479   7.9872   8.1433  24.3717  24.6098
 24.7365  24.8145  25.0610  25.2596  50.4922  50.5979  50.6360
 --------------------------------------------------------------
 
          Ground-State Mulliken Net Atomic Charges

     Atom                 Charge (a.u.)    Spin (a.u.)
  --------------------------------------------------------
      1 H                     0.315774      -0.005676
      2 C                    -0.143688       0.221998
      3 C                    -0.211639      -0.076783
      4 H                     0.301680       0.002922
      5 C                    -0.213461       0.329175
      6 H                     0.290266      -0.007084
      7 C                    -0.271198      -0.072519
      8 H                     0.325567       0.001349
      9 C                    -0.232264       0.020871
     10 H                     0.307963      -0.001323
     11 C                    -0.312086      -0.006295
     12 H                     0.270447       0.000950
     13 O                    -0.412546      -0.004528
     14 H                     0.345067       0.000990
     15 O                    -0.285890       0.508460
     16 O                    -0.073993       0.087492
  --------------------------------------------------------
  Sum of atomic charges =     0.000000
  Sum of spin   charges =     1.000000

 -----------------------------------------------------------------
                    Cartesian Multipole Moments
 -----------------------------------------------------------------
    Charge (ESU x 10^10)
                 0.0000
    Dipole Moment (Debye)
         X      -0.3958      Y       4.7966      Z      -1.4661
       Tot       5.0313
    Quadrupole Moments (Debye-Ang)
        XX     -47.3999     XY      -9.0548     YY     -51.6529
        XZ       2.0373     YZ      -7.2279     ZZ     -40.0892
    Octopole Moments (Debye-Ang^2)
       XXX      70.9897    XXY     -47.3535    XYY      11.3560
       YYY    -178.7016    XXZ      37.2381    XYZ       7.5166
       YYZ      24.7430    XZZ      20.5838    YZZ     -28.4407
       ZZZ      84.1498
    Hexadecapole Moments (Debye-Ang^3)
[...]
      1 H                     0.322300      -0.005708
      2 C                    -0.117174       0.217384
      3 C                    -0.262879      -0.069676
      4 H                     0.293915       0.002802
      5 C                    -0.180042       0.333606
      6 H                     0.292374      -0.007088
      7 C                    -0.265812      -0.062883
      8 H                     0.326700       0.001531
      9 C                    -0.243000       0.020182
     10 H                     0.292758      -0.000538
     11 C                    -0.282615      -0.007976
     12 H                     0.263799       0.001564
     13 O                    -0.422904      -0.004403
     14 H                     0.344253       0.001767
     15 O                    -0.279255       0.500385
     16 O                    -0.082417       0.079051
  --------------------------------------------------------
  Sum of atomic charges =     0.000000
  Sum of spin   charges =     1.000000

 -----------------------------------------------------------------
                    Cartesian Multipole Moments
 -----------------------------------------------------------------
    Charge (ESU x 10^10)
                 0.0000
    Dipole Moment (Debye)
         X      -0.8596      Y       4.7643      Z      -0.8733
       Tot       4.9194
    Quadrupole Moments (Debye-Ang)
        XX     -47.0213     XY      -9.7583     YY     -52.4362
        XZ       2.6270     YZ      -7.0302     ZZ     -40.3221
    Octopole Moments (Debye-Ang^2)
       XXX      67.7764    XXY     -47.5374    XYY       8.3409
       YYY    -188.6247    XXZ      38.6171    XYZ       9.6459
       YYZ      26.7535    XZZ      17.7548    YZZ     -26.9594
       ZZZ      85.1636
    Hexadecapole Moments (Debye-Ang^3)
      XXXX    -383.3681   XXXY      59.7615   XXYY    -206.8952
      XYYY      60.1945   YYYY    -878.9923   XXXZ     -31.0075
      XXYZ      50.3070   XYYZ       1.6322   YYYZ      91.0248
      XXZZ    -154.8466   XYZZ       6.4919   YYZZ    -147.8438
      XZZZ     -19.2507   YZZZ      57.0835   ZZZZ    -433.6621
 -----------------------------------------------------------------
 Calculating analytic gradient of the SCF energy
 Gradient of CDS energy
            1           2           3           4           5           6
    1   0.0001219   0.0002898  -0.0000710  -0.0000693  -0.0004259  -0.0001991
    2  -0.0000076  -0.0000428   0.0001866   0.0000758   0.0000987   0.0000354
    3   0.0001580   0.0002971   0.0004165   0.0001787  -0.0000948   0.0000275
            7           8           9          10          11          12
    1  -0.0001332  -0.0001204   0.0002471   0.0000211   0.0001142   0.0002147
    2  -0.0001712  -0.0000184   0.0001703  -0.0001964  -0.0002492  -0.0000035
    3  -0.0002499  -0.0001541  -0.0000793  -0.0001210  -0.0001587  -0.0000410
           13          14          15          16
    1  -0.0000686   0.0000805   0.0001043  -0.0001062
    2  -0.0002652   0.0004337  -0.0000465   0.0000002
    3   0.0001487  -0.0002748   0.0000028  -0.0000558
 Gradient of SCF Energy
            1           2           3           4           5           6
    1   0.0038463  -0.0009382   0.0040072  -0.0030263   0.0082407  -0.0093657
    2   0.0002880   0.0082498  -0.0068136   0.0031489   0.0059822   0.0025429
    3   0.0048836  -0.0036223  -0.0085221   0.0066968   0.0050042   0.0014557
            7           8           9          10          11          12
    1   0.0023555  -0.0056826   0.0019671   0.0013993  -0.0090022   0.0044059
    2  -0.0081447   0.0011707   0.0100104  -0.0004506  -0.0143506  -0.0000067
    3   0.0023042  -0.0079593   0.0046770  -0.0067183   0.0000909   0.0002056
           13          14          15          16
    1   0.0093206  -0.0079077  -0.0029761   0.0033561
    2  -0.0032162   0.0056261  -0.0014151  -0.0026213
    3   0.0153345  -0.0140422   0.0014813  -0.0012698
 Max gradient component =       1.533E-02
 RMS gradient           =       6.217E-03
 Computing fast CPCM-SWIG gradient
 Updating gradient with PCM contributions...
 -- total gradient after adding PCM contribution --
---------------------------------------------------
  Atom         X              Y              Z     
---------------------------------------------------
   1       0.000007       0.000005      -0.000003
   2       0.000008       0.000009      -0.000011
   3       0.000011       0.000016      -0.000004
   4       0.000013       0.000018      -0.000002
   5       0.000009       0.000012      -0.000005
   6       0.000005       0.000018       0.000005
   7      -0.000004      -0.000001       0.000014
   8      -0.000006       0.000004       0.000006
   9       0.000040      -0.000002      -0.000021
  10      -0.000016      -0.000047      -0.000003
  11      -0.000019      -0.000003       0.000008
  12      -0.000003      -0.000008      -0.000003
  13      -0.000022      -0.000005       0.000027
  14      -0.000009      -0.000014      -0.000017
  15      -0.000002       0.000002       0.000013
  16      -0.000012      -0.000003      -0.000004
---------------------------------------------------
 Number of fixed atoms: 0
 Gradient time:  CPU 321.86 s  wall 24.80 s
 Geometry Optimization Parameters
   NAtoms,    NIC,     NZ,  NCons,   NDum,   NFix, NCnnct, MaxDiis
       16     113       0       0       0       0       0       0

 Cartesian Hessian Update
 Hessian updated using Powell/Murtagh-Sargent update
  Mixing factors:     0.996850 Powell                      0.003150 Murtagh-Sargent


** GEOMETRY OPTIMIZATION IN DELOCALIZED INTERNAL COORDINATES **
   Searching for a Transition State

   Optimization Cycle:  12

                       Coordinates (Angstroms)
     ATOM                X               Y               Z
      1  H         0.7559052129    1.3263816691    1.5161091300
      2  C         0.0959208877    1.3676723246    0.6609695140
      3  C        -1.1351846146    1.9002483902    0.7514798628
      4  H        -1.4985377309    2.2981243920    1.6891391835
      5  C        -2.0236014199    1.8557488379   -0.3816089369
      6  H        -3.0785052877    2.0432969651   -0.2360062006
      7  C        -1.5465329160    1.4678106376   -1.6037513575
      8  H        -2.2090014541    1.3666924031   -2.4514781084
      9  C        -0.0583692069    1.5052039563   -1.8345967408
     10  H         0.2038154008    0.9572992749   -2.7387836447
     11  C         0.5719011830    0.7955988773   -0.6394362824
     12  H         1.6571322971    0.7809781198   -0.7065231861
     13  O         0.4483245000    2.8323688761   -1.8888138095
     14  H         0.0608984573    3.2700662804   -2.6546087598
     15  O        -1.2277839935   -0.5736399879   -0.8975431141
     16  O         0.1630978845   -0.5727391164   -0.8426519496
   Point Group: c1    Number of degrees of freedom:    42


   Energy is   -458.321841743

 Hessian updated using Powell/Murtagh-Sargent update
  Mixing factors:     0.976900 Powell                      0.023100 Murtagh-Sargent

 42 Hessian modes will be used to form the next step
  Hessian Eigenvalues:
    -0.459952    0.001482    0.008860    0.009619    0.013500    0.016312
     0.019480    0.023500    0.024652    0.037023    0.040524    0.044982
     0.055456    0.069947    0.080325    0.089616    0.104671    0.106991
     0.114475    0.118143    0.128431    0.144838    0.180120    0.188788
     0.203863    0.218886    0.236260    0.277096    0.281209    0.305066
     0.326878    0.329756    0.350823    0.362696    0.363426    0.363928
     0.364997    0.435028    0.439526    0.525049    0.527067    0.570245

 Transition state search - taking P-RFO step
 Searching for Lamda that Maximizes Along the Lowest mode
 Value Taken    Lamda =   0.00000000
 Searching for Lamda that Minimizes Along All other modes
 Value Taken    Lamda =  -0.00000006
 Step Taken.  Stepsize is  0.001338

                             Maximum     Tolerance    Cnvgd?
         Gradient           0.000042      0.000300     YES
         Displacement       0.000585      0.001200     YES
         Energy change     -0.000018      0.000001      NO

 Final energy is   -458.321841743151     


 ******************************
 **  OPTIMIZATION CONVERGED  **
 ******************************

                       Coordinates (Angstroms)
     ATOM                X               Y               Z
      1  H         0.7559052129    1.3263816691    1.5161091300
      2  C         0.0959208877    1.3676723246    0.6609695140
      3  C        -1.1351846146    1.9002483902    0.7514798628
      4  H        -1.4985377309    2.2981243920    1.6891391835
      5  C        -2.0236014199    1.8557488379   -0.3816089369
      6  H        -3.0785052877    2.0432969651   -0.2360062006
      7  C        -1.5465329160    1.4678106376   -1.6037513575
      8  H        -2.2090014541    1.3666924031   -2.4514781084
      9  C        -0.0583692069    1.5052039563   -1.8345967408
     10  H         0.2038154008    0.9572992749   -2.7387836447
     11  C         0.5719011830    0.7955988773   -0.6394362824
     12  H         1.6571322971    0.7809781198   -0.7065231861
     13  O         0.4483245000    2.8323688761   -1.8888138095
     14  H         0.0608984573    3.2700662804   -2.6546087598
     15  O        -1.2277839935   -0.5736399879   -0.8975431141
     16  O         0.1630978845   -0.5727391164   -0.8426519496

Z-matrix Print:
$molecule
0 2
O 
O  1 1.391965
C  1 1.442486 2 106.819094
H  3 1.087401 1 105.152584 2 -174.162884 0
C  3 1.498293 1 113.230494 2 63.164162 0
H  5 1.080994 3 118.557973 1 94.240485 0
C  5 1.344414 3 120.039149 1 -84.828513 0
H  7 1.081451 5 120.782787 3 178.737958 0
C  7 1.440540 5 119.970555 3 3.367624 0
H  9 1.081294 7 119.366775 5 164.123347 0
C  9 1.368109 7 119.759111 5 -10.374491 0
H  11 1.080616 9 120.900369 7 176.043618 0
C  11 1.506426 9 118.315826 7 -18.461130 0
H  13 1.089263 11 110.640220 9 166.444428 0
O  13 1.421635 11 112.402623 9 -69.342069 0
H  15 0.963390 13 108.126880 11 -64.175000 0
$end

 
 --------------------------------------------------------------
 
                    Orbital Energies (a.u.)
 --------------------------------------------------------------
 
 Alpha MOs
 -- Occupied --
-19.4059 -19.3865 -19.3475 -10.4081 -10.4065 -10.3782 -10.3703 -10.3610
-10.3580  -1.2680  -1.1688  -1.0057  -0.9783  -0.8825  -0.8585  -0.7461
 -0.7294  -0.6656  -0.6533  -0.6023  -0.5881  -0.5808  -0.5702  -0.5494
 -0.5219  -0.5087  -0.5007  -0.4657  -0.4499  -0.4308  -0.4093  -0.3991
 -0.3545  -0.3159
 -- Virtual --
  0.0106   0.0251   0.0371   0.0379   0.0525   0.0577   0.0588   0.0837
  0.0957   0.0987   0.1131   0.1184   0.1356   0.1378   0.1403   0.1465
  0.1495   0.1545   0.1581   0.1603   0.1618   0.1669   0.1715   0.1796
  0.1865   0.1948   0.1957   0.2023   0.2098   0.2156   0.2297   0.2320
  0.2450   0.2561   0.2678   0.2753   0.2934   0.2968   0.3106   0.3147
  0.3242   0.3332   0.3427   0.3486   0.3552   0.3596   0.3699   0.3750
  0.3849   0.3919   0.3931   0.4001   0.4050   0.4122   0.4282   0.4345
  0.4544   0.4645   0.4774   0.5072   0.5164   0.5308   0.5406   0.5754
  0.5841   0.5925   0.6052   0.6123   0.6176   0.6358   0.6537   0.6617
  0.6778   0.6960   0.7004   0.7101   0.7169   0.7263   0.7333   0.7492
  0.7587   0.7811   0.7876   0.7958   0.8072   0.8174   0.8313   0.8406
  0.8523   0.8644   0.8692   0.8982   0.9067   0.9280   0.9421   0.9677
  0.9984   1.0373   1.0669   1.0701   1.0876   1.1142   1.1262   1.1309
  1.1534   1.1671   1.1823   1.1862   1.1986   1.2206   1.2224   1.2391
  1.2438   1.2526   1.2637   1.2773   1.2808   1.2933   1.3132   1.3213
  1.3365   1.3506   1.3694   1.3900   1.3964   1.4096   1.4141   1.4230
  1.4352   1.4488   1.4664   1.4890   1.5101   1.5290   1.5385   1.5544
  1.5594   1.5669   1.5859   1.6190   1.6290   1.6487   1.6610   1.6948
  1.7008   1.7371   1.7486   1.7775   1.7878   1.8029   1.8636   1.8755
  1.8975   1.9247   1.9566   1.9836   2.0048   2.0314   2.0495   2.0816
  2.1246   2.1850   2.2394   2.2550   2.2908   2.3271   2.3753   2.3966
  2.4377   2.6204   2.6527   2.6662   2.6720   2.6917   2.7235   2.7613
  2.7834   2.8041   2.8200   2.8348   2.8518   2.8562   2.8620   2.8922
  2.9059   2.9337   2.9415   2.9515   2.9677   2.9772   2.9884   3.0048
  3.0368   3.0589   3.0683   3.0918   3.1163   3.1411   3.1975   3.2175
  3.2381   3.2480   3.2659   3.3087   3.3273   3.3590   3.3699   3.3839
  3.4022   3.4107   3.4195   3.4488   3.4512   3.4810   3.4992   3.5143
  3.5351   3.5523   3.5763   3.5934   3.6329   3.6513   3.6552   3.6702
  3.6908   3.6974   3.7242   3.7560   3.7663   3.7753   3.7945   3.8066
  3.8331   3.8575   3.8653   3.8732   3.8879   3.9314   3.9429   3.9735
  3.9818   3.9975   4.0298   4.0704   4.0893   4.1070   4.1339   4.1595
  4.1794   4.2182   4.2363   4.2725   4.2977   4.3262   4.3500   4.3610
  4.3866   4.4034   4.4416   4.4574   4.4672   4.5138   4.5306   4.5428
  4.5857   4.5948   4.6110   4.6453   4.6672   4.6925   4.7076   4.7195
  4.7621   4.7783   4.8023   4.8687   4.8787   4.9575   4.9769   5.0434
  5.0765   5.0896   5.1715   5.1958   5.2227   5.2312   5.2638   5.2686
  5.2876   5.3113   5.3182   5.3453   5.3559   5.3873   5.4296   5.4739
  5.4924   5.5190   5.5810   5.6061   5.6533   5.6752   5.6967   5.7126
  5.7372   5.8083   5.8759   5.9066   5.9518   6.0439   6.0826   6.1739
  6.2060   6.3175   6.5969   6.6547   6.9815   6.9979   7.0501   7.1105
  7.1271   7.2513   7.3072   7.3264   7.3963   7.4163   7.4617   7.4790
  7.7028   7.8029   7.8424   7.9555   8.1430  24.3532  24.5964  24.7357
 24.8083  25.0557  25.2630  50.4861  50.5994  50.6392
 
 Beta MOs
 -- Occupied --
-19.4034 -19.3714 -19.3477 -10.4082 -10.4060 -10.3787 -10.3653 -10.3596
-10.3576  -1.2539  -1.1688  -0.9888  -0.9686  -0.8795  -0.8493  -0.7434
 -0.7245  -0.6595  -0.6494  -0.5981  -0.5810  -0.5729  -0.5656  -0.5454
 -0.5153  -0.5021  -0.4853  -0.4591  -0.4269  -0.4216  -0.3980  -0.3646
 -0.3306
 -- Virtual --
 -0.0587   0.0194   0.0257   0.0372   0.0379   0.0535   0.0576   0.0589
  0.0836   0.0988   0.0992   0.1131   0.1242   0.1361   0.1376   0.1411
  0.1472   0.1511   0.1557   0.1581   0.1609   0.1619   0.1667   0.1750
  0.1802   0.1867   0.1955   0.2013   0.2039   0.2114   0.2171   0.2296
  0.2321   0.2450   0.2552   0.2696   0.2779   0.2960   0.2986   0.3121
  0.3158   0.3264   0.3339   0.3443   0.3494   0.3572   0.3604   0.3706
  0.3765   0.3861   0.3919   0.3939   0.4008   0.4065   0.4130   0.4299
  0.4355   0.4552   0.4667   0.4784   0.5094   0.5173   0.5329   0.5413
  0.5779   0.5862   0.5956   0.6092   0.6141   0.6192   0.6396   0.6581
  0.6642   0.6798   0.6977   0.7018   0.7125   0.7188   0.7268   0.7348
  0.7511   0.7607   0.7836   0.7904   0.7983   0.8106   0.8192   0.8329
  0.8419   0.8552   0.8666   0.8722   0.8996   0.9086   0.9296   0.9452
  0.9686   1.0006   1.0393   1.0689   1.0713   1.0890   1.1154   1.1294
  1.1321   1.1546   1.1708   1.1851   1.1880   1.2012   1.2233   1.2257
  1.2431   1.2463   1.2548   1.2656   1.2797   1.2854   1.2953   1.3146
  1.3283   1.3428   1.3536   1.3731   1.3917   1.3993   1.4115   1.4170
  1.4272   1.4397   1.4525   1.4691   1.4905   1.5133   1.5318   1.5412
  1.5564   1.5616   1.5695   1.5896   1.6205   1.6318   1.6528   1.6648
  1.6983   1.7035   1.7397   1.7556   1.7844   1.7936   1.8081   1.8687
  1.8775   1.9058   1.9286   1.9659   1.9890   2.0107   2.0361   2.0563
  2.0854   2.1288   2.1925   2.2416   2.2572   2.2974   2.3310   2.3775
  2.3995   2.4395   2.6247   2.6592   2.6694   2.6759   2.6987   2.7296
  2.7659   2.7863   2.8088   2.8243   2.8414   2.8542   2.8625   2.8771
  2.9012   2.9125   2.9387   2.9538   2.9635   2.9756   2.9827   2.9916
  3.0162   3.0399   3.0584   3.0691   3.0973   3.1192   3.1474   3.2035
  3.2224   3.2444   3.2534   3.2695   3.3133   3.3374   3.3641   3.3743
  3.3912   3.4078   3.4146   3.4258   3.4543   3.4569   3.4853   3.5072
  3.5171   3.5416   3.5583   3.5824   3.5976   3.6368   3.6579   3.6622
  3.6727   3.6931   3.7039   3.7272   3.7641   3.7724   3.7793   3.7991
  3.8083   3.8371   3.8629   3.8721   3.8780   3.8925   3.9352   3.9463
  3.9760   3.9869   4.0032   4.0340   4.0735   4.0909   4.1117   4.1380
  4.1628   4.1825   4.2235   4.2411   4.2791   4.2998   4.3291   4.3545
  4.3649   4.3885   4.4080   4.4460   4.4606   4.4713   4.5180   4.5354
  4.5504   4.5912   4.6000   4.6205   4.6531   4.6757   4.7000   4.7130
  4.7247   4.7692   4.7835   4.8072   4.8797   4.8899   4.9650   4.9882
  5.0591   5.0886   5.1036   5.2002   5.2282   5.2362   5.2525   5.2793
  5.2875   5.2993   5.3198   5.3292   5.3582   5.3735   5.4039   5.4361
  5.4874   5.5054   5.5289   5.5911   5.6090   5.6582   5.6792   5.7013
  5.7153   5.7457   5.8152   5.8843   5.9123   5.9537   6.0510   6.0864
  6.1813   6.2182   6.3351   6.6039   6.6572   6.9969   7.0311   7.0974
  7.1124   7.1894   7.2830   7.3132   7.3268   7.4055   7.4181   7.4754
  7.5061   7.7038   7.8124   7.8442   7.9726   8.1505  24.3543  24.5977
 24.7360  24.8086  25.0579  25.2648  50.4967  50.6024  50.6391
 --------------------------------------------------------------
 
          Ground-State Mulliken Net Atomic Charges

     Atom                 Charge (a.u.)    Spin (a.u.)
  --------------------------------------------------------
      1 H                     0.322300      -0.005708
      2 C                    -0.117174       0.217384
      3 C                    -0.262879      -0.069676
      4 H                     0.293915       0.002802
      5 C                    -0.180042       0.333606
      6 H                     0.292374      -0.007088
      7 C                    -0.265812      -0.062883
      8 H                     0.326700       0.001531
      9 C                    -0.243000       0.020182
     10 H                     0.292758      -0.000538
     11 C                    -0.282615      -0.007976
     12 H                     0.263799       0.001564
     13 O                    -0.422904      -0.004403
     14 H                     0.344253       0.001767
     15 O                    -0.279255       0.500385
     16 O                    -0.082417       0.079051
  --------------------------------------------------------
  Sum of atomic charges =     0.000000
  Sum of spin   charges =     1.000000

 -----------------------------------------------------------------
                    Cartesian Multipole Moments
 -----------------------------------------------------------------
    Charge (ESU x 10^10)
                 0.0000
    Dipole Moment (Debye)
         X      -0.8596      Y       4.7643      Z      -0.8733
       Tot       4.9194
    Quadrupole Moments (Debye-Ang)
        XX     -47.0213     XY      -9.7583     YY     -52.4362
        XZ       2.6270     YZ      -7.0302     ZZ     -40.3221
    Octopole Moments (Debye-Ang^2)
       XXX      67.7764    XXY     -47.5374    XYY       8.3409
       YYY    -188.6247    XXZ      38.6171    XYZ       9.6459
       YYZ      26.7535    XZZ      17.7548    YZZ     -26.9594
       ZZZ      85.1636
    Hexadecapole Moments (Debye-Ang^3)
      XXXX    -383.3681   XXXY      59.7615   XXYY    -206.8952
      XYYY      60.1945   YYYY    -878.9923   XXXZ     -31.0075
      XXYZ      50.3070   XYYZ       1.6322   YYYZ      91.0248
      XXZZ    -154.8466   XYZZ       6.4919   YYZZ    -147.8438
      XZZZ     -19.2507   YZZZ      57.0835   ZZZZ    -433.6621
 -----------------------------------------------------------------
 Total job time:  2640.20s(wall), 38294.00s(cpu) 
 Tue May 14 15:59:35 2024

        *************************************************************
        *                                                           *
        *  Thank you very much for using Q-Chem.  Have a nice day.  *
        *                                                           *
        *************************************************************


