
Running Job 1 of 1 Q_in.in
qchem Q_in.in_197639.0 /scratch/ari.fischer/qChem2258027.hpc-mn1/qchem197639/ 0
/usr/local/qchem-5.4.1/exe/qcprog.exe_s Q_in.in_197639.0 /scratch/ari.fischer/qChem2258027.hpc-mn1/qchem197639/
                  Welcome to Q-Chem
     A Quantum Leap Into The Future Of Chemistry


 Q-Chem 5.4, Q-Chem, Inc., Pleasanton, CA (2021)

 License issued to: Nanyang Technological University (site)

 E. Epifanovsky,  A. T. B. Gilbert,  Xintian Feng,  Joonho Lee,  Yuezhi Mao,  
 N. Mardirossian,  P. Pokhilko,  A. White,  M. Wormit,  M. P. Coons,  
 A. L. Dempwolff,  Zhengting Gan,  D. Hait,  P. R. Horn,  L. D. Jacobson,  
 I. Kaliman,  J. Kussmann,  A. W. Lange,  Ka Un Lao,  D. S. Levine,  Jie Liu,  
 S. C. McKenzie,  A. F. Morrison,  K. Nanda,  F. Plasser,  D. R. Rehn,  
 M. L. Vidal,  Zhi-Qiang You,  Ying Zhu,  B. Alam,  B. Albrecht,  
 A. Aldossary,  E. Alguire,  J. H. Andersen,  D. Barton,  K. Begam,  A. Behn,  
 Y. A. Bernard,  E. J. Berquist,  H. Burton,  A. Carreras,  K. Carter-Fenk,  
 R. Chakraborty,  A. D. Chien,  K. D. Closser,  V. Cofer-Shabica,  
 S. Dasgupta,  Jia Deng,  M. de Wergifosse,  M. Diedenhofen,  Hainam Do,  
 S. Ehlert,  Po-Tung Fang,  S. Fatehi,  Qingguo Feng,  T. Friedhoff,  
 J. Gayvert,  Qinghui Ge,  G. Gidofalvi,  M. Goldey,  J. Gomes,  
 C. Gonzalez-Espinoza,  S. Gulania,  A. Gunina,  M. W. D. Hanson-Heine,  
 P. H. P. Harbach,  A. W. Hauser,  M. F. Herbst,  M. Hernandez Vera,  
 M. Hodecker,  Z. C. Holden,  S. Houck,  Xunkun Huang,  Kerwin Hui,  
 B. C. Huynh,  M. Ivanov,  Hyunjun Ji,  Hanjie Jiang,  B. Kaduk,  S. Kaehler,  
 K. Khistyaev,  Jaehoon Kim,  P. Klunzinger,  Z. Koczor-Benda,  
 Joong Hoon Koh,  D. Kosenkov,  L. Koulias,  T. Kowalczyk,  C. M. Krauter,  
 K. Kue,  A. Kunitsa,  T. Kus,  A. Landau,  K. V. Lawler,  D. Lefrancois,  
 S. Lehtola,  Rain Li,  Yi-Pei Li,  Jiashu Liang,  M. Liebenthal,  
 Hung-Hsuan Lin,  You-Sheng Lin,  Fenglai Liu,  Kuan-Yu Liu,  
 M. Loipersberger,  A. Luenser,  A. Manjanath,  P. Manohar,  E. Mansoor,  
 S. F. Manzer,  Shan-Ping Mao,  A. V. Marenich,  T. Markovich,  S. Mason,  
 S. A. Maurer,  P. F. McLaughlin,  M. F. S. J. Menger,  J.-M. Mewes,  
 S. A. Mewes,  P. Morgante,  J. W. Mullinax,  K. J. Oosterbaan,  G. Paran,  
 Alexander C. Paul,  Suranjan K. Paul,  F. Pavosevic,  Zheng Pei,  S. Prager,  
 E. I. Proynov,  E. Ramos,  B. Rana,  A. E. Rask,  A. Rettig,  R. M. Richard,  
 F. Rob,  E. Rossomme,  T. Scheele,  M. Scheurer,  M. Schneider,  
 N. Sergueev,  S. M. Sharada,  W. Skomorowski,  D. W. Small,  C. J. Stein,  
 Yu-Chuan Su,  E. J. Sundstrom,  Zhen Tao,  J. Thirman,  T. Tsuchimochi,  
 N. M. Tubman,  S. P. Veccham,  O. Vydrov,  J. Wenzel,  J. Witte,  A. Yamada,  
 Kun Yao,  S. Yeganeh,  S. R. Yost,  A. Zech,  Igor Ying Zhang,  Xing Zhang,  
 Yu Zhang,  D. Zuev,  A. Aspuru-Guzik,  A. T. Bell,  N. A. Besley,  
 K. B. Bravaya,  B. R. Brooks,  D. Casanova,  Jeng-Da Chai,  S. Coriani,  
 C. J. Cramer,  A. E. DePrince, III,  R. A. DiStasio Jr.,  A. Dreuw,  
 B. D. Dunietz,  T. R. Furlani,  W. A. Goddard III,  S. Grimme,  
 S. Hammes-Schiffer,  T. Head-Gordon,  W. J. Hehre,  Chao-Ping Hsu,  
 T.-C. Jagau,  Yousung Jung,  A. Klamt,  Jing Kong,  D. S. Lambrecht,  
 WanZhen Liang,  N. J. Mayhall,  C. W. McCurdy,  J. B. Neaton,  
 C. Ochsenfeld,  J. A. Parkhill,  R. Peverati,  V. A. Rassolov,  Yihan Shao,  
 L. V. Slipchenko,  T. Stauch,  R. P. Steele,  J. E. Subotnik,  
 A. J. W. Thom,  A. Tkatchenko,  D. G. Truhlar,  T. Van Voorhis,  
 T. A. Wesolowski,  K. B. Whaley,  H. L. Woodcock III,  P. M. Zimmerman,  
 S. Faraji,  P. M. W. Gill,  M. Head-Gordon,  J. M. Herbert,  A. I. Krylov

 Additional authors for Version 5.4.1: 
 S. Kotaru,  Shaozhi Li,  Xiangyuan Li,  F. Matz,  A. Molle,  Haisheng Ren,  
 Yingli Su,  Hung-Yi Tsai,  C. Utku,  Fang Wang

 Contributors to earlier versions of Q-Chem not listed above: 
 R. D. Adamson,  B. Austin,  R. Baer,  J. Baker,  G. J. O. Beran,  
 K. Brandhorst,  S. T. Brown,  E. F. C. Byrd,  A. K. Chakraborty,  
 G. K. L. Chan,  Chun-Min Chang,  Yunqing Chen,  C.-L. Cheng,  
 Siu Hung Chien,  D. M. Chipman,  D. L. Crittenden,  H. Dachsel,  
 R. J. Doerksen,  A. D. Dutoi,  R. G. Edgar,  J. Fosso-Tande,  
 L. Fusti-Molnar,  D. Ghosh,  A. Ghysels,  A. Golubeva-Zadorozhnaya,  
 J. Gonthier,  M. S. Gordon,  S. R. Gwaltney,  G. Hawkins,  J. E. Herr,  
 A. Heyden,  S. Hirata,  E. G. Hohenstein,  G. Kedziora,  F. J. Keil,  
 C. Kelley,  Jihan Kim,  R. A. King,  R. Z. Khaliullin,  P. P. Korambath,  
 W. Kurlancheek,  A. Laurent,  A. M. Lee,  M. S. Lee,  S. V. Levchenko,  
 Ching Yeh Lin,  D. Liotard,  E. Livshits,  R. C. Lochan,  I. Lotan,  
 L. A. Martinez-Martinez,  P. E. Maslen,  N. Nair,  D. P. O'Neill,  
 D. Neuhauser,  E. Neuscamman,  C. M. Oana,  R. Olivares-Amaya,  R. Olson,  
 T. M. Perrine,  B. Peters,  P. A. Pieniazek,  A. Prociuk,  Y. M. Rhee,  
 J. Ritchie,  M. A. Rohrdanz,  E. Rosta,  N. J. Russ,  H. F. Schaefer III,  
 M. W. Schmidt,  N. E. Schultz,  S. Sharma,  N. Shenvi,  C. D. Sherrill,  
 A. C. Simmonett,  A. Sodt,  T. Stein,  D. Stuck,  K. S. Thanthiriwatte,  
 V. Vanovschi,  L. Vogt,  Tao Wang,  A. Warshel,  M. A. Watson,  
 C. F. Williams,  Q. Wu,  X. Xu,  Jun Yang,  W. Zhang,  Yan Zhao

 Please cite Q-Chem as follows:
 Y. Shao et al., Mol. Phys. 113, 184-215 (2015)
 DOI: 10.1080/00268976.2014.952696

 Q-Chem 5.4.1 for Intel X86 EM64T Linux

 Parts of Q-Chem use Armadillo 9.800.1 (Horizon Scraper).
 http://arma.sourceforge.net/

 Q-Chem begins on Thu Aug  1 13:50:23 2024  

 Host: 
0

     Scratch files written to /scratch/ari.fischer/qChem2258027.hpc-mn1/qchem197639//
 Aug1521 |scratch|qcdevops|jenkins|workspace|build_RNUM 8249   
 Processing $rem in /usr/local/qchem-5.4.1/config/preferences:
 Processing $rem in /home/ari.fischer/.qchemrc:
 Symmetry turned off for PCM/SM12/SMD calculation


!!********************************************.
!!******************Warning*******************.
!!Desired Analytical derivatives not available.
!!Finite difference job might take a long time.
!!********************************************.
!!********************************************.


 2-order derivative to be evaluated numerically with 1-order analytical derivatives

 Checking the input file for inconsistencies... 	...done.

--------------------------------------------------------------
User input:
--------------------------------------------------------------
$molecule
0 2
C    1.8615048    0.2398532   -1.5855449
O    0.9483314    1.1062802   -2.2306752
C    2.2758295    0.8144919   -0.2489284
O    1.7183297    1.8559498    0.1328669
C    3.2750197    0.2134923    0.5800773
C    4.1063245   -0.9876678    0.3051741
C    5.4882522   -0.6128120   -0.2437392
O    5.2995121    0.1122062   -1.4334828
O    6.1190503    0.1576749    0.7500929
H    2.7423711    0.0945213   -2.2106135
H    1.4043581   -0.7374967   -1.4187945
H    0.7477238    1.8078395   -1.5919038
H    3.4845306    0.7442801    1.4989838
H    4.2768165   -1.5259730    1.2405347
H    6.0578512   -1.5211696   -0.4412773
H    6.1106850    0.0696793   -1.9525353
H    7.0670603    0.1574047    0.5753338
O    3.5521451   -1.8826220   -0.6503487
O    2.4190158   -2.5077842   -0.0507016
H    2.8094038   -3.2972980    0.3550130
$end

$rem
BASIS = 6-311++G(2df,2p)
GUI = 2
JOB_TYPE = Frequency
METHOD = wB97M-V
SOLVENT_METHOD = SMD
SCF_ALGORITHM = DIIS_GDM
MAX_SCF_CYCLES = 400
SCF_CONVERGENCE = 7
THRESH = 12
$end
--------------------------------------------------------------
 ----------------------------------------------------------------
             Standard Nuclear Orientation (Angstroms)
    I     Atom           X                Y                Z
 ----------------------------------------------------------------
    1      C       1.8615048000     0.2398532000    -1.5855449000
    2      O       0.9483314000     1.1062802000    -2.2306752000
    3      C       2.2758295000     0.8144919000    -0.2489284000
    4      O       1.7183297000     1.8559498000     0.1328669000
    5      C       3.2750197000     0.2134923000     0.5800773000
    6      C       4.1063245000    -0.9876678000     0.3051741000
    7      C       5.4882522000    -0.6128120000    -0.2437392000
    8      O       5.2995121000     0.1122062000    -1.4334828000
    9      O       6.1190503000     0.1576749000     0.7500929000
   10      H       2.7423711000     0.0945213000    -2.2106135000
   11      H       1.4043581000    -0.7374967000    -1.4187945000
   12      H       0.7477238000     1.8078395000    -1.5919038000
   13      H       3.4845306000     0.7442801000     1.4989838000
   14      H       4.2768165000    -1.5259730000     1.2405347000
   15      H       6.0578512000    -1.5211696000    -0.4412773000
   16      H       6.1106850000     0.0696793000    -1.9525353000
   17      H       7.0670603000     0.1574047000     0.5753338000
   18      O       3.5521451000    -1.8826220000    -0.6503487000
   19      O       2.4190158000    -2.5077842000    -0.0507016000
   20      H       2.8094038000    -3.2972980000     0.3550130000
 ----------------------------------------------------------------
 Nuclear Repulsion Energy =         680.41056980 hartrees
 There are       44 alpha and       43 beta electrons
 Requested basis set is 6-311++G(2df,2p)
 There are 142 shells and 464 basis functions

 Total QAlloc Memory Limit 288000 MB
 Mega-Array Size       188 MB
 MEM_STATIC part       192 MB
 
 Citation of the SMD model:
 Marenich, A.V.; Cramer, C.J.; Truhlar, D.G.
 J. Phys. Chem. B 2009, 113, 6378-6396.
 iSolventCode=           1
 Solvent: water                                                           
 
 vradii
            1           2           3           4           5           6
    1   1.8500000   1.5200000   1.8500000   1.5200000   1.8500000   1.8500000
            7           8           9          10          11          12
    1   1.8500000   1.5200000   1.5200000   1.2000000   1.2000000   1.2000000
           13          14          15          16          17          18
    1   1.2000000   1.2000000   1.2000000   1.2000000   1.2000000   1.5200000
           19          20
    1   1.5200000   1.2000000
 Changing PCM_VDW_RADII to SMD_RADIUS
 Discretize the solute cavity surface with Lebedev spheres
	Using 110 Lebedev grid points for each H atom
	Using 194 Lebedev grid points for other atoms
	Atomic van der Waals radii will be scaled by 1.20
 Remove points where switching function is < 1.0e-08
 Keep 1569 surface tesserae and discard 1555 interior tesserae
 Molecular Surface Area = 175.251 Angst**2
 A cutoff of  1.0D-12 yielded   8701 shell pairs
 There are     92025 function pairs (    114194 Cartesian)
 Smallest overlap matrix eigenvalue = 5.77E-06
 Guess from superposition of atomic densities
 Warning:  Energy on first SCF cycle will be non-variational
 SAD guess density has 87.000000 electrons

 -----------------------------------------------------------------------
  General SCF calculation program by
  Eric Jon Sundstrom, Paul Horn, Yuezhi Mao, Dmitri Zuev, Alec White,
  David Stuck, Shaama M.S., Shane Yost, Joonho Lee, David Small,
  Daniel Levine, Susi Lehtola, Hugh Burton, Evgeny Epifanovsky,
  Bang C. Huynh
 -----------------------------------------------------------------------
 Exchange:     0.1500 Hartree-Fock + 1.0000 wB97M-V + LR-HF
 Correlation:  1.0000 wB97M-V
 Using SG-2 standard quadrature grid
 Nonlocal Correlation:  VV10 with C = 0.0100 and b = 6.00 and scale = 1.00000
 Grid used for NLC:  SG-1 standard quadrature
 using 16 threads for integral computing
 -------------------------------------------------------
 OpenMP Integral computing Module                
 Release: version 1.0, May 2013, Q-Chem Inc. Pittsburgh 
 -------------------------------------------------------
 
 Citation of the SMD model:
 Marenich, A.V.; Cramer, C.J.; Truhlar, D.G.
 J. Phys. Chem. B 2009, 113, 6378-6396.
 iSolventCode=           1
 Solvent: water                                                           
 
 vradii
            1           2           3           4           5           6
    1   1.8500000   1.5200000   1.8500000   1.5200000   1.8500000   1.8500000
            7           8           9          10          11          12
    1   1.8500000   1.5200000   1.5200000   1.2000000   1.2000000   1.2000000
           13          14          15          16          17          18
    1   1.2000000   1.2000000   1.2000000   1.2000000   1.2000000   1.5200000
           19          20
    1   1.5200000   1.2000000
 -------------------------------------------------------
 OpenMP BLAS3 based DFT computing Module                
 Release: version 1.0, May 2013, Q-Chem Inc. Pittsburgh 
 -------------------------------------------------------
 A unrestricted SCF calculation will be
 performed using DIIS, GDM
 SCF converges when RMS gradient is below 1.0e-07
 ---------------------------------------
  Cycle       Energy         DIIS error
 ---------------------------------------
    1    -649.4387097120      1.15e-02  
    2    -646.9893576963      1.52e-03  Done DIIS. Switching to GDM
 ---------------------------------------
  Cycle       Energy        RMS Gradient
 ---------------------------------------
    1    -646.9893576963      1.46e-01   Descent step
    2    -647.1602126485      3.63e-02   Normal BFGS step
    3    -647.1885488011      1.97e-02   Normal BFGS step
    4    -647.1908021668      1.57e-02   Normal BFGS step
    5    -647.1920700131      3.84e-03   Normal BFGS step
    6    -647.1922016249      2.07e-03   Normal BFGS step
    7    -647.1922367090      1.13e-03   Normal BFGS step
    8    -647.1922418392      5.44e-04   Normal BFGS step
    9    -647.1922431731      2.82e-04   Normal BFGS step
   10    -647.1922435960      1.07e-04   Normal BFGS step
   11    -647.1922437015      4.77e-05   Normal BFGS step
   12    -647.1922437225      2.38e-05   Normal BFGS step
   13    -647.1922437266      1.15e-05   Normal BFGS step
   14    -647.1922437280      8.93e-06   Normal BFGS step
   15    -647.1922437283      6.41e-06   Normal BFGS step
   16    -647.1922437284      3.61e-06   Normal BFGS step
   17    -647.1922437284      1.14e-06   Normal BFGS step
   18    -647.1922437284      4.34e-07   Normal BFGS step
   19    -647.1922437285      1.19e-07   Normal BFGS step
   20    -647.1922437285      4.04e-08  Convergence criterion met
 ---------------------------------------
 SCF time:   CPU 3130.68s  wall 217.00s 
<S^2> =          0.760564040
(3)  G-ENP(liq) elect-nuc-pol free energy of system     -647.192243729 a.u.
(4)  G-CDS(liq) cavity-dispersion-solvent structure 
     free energy                                                4.6551 kcal/mol
(6)  G-S(liq) free energy of system                     -647.184825415 a.u.
 SCF   energy in the final basis set =     -647.1848254153
 Total energy in the final basis set =     -647.1848254153
 
 --------------------------------------------------------------
 
                    Orbital Energies (a.u.)
 --------------------------------------------------------------
 
 Alpha MOs
 -- Occupied --
-19.4098 -19.4004 -19.3503 -19.3501 -19.3443 -19.3366 -10.4593 -10.4429
-10.4175 -10.3902 -10.3889  -1.2787  -1.2080  -1.1975  -1.1495  -1.1418
 -1.0602  -0.9247  -0.8619  -0.8126  -0.7393  -0.6925  -0.6695  -0.6671
 -0.6425  -0.6108  -0.6089  -0.5950  -0.5861  -0.5732  -0.5482  -0.5345
 -0.5112  -0.5095  -0.5063  -0.4735  -0.4653  -0.4241  -0.4214  -0.4169
 -0.4085  -0.3963  -0.3893  -0.3402
 -- Virtual --
  0.0231   0.0356   0.0371   0.0417   0.0591   0.0603   0.0688   0.0715
  0.0751   0.0860   0.1011   0.1076   0.1114   0.1244   0.1275   0.1331
  0.1386   0.1470   0.1547   0.1555   0.1628   0.1687   0.1702   0.1748
  0.1819   0.1859   0.1924   0.2012   0.2145   0.2188   0.2303   0.2368
  0.2429   0.2562   0.2584   0.2695   0.2748   0.2776   0.2867   0.2942
  0.3016   0.3048   0.3136   0.3147   0.3168   0.3239   0.3325   0.3393
  0.3459   0.3476   0.3551   0.3566   0.3593   0.3690   0.3768   0.3804
  0.3859   0.3908   0.3944   0.4070   0.4141   0.4157   0.4236   0.4341
  0.4370   0.4441   0.4673   0.4776   0.4867   0.5076   0.5173   0.5231
  0.5458   0.5557   0.5737   0.6006   0.6044   0.6189   0.6239   0.6317
  0.6370   0.6523   0.6588   0.6636   0.6799   0.6854   0.6935   0.6986
  0.7054   0.7162   0.7291   0.7460   0.7491   0.7601   0.7694   0.7729
  0.7877   0.8015   0.8114   0.8320   0.8458   0.8632   0.8824   0.8890
  0.9040   0.9313   0.9407   0.9416   0.9512   0.9666   0.9817   1.0086
  1.0477   1.0555   1.0580   1.0666   1.0868   1.1045   1.1135   1.1355
  1.1461   1.1586   1.1713   1.1751   1.1819   1.1860   1.1962   1.2007
  1.2097   1.2171   1.2206   1.2266   1.2411   1.2468   1.2533   1.2825
  1.2954   1.3049   1.3123   1.3245   1.3341   1.3456   1.3520   1.3620
  1.3821   1.3926   1.3985   1.4263   1.4400   1.4448   1.4506   1.4605
  1.4654   1.4876   1.4909   1.5201   1.5271   1.5400   1.5482   1.5594
  1.5665   1.5778   1.6018   1.6035   1.6277   1.6475   1.6575   1.6697
  1.6896   1.6966   1.7207   1.7460   1.7688   1.7893   1.8111   1.8342
  1.8475   1.8671   1.8738   1.9061   1.9272   1.9491   1.9727   1.9814
  2.0255   2.0377   2.0494   2.1031   2.1427   2.1728   2.2196   2.2411
  2.2543   2.2799   2.2863   2.3299   2.3547   2.3883   2.4038   2.4112
  2.4344   2.4505   2.4646   2.4824   2.5157   2.5400   2.5899   2.5960
  2.6743   2.6935   2.7144   2.7705   2.7789   2.8046   2.8172   2.8331
  2.8383   2.8545   2.8843   2.9048   2.9140   2.9265   2.9597   2.9815
  3.0157   3.0401   3.0543   3.0867   3.1167   3.1230   3.1479   3.1672
  3.1866   3.2085   3.2325   3.2400   3.2623   3.2882   3.3337   3.3440
  3.3658   3.3843   3.3999   3.4295   3.4535   3.4680   3.4842   3.4904
  3.5012   3.5229   3.5373   3.5446   3.5515   3.5994   3.6246   3.6324
  3.6711   3.6860   3.6981   3.7103   3.7116   3.7275   3.7608   3.7704
  3.7897   3.8105   3.8234   3.8314   3.8335   3.8450   3.8648   3.8867
  3.9167   3.9233   3.9399   3.9560   3.9898   4.0031   4.0374   4.0621
  4.0678   4.0925   4.1023   4.1339   4.1624   4.1792   4.1983   4.2199
  4.2280   4.2638   4.2714   4.2905   4.3044   4.3214   4.3321   4.3402
  4.3569   4.4057   4.4401   4.4477   4.4688   4.4926   4.5184   4.5452
  4.5698   4.5861   4.6290   4.6654   4.6984   4.7050   4.7297   4.8073
  4.8229   4.8938   4.9707   5.0075   5.0875   5.1012   5.1895   5.2017
  5.2119   5.2141   5.2205   5.2359   5.2504   5.2793   5.2943   5.3121
  5.3194   5.3315   5.3352   5.3443   5.3562   5.3877   5.4183   5.4262
  5.4361   5.4415   5.4675   5.5036   5.5193   5.5250   5.5327   5.5467
  5.5798   5.6010   5.6120   5.6121   5.6212   5.6426   5.6685   5.6700
  5.6806   5.7115   5.7208   5.7614   5.8486   5.8687   5.8874   5.9196
  5.9397   6.0231   6.0421   6.0690   6.0865   6.1754   6.2670   6.2802
  6.5445   6.6287   6.6646   6.7291   6.7480   6.8581   6.9565   7.0119
  7.0269   7.0604   7.0842   7.1008   7.1422   7.1583   7.1697   7.2377
  7.2545   7.2700   7.2822   7.2903   7.3268   7.3542   7.3636   7.3880
  7.4077   7.4464   7.4550   7.4824   7.5518   7.6203   7.6296   7.6407
  7.6831   7.7082   7.7603   7.8095   7.8397   7.8518   7.8893   7.9762
  8.2066  24.5592  24.7462  24.7879  24.8506  25.0958  50.5055  50.5690
 50.6113  50.6219  50.6530  50.7358
 
 Beta MOs
 -- Occupied --
-19.4098 -19.4003 -19.3503 -19.3500 -19.3377 -19.3365 -10.4583 -10.4438
-10.4181 -10.3902 -10.3783  -1.2784  -1.2075  -1.1894  -1.1464  -1.1416
 -1.0592  -0.9087  -0.8586  -0.8039  -0.7348  -0.6899  -0.6671  -0.6652
 -0.6399  -0.6077  -0.6052  -0.5907  -0.5802  -0.5698  -0.5420  -0.5316
 -0.5085  -0.5049  -0.4836  -0.4661  -0.4599  -0.4232  -0.4207  -0.4162
 -0.4058  -0.3913  -0.3819
 -- Virtual --
 -0.0497   0.0231   0.0359   0.0371   0.0419   0.0593   0.0604   0.0688
  0.0719   0.0782   0.0995   0.1041   0.1094   0.1140   0.1265   0.1277
  0.1331   0.1386   0.1479   0.1551   0.1587   0.1660   0.1697   0.1728
  0.1750   0.1827   0.1860   0.1926   0.2013   0.2144   0.2191   0.2315
  0.2372   0.2444   0.2570   0.2591   0.2708   0.2752   0.2783   0.2894
  0.2950   0.3017   0.3055   0.3152   0.3157   0.3186   0.3263   0.3352
  0.3407   0.3472   0.3506   0.3572   0.3575   0.3617   0.3700   0.3775
  0.3833   0.3868   0.3911   0.3965   0.4074   0.4145   0.4166   0.4247
  0.4346   0.4377   0.4470   0.4690   0.4782   0.4872   0.5084   0.5171
  0.5282   0.5481   0.5580   0.5776   0.6041   0.6057   0.6215   0.6271
  0.6357   0.6375   0.6537   0.6620   0.6668   0.6830   0.6904   0.6959
  0.7006   0.7115   0.7207   0.7312   0.7494   0.7540   0.7640   0.7710
  0.7744   0.7898   0.8040   0.8131   0.8327   0.8481   0.8650   0.8856
  0.8930   0.9073   0.9342   0.9408   0.9429   0.9531   0.9705   0.9833
  1.0123   1.0497   1.0567   1.0582   1.0674   1.0868   1.1053   1.1161
  1.1366   1.1468   1.1591   1.1728   1.1765   1.1859   1.1878   1.1980
  1.2028   1.2112   1.2192   1.2255   1.2299   1.2423   1.2513   1.2542
  1.2851   1.2963   1.3083   1.3160   1.3269   1.3369   1.3473   1.3536
  1.3655   1.3868   1.3948   1.4029   1.4304   1.4420   1.4459   1.4548
  1.4631   1.4687   1.4914   1.4930   1.5232   1.5283   1.5427   1.5509
  1.5627   1.5694   1.5789   1.6036   1.6073   1.6335   1.6490   1.6594
  1.6718   1.6920   1.7002   1.7225   1.7553   1.7709   1.7914   1.8147
  1.8375   1.8531   1.8730   1.8800   1.9107   1.9290   1.9512   1.9763
  1.9855   2.0305   2.0415   2.0521   2.1048   2.1447   2.1759   2.2228
  2.2453   2.2562   2.2818   2.2879   2.3318   2.3572   2.3900   2.4053
  2.4132   2.4363   2.4516   2.4668   2.4841   2.5199   2.5457   2.5959
  2.6032   2.6820   2.6971   2.7172   2.7785   2.7913   2.8190   2.8235
  2.8383   2.8496   2.8629   2.8928   2.9084   2.9276   2.9372   2.9767
  3.0301   3.0311   3.0543   3.0636   3.0977   3.1351   3.1384   3.1590
  3.1735   3.1970   3.2164   3.2441   3.2538   3.2709   3.2996   3.3386
  3.3538   3.3780   3.3914   3.4139   3.4417   3.4651   3.4778   3.4880
  3.4953   3.5110   3.5282   3.5451   3.5524   3.5614   3.6155   3.6372
  3.6406   3.6766   3.6944   3.7067   3.7175   3.7263   3.7382   3.7665
  3.7761   3.8004   3.8130   3.8273   3.8325   3.8383   3.8572   3.8674
  3.8926   3.9232   3.9262   3.9455   3.9642   3.9968   4.0089   4.0440
  4.0665   4.0771   4.1028   4.1114   4.1370   4.1674   4.1861   4.2030
  4.2251   4.2371   4.2689   4.2761   4.2925   4.3124   4.3287   4.3429
  4.3483   4.3632   4.4179   4.4433   4.4521   4.4781   4.5013   4.5337
  4.5516   4.5880   4.5992   4.6484   4.6803   4.7083   4.7102   4.7339
  4.8157   4.8276   4.8976   4.9762   5.0183   5.0931   5.1129   5.2055
  5.2128   5.2145   5.2171   5.2287   5.2496   5.2708   5.2814   5.2970
  5.3138   5.3208   5.3335   5.3401   5.3455   5.3573   5.3907   5.4198
  5.4294   5.4383   5.4461   5.4730   5.5085   5.5222   5.5300   5.5413
  5.5551   5.5821   5.6035   5.6137   5.6196   5.6271   5.6463   5.6700
  5.6808   5.6835   5.7143   5.7374   5.7739   5.8521   5.8760   5.8958
  5.9208   5.9444   6.0249   6.0428   6.0699   6.0874   6.1762   6.2677
  6.2962   6.5456   6.6292   6.6656   6.7363   6.7487   6.8584   6.9871
  7.0124   7.0272   7.0789   7.0906   7.1026   7.1442   7.1613   7.1711
  7.2381   7.2556   7.2706   7.2825   7.3019   7.3280   7.3545   7.3645
  7.3900   7.4199   7.4490   7.4592   7.4830   7.5522   7.6213   7.6335
  7.6439   7.6836   7.7084   7.7687   7.8097   7.8422   7.8546   7.8896
  7.9766   8.2069  24.5656  24.7479  24.7888  24.8510  25.0983  50.5056
 50.5691  50.6114  50.6221  50.6531  50.7405
 --------------------------------------------------------------
 
          Ground-State Mulliken Net Atomic Charges

     Atom                 Charge (a.u.)    Spin (a.u.)
  --------------------------------------------------------
      1 C                    -0.333650       0.006334
      2 O                    -0.487192       0.003303
      3 C                     0.208861       0.030159
      4 O                    -0.476956       0.234920
      5 C                    -0.009967       0.710438
      6 C                    -0.234329      -0.072558
      7 C                    -0.175766       0.064552
      8 O                    -0.425374       0.007597
      9 O                    -0.411521       0.001891
     10 H                     0.235987       0.002295
     11 H                     0.226871       0.002066
     12 H                     0.326039      -0.001560
     13 H                     0.333183      -0.014353
     14 H                     0.304869       0.019407
     15 H                     0.258292      -0.001754
     16 H                     0.359286      -0.000657
     17 H                     0.350772       0.000004
     18 O                    -0.091082       0.001867
     19 O                    -0.305791       0.006305
     20 H                     0.347471      -0.000255
  --------------------------------------------------------
  Sum of atomic charges =     0.000000
  Sum of spin   charges =     1.000000

 -----------------------------------------------------------------
                    Cartesian Multipole Moments
 -----------------------------------------------------------------
    Charge (ESU x 10^10)
                 0.0000
    Dipole Moment (Debye)
         X       8.8001      Y      -6.3796      Z       2.6719
       Tot      11.1928
    Quadrupole Moments (Debye-Ang)
        XX       6.6331     XY     -21.5404     YY     -62.4745
        XZ      -2.4095     YZ      -3.4193     ZZ     -71.3696
    Octopole Moments (Debye-Ang^2)
       XXX    -122.8426    XXY     -79.3393    XYY    -202.4673
       YYY     -22.6763    XXZ     -22.3017    XYZ     -13.5512
       YYZ      41.9772    XZZ    -210.5724    YZZ      -0.1660
       ZZZ     104.8606
    Hexadecapole Moments (Debye-Ang^3)
      XXXX   -1608.3622   XXXY    -207.1731   XXYY    -968.4219
      XYYY      51.4064   YYYY    -545.0647   XXXZ    -271.8124
      XXYZ     -32.0577   XYYZ     102.3041   YYYZ     -24.4423
      XXZZ    -918.3487   XYZZ      62.3394   YYZZ    -207.3229
      XZZZ     129.7771   YZZZ      59.7176   ZZZZ    -555.9361
 -----------------------------------------------------------------
 Calculating analytic gradient of the SCF energy
 Gradient of CDS energy
            1           2           3           4           5           6
    1  -0.0009555   0.0005733  -0.0010093   0.0008734   0.0000499   0.0000548
    2   0.0002563  -0.0004966   0.0019331  -0.0014675  -0.0000432  -0.0001781
    3  -0.0013789   0.0003916   0.0007986  -0.0003842   0.0002349  -0.0001264
            7           8           9          10          11          12
    1   0.0009724   0.0001278  -0.0013193   0.0001894   0.0001652  -0.0003004
    2   0.0020112  -0.0010168  -0.0012004  -0.0000806  -0.0001091   0.0002899
    3   0.0000090   0.0019523  -0.0017564   0.0001880   0.0002075  -0.0001343
           13          14          15          16          17          18
    1   0.0001052  -0.0000081  -0.0000272   0.0001419   0.0004285  -0.0000958
    2   0.0000782  -0.0000048  -0.0001583   0.0001307   0.0001618   0.0001203
    3   0.0001389   0.0001662  -0.0000795  -0.0004906   0.0002629   0.0000213
           19          20
    1   0.0001095  -0.0000757
    2   0.0002475  -0.0004738
    3  -0.0001714   0.0001508
 Gradient of SCF Energy
            1           2           3           4           5           6
    1   0.0042987  -0.0047687   0.0000453   0.0005120   0.0008066  -0.0031920
    2  -0.0084243   0.0052963   0.0055166   0.0005309  -0.0057289   0.0100102
    3   0.0000427  -0.0042816   0.0061495   0.0002506  -0.0054750  -0.0151246
            7           8           9          10          11          12
    1  -0.0135780  -0.0188125  -0.0221487  -0.0035556   0.0019260   0.0013198
    2   0.0166643   0.0027406   0.0041071   0.0003887   0.0033177  -0.0041507
    3   0.0034761   0.0101538   0.0047853   0.0033914   0.0006215  -0.0018826
           13          14          15          16          17          18
    1   0.0016523   0.0025029   0.0114924   0.0192471   0.0216600   0.0006970
    2  -0.0009790  -0.0089794  -0.0138266  -0.0031170  -0.0031288   0.0002469
    3   0.0038501   0.0118340  -0.0027924  -0.0087581  -0.0058201  -0.0016687
           19          20
    1  -0.0097615   0.0096569
    2   0.0143020  -0.0147866
    3  -0.0088068   0.0100549
 Max gradient component =       2.215E-02
 RMS gradient           =       8.661E-03
 Computing fast CPCM-SWIG gradient
 Updating gradient with PCM contributions...
 -- total gradient after adding PCM contribution --
---------------------------------------------------
  Atom         X              Y              Z     
---------------------------------------------------
   1      -0.000002       0.000000      -0.000013
   2       0.000032      -0.000002      -0.000065
   3      -0.000037       0.000091       0.000028
   4       0.000027      -0.000052      -0.000009
   5       0.000018      -0.000012      -0.000012
   6      -0.000019      -0.000015       0.000034
   7      -0.000006      -0.000006       0.000007
   8      -0.000001       0.000010       0.000005
   9      -0.000011       0.000025      -0.000032
  10      -0.000022      -0.000022      -0.000015
  11      -0.000007      -0.000013       0.000027
  12      -0.000026      -0.000021       0.000020
  13       0.000020       0.000018      -0.000004
  14      -0.000008       0.000009       0.000010
  15       0.000012       0.000008      -0.000002
  16       0.000000      -0.000020      -0.000022
  17       0.000014      -0.000010      -0.000005
  18       0.000013      -0.000009      -0.000010
  19      -0.000013       0.000006       0.000022
  20       0.000018       0.000017       0.000032
---------------------------------------------------
 Number of fixed atoms: 0
 Gradient time:  CPU 461.71 s  wall 37.65 s
 ######################################################
 ######################################################
 # Starting finite difference calculation for IDERIV  #
 Finite diff step size:  1.88973e-03 a.u.
 ----------------------------------------------------------------
             Standard Nuclear Orientation (Angstroms)
    I     Atom           X                Y                Z
 ----------------------------------------------------------------
    1      C       1.8625048000     0.2398532000    -1.5855449000
    2      O       0.9483314000     1.1062802000    -2.2306752000
    3      C       2.2758295000     0.8144919000    -0.2489284000
    4      O       1.7183297000     1.8559498000     0.1328669000
    5      C       3.2750197000     0.2134923000     0.5800773000
    6      C       4.1063245000    -0.9876678000     0.3051741000
    7      C       5.4882522000    -0.6128120000    -0.2437392000
    8      O       5.2995121000     0.1122062000    -1.4334828000
    9      O       6.1190503000     0.1576749000     0.7500929000
   10      H       2.7423711000     0.0945213000    -2.2106135000
   11      H       1.4043581000    -0.7374967000    -1.4187945000
   12      H       0.7477238000     1.8078395000    -1.5919038000
   13      H       3.4845306000     0.7442801000     1.4989838000
   14      H       4.2768165000    -1.5259730000     1.2405347000
   15      H       6.0578512000    -1.5211696000    -0.4412773000
   16      H       6.1106850000     0.0696793000    -1.9525353000
   17      H       7.0670603000     0.1574047000     0.5753338000
   18      O       3.5521451000    -1.8826220000    -0.6503487000
   19      O       2.4190158000    -2.5077842000    -0.0507016000
   20      H       2.8094038000    -3.2972980000     0.3550130000
 ----------------------------------------------------------------
 Nuclear Repulsion Energy =         680.41492071 hartrees
 There are       44 alpha and       43 beta electrons
 Discretize the solute cavity surface with Lebedev spheres
	Using 110 Lebedev grid points for each H atom
	Using 194 Lebedev grid points for other atoms
	Atomic van der Waals radii will be scaled by 1.20
 Remove points where switching function is < 1.0e-08
 Keep 1569 surface tesserae and discard 1555 interior tesserae
 Molecular Surface Area = 175.248 Angst**2
 Requested basis set is 6-311++G(2df,2p)
 There are 142 shells and 464 basis functions
 A cutoff of  1.0D-12 yielded   8701 shell pairs
 There are     92025 function pairs (    114194 Cartesian)
 Smallest overlap matrix eigenvalue = 5.77E-06
 Guess MOs from SCF MO coefficient file

 -----------------------------------------------------------------------
  General SCF calculation program by
  Eric Jon Sundstrom, Paul Horn, Yuezhi Mao, Dmitri Zuev, Alec White,
  David Stuck, Shaama M.S., Shane Yost, Joonho Lee, David Small,
  Daniel Levine, Susi Lehtola, Hugh Burton, Evgeny Epifanovsky,
  Bang C. Huynh
 -----------------------------------------------------------------------
 Exchange:     0.1500 Hartree-Fock + 1.0000 wB97M-V + LR-HF
 Correlation:  1.0000 wB97M-V
 Using SG-2 standard quadrature grid
 Nonlocal Correlation:  VV10 with C = 0.0100 and b = 6.00 and scale = 1.00000
 Grid used for NLC:  SG-1 standard quadrature
 
 Citation of the SMD model:
 Marenich, A.V.; Cramer, C.J.; Truhlar, D.G.
 J. Phys. Chem. B 2009, 113, 6378-6396.
 iSolventCode=           1
 Solvent: water                                                           
 
 vradii
            1           2           3           4           5           6
    1   1.8500000   1.5200000   1.8500000   1.5200000   1.8500000   1.8500000
            7           8           9          10          11          12
    1   1.8500000   1.5200000   1.5200000   1.2000000   1.2000000   1.2000000
           13          14          15          16          17          18
    1   1.2000000   1.2000000   1.2000000   1.2000000   1.2000000   1.5200000
           19          20
    1   1.5200000   1.2000000
 -------------------------------------------------------
 OpenMP BLAS3 based DFT computing Module                
 Release: version 1.0, May 2013, Q-Chem Inc. Pittsburgh 
 -------------------------------------------------------
 A unrestricted SCF calculation will be
 performed using Roothaan-Hall, DIIS, GDM
 SCF converges when RMS gradient is below 1.0e-07
 ---------------------------------------
  Cycle       Energy         DIIS error
 ---------------------------------------
    1    -647.1332466713      2.34e-04  Roothaan Step
 ---------------------------------------
  Cycle       Energy         DIIS error
 ---------------------------------------
    1    -647.1813587035      2.59e-04  
    2    -647.1887636044      2.15e-04  Done DIIS. Switching to GDM
 ---------------------------------------
  Cycle       Energy        RMS Gradient
 ---------------------------------------
    1    -647.1887636044      1.43e-02   Normal BFGS step
    2    -647.1882641510      2.31e-02  Line search: overstep
    3    -647.1919218578      4.55e-03   Normal BFGS step
    4    -647.1921803620      1.13e-03   Normal BFGS step
    5    -647.1922268526      1.00e-03   Normal BFGS step
    6    -647.1922388264      2.61e-04   Normal BFGS step
    7    -647.1922404783      1.61e-04   Normal BFGS step
    8    -647.1922408697      7.38e-05   Normal BFGS step
    9    -647.1922409493      2.71e-05   Normal BFGS step
   10    -647.1922409606      2.50e-05   Normal BFGS step
   11    -647.1922409647      1.12e-05   Normal BFGS step
   12    -647.1922409657      7.13e-06   Normal BFGS step
   13    -647.1922409661      3.04e-06   Normal BFGS step
   14    -647.1922409661      6.64e-07   Normal BFGS step
   15    -647.1922409662      2.99e-07   Normal BFGS step
   16    -647.1922409662      1.95e-07   Normal BFGS step
   17    -647.1922409662      1.37e-07   Normal BFGS step
  GDM::WARNING energy changes are now smaller than effective accuracy.
  GDM::        calculation will continue, but THRESH should be increased
  GDM::        or SCF_CONVERGENCE decreased. 
  GDM::        effective_thresh = 4.11e-09
   18    -647.1922409662      9.95e-08  Convergence criterion met
 ---------------------------------------
 SCF time:   CPU 3039.50s  wall 209.00s 
<S^2> =          0.760565843
(3)  G-ENP(liq) elect-nuc-pol free energy of system     -647.192240966 a.u.
(4)  G-CDS(liq) cavity-dispersion-solvent structure 
     free energy                                                4.6540 kcal/mol
(6)  G-S(liq) free energy of system                     -647.184824368 a.u.
 SCF   energy in the final basis set =     -647.1848243683
 Total energy in the final basis set =     -647.1848243683
 
 --------------------------------------------------------------
 
                    Orbital Energies (a.u.)
 --------------------------------------------------------------
 
 Alpha MOs
 -- Occupied --
-19.4099 -19.4004 -19.3503 -19.3501 -19.3443 -19.3366 -10.4593 -10.4429
-10.4175 -10.3902 -10.3889  -1.2787  -1.2080  -1.1974  -1.1493  -1.1418
 -1.0602  -0.9248  -0.8620  -0.8127  -0.7393  -0.6925  -0.6695  -0.6671
 -0.6425  -0.6108  -0.6089  -0.5950  -0.5861  -0.5731  -0.5482  -0.5344
 -0.5112  -0.5095  -0.5063  -0.4736  -0.4653  -0.4241  -0.4214  -0.4169
 -0.4086  -0.3963  -0.3893  -0.3402
 -- Virtual --
  0.0231   0.0356   0.0371   0.0417   0.0591   0.0603   0.0688   0.0715
  0.0750   0.0860   0.1011   0.1076   0.1114   0.1244   0.1275   0.1331
  0.1386   0.1470   0.1547   0.1555   0.1628   0.1687   0.1702   0.1749
  0.1819   0.1859   0.1924   0.2012   0.2145   0.2188   0.2303   0.2367
  0.2429   0.2562   0.2584   0.2695   0.2748   0.2776   0.2867   0.2942
  0.3016   0.3048   0.3136   0.3147   0.3168   0.3240   0.3325   0.3393
  0.3459   0.3476   0.3551   0.3565   0.3593   0.3690   0.3768   0.3804
  0.3859   0.3908   0.3944   0.4070   0.4141   0.4157   0.4236   0.4341
  0.4370   0.4441   0.4673   0.4776   0.4867   0.5076   0.5172   0.5231
  0.5457   0.5557   0.5738   0.6006   0.6044   0.6189   0.6239   0.6317
  0.6370   0.6523   0.6589   0.6636   0.6798   0.6854   0.6935   0.6987
  0.7053   0.7162   0.7292   0.7460   0.7491   0.7601   0.7694   0.7729
  0.7877   0.8015   0.8114   0.8320   0.8458   0.8632   0.8824   0.8890
  0.9040   0.9312   0.9407   0.9416   0.9512   0.9666   0.9817   1.0086
  1.0477   1.0556   1.0580   1.0666   1.0868   1.1044   1.1135   1.1355
  1.1461   1.1586   1.1713   1.1751   1.1819   1.1860   1.1962   1.2007
  1.2098   1.2171   1.2206   1.2266   1.2411   1.2468   1.2533   1.2825
  1.2954   1.3049   1.3123   1.3245   1.3341   1.3456   1.3520   1.3620
  1.3821   1.3926   1.3986   1.4263   1.4400   1.4449   1.4506   1.4605
  1.4654   1.4876   1.4910   1.5202   1.5271   1.5400   1.5483   1.5594
  1.5664   1.5778   1.6018   1.6035   1.6278   1.6475   1.6575   1.6697
  1.6896   1.6967   1.7207   1.7460   1.7688   1.7893   1.8111   1.8343
  1.8475   1.8671   1.8738   1.9061   1.9272   1.9491   1.9725   1.9813
  2.0253   2.0377   2.0494   2.1031   2.1427   2.1728   2.2196   2.2411
  2.2542   2.2798   2.2862   2.3299   2.3547   2.3883   2.4035   2.4112
  2.4344   2.4504   2.4646   2.4824   2.5159   2.5399   2.5899   2.5961
  2.6743   2.6935   2.7144   2.7704   2.7789   2.8046   2.8172   2.8332
  2.8382   2.8545   2.8842   2.9048   2.9139   2.9265   2.9597   2.9815
  3.0156   3.0401   3.0543   3.0868   3.1167   3.1227   3.1479   3.1672
  3.1866   3.2085   3.2327   3.2400   3.2624   3.2883   3.3337   3.3440
  3.3658   3.3842   3.4000   3.4296   3.4534   3.4679   3.4841   3.4904
  3.5012   3.5230   3.5373   3.5446   3.5516   3.5993   3.6246   3.6324
  3.6711   3.6860   3.6980   3.7103   3.7116   3.7275   3.7605   3.7703
  3.7897   3.8106   3.8234   3.8314   3.8335   3.8451   3.8649   3.8867
  3.9167   3.9234   3.9399   3.9560   3.9899   4.0031   4.0382   4.0621
  4.0678   4.0926   4.1023   4.1340   4.1625   4.1793   4.1983   4.2199
  4.2281   4.2638   4.2713   4.2906   4.3044   4.3214   4.3320   4.3403
  4.3569   4.4058   4.4401   4.4480   4.4688   4.4923   4.5189   4.5456
  4.5699   4.5861   4.6290   4.6656   4.6990   4.7050   4.7297   4.8073
  4.8229   4.8938   4.9707   5.0076   5.0875   5.1013   5.1895   5.2017
  5.2120   5.2142   5.2206   5.2359   5.2505   5.2793   5.2943   5.3121
  5.3194   5.3314   5.3352   5.3442   5.3562   5.3878   5.4182   5.4262
  5.4361   5.4415   5.4675   5.5035   5.5193   5.5249   5.5326   5.5467
  5.5798   5.6011   5.6120   5.6120   5.6212   5.6426   5.6686   5.6701
  5.6806   5.7114   5.7206   5.7614   5.8485   5.8687   5.8873   5.9190
  5.9397   6.0223   6.0421   6.0690   6.0865   6.1754   6.2670   6.2802
  6.5445   6.6271   6.6647   6.7292   6.7480   6.8581   6.9565   7.0119
  7.0269   7.0604   7.0842   7.1007   7.1422   7.1583   7.1697   7.2377
  7.2545   7.2700   7.2822   7.2901   7.3267   7.3542   7.3635   7.3880
  7.4076   7.4464   7.4549   7.4824   7.5518   7.6203   7.6294   7.6406
  7.6831   7.7082   7.7602   7.8095   7.8397   7.8518   7.8893   7.9762
  8.2066  24.5591  24.7463  24.7876  24.8505  25.0960  50.5055  50.5690
 50.6113  50.6216  50.6530  50.7358
 
 Beta MOs
 -- Occupied --
-19.4098 -19.4003 -19.3503 -19.3500 -19.3377 -19.3365 -10.4583 -10.4438
-10.4181 -10.3902 -10.3783  -1.2784  -1.2075  -1.1893  -1.1462  -1.1416
 -1.0592  -0.9087  -0.8586  -0.8040  -0.7348  -0.6899  -0.6671  -0.6651
 -0.6399  -0.6077  -0.6051  -0.5907  -0.5802  -0.5697  -0.5420  -0.5315
 -0.5085  -0.5049  -0.4836  -0.4662  -0.4599  -0.4232  -0.4207  -0.4162
 -0.4058  -0.3913  -0.3819
 -- Virtual --
 -0.0497   0.0231   0.0359   0.0371   0.0419   0.0593   0.0604   0.0688
  0.0719   0.0782   0.0995   0.1041   0.1094   0.1140   0.1265   0.1277
  0.1331   0.1386   0.1479   0.1551   0.1587   0.1660   0.1697   0.1728
  0.1750   0.1827   0.1860   0.1926   0.2013   0.2144   0.2191   0.2315
  0.2372   0.2444   0.2570   0.2592   0.2708   0.2752   0.2783   0.2894
  0.2950   0.3017   0.3055   0.3152   0.3156   0.3186   0.3263   0.3352
  0.3407   0.3472   0.3506   0.3572   0.3575   0.3617   0.3700   0.3775
  0.3833   0.3868   0.3911   0.3964   0.4074   0.4145   0.4165   0.4246
  0.4346   0.4377   0.4470   0.4690   0.4782   0.4872   0.5084   0.5170
  0.5282   0.5480   0.5580   0.5777   0.6041   0.6057   0.6215   0.6271
  0.6357   0.6376   0.6537   0.6620   0.6668   0.6830   0.6904   0.6959
  0.7007   0.7115   0.7207   0.7312   0.7494   0.7540   0.7639   0.7710
  0.7744   0.7898   0.8040   0.8131   0.8328   0.8481   0.8650   0.8856
  0.8930   0.9073   0.9342   0.9408   0.9429   0.9531   0.9706   0.9833
  1.0123   1.0497   1.0567   1.0582   1.0674   1.0868   1.1053   1.1161
  1.1366   1.1468   1.1592   1.1728   1.1765   1.1859   1.1878   1.1980
  1.2028   1.2112   1.2192   1.2255   1.2300   1.2423   1.2514   1.2542
  1.2851   1.2963   1.3083   1.3160   1.3269   1.3369   1.3473   1.3536
  1.3655   1.3868   1.3948   1.4030   1.4304   1.4419   1.4460   1.4547
  1.4632   1.4687   1.4914   1.4931   1.5233   1.5283   1.5427   1.5509
  1.5628   1.5694   1.5789   1.6037   1.6073   1.6336   1.6490   1.6595
  1.6719   1.6920   1.7002   1.7225   1.7554   1.7709   1.7914   1.8147
  1.8376   1.8530   1.8730   1.8800   1.9107   1.9289   1.9512   1.9762
  1.9854   2.0303   2.0416   2.0521   2.1048   2.1447   2.1759   2.2229
  2.2453   2.2562   2.2818   2.2877   2.3317   2.3572   2.3900   2.4051
  2.4132   2.4363   2.4516   2.4669   2.4841   2.5200   2.5456   2.5959
  2.6034   2.6820   2.6971   2.7172   2.7785   2.7913   2.8190   2.8235
  2.8382   2.8495   2.8629   2.8927   2.9085   2.9275   2.9373   2.9766
  3.0301   3.0311   3.0544   3.0636   3.0977   3.1349   3.1384   3.1590
  3.1735   3.1970   3.2164   3.2442   3.2538   3.2709   3.2997   3.3386
  3.3538   3.3779   3.3913   3.4139   3.4417   3.4649   3.4778   3.4878
  3.4954   3.5109   3.5283   3.5451   3.5523   3.5615   3.6154   3.6371
  3.6406   3.6766   3.6944   3.7065   3.7175   3.7264   3.7382   3.7663
  3.7761   3.8003   3.8131   3.8273   3.8326   3.8382   3.8573   3.8675
  3.8926   3.9232   3.9262   3.9456   3.9642   3.9970   4.0089   4.0449
  4.0665   4.0771   4.1029   4.1114   4.1371   4.1676   4.1862   4.2031
  4.2252   4.2372   4.2689   4.2760   4.2925   4.3124   4.3288   4.3430
  4.3482   4.3632   4.4180   4.4433   4.4525   4.4781   4.5012   4.5344
  4.5519   4.5881   4.5992   4.6484   4.6804   4.7083   4.7108   4.7339
  4.8157   4.8276   4.8976   4.9762   5.0183   5.0931   5.1130   5.2055
  5.2128   5.2146   5.2172   5.2287   5.2495   5.2709   5.2814   5.2970
  5.3138   5.3208   5.3334   5.3401   5.3455   5.3573   5.3907   5.4198
  5.4294   5.4383   5.4461   5.4730   5.5084   5.5222   5.5299   5.5412
  5.5551   5.5821   5.6036   5.6137   5.6196   5.6271   5.6463   5.6700
  5.6808   5.6836   5.7141   5.7373   5.7738   5.8521   5.8760   5.8956
  5.9202   5.9445   6.0242   6.0428   6.0699   6.0874   6.1762   6.2677
  6.2963   6.5456   6.6277   6.6656   6.7364   6.7487   6.8584   6.9872
  7.0124   7.0272   7.0788   7.0906   7.1026   7.1443   7.1613   7.1711
  7.2381   7.2556   7.2706   7.2825   7.3016   7.3279   7.3545   7.3645
  7.3900   7.4198   7.4490   7.4591   7.4830   7.5522   7.6213   7.6333
  7.6439   7.6836   7.7084   7.7687   7.8097   7.8423   7.8545   7.8896
  7.9766   8.2069  24.5655  24.7479  24.7885  24.8510  25.0985  50.5056
 50.5691  50.6114  50.6218  50.6531  50.7405
 --------------------------------------------------------------
 
          Ground-State Mulliken Net Atomic Charges

     Atom                 Charge (a.u.)    Spin (a.u.)
  --------------------------------------------------------
      1 C                    -0.334074       0.006335
      2 O                    -0.487491       0.003298
      3 C                     0.209040       0.030156
      4 O                    -0.476931       0.234949
      5 C                    -0.009928       0.710408
      6 C                    -0.234254      -0.072565
      7 C                    -0.175761       0.064559
      8 O                    -0.425357       0.007597
      9 O                    -0.411519       0.001891
     10 H                     0.236347       0.002291
     11 H                     0.226897       0.002074
     12 H                     0.326021      -0.001559
     13 H                     0.333165      -0.014350
     14 H                     0.304868       0.019407
     15 H                     0.258296      -0.001754
     16 H                     0.359286      -0.000657
     17 H                     0.350773       0.000004
     18 O                    -0.091010       0.001865
     19 O                    -0.305832       0.006307
     20 H                     0.347462      -0.000255
  --------------------------------------------------------
  Sum of atomic charges =    -0.000000
  Sum of spin   charges =     1.000000

 -----------------------------------------------------------------
                    Cartesian Multipole Moments
 -----------------------------------------------------------------
    Charge (ESU x 10^10)
                -0.0000
    Dipole Moment (Debye)
         X       8.8031      Y      -6.3810      Z       2.6726
       Tot      11.1962
    Quadrupole Moments (Debye-Ang)
        XX       6.6445     XY     -21.5414     YY     -62.4753
        XZ      -2.4149     YZ      -3.4148     ZZ     -71.3718
    Octopole Moments (Debye-Ang^2)
       XXX    -122.8167    XXY     -79.3393    XYY    -202.4698
       YYY     -22.6792    XXZ     -22.3236    XYZ     -13.5463
       YYZ      41.9842    XZZ    -210.5645    YZZ      -0.1780
       ZZZ     104.8665
    Hexadecapole Moments (Debye-Ang^3)
      XXXX   -1608.3167   XXXY    -207.1749   XXYY    -968.4273
      XYYY      51.4034   YYYY    -545.0655   XXXZ    -271.8651
      XXYZ     -32.0517   XYYZ     102.3183   YYYZ     -24.4242
      XXZZ    -918.3121   XYZZ      62.3241   YYZZ    -207.3397
      XZZZ     129.7653   YZZZ      59.7525   ZZZZ    -555.9569
 -----------------------------------------------------------------
 Calculating analytic gradient of the SCF energy
 Gradient of CDS energy
            1           2           3           4           5           6
    1  -0.0008612   0.0004840  -0.0010100   0.0008734   0.0000499   0.0000548
    2   0.0001763  -0.0004153   0.0019327  -0.0014675  -0.0000432  -0.0001781
    3  -0.0013175   0.0003299   0.0007986  -0.0003842   0.0002350  -0.0001264
            7           8           9          10          11          12
    1   0.0009724   0.0001278  -0.0013193   0.0001889   0.0001617  -0.0003006
    2   0.0020112  -0.0010168  -0.0012004  -0.0000813  -0.0001092   0.0002899
    3   0.0000090   0.0019522  -0.0017564   0.0001891   0.0002064  -0.0001342
           13          14          15          16          17          18
    1   0.0001052  -0.0000081  -0.0000272   0.0001419   0.0004285  -0.0000957
    2   0.0000782  -0.0000048  -0.0001583   0.0001307   0.0001618   0.0001203
    3   0.0001389   0.0001662  -0.0000795  -0.0004906   0.0002629   0.0000213
           19          20
    1   0.0001095  -0.0000757
    2   0.0002475  -0.0004738
    3  -0.0001714   0.0001508
 Gradient of SCF Energy
            1           2           3           4           5           6
    1   0.0053707  -0.0051004  -0.0001237   0.0005369   0.0008113  -0.0031954
    2  -0.0085098   0.0055360   0.0054842   0.0005644  -0.0057421   0.0100164
    3  -0.0000001  -0.0044041   0.0060684   0.0002630  -0.0055085  -0.0151294
            7           8           9          10          11          12
    1  -0.0135829  -0.0188098  -0.0221499  -0.0039471   0.0017421   0.0012987
    2   0.0166686   0.0027402   0.0041068   0.0004265   0.0031081  -0.0041308
    3   0.0034755   0.0101585   0.0047857   0.0036429   0.0006478  -0.0018903
           13          14          15          16          17          18
    1   0.0016522   0.0025042   0.0114941   0.0192488   0.0216618   0.0006930
    2  -0.0009742  -0.0089813  -0.0138295  -0.0031170  -0.0031287   0.0002474
    3   0.0038483   0.0118365  -0.0027934  -0.0087607  -0.0058205  -0.0016675
           19          20
    1  -0.0097620   0.0096573
    2   0.0143027  -0.0147879
    3  -0.0088077   0.0100557
 Max gradient component =       2.215E-02
 RMS gradient           =       8.682E-03
 Computing fast CPCM-SWIG gradient
 Updating gradient with PCM contributions...
 -- total gradient after adding PCM contribution --
---------------------------------------------------
  Atom         X              Y              Z     
---------------------------------------------------
   1       0.001109      -0.000089      -0.000063
   2      -0.000303       0.000228      -0.000190
   3      -0.000222       0.000057      -0.000046
   4       0.000055      -0.000016       0.000005
   5       0.000024      -0.000021      -0.000045
   6      -0.000021      -0.000015       0.000034
   7      -0.000007      -0.000006       0.000006
   8       0.000000       0.000011       0.000005
   9      -0.000011       0.000025      -0.000032
  10      -0.000423       0.000016       0.000236
  11      -0.000202      -0.000216       0.000053
  12      -0.000052       0.000002       0.000017
  13       0.000019       0.000022      -0.000007
  14      -0.000007       0.000008       0.000010
  15       0.000012       0.000008      -0.000002
  16       0.000000      -0.000020      -0.000022
  17       0.000013      -0.000010      -0.000005
  18       0.000010      -0.000006      -0.000011
  19      -0.000014       0.000005       0.000023
  20       0.000018       0.000017       0.000033
---------------------------------------------------
 Number of fixed atoms: 0
 Gradient time:  CPU 470.36 s  wall 38.19 s
 ----------------------------------------------------------------
             Standard Nuclear Orientation (Angstroms)
    I     Atom           X                Y                Z
 ----------------------------------------------------------------
    1      C       1.8605048000     0.2398532000    -1.5855449000
    2      O       0.9483314000     1.1062802000    -2.2306752000
    3      C       2.2758295000     0.8144919000    -0.2489284000
    4      O       1.7183297000     1.8559498000     0.1328669000
    5      C       3.2750197000     0.2134923000     0.5800773000
    6      C       4.1063245000    -0.9876678000     0.3051741000
    7      C       5.4882522000    -0.6128120000    -0.2437392000
    8      O       5.2995121000     0.1122062000    -1.4334828000
    9      O       6.1190503000     0.1576749000     0.7500929000
   10      H       2.7423711000     0.0945213000    -2.2106135000
   11      H       1.4043581000    -0.7374967000    -1.4187945000
   12      H       0.7477238000     1.8078395000    -1.5919038000
   13      H       3.4845306000     0.7442801000     1.4989838000
   14      H       4.2768165000    -1.5259730000     1.2405347000
   15      H       6.0578512000    -1.5211696000    -0.4412773000
   16      H       6.1106850000     0.0696793000    -1.9525353000
   17      H       7.0670603000     0.1574047000     0.5753338000
   18      O       3.5521451000    -1.8826220000    -0.6503487000
   19      O       2.4190158000    -2.5077842000    -0.0507016000
   20      H       2.8094038000    -3.2972980000     0.3550130000
 ----------------------------------------------------------------
 Nuclear Repulsion Energy =         680.40621777 hartrees
 There are       44 alpha and       43 beta electrons
 Discretize the solute cavity surface with Lebedev spheres
	Using 110 Lebedev grid points for each H atom
	Using 194 Lebedev grid points for other atoms
	Atomic van der Waals radii will be scaled by 1.20
 Remove points where switching function is < 1.0e-08
 Keep 1568 surface tesserae and discard 1556 interior tesserae
 Molecular Surface Area = 175.254 Angst**2
 Requested basis set is 6-311++G(2df,2p)
 There are 142 shells and 464 basis functions
 A cutoff of  1.0D-12 yielded   8701 shell pairs
 There are     92025 function pairs (    114194 Cartesian)
 Smallest overlap matrix eigenvalue = 5.78E-06
 Guess MOs from SCF MO coefficient file

 -----------------------------------------------------------------------
  General SCF calculation program by
  Eric Jon Sundstrom, Paul Horn, Yuezhi Mao, Dmitri Zuev, Alec White,
  David Stuck, Shaama M.S., Shane Yost, Joonho Lee, David Small,
  Daniel Levine, Susi Lehtola, Hugh Burton, Evgeny Epifanovsky,
  Bang C. Huynh
 -----------------------------------------------------------------------
 Exchange:     0.1500 Hartree-Fock + 1.0000 wB97M-V + LR-HF
 Correlation:  1.0000 wB97M-V
 Using SG-2 standard quadrature grid
 Nonlocal Correlation:  VV10 with C = 0.0100 and b = 6.00 and scale = 1.00000
 Grid used for NLC:  SG-1 standard quadrature
 
 Citation of the SMD model:
 Marenich, A.V.; Cramer, C.J.; Truhlar, D.G.
 J. Phys. Chem. B 2009, 113, 6378-6396.
 iSolventCode=           1
 Solvent: water                                                           
 
 vradii
            1           2           3           4           5           6
    1   1.8500000   1.5200000   1.8500000   1.5200000   1.8500000   1.8500000
            7           8           9          10          11          12
    1   1.8500000   1.5200000   1.5200000   1.2000000   1.2000000   1.2000000
           13          14          15          16          17          18
    1   1.2000000   1.2000000   1.2000000   1.2000000   1.2000000   1.5200000
           19          20
    1   1.5200000   1.2000000
 -------------------------------------------------------
 OpenMP BLAS3 based DFT computing Module                
 Release: version 1.0, May 2013, Q-Chem Inc. Pittsburgh 
 -------------------------------------------------------
 A unrestricted SCF calculation will be
 performed using Roothaan-Hall, DIIS, GDM
 SCF converges when RMS gradient is below 1.0e-07
 ---------------------------------------
  Cycle       Energy         DIIS error
 ---------------------------------------
    1    -647.1332470587      2.34e-04  Roothaan Step
 ---------------------------------------
  Cycle       Energy         DIIS error
 ---------------------------------------
    1    -647.1813735329      2.58e-04  
    2    -647.1887765122      2.14e-04  Done DIIS. Switching to GDM
 ---------------------------------------
  Cycle       Energy        RMS Gradient
 ---------------------------------------
    1    -647.1887765122      1.43e-02   Normal BFGS step
    2    -647.1882785630      2.31e-02  Line search: overstep
    3    -647.1919256510      4.55e-03   Normal BFGS step
    4    -647.1921840002      1.13e-03   Normal BFGS step
    5    -647.1922304737      1.00e-03   Normal BFGS step
    6    -647.1922424247      2.60e-04   Normal BFGS step
    7    -647.1922440787      1.60e-04   Normal BFGS step
    8    -647.1922444715      7.41e-05   Normal BFGS step
    9    -647.1922445517      2.74e-05   Normal BFGS step
   10    -647.1922445632      2.55e-05   Normal BFGS step
   11    -647.1922445674      1.15e-05   Normal BFGS step
   12    -647.1922445685      7.07e-06   Normal BFGS step
   13    -647.1922445689      2.92e-06   Normal BFGS step
   14    -647.1922445689      9.82e-07   Normal BFGS step
   15    -647.1922445689      7.28e-07   Normal BFGS step
   16    -647.1922445689      5.00e-07   Normal BFGS step
   17    -647.1922445690      3.22e-07   Normal BFGS step
   18    -647.1922445690      1.77e-07   Normal BFGS step
   19    -647.1922445690      4.66e-08  Convergence criterion met
 ---------------------------------------
 SCF time:   CPU 3154.39s  wall 217.00s 
<S^2> =          0.760562235
(3)  G-ENP(liq) elect-nuc-pol free energy of system     -647.192244569 a.u.
(4)  G-CDS(liq) cavity-dispersion-solvent structure 
     free energy                                                4.6563 kcal/mol
(6)  G-S(liq) free energy of system                     -647.184824355 a.u.
 SCF   energy in the final basis set =     -647.1848243550
 Total energy in the final basis set =     -647.1848243550
 
 --------------------------------------------------------------
 
                    Orbital Energies (a.u.)
 --------------------------------------------------------------
 
 Alpha MOs
 -- Occupied --
-19.4098 -19.4004 -19.3503 -19.3501 -19.3443 -19.3366 -10.4593 -10.4428
-10.4175 -10.3902 -10.3889  -1.2787  -1.2080  -1.1975  -1.1497  -1.1418
 -1.0602  -0.9247  -0.8619  -0.8126  -0.7393  -0.6925  -0.6695  -0.6671
 -0.6425  -0.6108  -0.6089  -0.5950  -0.5861  -0.5732  -0.5482  -0.5345
 -0.5112  -0.5096  -0.5063  -0.4735  -0.4653  -0.4241  -0.4214  -0.4169
 -0.4085  -0.3963  -0.3893  -0.3402
 -- Virtual --
  0.0231   0.0356   0.0371   0.0417   0.0591   0.0603   0.0688   0.0715
  0.0751   0.0860   0.1011   0.1076   0.1114   0.1244   0.1275   0.1331
  0.1386   0.1470   0.1547   0.1555   0.1628   0.1687   0.1702   0.1748
  0.1819   0.1859   0.1924   0.2012   0.2145   0.2188   0.2303   0.2368
  0.2429   0.2563   0.2584   0.2695   0.2748   0.2775   0.2867   0.2941
  0.3016   0.3047   0.3137   0.3147   0.3168   0.3239   0.3325   0.3394
  0.3459   0.3476   0.3551   0.3566   0.3593   0.3691   0.3768   0.3804
  0.3859   0.3908   0.3944   0.4070   0.4141   0.4157   0.4236   0.4341
  0.4370   0.4441   0.4673   0.4776   0.4867   0.5076   0.5173   0.5231
  0.5459   0.5556   0.5737   0.6006   0.6043   0.6189   0.6239   0.6317
  0.6370   0.6523   0.6588   0.6636   0.6799   0.6854   0.6935   0.6985
  0.7054   0.7162   0.7291   0.7460   0.7491   0.7602   0.7694   0.7730
  0.7877   0.8015   0.8114   0.8320   0.8458   0.8632   0.8824   0.8890
  0.9040   0.9313   0.9407   0.9416   0.9512   0.9666   0.9817   1.0086
  1.0477   1.0555   1.0580   1.0666   1.0868   1.1045   1.1134   1.1356
  1.1461   1.1586   1.1713   1.1751   1.1819   1.1860   1.1962   1.2007
  1.2097   1.2171   1.2206   1.2266   1.2410   1.2468   1.2533   1.2825
  1.2954   1.3049   1.3124   1.3245   1.3341   1.3456   1.3520   1.3620
  1.3821   1.3926   1.3984   1.4263   1.4401   1.4448   1.4507   1.4604
  1.4654   1.4876   1.4908   1.5201   1.5271   1.5400   1.5482   1.5593
  1.5665   1.5778   1.6018   1.6035   1.6277   1.6474   1.6574   1.6696
  1.6896   1.6966   1.7207   1.7459   1.7688   1.7892   1.8111   1.8342
  1.8476   1.8671   1.8737   1.9060   1.9272   1.9491   1.9728   1.9815
  2.0257   2.0377   2.0493   2.1031   2.1427   2.1729   2.2196   2.2411
  2.2543   2.2800   2.2865   2.3299   2.3548   2.3883   2.4040   2.4113
  2.4343   2.4505   2.4646   2.4824   2.5156   2.5401   2.5899   2.5958
  2.6743   2.6935   2.7144   2.7705   2.7789   2.8046   2.8171   2.8330
  2.8384   2.8545   2.8843   2.9048   2.9142   2.9265   2.9598   2.9816
  3.0157   3.0401   3.0544   3.0867   3.1167   3.1232   3.1479   3.1672
  3.1866   3.2085   3.2324   3.2400   3.2623   3.2881   3.3337   3.3440
  3.3659   3.3844   3.3999   3.4295   3.4537   3.4681   3.4843   3.4904
  3.5013   3.5228   3.5373   3.5447   3.5515   3.5994   3.6247   3.6324
  3.6710   3.6859   3.6982   3.7103   3.7115   3.7276   3.7610   3.7704
  3.7898   3.8105   3.8234   3.8313   3.8336   3.8449   3.8648   3.8867
  3.9167   3.9233   3.9398   3.9560   3.9897   4.0030   4.0366   4.0621
  4.0677   4.0924   4.1023   4.1339   4.1623   4.1791   4.1982   4.2198
  4.2279   4.2638   4.2714   4.2905   4.3043   4.3213   4.3321   4.3401
  4.3568   4.4055   4.4401   4.4475   4.4688   4.4928   4.5179   4.5448
  4.5696   4.5860   4.6289   4.6653   4.6978   4.7050   4.7297   4.8073
  4.8229   4.8938   4.9707   5.0075   5.0874   5.1012   5.1895   5.2017
  5.2119   5.2141   5.2204   5.2359   5.2504   5.2792   5.2942   5.3121
  5.3195   5.3317   5.3352   5.3443   5.3562   5.3877   5.4183   5.4262
  5.4361   5.4414   5.4676   5.5037   5.5193   5.5250   5.5328   5.5467
  5.5798   5.6010   5.6120   5.6121   5.6212   5.6426   5.6684   5.6700
  5.6806   5.7117   5.7211   5.7614   5.8486   5.8687   5.8875   5.9203
  5.9396   6.0238   6.0421   6.0690   6.0865   6.1754   6.2670   6.2802
  6.5445   6.6302   6.6646   6.7289   6.7480   6.8581   6.9565   7.0119
  7.0269   7.0605   7.0842   7.1008   7.1421   7.1583   7.1697   7.2377
  7.2545   7.2700   7.2822   7.2905   7.3269   7.3542   7.3636   7.3881
  7.4078   7.4465   7.4550   7.4824   7.5518   7.6204   7.6297   7.6408
  7.6831   7.7082   7.7603   7.8095   7.8397   7.8518   7.8893   7.9762
  8.2066  24.5593  24.7462  24.7881  24.8507  25.0956  50.5055  50.5690
 50.6113  50.6221  50.6530  50.7358
 
 Beta MOs
 -- Occupied --
-19.4097 -19.4003 -19.3503 -19.3500 -19.3377 -19.3365 -10.4583 -10.4438
-10.4181 -10.3902 -10.3783  -1.2784  -1.2075  -1.1894  -1.1465  -1.1416
 -1.0592  -0.9087  -0.8585  -0.8039  -0.7348  -0.6899  -0.6671  -0.6652
 -0.6399  -0.6077  -0.6052  -0.5907  -0.5802  -0.5698  -0.5420  -0.5316
 -0.5085  -0.5049  -0.4837  -0.4661  -0.4599  -0.4232  -0.4207  -0.4162
 -0.4057  -0.3912  -0.3819
 -- Virtual --
 -0.0497   0.0231   0.0359   0.0371   0.0419   0.0593   0.0604   0.0688
  0.0719   0.0782   0.0995   0.1041   0.1094   0.1140   0.1265   0.1277
  0.1331   0.1386   0.1479   0.1551   0.1587   0.1660   0.1697   0.1728
  0.1750   0.1827   0.1860   0.1926   0.2013   0.2144   0.2191   0.2315
  0.2373   0.2444   0.2570   0.2591   0.2708   0.2752   0.2783   0.2894
  0.2950   0.3017   0.3055   0.3152   0.3157   0.3186   0.3263   0.3352
  0.3407   0.3472   0.3506   0.3572   0.3575   0.3617   0.3700   0.3775
  0.3833   0.3868   0.3911   0.3965   0.4074   0.4145   0.4166   0.4247
  0.4346   0.4378   0.4469   0.4690   0.4782   0.4872   0.5084   0.5171
  0.5282   0.5482   0.5579   0.5776   0.6041   0.6057   0.6215   0.6271
  0.6357   0.6375   0.6537   0.6619   0.6668   0.6830   0.6904   0.6959
  0.7005   0.7115   0.7207   0.7312   0.7495   0.7540   0.7640   0.7710
  0.7745   0.7898   0.8040   0.8131   0.8327   0.8481   0.8650   0.8856
  0.8930   0.9073   0.9342   0.9407   0.9429   0.9531   0.9705   0.9833
  1.0123   1.0497   1.0567   1.0582   1.0675   1.0868   1.1053   1.1160
  1.1366   1.1468   1.1591   1.1728   1.1764   1.1859   1.1878   1.1980
  1.2028   1.2112   1.2192   1.2255   1.2299   1.2423   1.2513   1.2542
  1.2851   1.2963   1.3083   1.3160   1.3268   1.3369   1.3473   1.3536
  1.3654   1.3868   1.3948   1.4028   1.4304   1.4421   1.4459   1.4548
  1.4631   1.4687   1.4914   1.4930   1.5232   1.5283   1.5427   1.5509
  1.5627   1.5694   1.5789   1.6036   1.6073   1.6335   1.6490   1.6594
  1.6717   1.6920   1.7001   1.7225   1.7553   1.7709   1.7913   1.8147
  1.8375   1.8531   1.8730   1.8799   1.9107   1.9290   1.9512   1.9764
  1.9856   2.0307   2.0415   2.0521   2.1048   2.1447   2.1760   2.2228
  2.2453   2.2562   2.2819   2.2881   2.3318   2.3572   2.3900   2.4056
  2.4133   2.4362   2.4517   2.4668   2.4841   2.5198   2.5458   2.5959
  2.6030   2.6820   2.6971   2.7172   2.7785   2.7913   2.8190   2.8235
  2.8383   2.8496   2.8629   2.8929   2.9084   2.9277   2.9372   2.9768
  3.0301   3.0311   3.0543   3.0636   3.0977   3.1353   3.1385   3.1590
  3.1734   3.1970   3.2163   3.2439   3.2539   3.2709   3.2995   3.3386
  3.3538   3.3780   3.3915   3.4139   3.4417   3.4652   3.4779   3.4882
  3.4953   3.5110   3.5282   3.5451   3.5525   3.5614   3.6155   3.6372
  3.6406   3.6765   3.6943   3.7068   3.7174   3.7262   3.7382   3.7667
  3.7762   3.8006   3.8130   3.8273   3.8325   3.8383   3.8571   3.8674
  3.8925   3.9233   3.9261   3.9455   3.9642   3.9967   4.0088   4.0432
  4.0665   4.0770   4.1027   4.1114   4.1370   4.1673   4.1861   4.2029
  4.2251   4.2370   4.2689   4.2761   4.2924   4.3123   4.3287   4.3429
  4.3483   4.3631   4.4178   4.4434   4.4517   4.4781   4.5015   4.5331
  4.5513   4.5878   4.5992   4.6484   4.6802   4.7083   4.7096   4.7338
  4.8157   4.8276   4.8976   4.9762   5.0182   5.0930   5.1129   5.2054
  5.2128   5.2145   5.2170   5.2286   5.2496   5.2707   5.2813   5.2970
  5.3138   5.3209   5.3337   5.3401   5.3455   5.3573   5.3907   5.4199
  5.4294   5.4383   5.4461   5.4730   5.5085   5.5222   5.5300   5.5414
  5.5551   5.5821   5.6034   5.6137   5.6196   5.6271   5.6463   5.6700
  5.6807   5.6835   5.7146   5.7375   5.7739   5.8522   5.8760   5.8960
  5.9214   5.9444   6.0257   6.0428   6.0699   6.0874   6.1762   6.2677
  6.2962   6.5456   6.6308   6.6655   6.7362   6.7487   6.8584   6.9871
  7.0124   7.0272   7.0789   7.0907   7.1026   7.1442   7.1613   7.1711
  7.2381   7.2556   7.2706   7.2825   7.3022   7.3281   7.3545   7.3646
  7.3900   7.4199   7.4491   7.4592   7.4830   7.5522   7.6213   7.6337
  7.6439   7.6836   7.7084   7.7687   7.8097   7.8422   7.8546   7.8896
  7.9766   8.2069  24.5657  24.7478  24.7890  24.8511  25.0981  50.5056
 50.5691  50.6114  50.6223  50.6531  50.7405
 --------------------------------------------------------------
 
          Ground-State Mulliken Net Atomic Charges

     Atom                 Charge (a.u.)    Spin (a.u.)
  --------------------------------------------------------
      1 C                    -0.333227       0.006334
      2 O                    -0.486893       0.003309
      3 C                     0.208681       0.030162
      4 O                    -0.476982       0.234890
      5 C                    -0.010007       0.710469
      6 C                    -0.234405      -0.072551
      7 C                    -0.175771       0.064545
      8 O                    -0.425392       0.007597
      9 O                    -0.411523       0.001890
     10 H                     0.235625       0.002299
     11 H                     0.226846       0.002059
     12 H                     0.326056      -0.001562
     13 H                     0.333200      -0.014356
     14 H                     0.304870       0.019408
     15 H                     0.258288      -0.001754
     16 H                     0.359285      -0.000658
     17 H                     0.350771       0.000004
     18 O                    -0.091154       0.001869
     19 O                    -0.305750       0.006303
     20 H                     0.347479      -0.000255
  --------------------------------------------------------
  Sum of atomic charges =    -0.000000
  Sum of spin   charges =     1.000000

 -----------------------------------------------------------------
                    Cartesian Multipole Moments
 -----------------------------------------------------------------
    Charge (ESU x 10^10)
                -0.0000
    Dipole Moment (Debye)
         X       8.7971      Y      -6.3781      Z       2.6712
       Tot      11.1894
    Quadrupole Moments (Debye-Ang)
        XX       6.6217     XY     -21.5395     YY     -62.4737
        XZ      -2.4042     YZ      -3.4238     ZZ     -71.3674
    Octopole Moments (Debye-Ang^2)
       XXX    -122.8686    XXY     -79.3394    XYY    -202.4647
       YYY     -22.6735    XXZ     -22.2797    XYZ     -13.5562
       YYZ      41.9703    XZZ    -210.5802    YZZ      -0.1540
       ZZZ     104.8546
    Hexadecapole Moments (Debye-Ang^3)
      XXXX   -1608.4079   XXXY    -207.1712   XXYY    -968.4166
      XYYY      51.4095   YYYY    -545.0638   XXXZ    -271.7595
      XXYZ     -32.0637   XYYZ     102.2900   YYYZ     -24.4603
      XXZZ    -918.3854   XYZZ      62.3547   YYZZ    -207.3061
      XZZZ     129.7891   YZZZ      59.6827   ZZZZ    -555.9154
 -----------------------------------------------------------------
 Calculating analytic gradient of the SCF energy
 Gradient of CDS energy
            1           2           3           4           5           6
    1  -0.0010574   0.0006700  -0.0010086   0.0008734   0.0000499   0.0000548
    2   0.0003435  -0.0005849   0.0019335  -0.0014675  -0.0000433  -0.0001781
    3  -0.0014459   0.0004586   0.0007985  -0.0003842   0.0002349  -0.0001264
            7           8           9          10          11          12
    1   0.0009724   0.0001279  -0.0013193   0.0001900   0.0001689  -0.0003003
    2   0.0020112  -0.0010168  -0.0012004  -0.0000799  -0.0001090   0.0002900
    3   0.0000090   0.0019523  -0.0017564   0.0001869   0.0002087  -0.0001343
           13          14          15          16          17          18
    1   0.0001052  -0.0000081  -0.0000272   0.0001419   0.0004285  -0.0000958
    2   0.0000782  -0.0000048  -0.0001583   0.0001307   0.0001618   0.0001203
    3   0.0001389   0.0001662  -0.0000795  -0.0004906   0.0002629   0.0000212
           19          20
    1   0.0001095  -0.0000757
    2   0.0002475  -0.0004738
    3  -0.0001714   0.0001508
 Gradient of SCF Energy
            1           2           3           4           5           6
    1   0.0032204  -0.0044288   0.0002144   0.0004871   0.0008018  -0.0031887
    2  -0.0083317   0.0050488   0.0055489   0.0004974  -0.0057157   0.0100040
    3   0.0000778  -0.0041531   0.0062307   0.0002383  -0.0054417  -0.0151198
            7           8           9          10          11          12
    1  -0.0135732  -0.0188153  -0.0221474  -0.0031659   0.0021099   0.0013409
    2   0.0166600   0.0027409   0.0041074   0.0003514   0.0035277  -0.0041706
    3   0.0034766   0.0101492   0.0047849   0.0031417   0.0005954  -0.0018750
           13          14          15          16          17          18
    1   0.0016525   0.0025016   0.0114907   0.0192454   0.0216582   0.0007010
    2  -0.0009837  -0.0089776  -0.0138237  -0.0031171  -0.0031288   0.0002465
    3   0.0038519   0.0118314  -0.0027914  -0.0087555  -0.0058197  -0.0016698
           19          20
    1  -0.0097609   0.0096564
    2   0.0143014  -0.0147853
    3  -0.0088059   0.0100542
 Max gradient component =       2.215E-02
 RMS gradient           =       8.643E-03
 Computing fast CPCM-SWIG gradient
 Updating gradient with PCM contributions...
 -- total gradient after adding PCM contribution --
---------------------------------------------------
  Atom         X              Y              Z     
---------------------------------------------------
   1      -0.001121       0.000096       0.000029
   2       0.000376      -0.000241       0.000066
   3       0.000148       0.000124       0.000103
   4      -0.000002      -0.000088      -0.000022
   5       0.000011      -0.000003       0.000021
   6      -0.000017      -0.000015       0.000034
   7      -0.000005      -0.000006       0.000007
   8      -0.000002       0.000010       0.000005
   9      -0.000012       0.000024      -0.000032
  10       0.000376      -0.000060      -0.000263
  11       0.000188       0.000190       0.000002
  12      -0.000001      -0.000045       0.000024
  13       0.000021       0.000014      -0.000000
  14      -0.000008       0.000009       0.000010
  15       0.000012       0.000008      -0.000002
  16       0.000000      -0.000020      -0.000022
  17       0.000014      -0.000010      -0.000005
  18       0.000016      -0.000012      -0.000008
  19      -0.000012       0.000008       0.000021
  20       0.000019       0.000017       0.000032
---------------------------------------------------
 Number of fixed atoms: 0
 Gradient time:  CPU 460.02 s  wall 37.42 s
 ----------------------------------------------------------------
             Standard Nuclear Orientation (Angstroms)
    I     Atom           X                Y                Z
 ----------------------------------------------------------------
    1      C       1.8615048000     0.2408532000    -1.5855449000
    2      O       0.9483314000     1.1062802000    -2.2306752000
    3      C       2.2758295000     0.8144919000    -0.2489284000
    4      O       1.7183297000     1.8559498000     0.1328669000
    5      C       3.2750197000     0.2134923000     0.5800773000
    6      C       4.1063245000    -0.9876678000     0.3051741000
    7      C       5.4882522000    -0.6128120000    -0.2437392000
    8      O       5.2995121000     0.1122062000    -1.4334828000
    9      O       6.1190503000     0.1576749000     0.7500929000
   10      H       2.7423711000     0.0945213000    -2.2106135000
   11      H       1.4043581000    -0.7374967000    -1.4187945000
   12      H       0.7477238000     1.8078395000    -1.5919038000
   13      H       3.4845306000     0.7442801000     1.4989838000
   14      H       4.2768165000    -1.5259730000     1.2405347000
   15      H       6.0578512000    -1.5211696000    -0.4412773000
   16      H       6.1106850000     0.0696793000    -1.9525353000
   17      H       7.0670603000     0.1574047000     0.5753338000
   18      O       3.5521451000    -1.8826220000    -0.6503487000
   19      O       2.4190158000    -2.5077842000    -0.0507016000
   20      H       2.8094038000    -3.2972980000     0.3550130000
 ----------------------------------------------------------------
 Nuclear Repulsion Energy =         680.41678073 hartrees
 There are       44 alpha and       43 beta electrons
 Discretize the solute cavity surface with Lebedev spheres
	Using 110 Lebedev grid points for each H atom
	Using 194 Lebedev grid points for other atoms
	Atomic van der Waals radii will be scaled by 1.20
 Remove points where switching function is < 1.0e-08
 Keep 1569 surface tesserae and discard 1555 interior tesserae
 Molecular Surface Area = 175.252 Angst**2
 Requested basis set is 6-311++G(2df,2p)
 There are 142 shells and 464 basis functions
 A cutoff of  1.0D-12 yielded   8701 shell pairs
 There are     92025 function pairs (    114194 Cartesian)
 Smallest overlap matrix eigenvalue = 5.77E-06
 Guess MOs from SCF MO coefficient file

 -----------------------------------------------------------------------
  General SCF calculation program by
  Eric Jon Sundstrom, Paul Horn, Yuezhi Mao, Dmitri Zuev, Alec White,
  David Stuck, Shaama M.S., Shane Yost, Joonho Lee, David Small,
  Daniel Levine, Susi Lehtola, Hugh Burton, Evgeny Epifanovsky,
  Bang C. Huynh
 -----------------------------------------------------------------------
 Exchange:     0.1500 Hartree-Fock + 1.0000 wB97M-V + LR-HF
 Correlation:  1.0000 wB97M-V
 Using SG-2 standard quadrature grid
 Nonlocal Correlation:  VV10 with C = 0.0100 and b = 6.00 and scale = 1.00000
 Grid used for NLC:  SG-1 standard quadrature
 
 Citation of the SMD model:
 Marenich, A.V.; Cramer, C.J.; Truhlar, D.G.
 J. Phys. Chem. B 2009, 113, 6378-6396.
 iSolventCode=           1
 Solvent: water                                                           
 
 vradii
            1           2           3           4           5           6
    1   1.8500000   1.5200000   1.8500000   1.5200000   1.8500000   1.8500000
            7           8           9          10          11          12
    1   1.8500000   1.5200000   1.5200000   1.2000000   1.2000000   1.2000000
           13          14          15          16          17          18
    1   1.2000000   1.2000000   1.2000000   1.2000000   1.2000000   1.5200000
           19          20
    1   1.5200000   1.2000000
 -------------------------------------------------------
 OpenMP BLAS3 based DFT computing Module                
 Release: version 1.0, May 2013, Q-Chem Inc. Pittsburgh 
 -------------------------------------------------------
 A unrestricted SCF calculation will be
 performed using Roothaan-Hall, DIIS, GDM
 SCF converges when RMS gradient is below 1.0e-07
 ---------------------------------------
  Cycle       Energy         DIIS error
 ---------------------------------------
    1    -647.1332619629      2.34e-04  Roothaan Step
 ---------------------------------------
  Cycle       Energy         DIIS error
 ---------------------------------------
    1    -647.1813655663      2.59e-04  
    2    -647.1887694279      2.15e-04  Done DIIS. Switching to GDM
 ---------------------------------------
  Cycle       Energy        RMS Gradient
 ---------------------------------------
    1    -647.1887694279      1.42e-02   Normal BFGS step
    2    -647.1882708366      2.31e-02  Line search: overstep
    3    -647.1919243320      4.56e-03   Normal BFGS step
    4    -647.1921826531      1.13e-03   Normal BFGS step
    5    -647.1922291294      1.00e-03   Normal BFGS step
    6    -647.1922410828      2.60e-04   Normal BFGS step
    7    -647.1922427347      1.60e-04   Normal BFGS step
    8    -647.1922431266      7.42e-05   Normal BFGS step
    9    -647.1922432064      2.72e-05   Normal BFGS step
   10    -647.1922432177      2.52e-05   Normal BFGS step
   11    -647.1922432219      1.13e-05   Normal BFGS step
   12    -647.1922432229      7.12e-06   Normal BFGS step
   13    -647.1922432232      3.02e-06   Normal BFGS step
   14    -647.1922432233      6.76e-07   Normal BFGS step
   15    -647.1922432233      1.90e-07   Normal BFGS step
   16    -647.1922432233      1.44e-07   Normal BFGS step
   17    -647.1922432233      8.04e-08  Convergence criterion met
 ---------------------------------------
 SCF time:   CPU 2613.21s  wall 180.00s 
<S^2> =          0.760558466
(3)  G-ENP(liq) elect-nuc-pol free energy of system     -647.192243223 a.u.
(4)  G-CDS(liq) cavity-dispersion-solvent structure 
     free energy                                                4.6554 kcal/mol
(6)  G-S(liq) free energy of system                     -647.184824343 a.u.
 SCF   energy in the final basis set =     -647.1848243429
 Total energy in the final basis set =     -647.1848243429
 
 --------------------------------------------------------------
 
                    Orbital Energies (a.u.)
 --------------------------------------------------------------
 
 Alpha MOs
 -- Occupied --
-19.4098 -19.4004 -19.3503 -19.3501 -19.3442 -19.3367 -10.4593 -10.4428
-10.4175 -10.3902 -10.3889  -1.2787  -1.2080  -1.1975  -1.1497  -1.1418
 -1.0602  -0.9247  -0.8619  -0.8126  -0.7393  -0.6926  -0.6695  -0.6672
 -0.6425  -0.6109  -0.6089  -0.5950  -0.5861  -0.5732  -0.5482  -0.5345
 -0.5111  -0.5095  -0.5063  -0.4735  -0.4654  -0.4241  -0.4214  -0.4169
 -0.4085  -0.3962  -0.3893  -0.3402
 -- Virtual --
  0.0231   0.0356   0.0371   0.0417   0.0591   0.0603   0.0688   0.0715
  0.0750   0.0860   0.1011   0.1076   0.1114   0.1244   0.1275   0.1331
  0.1386   0.1470   0.1547   0.1555   0.1628   0.1687   0.1702   0.1748
  0.1819   0.1859   0.1924   0.2012   0.2145   0.2188   0.2303   0.2368
  0.2430   0.2563   0.2584   0.2695   0.2748   0.2775   0.2867   0.2942
  0.3016   0.3047   0.3136   0.3147   0.3168   0.3239   0.3325   0.3394
  0.3459   0.3476   0.3551   0.3565   0.3593   0.3690   0.3768   0.3804
  0.3859   0.3908   0.3944   0.4070   0.4141   0.4157   0.4236   0.4341
[...]
 Force Cnst:      1.1602                 1.3024                 2.0294
 Red. Mass:       1.3234                 1.4720                 2.1742
 IR Active:          YES                    YES                    YES
 IR Intens:       53.567                246.996                163.935
 Raman Active:       YES                    YES                    YES
               X      Y      Z        X      Y      Z        X      Y      Z
 C         -0.011  0.012 -0.007    0.057 -0.058  0.025    0.084 -0.087  0.072
 O          0.011 -0.009  0.010   -0.106  0.075 -0.091   -0.054  0.054 -0.048
 C         -0.021  0.003 -0.029    0.007  0.010 -0.006    0.147 -0.037  0.181
 O          0.004 -0.003  0.003    0.008 -0.015 -0.001   -0.034  0.037 -0.009
 C          0.005  0.011  0.018   -0.000 -0.003  0.000   -0.059 -0.007 -0.080
 C          0.000 -0.018 -0.054   -0.004 -0.001 -0.006    0.021 -0.047 -0.039
 C         -0.023 -0.091 -0.005    0.001  0.002 -0.000   -0.011 -0.022 -0.008
 O         -0.045  0.038 -0.035   -0.002 -0.000  0.001   -0.005  0.007 -0.007
 O          0.051  0.039  0.018    0.002 -0.001 -0.002    0.012  0.017  0.015
 H          0.005  0.010  0.015    0.412 -0.128  0.539   -0.198 -0.043 -0.328
 H          0.004  0.009  0.021    0.106 -0.031  0.282   -0.001 -0.093 -0.233
 H         -0.011  0.006 -0.015    0.349 -0.245  0.460   -0.065  0.066 -0.073
 H          0.010  0.009  0.019   -0.028  0.033 -0.015   -0.558  0.512 -0.270
 H          0.105 -0.104 -0.121   -0.004 -0.011 -0.012   -0.007  0.050  0.018
 H         -0.323 -0.235 -0.228   -0.012 -0.003 -0.014   -0.116 -0.089 -0.005
 H          0.218 -0.311  0.390    0.013 -0.020  0.025    0.013 -0.017  0.021
 H          0.138  0.391  0.507    0.007  0.024  0.030    0.016  0.023  0.028
 O          0.014  0.014  0.024    0.001  0.003  0.002    0.006  0.011  0.008
 O         -0.006 -0.004 -0.000   -0.001 -0.000  0.000   -0.005 -0.002  0.000
 H         -0.001 -0.003  0.001   -0.000 -0.000  0.001    0.016  0.005 -0.003
 TransDip  -0.038 -0.123  0.196    0.322 -0.222  0.316    0.250 -0.255  0.202

 Mode:                34                     35                     36
 Frequency:      1271.17                1277.69                1315.61
 Force Cnst:      2.7796                 1.0640                 1.4862
 Red. Mass:       2.9196                 1.1062                 1.4574
 IR Active:          YES                    YES                    YES
 IR Intens:      252.923                  6.998                 59.368
 Raman Active:       YES                    YES                    YES
               X      Y      Z        X      Y      Z        X      Y      Z
 C         -0.005  0.016 -0.007   -0.022 -0.040  0.020    0.066 -0.062  0.035
 O          0.006 -0.013  0.009    0.010  0.039 -0.032   -0.032  0.042 -0.001
 C          0.003 -0.004 -0.008   -0.043 -0.017 -0.001   -0.013  0.006 -0.009
 O         -0.006  0.010  0.004    0.007 -0.001 -0.000    0.007 -0.010 -0.001
 C          0.020  0.001  0.004    0.011  0.005  0.003   -0.022  0.032 -0.019
 C          0.011 -0.022 -0.067   -0.001  0.000 -0.001   -0.095 -0.008  0.033
 C          0.100  0.154  0.247    0.004  0.011  0.011    0.040 -0.046  0.064
 O         -0.010  0.029 -0.046    0.001 -0.000 -0.001   -0.027  0.036 -0.034
 O         -0.055 -0.135 -0.163   -0.003 -0.007 -0.009   -0.003 -0.022 -0.022
 H          0.029 -0.033  0.049   -0.270  0.272 -0.382    0.021 -0.086 -0.023
 H         -0.083  0.042 -0.077    0.570 -0.241  0.547    0.018 -0.050 -0.039
 H         -0.002 -0.012  0.004    0.091  0.016  0.028   -0.193  0.146 -0.188
 H         -0.153  0.141 -0.036    0.027 -0.043  0.027    0.135 -0.175  0.061
 H          0.002 -0.397 -0.282   -0.007 -0.046 -0.026    0.700  0.288  0.065
 H         -0.194 -0.086  0.508   -0.017 -0.005  0.025    0.355  0.127  0.170
 H         -0.055  0.074 -0.120   -0.008  0.012 -0.016    0.085 -0.136  0.145
 H          0.027  0.290  0.356    0.002  0.019  0.024    0.001  0.020  0.012
 O         -0.006  0.005  0.051   -0.002  0.001  0.004   -0.004 -0.007 -0.033
 O          0.006 -0.003 -0.008    0.002  0.000 -0.001    0.001  0.008  0.003
 H         -0.078 -0.031  0.024   -0.020 -0.007  0.008    0.073  0.031 -0.029
 TransDip   0.236  0.146  0.427    0.034 -0.030  0.072    0.124 -0.071  0.201

 Mode:                37                     38                     39
 Frequency:      1325.17                1379.03                1409.33
 Force Cnst:      1.7746                 1.6685                 2.1595
 Red. Mass:       1.7151                 1.4891                 1.8453
 IR Active:          YES                    YES                    YES
 IR Intens:       84.690                  2.887                 83.086
 Raman Active:       YES                    YES                    YES
               X      Y      Z        X      Y      Z        X      Y      Z
 C         -0.124  0.118 -0.056   -0.001 -0.003 -0.003   -0.011 -0.040 -0.075
 O          0.056 -0.081 -0.014    0.001  0.002  0.004    0.008  0.017  0.042
 C          0.054 -0.017  0.071   -0.011  0.000 -0.021   -0.031  0.004 -0.042
 O         -0.009  0.007 -0.006    0.011 -0.013  0.002   -0.025  0.040  0.009
 C          0.017 -0.024 -0.011   -0.032  0.053  0.042    0.158 -0.144  0.062
 C         -0.072 -0.007  0.004    0.066 -0.145 -0.067   -0.074  0.050 -0.014
 C          0.022 -0.027  0.022   -0.045  0.040  0.029    0.008  0.000 -0.028
 O         -0.015  0.018 -0.016    0.019 -0.013  0.006   -0.007  0.003  0.004
 O          0.001 -0.007 -0.006    0.010 -0.013 -0.021    0.003 -0.001  0.003
 H         -0.108  0.204 -0.047    0.024  0.024  0.027    0.218 -0.002  0.224
 H         -0.039  0.096  0.059    0.005  0.003  0.045    0.086 -0.036  0.266
 H          0.443 -0.328  0.429   -0.027  0.020 -0.028   -0.266  0.192 -0.267
 H         -0.218  0.185 -0.080    0.070 -0.013  0.065   -0.422  0.421 -0.130
 H          0.337  0.302  0.111   -0.129  0.652  0.441   -0.096  0.139  0.045
 H          0.199  0.070  0.085   -0.163 -0.030  0.014    0.079  0.017  0.112
 H          0.052 -0.083  0.092   -0.082  0.121 -0.156    0.025 -0.043  0.055
 H          0.001  0.004 -0.003    0.043  0.138  0.184    0.002  0.000 -0.005
 O          0.001 -0.005 -0.022   -0.005  0.003 -0.001    0.006 -0.024  0.005
 O         -0.002  0.005  0.002   -0.025  0.008 -0.002   -0.019  0.011 -0.001
 H          0.075  0.030 -0.028    0.373  0.145 -0.130    0.332  0.127 -0.125
 TransDip   0.155 -0.027  0.249   -0.005  0.051 -0.020   -0.087  0.085 -0.266

 Mode:                40                     41                     42
 Frequency:      1420.04                1421.38                1446.31
 Force Cnst:      1.5172                 1.4199                 1.7644
 Red. Mass:       1.2770                 1.1929                 1.4316
 IR Active:          YES                    YES                    YES
 IR Intens:       46.810                 80.499                 66.348
 Raman Active:       YES                    YES                    YES
               X      Y      Z        X      Y      Z        X      Y      Z
 C         -0.002 -0.001 -0.005    0.008  0.012  0.031   -0.011 -0.070 -0.100
 O          0.001  0.000  0.002   -0.004 -0.003 -0.014    0.012 -0.004  0.022
 C         -0.000 -0.000 -0.002    0.002  0.001  0.005    0.046  0.015  0.093
 O          0.001 -0.001  0.000    0.004 -0.007 -0.001    0.010 -0.028 -0.018
 C         -0.004  0.004  0.007   -0.028  0.022 -0.021   -0.068  0.046 -0.049
 C          0.025 -0.025 -0.004    0.022  0.032  0.027    0.023 -0.007  0.012
 C         -0.057 -0.001 -0.124   -0.003 -0.002 -0.059    0.005 -0.001 -0.003
 O         -0.014  0.019  0.015   -0.012  0.011  0.005   -0.002  0.002 -0.000
 O          0.028 -0.015  0.003    0.005 -0.003  0.006   -0.002  0.001  0.001
 H          0.015  0.001  0.018   -0.084 -0.027 -0.086    0.249  0.596  0.131
 H          0.001  0.001  0.014   -0.007 -0.003 -0.106   -0.389  0.221  0.493
 H         -0.014  0.009 -0.013    0.085 -0.059  0.085   -0.141  0.097 -0.152
 H          0.009  0.005  0.006    0.098 -0.103  0.020    0.055 -0.076 -0.009
 H         -0.161  0.083  0.087   -0.063 -0.300 -0.150    0.037 -0.121 -0.058
 H          0.227 -0.023  0.807    0.077 -0.040  0.342   -0.015 -0.020  0.020
 H          0.040 -0.085  0.101    0.038 -0.068  0.084    0.007 -0.010  0.012
 H          0.053  0.141  0.166    0.004  0.008  0.003   -0.004 -0.012 -0.015
 O          0.004  0.026 -0.011   -0.004 -0.046  0.029   -0.002 -0.002  0.005
 O          0.020 -0.011  0.004   -0.044  0.020 -0.008   -0.003  0.001 -0.001
 H         -0.353 -0.135  0.134    0.719  0.276 -0.270    0.048  0.018 -0.018
 TransDip  -0.175 -0.056 -0.119    0.225  0.122 -0.131   -0.006  0.218  0.144

 Mode:                43                     44                     45
 Frequency:      1471.90                1494.40                1582.34
 Force Cnst:      2.1528                 2.1469                12.6068
 Red. Mass:       1.6866                 1.6317                 8.5459
 IR Active:          YES                    YES                    YES
 IR Intens:       60.604                  7.907                321.332
 Raman Active:       YES                    YES                    YES
               X      Y      Z        X      Y      Z        X      Y      Z
 C         -0.003  0.005 -0.001   -0.101  0.056 -0.115    0.008 -0.025 -0.022
 O          0.001  0.000  0.002    0.020 -0.001  0.038    0.007 -0.002  0.009
 C         -0.002 -0.009 -0.012    0.076 -0.010  0.105   -0.277  0.555  0.240
 O          0.002  0.000  0.003   -0.001 -0.011 -0.014    0.186 -0.348 -0.127
 C         -0.009  0.024  0.012   -0.070  0.049 -0.047    0.049 -0.065 -0.019
 C         -0.030 -0.059 -0.002    0.022 -0.009  0.008   -0.008 -0.011 -0.003
 C          0.198  0.076 -0.063   -0.006 -0.004  0.003    0.013  0.014 -0.003
 O         -0.047  0.012  0.007    0.001  0.000 -0.001   -0.002 -0.001  0.002
 O         -0.046  0.010  0.024    0.001 -0.000 -0.000   -0.003 -0.001 -0.001
 H          0.007 -0.028  0.019    0.158 -0.545  0.349   -0.144 -0.211 -0.190
 H          0.031 -0.011  0.006    0.579 -0.256  0.063    0.052 -0.085 -0.265
 H         -0.013  0.009 -0.012   -0.176  0.125 -0.174    0.059 -0.037  0.055
 H          0.025 -0.022  0.036    0.054 -0.072 -0.010   -0.304  0.266 -0.119
 H         -0.011  0.141  0.116    0.041 -0.079 -0.038   -0.028  0.039  0.035
 H         -0.491 -0.435  0.178    0.011  0.007 -0.004   -0.059 -0.038  0.018
 H          0.152 -0.245  0.320   -0.004  0.007 -0.009    0.002 -0.009  0.011
 H         -0.110 -0.298 -0.389    0.002  0.006  0.008   -0.005 -0.009 -0.012
 O         -0.002  0.005 -0.005   -0.003 -0.000  0.002    0.001  0.006  0.001
 O          0.006  0.002  0.001   -0.002  0.001 -0.001    0.001 -0.000  0.001
 H         -0.040 -0.013  0.016    0.029  0.012 -0.010   -0.019 -0.006  0.007
 TransDip   0.200 -0.129 -0.072   -0.042  0.061 -0.051   -0.310  0.473  0.100

 Mode:                46                     47                     48
 Frequency:      3067.17                3068.84                3094.24
 Force Cnst:      5.9963                 5.8934                 6.1369
 Red. Mass:       1.0818                 1.0621                 1.0879
 IR Active:          YES                    YES                    YES
 IR Intens:       16.456                 17.830                 44.160
 Raman Active:       YES                    YES                    YES
               X      Y      Z        X      Y      Z        X      Y      Z
 C         -0.001  0.016  0.004    0.003 -0.065 -0.016    0.000  0.001 -0.000
 O         -0.000 -0.000 -0.000    0.001  0.001  0.002    0.000 -0.000  0.000
 C          0.001 -0.000  0.000   -0.000 -0.000 -0.000   -0.000  0.000 -0.000
 O         -0.000 -0.000 -0.000   -0.000  0.001  0.000    0.000 -0.000 -0.000
 C          0.000  0.002  0.001    0.000 -0.000 -0.000   -0.001  0.000 -0.000
 C         -0.011  0.041 -0.067   -0.003  0.010 -0.017    0.001 -0.006  0.009
 C          0.005 -0.008 -0.003    0.001 -0.002 -0.001    0.046 -0.069 -0.016
 O         -0.000 -0.000  0.000    0.000 -0.000  0.000   -0.001  0.000  0.000
 O          0.000 -0.000  0.000    0.000 -0.000  0.000   -0.001  0.000  0.000
 H          0.110 -0.013 -0.079   -0.407  0.049  0.292   -0.002  0.000  0.002
 H         -0.091 -0.184  0.031    0.361  0.732 -0.123   -0.004 -0.008  0.001
 H          0.000  0.002  0.003   -0.000 -0.009 -0.013   -0.000  0.000 -0.000
 H         -0.009 -0.012 -0.021   -0.003 -0.001 -0.003    0.002  0.002  0.004
 H          0.148 -0.480  0.815    0.037 -0.120  0.204   -0.016  0.063 -0.105
 H         -0.062  0.099  0.023   -0.019  0.030  0.007   -0.527  0.817  0.182
 H          0.001 -0.000  0.000    0.000 -0.000  0.000    0.007 -0.001  0.002
 H          0.000 -0.000  0.001    0.000  0.000  0.000    0.004 -0.001 -0.006
 O         -0.000 -0.000 -0.001    0.000 -0.000  0.000    0.000  0.000  0.000
 O         -0.000  0.000  0.000    0.000 -0.000  0.000    0.000  0.000  0.000
 H         -0.002 -0.008  0.002   -0.001 -0.001  0.000    0.000  0.002 -0.001
 TransDip  -0.073 -0.001 -0.107    0.057 -0.110  0.054    0.082 -0.196 -0.007

 Mode:                49                     50                     51
 Frequency:      3114.61                3210.57                3697.62
 Force Cnst:      6.3028                 6.6091                 8.5807
 Red. Mass:       1.1027                 1.0882                 1.0652
 IR Active:          YES                    YES                    YES
 IR Intens:        6.117                  2.218                198.541
 Raman Active:       YES                    YES                    YES
               X      Y      Z        X      Y      Z        X      Y      Z
 C         -0.075 -0.028  0.048    0.000  0.000  0.000    0.001 -0.002 -0.001
 O          0.001  0.000 -0.001   -0.000  0.000 -0.000    0.014 -0.046 -0.039
 C         -0.001 -0.000  0.000    0.001 -0.001  0.001   -0.000  0.001 -0.000
 O         -0.000 -0.000  0.000   -0.000  0.000 -0.000    0.000 -0.000  0.000
 C          0.000  0.000  0.000   -0.017 -0.042 -0.073    0.000 -0.000 -0.000
 C          0.000 -0.000  0.001   -0.001  0.003 -0.001    0.000  0.000  0.000
 C          0.000 -0.000  0.000   -0.000 -0.000 -0.000   -0.000 -0.000  0.000
 O         -0.000  0.000 -0.000    0.000  0.000 -0.000   -0.000  0.000 -0.000
 O         -0.000 -0.000 -0.000   -0.000  0.000  0.000   -0.000 -0.000 -0.000
 H          0.680 -0.117 -0.504    0.002 -0.000 -0.000   -0.012  0.002  0.003
 H          0.211  0.462 -0.060   -0.001 -0.003  0.001    0.002  0.009 -0.006
 H         -0.003  0.000  0.007    0.000 -0.000 -0.000   -0.235  0.739  0.628
 H          0.001  0.000  0.000    0.193  0.487  0.847   -0.001  0.001 -0.000
 H         -0.002  0.005 -0.008    0.006 -0.015  0.020    0.000 -0.000 -0.000
 H         -0.003  0.005  0.001    0.002 -0.000 -0.001    0.000  0.000 -0.000
 H         -0.000  0.000 -0.001    0.000  0.000 -0.000    0.000  0.000 -0.000
 H         -0.000 -0.000  0.000    0.000  0.001  0.001    0.000 -0.000 -0.000
 O          0.000  0.000 -0.000   -0.000  0.000  0.000   -0.000  0.000 -0.000
 O          0.000 -0.000  0.000   -0.000  0.000 -0.000   -0.000  0.000 -0.000
 H          0.000  0.001 -0.001    0.000 -0.001  0.000    0.000 -0.001  0.000
 TransDip  -0.076 -0.009  0.021    0.037 -0.025  0.015   -0.027  0.291  0.344

 Mode:                52                     53                     54
 Frequency:      3748.43                3822.38                3823.14
 Force Cnst:      8.8452                 9.1840                 9.1889
 Red. Mass:       1.0685                 1.0669                 1.0670
 IR Active:          YES                    YES                    YES
 IR Intens:      131.711                103.083                222.444
 Raman Active:       YES                    YES                    YES
               X      Y      Z        X      Y      Z        X      Y      Z
 C          0.000  0.000 -0.000    0.000 -0.000 -0.000   -0.000  0.000 -0.000
 O         -0.000 -0.000 -0.000    0.000  0.000  0.000    0.000  0.000  0.000
 C          0.000 -0.000  0.000   -0.000  0.000 -0.000   -0.000  0.000 -0.000
 O         -0.000  0.000 -0.000    0.000 -0.000 -0.000    0.000 -0.000 -0.000
 C          0.000 -0.000  0.000    0.000  0.000  0.000    0.000  0.000  0.000
 C         -0.000 -0.000 -0.001    0.000 -0.000 -0.000    0.000  0.000 -0.000
 C         -0.000  0.000  0.000   -0.001  0.001 -0.000   -0.001  0.001  0.001
 O         -0.000  0.000  0.000   -0.050  0.002  0.034   -0.014  0.000  0.010
 O         -0.000  0.000  0.000    0.017  0.000 -0.003   -0.060 -0.001  0.009
 H         -0.000 -0.000  0.000   -0.000  0.000  0.000   -0.000 -0.000 -0.000
 H         -0.000 -0.001  0.000   -0.000  0.000  0.000   -0.000 -0.000  0.000
 H         -0.000  0.000  0.000    0.000 -0.000 -0.000    0.000 -0.000 -0.000
 H         -0.000  0.001  0.000   -0.000 -0.000 -0.000    0.000 -0.000 -0.000
 H         -0.000 -0.004  0.005    0.000  0.000 -0.001    0.000  0.000  0.001
 H          0.000 -0.000 -0.000    0.002 -0.001 -0.005    0.007 -0.002  0.000
 H          0.002  0.000 -0.001    0.803 -0.039 -0.526    0.224 -0.011 -0.148
 H          0.003  0.000 -0.000   -0.264 -0.001  0.046    0.947  0.003 -0.164
 O          0.001  0.001 -0.000   -0.000  0.000  0.000    0.000  0.000  0.000
 O          0.025 -0.052  0.027   -0.000  0.000 -0.000   -0.000  0.000 -0.000
 H         -0.411  0.811 -0.412    0.001 -0.001  0.001    0.001 -0.003  0.001
 TransDip  -0.055  0.336 -0.140    0.175  0.005 -0.274    0.472  0.043 -0.062

 STANDARD THERMODYNAMIC QUANTITIES AT   298.15 K  AND     1.00 ATM

   This Molecule has  0 Imaginary Frequencies
   Zero point vibrational energy:       95.673 kcal/mol

   Atom    1 Element C  Has Mass   12.00000
   Atom    2 Element O  Has Mass   15.99491
   Atom    3 Element C  Has Mass   12.00000
   Atom    4 Element O  Has Mass   15.99491
   Atom    5 Element C  Has Mass   12.00000
   Atom    6 Element C  Has Mass   12.00000
   Atom    7 Element C  Has Mass   12.00000
   Atom    8 Element O  Has Mass   15.99491
   Atom    9 Element O  Has Mass   15.99491
   Atom   10 Element H  Has Mass    1.00783
   Atom   11 Element H  Has Mass    1.00783
   Atom   12 Element H  Has Mass    1.00783
   Atom   13 Element H  Has Mass    1.00783
   Atom   14 Element H  Has Mass    1.00783
   Atom   15 Element H  Has Mass    1.00783
   Atom   16 Element H  Has Mass    1.00783
   Atom   17 Element H  Has Mass    1.00783
   Atom   18 Element O  Has Mass   15.99491
   Atom   19 Element O  Has Mass   15.99491
   Atom   20 Element H  Has Mass    1.00783
   Molecular Mass:   165.039930 amu
   Principal axes and moments of inertia in amu*Bohr^2:
                             1           2           3
    Eigenvalues --     1268.66983  2366.60994  2789.70873
          X               0.89684     0.35506    -0.26384
          Y              -0.34892     0.93442     0.07144
          Z               0.27191     0.02799     0.96192
   Rotational Symmetry Number is   1
   The Molecule is an Asymmetric Top
   Translational Enthalpy:        0.889 kcal/mol
   Rotational Enthalpy:           0.889 kcal/mol
   Vibrational Enthalpy:        101.945 kcal/mol
   gas constant (RT):             0.592 kcal/mol
   Translational Entropy:        41.211  cal/mol.K
   Rotational Entropy:           30.505  cal/mol.K
   Vibrational Entropy:          40.463  cal/mol.K

   Total Enthalpy:              104.315 kcal/mol
   Total Entropy:               112.179  cal/mol.K
 Total job time:  26937.89s(wall), 382875.19s(cpu) 
 Thu Aug  1 21:19:20 2024

        *************************************************************
        *                                                           *
        *  Thank you very much for using Q-Chem.  Have a nice day.  *
        *                                                           *
        *************************************************************


