
Running Job 1 of 1 Q_in.in
qchem Q_in.in_457547.0 /scratch/ari.fischer/qChem2257877.hpc-mn1/qchem457547/ 0
/usr/local/qchem-5.4.1/exe/qcprog.exe_s Q_in.in_457547.0 /scratch/ari.fischer/qChem2257877.hpc-mn1/qchem457547/
                  Welcome to Q-Chem
     A Quantum Leap Into The Future Of Chemistry


 Q-Chem 5.4, Q-Chem, Inc., Pleasanton, CA (2021)

 License issued to: Nanyang Technological University (site)

 E. Epifanovsky,  A. T. B. Gilbert,  Xintian Feng,  Joonho Lee,  Yuezhi Mao,  
 N. Mardirossian,  P. Pokhilko,  A. White,  M. Wormit,  M. P. Coons,  
 A. L. Dempwolff,  Zhengting Gan,  D. Hait,  P. R. Horn,  L. D. Jacobson,  
 I. Kaliman,  J. Kussmann,  A. W. Lange,  Ka Un Lao,  D. S. Levine,  Jie Liu,  
 S. C. McKenzie,  A. F. Morrison,  K. Nanda,  F. Plasser,  D. R. Rehn,  
 M. L. Vidal,  Zhi-Qiang You,  Ying Zhu,  B. Alam,  B. Albrecht,  
 A. Aldossary,  E. Alguire,  J. H. Andersen,  D. Barton,  K. Begam,  A. Behn,  
 Y. A. Bernard,  E. J. Berquist,  H. Burton,  A. Carreras,  K. Carter-Fenk,  
 R. Chakraborty,  A. D. Chien,  K. D. Closser,  V. Cofer-Shabica,  
 S. Dasgupta,  Jia Deng,  M. de Wergifosse,  M. Diedenhofen,  Hainam Do,  
 S. Ehlert,  Po-Tung Fang,  S. Fatehi,  Qingguo Feng,  T. Friedhoff,  
 J. Gayvert,  Qinghui Ge,  G. Gidofalvi,  M. Goldey,  J. Gomes,  
 C. Gonzalez-Espinoza,  S. Gulania,  A. Gunina,  M. W. D. Hanson-Heine,  
 P. H. P. Harbach,  A. W. Hauser,  M. F. Herbst,  M. Hernandez Vera,  
 M. Hodecker,  Z. C. Holden,  S. Houck,  Xunkun Huang,  Kerwin Hui,  
 B. C. Huynh,  M. Ivanov,  Hyunjun Ji,  Hanjie Jiang,  B. Kaduk,  S. Kaehler,  
 K. Khistyaev,  Jaehoon Kim,  P. Klunzinger,  Z. Koczor-Benda,  
 Joong Hoon Koh,  D. Kosenkov,  L. Koulias,  T. Kowalczyk,  C. M. Krauter,  
 K. Kue,  A. Kunitsa,  T. Kus,  A. Landau,  K. V. Lawler,  D. Lefrancois,  
 S. Lehtola,  Rain Li,  Yi-Pei Li,  Jiashu Liang,  M. Liebenthal,  
 Hung-Hsuan Lin,  You-Sheng Lin,  Fenglai Liu,  Kuan-Yu Liu,  
 M. Loipersberger,  A. Luenser,  A. Manjanath,  P. Manohar,  E. Mansoor,  
 S. F. Manzer,  Shan-Ping Mao,  A. V. Marenich,  T. Markovich,  S. Mason,  
 S. A. Maurer,  P. F. McLaughlin,  M. F. S. J. Menger,  J.-M. Mewes,  
 S. A. Mewes,  P. Morgante,  J. W. Mullinax,  K. J. Oosterbaan,  G. Paran,  
 Alexander C. Paul,  Suranjan K. Paul,  F. Pavosevic,  Zheng Pei,  S. Prager,  
 E. I. Proynov,  E. Ramos,  B. Rana,  A. E. Rask,  A. Rettig,  R. M. Richard,  
 F. Rob,  E. Rossomme,  T. Scheele,  M. Scheurer,  M. Schneider,  
 N. Sergueev,  S. M. Sharada,  W. Skomorowski,  D. W. Small,  C. J. Stein,  
 Yu-Chuan Su,  E. J. Sundstrom,  Zhen Tao,  J. Thirman,  T. Tsuchimochi,  
 N. M. Tubman,  S. P. Veccham,  O. Vydrov,  J. Wenzel,  J. Witte,  A. Yamada,  
 Kun Yao,  S. Yeganeh,  S. R. Yost,  A. Zech,  Igor Ying Zhang,  Xing Zhang,  
 Yu Zhang,  D. Zuev,  A. Aspuru-Guzik,  A. T. Bell,  N. A. Besley,  
 K. B. Bravaya,  B. R. Brooks,  D. Casanova,  Jeng-Da Chai,  S. Coriani,  
 C. J. Cramer,  A. E. DePrince, III,  R. A. DiStasio Jr.,  A. Dreuw,  
 B. D. Dunietz,  T. R. Furlani,  W. A. Goddard III,  S. Grimme,  
 S. Hammes-Schiffer,  T. Head-Gordon,  W. J. Hehre,  Chao-Ping Hsu,  
 T.-C. Jagau,  Yousung Jung,  A. Klamt,  Jing Kong,  D. S. Lambrecht,  
 WanZhen Liang,  N. J. Mayhall,  C. W. McCurdy,  J. B. Neaton,  
 C. Ochsenfeld,  J. A. Parkhill,  R. Peverati,  V. A. Rassolov,  Yihan Shao,  
 L. V. Slipchenko,  T. Stauch,  R. P. Steele,  J. E. Subotnik,  
 A. J. W. Thom,  A. Tkatchenko,  D. G. Truhlar,  T. Van Voorhis,  
 T. A. Wesolowski,  K. B. Whaley,  H. L. Woodcock III,  P. M. Zimmerman,  
 S. Faraji,  P. M. W. Gill,  M. Head-Gordon,  J. M. Herbert,  A. I. Krylov

 Additional authors for Version 5.4.1: 
 S. Kotaru,  Shaozhi Li,  Xiangyuan Li,  F. Matz,  A. Molle,  Haisheng Ren,  
 Yingli Su,  Hung-Yi Tsai,  C. Utku,  Fang Wang

 Contributors to earlier versions of Q-Chem not listed above: 
 R. D. Adamson,  B. Austin,  R. Baer,  J. Baker,  G. J. O. Beran,  
 K. Brandhorst,  S. T. Brown,  E. F. C. Byrd,  A. K. Chakraborty,  
 G. K. L. Chan,  Chun-Min Chang,  Yunqing Chen,  C.-L. Cheng,  
 Siu Hung Chien,  D. M. Chipman,  D. L. Crittenden,  H. Dachsel,  
 R. J. Doerksen,  A. D. Dutoi,  R. G. Edgar,  J. Fosso-Tande,  
 L. Fusti-Molnar,  D. Ghosh,  A. Ghysels,  A. Golubeva-Zadorozhnaya,  
 J. Gonthier,  M. S. Gordon,  S. R. Gwaltney,  G. Hawkins,  J. E. Herr,  
 A. Heyden,  S. Hirata,  E. G. Hohenstein,  G. Kedziora,  F. J. Keil,  
 C. Kelley,  Jihan Kim,  R. A. King,  R. Z. Khaliullin,  P. P. Korambath,  
 W. Kurlancheek,  A. Laurent,  A. M. Lee,  M. S. Lee,  S. V. Levchenko,  
 Ching Yeh Lin,  D. Liotard,  E. Livshits,  R. C. Lochan,  I. Lotan,  
 L. A. Martinez-Martinez,  P. E. Maslen,  N. Nair,  D. P. O'Neill,  
 D. Neuhauser,  E. Neuscamman,  C. M. Oana,  R. Olivares-Amaya,  R. Olson,  
 T. M. Perrine,  B. Peters,  P. A. Pieniazek,  A. Prociuk,  Y. M. Rhee,  
 J. Ritchie,  M. A. Rohrdanz,  E. Rosta,  N. J. Russ,  H. F. Schaefer III,  
 M. W. Schmidt,  N. E. Schultz,  S. Sharma,  N. Shenvi,  C. D. Sherrill,  
 A. C. Simmonett,  A. Sodt,  T. Stein,  D. Stuck,  K. S. Thanthiriwatte,  
 V. Vanovschi,  L. Vogt,  Tao Wang,  A. Warshel,  M. A. Watson,  
 C. F. Williams,  Q. Wu,  X. Xu,  Jun Yang,  W. Zhang,  Yan Zhao

 Please cite Q-Chem as follows:
 Y. Shao et al., Mol. Phys. 113, 184-215 (2015)
 DOI: 10.1080/00268976.2014.952696

 Q-Chem 5.4.1 for Intel X86 EM64T Linux

 Parts of Q-Chem use Armadillo 9.800.1 (Horizon Scraper).
 http://arma.sourceforge.net/

 Q-Chem begins on Wed Jul 31 21:31:37 2024  

 Host: 
0

     Scratch files written to /scratch/ari.fischer/qChem2257877.hpc-mn1/qchem457547//
 Aug1521 |scratch|qcdevops|jenkins|workspace|build_RNUM 8249   
 Processing $rem in /usr/local/qchem-5.4.1/config/preferences:
 Processing $rem in /home/ari.fischer/.qchemrc:
 Symmetry turned off for PCM/SM12/SMD calculation

 Checking the input file for inconsistencies... 	...done.

--------------------------------------------------------------
User input:
--------------------------------------------------------------
$molecule
0 2
C         1.8879030800    0.2316732951   -1.5970718369
O         1.0104062076    1.1267041774   -2.2517944401
C         2.2882823453    0.8016029186   -0.2448721249
O         1.7208178731    1.8459825285    0.1296461302
C         3.2737447357    0.1966485823    0.6045452095
C         4.1099605760   -1.0056349139    0.3224745041
C         5.4810564821   -0.6157122708   -0.2483007215
O         5.2508116311    0.1096704779   -1.4323024719
O         6.1100531554    0.1587705558    0.7444709719
H         2.7827688174    0.0647119590   -2.2055070570
H         1.4072432972   -0.7427576246   -1.4383013998
H         0.7980548525    1.8011726116   -1.5763732234
H         3.4716273008    0.7267167404    1.5313041103
H         4.2905791239   -1.5520040462    1.2562858452
H         6.0602217786   -1.5214672975   -0.4607248198
H         6.0775522180    0.1158872691   -1.9427796845
H         7.0477222772    0.2341497885    0.5004565276
O         3.5430143698   -1.8924077307   -0.6371436571
O         2.3864098023   -2.4845504618   -0.0297525170
H         2.7658853761   -3.2983065587    0.3552719551
$end

$rem
BASIS = 6-311++G(2df,2p)
GUI = 2
JOB_TYPE = Optimization
METHOD = wB97M-V
SCF_ALGORITHM = DIIS_GDM
MAX_SCF_CYCLES = 400
GEOM_OPT_MAX_CYCLES = 150
SCF_CONVERGENCE = 7
THRESH = 12
Solvent_method = SMD
$end
--------------------------------------------------------------
 ----------------------------------------------------------------
             Standard Nuclear Orientation (Angstroms)
    I     Atom           X                Y                Z
 ----------------------------------------------------------------
    1      C       1.8879030800     0.2316732951    -1.5970718369
    2      O       1.0104062076     1.1267041774    -2.2517944401
    3      C       2.2882823453     0.8016029186    -0.2448721249
    4      O       1.7208178731     1.8459825285     0.1296461302
    5      C       3.2737447357     0.1966485823     0.6045452095
    6      C       4.1099605760    -1.0056349139     0.3224745041
    7      C       5.4810564821    -0.6157122708    -0.2483007215
    8      O       5.2508116311     0.1096704779    -1.4323024719
    9      O       6.1100531554     0.1587705558     0.7444709719
   10      H       2.7827688174     0.0647119590    -2.2055070570
   11      H       1.4072432972    -0.7427576246    -1.4383013998
   12      H       0.7980548525     1.8011726116    -1.5763732234
   13      H       3.4716273008     0.7267167404     1.5313041103
   14      H       4.2905791239    -1.5520040462     1.2562858452
   15      H       6.0602217786    -1.5214672975    -0.4607248198
   16      H       6.0775522180     0.1158872691    -1.9427796845
   17      H       7.0477222772     0.2341497885     0.5004565276
   18      O       3.5430143698    -1.8924077307    -0.6371436571
   19      O       2.3864098023    -2.4845504618    -0.0297525170
   20      H       2.7658853761    -3.2983065587     0.3552719551
 ----------------------------------------------------------------
 Nuclear Repulsion Energy =         681.25744265 hartrees
 There are       44 alpha and       43 beta electrons
 Requested basis set is 6-311++G(2df,2p)
 There are 142 shells and 464 basis functions

 Total QAlloc Memory Limit 288000 MB
 Mega-Array Size       188 MB
 MEM_STATIC part       192 MB
 
 Citation of the SMD model:
 Marenich, A.V.; Cramer, C.J.; Truhlar, D.G.
 J. Phys. Chem. B 2009, 113, 6378-6396.
 iSolventCode=           1
 Solvent: water                                                           
 
 vradii
            1           2           3           4           5           6
    1   1.8500000   1.5200000   1.8500000   1.5200000   1.8500000   1.8500000
            7           8           9          10          11          12
    1   1.8500000   1.5200000   1.5200000   1.2000000   1.2000000   1.2000000
           13          14          15          16          17          18
    1   1.2000000   1.2000000   1.2000000   1.2000000   1.2000000   1.5200000
           19          20
    1   1.5200000   1.2000000
 Changing PCM_VDW_RADII to SMD_RADIUS
 Discretize the solute cavity surface with Lebedev spheres
	Using 110 Lebedev grid points for each H atom
	Using 194 Lebedev grid points for other atoms
	Atomic van der Waals radii will be scaled by 1.20
 Remove points where switching function is < 1.0e-08
 Keep 1554 surface tesserae and discard 1570 interior tesserae
 Molecular Surface Area = 174.555 Angst**2
 A cutoff of  1.0D-12 yielded   8724 shell pairs
 There are     92348 function pairs (    114630 Cartesian)
 Smallest overlap matrix eigenvalue = 5.94E-06

 Scale SEOQF with 1.000000e-02/1.000000e-01/1.000000e-01

 Standard Electronic Orientation quadrupole field applied
 Nucleus-field energy     =     0.0000000043 hartrees
 Guess from superposition of atomic densities
 Warning:  Energy on first SCF cycle will be non-variational
 SAD guess density has 87.000000 electrons

 -----------------------------------------------------------------------
  General SCF calculation program by
  Eric Jon Sundstrom, Paul Horn, Yuezhi Mao, Dmitri Zuev, Alec White,
  David Stuck, Shaama M.S., Shane Yost, Joonho Lee, David Small,
  Daniel Levine, Susi Lehtola, Hugh Burton, Evgeny Epifanovsky,
  Bang C. Huynh
 -----------------------------------------------------------------------
 Exchange:     0.1500 Hartree-Fock + 1.0000 wB97M-V + LR-HF
 Correlation:  1.0000 wB97M-V
 Using SG-2 standard quadrature grid
 Nonlocal Correlation:  VV10 with C = 0.0100 and b = 6.00 and scale = 1.00000
 Grid used for NLC:  SG-1 standard quadrature
 
 Citation of the SMD model:
 Marenich, A.V.; Cramer, C.J.; Truhlar, D.G.
 J. Phys. Chem. B 2009, 113, 6378-6396.
 iSolventCode=           1
 Solvent: water                                                           
 
 vradii
            1           2           3           4           5           6
    1   1.8500000   1.5200000   1.8500000   1.5200000   1.8500000   1.8500000
            7           8           9          10          11          12
    1   1.8500000   1.5200000   1.5200000   1.2000000   1.2000000   1.2000000
           13          14          15          16          17          18
    1   1.2000000   1.2000000   1.2000000   1.2000000   1.2000000   1.5200000
           19          20
    1   1.5200000   1.2000000
 using 16 threads for integral computing
 -------------------------------------------------------
 OpenMP Integral computing Module                
 Release: version 1.0, May 2013, Q-Chem Inc. Pittsburgh 
 -------------------------------------------------------
 -------------------------------------------------------
 OpenMP BLAS3 based DFT computing Module                
 Release: version 1.0, May 2013, Q-Chem Inc. Pittsburgh 
 -------------------------------------------------------
 A unrestricted SCF calculation will be
 performed using DIIS, GDM
 SCF converges when RMS gradient is below 1.0e-07
 ---------------------------------------
  Cycle       Energy         DIIS error
 ---------------------------------------
    1    -649.3592696817      1.14e-02  
    2    -646.9894049224      1.51e-03  Done DIIS. Switching to GDM
 ---------------------------------------
  Cycle       Energy        RMS Gradient
 ---------------------------------------
    1    -646.9894049224      1.43e-01   Descent step
    2    -647.1597259101      3.70e-02   Normal BFGS step
    3    -647.1877690467      2.00e-02   Normal BFGS step
    4    -647.1900386346      1.56e-02   Normal BFGS step
    5    -647.1913287403      3.63e-03   Normal BFGS step
    6    -647.1914634129      1.94e-03   Normal BFGS step
    7    -647.1914996679      1.09e-03   Normal BFGS step
    8    -647.1915050408      5.63e-04   Normal BFGS step
    9    -647.1915064730      2.78e-04   Normal BFGS step
   10    -647.1915069297      1.00e-04   Normal BFGS step
   11    -647.1915070452      5.56e-05   Normal BFGS step
   12    -647.1915070682      2.55e-05   Normal BFGS step
   13    -647.1915070734      1.23e-05   Normal BFGS step
   14    -647.1915070752      9.98e-06   Normal BFGS step
   15    -647.1915070756      6.93e-06   Normal BFGS step
   16    -647.1915070757      3.50e-06   Normal BFGS step
   17    -647.1915070757      1.37e-06   Normal BFGS step
   18    -647.1915070758      4.97e-07   Normal BFGS step
   19    -647.1915070758      1.21e-07   Normal BFGS step
   20    -647.1915070758      4.37e-08  Convergence criterion met
 ---------------------------------------
 SCF time:   CPU 3172.71s  wall 219.00s 
<S^2> =          0.760710535
(3)  G-ENP(liq) elect-nuc-pol free energy of system     -647.191507076 a.u.
(4)  G-CDS(liq) cavity-dispersion-solvent structure 
     free energy                                                4.6340 kcal/mol
(6)  G-S(liq) free energy of system                     -647.184122380 a.u.
 SCF   energy in the final basis set =     -647.1841223801
 Total energy in the final basis set =     -647.1841223801
 
 --------------------------------------------------------------
 
                    Orbital Energies (a.u.)
 --------------------------------------------------------------
 
 Alpha MOs
 -- Occupied --
-19.4101 -19.4012 -19.3517 -19.3513 -19.3455 -19.3368 -10.4599 -10.4445
-10.4183 -10.3914 -10.3907  -1.2752  -1.2073  -1.1964  -1.1480  -1.1407
 -1.0590  -0.9232  -0.8594  -0.8101  -0.7368  -0.6890  -0.6681  -0.6654
 -0.6416  -0.6096  -0.6074  -0.5932  -0.5845  -0.5712  -0.5471  -0.5342
 -0.5119  -0.5093  -0.5061  -0.4743  -0.4651  -0.4233  -0.4211  -0.4171
 -0.4092  -0.3959  -0.3896  -0.3408
 -- Virtual --
  0.0231   0.0355   0.0370   0.0417   0.0594   0.0596   0.0687   0.0708
  0.0742   0.0851   0.1017   0.1054   0.1116   0.1242   0.1276   0.1333
  0.1375   0.1467   0.1547   0.1552   0.1628   0.1687   0.1699   0.1754
  0.1813   0.1857   0.1923   0.1994   0.2155   0.2168   0.2291   0.2356
  0.2426   0.2557   0.2587   0.2691   0.2756   0.2764   0.2863   0.2944
  0.3000   0.3057   0.3135   0.3142   0.3165   0.3221   0.3334   0.3388
  0.3436   0.3464   0.3540   0.3554   0.3605   0.3685   0.3750   0.3782
  0.3848   0.3921   0.3941   0.4068   0.4138   0.4162   0.4230   0.4343
  0.4374   0.4440   0.4660   0.4756   0.4869   0.5064   0.5151   0.5204
  0.5454   0.5540   0.5706   0.5988   0.6013   0.6158   0.6205   0.6303
  0.6334   0.6480   0.6541   0.6657   0.6780   0.6854   0.6911   0.7052
  0.7063   0.7145   0.7313   0.7450   0.7475   0.7571   0.7665   0.7709
  0.7864   0.7990   0.8111   0.8284   0.8453   0.8676   0.8808   0.8898
  0.9049   0.9324   0.9369   0.9485   0.9537   0.9621   0.9735   1.0148
  1.0439   1.0543   1.0573   1.0642   1.0903   1.1044   1.1130   1.1345
  1.1475   1.1610   1.1679   1.1717   1.1799   1.1825   1.1956   1.1975
  1.2094   1.2193   1.2222   1.2282   1.2409   1.2454   1.2540   1.2836
  1.2940   1.3052   1.3126   1.3263   1.3375   1.3416   1.3514   1.3616
  1.3801   1.3917   1.4003   1.4267   1.4434   1.4489   1.4540   1.4557
  1.4684   1.4854   1.4907   1.5158   1.5224   1.5347   1.5444   1.5576
  1.5660   1.5777   1.5971   1.6007   1.6301   1.6432   1.6570   1.6667
  1.6898   1.6993   1.7189   1.7460   1.7629   1.7842   1.8072   1.8288
  1.8438   1.8636   1.8738   1.9045   1.9243   1.9503   1.9697   1.9841
  2.0255   2.0268   2.0525   2.0993   2.1371   2.1750   2.2154   2.2362
  2.2508   2.2790   2.2911   2.3248   2.3510   2.3886   2.4080   2.4116
  2.4329   2.4501   2.4627   2.4831   2.5224   2.5419   2.5898   2.5931
  2.6761   2.6905   2.7146   2.7692   2.7816   2.8060   2.8163   2.8289
  2.8353   2.8572   2.8868   2.9049   2.9137   2.9254   2.9554   2.9731
  3.0198   3.0362   3.0518   3.0838   3.1101   3.1232   3.1451   3.1662
  3.1805   3.2128   3.2277   3.2400   3.2560   3.2832   3.3364   3.3419
  3.3640   3.3853   3.4013   3.4319   3.4525   3.4693   3.4787   3.4885
  3.5017   3.5166   3.5392   3.5406   3.5498   3.5986   3.6222   3.6266
  3.6679   3.6837   3.6959   3.7049   3.7124   3.7259   3.7564   3.7694
  3.7879   3.8139   3.8219   3.8305   3.8345   3.8421   3.8597   3.8841
  3.9106   3.9154   3.9365   3.9528   3.9842   3.9959   4.0294   4.0516
  4.0602   4.0855   4.0965   4.1284   4.1557   4.1690   4.1846   4.2059
  4.2154   4.2547   4.2606   4.2791   4.2976   4.3146   4.3245   4.3299
  4.3531   4.3967   4.4285   4.4394   4.4548   4.4861   4.5129   4.5374
  4.5594   4.5824   4.6240   4.6476   4.6885   4.6991   4.7250   4.8001
  4.8175   4.8900   4.9717   5.0066   5.0895   5.0975   5.1872   5.2011
  5.2084   5.2140   5.2193   5.2352   5.2483   5.2764   5.2933   5.3111
  5.3183   5.3335   5.3357   5.3424   5.3600   5.3840   5.4108   5.4229
  5.4291   5.4347   5.4687   5.4990   5.5143   5.5242   5.5285   5.5416
  5.5728   5.5917   5.6004   5.6058   5.6103   5.6293   5.6588   5.6617
  5.6838   5.6956   5.7172   5.7506   5.8369   5.8567   5.8683   5.9113
  5.9211   5.9982   6.0203   6.0443   6.0620   6.1690   6.2451   6.2617
  6.5342   6.6224   6.6555   6.6982   6.7436   6.8296   6.9549   7.0106
  7.0238   7.0597   7.0868   7.0992   7.1334   7.1454   7.1625   7.2284
  7.2377   7.2412   7.2636   7.2928   7.3023   7.3196   7.3540   7.3887
  7.4053   7.4481   7.4587   7.4725   7.5384   7.6057   7.6168   7.6301
  7.6704   7.7039   7.7630   7.8183   7.8309   7.8483   7.8904   7.9653
  8.2140  24.5505  24.7297  24.7672  24.8343  25.0686  50.5036  50.5678
 50.6060  50.6186  50.6506  50.7288
 
 Beta MOs
 -- Occupied --
-19.4100 -19.4010 -19.3517 -19.3512 -19.3389 -19.3367 -10.4589 -10.4455
-10.4189 -10.3914 -10.3800  -1.2748  -1.2067  -1.1884  -1.1448  -1.1405
 -1.0580  -0.9070  -0.8559  -0.8015  -0.7323  -0.6863  -0.6657  -0.6635
 -0.6388  -0.6063  -0.6037  -0.5894  -0.5786  -0.5678  -0.5409  -0.5315
 -0.5087  -0.5054  -0.4840  -0.4650  -0.4609  -0.4227  -0.4199  -0.4164
 -0.4064  -0.3907  -0.3823
 -- Virtual --
 -0.0502   0.0231   0.0358   0.0370   0.0419   0.0596   0.0598   0.0688
  0.0713   0.0785   0.0988   0.1031   0.1084   0.1139   0.1263   0.1277
  0.1333   0.1375   0.1477   0.1554   0.1582   0.1660   0.1695   0.1723
  0.1756   0.1822   0.1858   0.1925   0.1995   0.2153   0.2173   0.2303
  0.2361   0.2442   0.2564   0.2595   0.2703   0.2760   0.2773   0.2891
  0.2954   0.3003   0.3064   0.3150   0.3155   0.3182   0.3245   0.3360
  0.3404   0.3459   0.3490   0.3549   0.3575   0.3621   0.3698   0.3755
  0.3812   0.3854   0.3935   0.3952   0.4072   0.4146   0.4169   0.4240
  0.4347   0.4382   0.4466   0.4679   0.4759   0.4878   0.5071   0.5147
  0.5257   0.5477   0.5562   0.5743   0.6020   0.6034   0.6172   0.6256
  0.6340   0.6345   0.6496   0.6587   0.6672   0.6811   0.6896   0.6941
  0.7063   0.7128   0.7191   0.7330   0.7484   0.7534   0.7608   0.7690
  0.7715   0.7883   0.8016   0.8126   0.8293   0.8475   0.8694   0.8843
  0.8939   0.9078   0.9359   0.9378   0.9488   0.9556   0.9654   0.9756
  1.0182   1.0460   1.0556   1.0580   1.0648   1.0903   1.1051   1.1156
  1.1356   1.1482   1.1615   1.1689   1.1729   1.1826   1.1859   1.1972
  1.1999   1.2113   1.2210   1.2268   1.2318   1.2423   1.2498   1.2550
  1.2867   1.2950   1.3082   1.3159   1.3290   1.3398   1.3440   1.3526
  1.3650   1.3848   1.3938   1.4043   1.4311   1.4473   1.4503   1.4568
  1.4589   1.4704   1.4886   1.4933   1.5191   1.5238   1.5374   1.5470
  1.5605   1.5689   1.5792   1.6004   1.6035   1.6359   1.6447   1.6591
  1.6689   1.6921   1.7034   1.7208   1.7548   1.7650   1.7863   1.8111
  1.8318   1.8494   1.8691   1.8813   1.9086   1.9258   1.9522   1.9747
  1.9875   2.0286   2.0320   2.0550   2.1012   2.1389   2.1788   2.2185
  2.2404   2.2525   2.2810   2.2925   2.3267   2.3533   2.3905   2.4098
  2.4140   2.4346   2.4511   2.4652   2.4847   2.5282   2.5458   2.5943
  2.6012   2.6836   2.6941   2.7171   2.7785   2.7942   2.8197   2.8218
  2.8352   2.8472   2.8641   2.8958   2.9095   2.9271   2.9342   2.9718
  3.0249   3.0348   3.0476   3.0615   3.0961   3.1327   3.1364   3.1538
  3.1741   3.1909   3.2194   3.2377   3.2530   3.2680   3.2941   3.3398
  3.3539   3.3763   3.3920   3.4163   3.4417   3.4644   3.4784   3.4847
  3.4925   3.5121   3.5230   3.5443   3.5484   3.5616   3.6147   3.6332
  3.6361   3.6739   3.6917   3.7043   3.7117   3.7262   3.7375   3.7619
  3.7749   3.7987   3.8165   3.8261   3.8355   3.8366   3.8528   3.8627
  3.8899   3.9175   3.9190   3.9412   3.9606   3.9919   4.0015   4.0360
  4.0577   4.0681   4.0951   4.1064   4.1311   4.1611   4.1756   4.1889
  4.2110   4.2245   4.2571   4.2677   4.2823   4.3068   4.3222   4.3322
  4.3404   4.3600   4.4086   4.4315   4.4451   4.4639   4.4943   4.5284
  4.5436   4.5779   4.5948   4.6443   4.6613   4.7000   4.7028   4.7292
  4.8084   4.8218   4.8938   4.9773   5.0176   5.0953   5.1091   5.2038
  5.2092   5.2127   5.2164   5.2274   5.2507   5.2676   5.2794   5.2958
  5.3136   5.3207   5.3364   5.3378   5.3437   5.3609   5.3873   5.4125
  5.4255   5.4309   5.4413   5.4738   5.5044   5.5191   5.5312   5.5344
  5.5478   5.5751   5.5947   5.6016   5.6119   5.6180   5.6327   5.6613
  5.6769   5.6847   5.6979   5.7305   5.7635   5.8403   5.8615   5.8791
  5.9128   5.9244   6.0002   6.0209   6.0447   6.0635   6.1697   6.2459
  6.2777   6.5352   6.6231   6.6564   6.7053   6.7442   6.8299   6.9854
  7.0111   7.0241   7.0790   7.0904   7.1026   7.1360   7.1477   7.1637
  7.2288   7.2381   7.2414   7.2656   7.3022   7.3061   7.3203   7.3550
  7.3914   7.4165   7.4503   7.4629   7.4734   7.5388   7.6063   7.6177
  7.6370   7.6709   7.7041   7.7716   7.8185   7.8317   7.8524   7.8907
  7.9658   8.2143  24.5571  24.7314  24.7679  24.8347  25.0710  50.5037
 50.5679  50.6060  50.6188  50.6507  50.7335
 --------------------------------------------------------------
 
          Ground-State Mulliken Net Atomic Charges

     Atom                 Charge (a.u.)    Spin (a.u.)
  --------------------------------------------------------
      1 C                    -0.319100       0.006084
      2 O                    -0.487195       0.003174
      3 C                     0.189055       0.029075
      4 O                    -0.473231       0.235145
      5 C                    -0.022248       0.714589
      6 C                    -0.243041      -0.071533
      7 C                    -0.160071       0.062241
      8 O                    -0.422643       0.007157
      9 O                    -0.410444       0.001862
     10 H                     0.236675       0.002204
     11 H                     0.225300       0.002162
     12 H                     0.325776      -0.001681
     13 H                     0.333484      -0.014459
     14 H                     0.302048       0.018346
     15 H                     0.258831      -0.001916
     16 H                     0.363287      -0.000719
     17 H                     0.351720      -0.000036
     18 O                    -0.092954       0.002126
     19 O                    -0.307304       0.006374
     20 H                     0.352054      -0.000197
  --------------------------------------------------------
  Sum of atomic charges =     0.000000
  Sum of spin   charges =     1.000000

 -----------------------------------------------------------------
                    Cartesian Multipole Moments
 -----------------------------------------------------------------
    Charge (ESU x 10^10)
                 0.0000
    Dipole Moment (Debye)
         X       8.8064      Y      -6.2643      Z       2.6233
       Tot      11.1210
    Quadrupole Moments (Debye-Ang)
        XX       6.7865     XY     -19.8028     YY     -62.3813
        XZ      -3.2448     YZ      -3.0542     ZZ     -71.8149
    Octopole Moments (Debye-Ang^2)
       XXX    -124.4014    XXY     -65.7591    XYY    -202.1166
       YYY     -23.3044    XXZ     -30.3280    XYZ     -13.3484
       YYZ      42.3761    XZZ    -212.4395    YZZ      -0.6157
       ZZZ     105.8298
    Hexadecapole Moments (Debye-Ang^3)
      XXXX   -1624.0423   XXXY    -114.1909   XXYY    -962.9105
      XYYY      51.1402   YYYY    -540.7189   XXXZ    -329.8954
      XXYZ     -33.6799   XYYZ     102.2692   YYYZ     -19.4723
      XXZZ    -925.2596   XYZZ      62.6076   YYZZ    -209.5806
      XZZZ     134.3658   YZZZ      64.2863   ZZZZ    -564.6689
 -----------------------------------------------------------------
 Calculating analytic gradient of the SCF energy
 Gradient of CDS energy
            1           2           3           4           5           6
    1  -0.0009986   0.0006141  -0.0010610   0.0009173   0.0000496   0.0000571
    2   0.0003252  -0.0005392   0.0019970  -0.0015311  -0.0000478  -0.0001802
    3  -0.0014698   0.0004465   0.0008094  -0.0003964   0.0002492  -0.0001254
            7           8           9          10          11          12
    1   0.0009198   0.0001360  -0.0012552   0.0001867   0.0001808  -0.0002971
    2   0.0017788  -0.0008617  -0.0011427  -0.0000882  -0.0001245   0.0002889
    3   0.0001940   0.0016701  -0.0016486   0.0002004   0.0002239  -0.0001324
           13          14          15          16          17          18
    1   0.0000973  -0.0000042  -0.0000218   0.0001224   0.0004231  -0.0000983
    2   0.0000915  -0.0000159  -0.0001691   0.0001396   0.0001844   0.0001244
    3   0.0001392   0.0001698  -0.0000843  -0.0004951   0.0002576   0.0000160
           19          20
    1   0.0001160  -0.0000842
    2   0.0002425  -0.0004719
    3  -0.0001694   0.0001452
 Gradient of SCF Energy
            1           2           3           4           5           6
    1   0.0007841  -0.0035433   0.0018723  -0.0025834   0.0007777  -0.0018252
    2  -0.0064502   0.0023247   0.0037795   0.0057608  -0.0063474   0.0108475
    3  -0.0015148  -0.0099810   0.0053894   0.0016960  -0.0055205  -0.0149814
            7           8           9          10          11          12
    1  -0.0099755  -0.0291586  -0.0300100  -0.0006996   0.0009028   0.0010569
    2   0.0185639   0.0021320   0.0023897  -0.0005041  -0.0002732  -0.0014135
    3   0.0029755   0.0120228   0.0114956   0.0016321   0.0010368   0.0035522
           13          14          15          16          17          18
    1   0.0022620   0.0029952   0.0126153   0.0265484   0.0277352   0.0036518
    2   0.0007648  -0.0105590  -0.0169020  -0.0024185  -0.0013781  -0.0000088
    3   0.0064100   0.0141731  -0.0036026  -0.0112930  -0.0107116  -0.0056787
           19          20
    1  -0.0166464   0.0132403
    2   0.0201593  -0.0204675
    3  -0.0087117   0.0116118
 Max gradient component =       3.001E-02
 RMS gradient           =       1.100E-02
 Computing fast CPCM-SWIG gradient
 Updating gradient with PCM contributions...
 -- total gradient after adding PCM contribution --
---------------------------------------------------
  Atom         X              Y              Z     
---------------------------------------------------
   1      -0.003518       0.002885      -0.001605
   2       0.000920      -0.003537      -0.006000
   3       0.001788      -0.001889      -0.001103
   4      -0.003265       0.005413       0.001711
   5       0.000457      -0.000707       0.000696
   6       0.000750       0.000050      -0.000188
   7       0.003687       0.002722      -0.001035
   8      -0.009401       0.000607       0.001996
   9      -0.008225       0.000041       0.004869
  10       0.003073      -0.001037      -0.001822
  11      -0.001109      -0.003771       0.000441
  12      -0.000072       0.003016       0.005742
  13       0.000636       0.001652       0.002451
  14       0.000450      -0.001617       0.002574
  15       0.001309      -0.003302      -0.000547
  16       0.006513      -0.000530      -0.002706
  17       0.006372      -0.000022      -0.003150
  18       0.002933      -0.000149      -0.003992
  19      -0.007173       0.005527      -0.000442
  20       0.003875      -0.005352       0.002110
---------------------------------------------------
 Number of fixed atoms: 0
 Gradient time:  CPU 438.21 s  wall 36.28 s
 Geometry Optimization Parameters
   NAtoms,    NIC,     NZ,  NCons,   NDum,   NFix, NCnnct, MaxDiis
       20     126       0       0       0       0       0       0


** GEOMETRY OPTIMIZATION IN DELOCALIZED INTERNAL COORDINATES **
   Searching for a Minimum

   Optimization Cycle:   1

                       Coordinates (Angstroms)
     ATOM                X               Y               Z
      1  C         1.8879030800    0.2316732951   -1.5970718369
      2  O         1.0104062076    1.1267041774   -2.2517944401
      3  C         2.2882823453    0.8016029186   -0.2448721249
      4  O         1.7208178731    1.8459825285    0.1296461302
      5  C         3.2737447357    0.1966485823    0.6045452095
      6  C         4.1099605760   -1.0056349139    0.3224745041
      7  C         5.4810564821   -0.6157122708   -0.2483007215
      8  O         5.2508116311    0.1096704779   -1.4323024719
      9  O         6.1100531554    0.1587705558    0.7444709719
     10  H         2.7827688174    0.0647119590   -2.2055070570
     11  H         1.4072432972   -0.7427576246   -1.4383013998
     12  H         0.7980548525    1.8011726116   -1.5763732234
     13  H         3.4716273008    0.7267167404    1.5313041103
     14  H         4.2905791239   -1.5520040462    1.2562858452
     15  H         6.0602217786   -1.5214672975   -0.4607248198
     16  H         6.0775522180    0.1158872691   -1.9427796845
     17  H         7.0477222772    0.2341497885    0.5004565276
     18  O         3.5430143698   -1.8924077307   -0.6371436571
     19  O         2.3864098023   -2.4845504618   -0.0297525170
     20  H         2.7658853761   -3.2983065587    0.3552719551
   Point Group: c1    Number of degrees of freedom:    54


   Energy is   -647.184122380


 Attempting to generate delocalized internal coordinates
 Initial Hessian constructed with Jon Baker's OPTIMIZE code

 54 Hessian modes will be used to form the next step
  Hessian Eigenvalues:
     0.004484    0.004566    0.006395    0.010315    0.011050    0.012430
     0.013343    0.013777    0.014653    0.014653    0.017805    0.052254
     0.056833    0.059934    0.063300    0.068288    0.075006    0.077842
     0.088135    0.113677    0.139460    0.159740    0.160000    0.160000
     0.160000    0.160000    0.172497    0.176672    0.202620    0.206029
     0.220081    0.220475    0.250000    0.250000    0.250000    0.289222
     0.302665    0.332954    0.338965    0.340295    0.341421    0.342500
     0.352998    0.403090    0.403740    0.418177    0.433579    0.443999
     0.444000    0.518042    0.519804    0.530053    0.530389    0.846577

 Minimum search - taking simple RFO step
 Searching for Lamda that Minimizes Along All modes
 Value Taken    Lamda =  -0.00126397
 Step Taken.  Stepsize is  0.106572

                             Maximum     Tolerance    Cnvgd?
         Gradient           0.007925      0.000300      NO
         Displacement       0.031010      0.001200      NO
         Energy change     *********      0.000001      NO


 New Cartesian Coordinates Obtained by Inverse Iteration

 Displacement from previous Coordinates is:  0.234516
 ----------------------------------------------------------------
             Standard Nuclear Orientation (Angstroms)
    I     Atom           X                Y                Z
 ----------------------------------------------------------------
    1      C       1.8745965357     0.2487565405    -1.5981017004
    2      O       0.9861856864     1.1386934046    -2.2469631427
    3      C       2.2805613742     0.8047482165    -0.2495152327
    4      O       1.7208654847     1.8452302054     0.1338830291
    5      C       3.2677951788     0.1978429663     0.5886407741
    6      C       4.1039359762    -1.0011002932     0.3118182333
    7      C       5.4807788243    -0.6190469549    -0.2487755114
    8      O       5.2837735422     0.1104140707    -1.4346912525
    9      O       6.1189336369     0.1478589839     0.7433571990
   10      H       2.7605622811     0.0909161331    -2.2118036088
   11      H       1.3983948623    -0.7215330532    -1.4423250453
   12      H       0.7624406426     1.8207858116    -1.5921187262
   13      H       3.4635596743     0.7219272494     1.5139899900
   14      H       4.2823195125    -1.5362298911     1.2469935237
   15      H       6.0533099666    -1.5238121368    -0.4553157268
   16      H       6.1062361190     0.1070221688    -1.9389326013
   17      H       7.0562980277     0.2079639561     0.5224293952
   18      O       3.5453856516    -1.9041330552    -0.6342310691
   19      O       2.4127414680    -2.5250181651    -0.0205071102
   20      H       2.8054408547    -3.3104361573     0.3916998831
 ----------------------------------------------------------------
 Nuclear Repulsion Energy =         680.01209569 hartrees
 There are       44 alpha and       43 beta electrons
 Discretize the solute cavity surface with Lebedev spheres
	Using 110 Lebedev grid points for each H atom
	Using 194 Lebedev grid points for other atoms
	Atomic van der Waals radii will be scaled by 1.20
 Remove points where switching function is < 1.0e-08
 Keep 1573 surface tesserae and discard 1551 interior tesserae
 Molecular Surface Area = 175.509 Angst**2
 Applying Cartesian multipole field
    Component          Value
    ---------          -----
     (2,0,0)        1.00000E-12
     (0,2,0)        2.00000E-11
     (0,0,2)       -3.00000E-11
 Nucleus-field energy     =     0.0000000045 hartrees
 Requested basis set is 6-311++G(2df,2p)
 There are 142 shells and 464 basis functions
 A cutoff of  1.0D-12 yielded   8703 shell pairs
 There are     92072 function pairs (    114250 Cartesian)
 Smallest overlap matrix eigenvalue = 5.86E-06
 Guess MOs from SCF MO coefficient file

 -----------------------------------------------------------------------
  General SCF calculation program by
  Eric Jon Sundstrom, Paul Horn, Yuezhi Mao, Dmitri Zuev, Alec White,
  David Stuck, Shaama M.S., Shane Yost, Joonho Lee, David Small,
  Daniel Levine, Susi Lehtola, Hugh Burton, Evgeny Epifanovsky,
  Bang C. Huynh
 -----------------------------------------------------------------------
 Exchange:     0.1500 Hartree-Fock + 1.0000 wB97M-V + LR-HF
 Correlation:  1.0000 wB97M-V
 Using SG-2 standard quadrature grid
 Nonlocal Correlation:  VV10 with C = 0.0100 and b = 6.00 and scale = 1.00000
 Grid used for NLC:  SG-1 standard quadrature
 
 Citation of the SMD model:
 Marenich, A.V.; Cramer, C.J.; Truhlar, D.G.
 J. Phys. Chem. B 2009, 113, 6378-6396.
 iSolventCode=           1
 Solvent: water                                                           
 
 vradii
            1           2           3           4           5           6
    1   1.8500000   1.5200000   1.8500000   1.5200000   1.8500000   1.8500000
            7           8           9          10          11          12
    1   1.8500000   1.5200000   1.5200000   1.2000000   1.2000000   1.2000000
           13          14          15          16          17          18
    1   1.2000000   1.2000000   1.2000000   1.2000000   1.2000000   1.5200000
           19          20
    1   1.5200000   1.2000000
 -------------------------------------------------------
 OpenMP BLAS3 based DFT computing Module                
 Release: version 1.0, May 2013, Q-Chem Inc. Pittsburgh 
 -------------------------------------------------------
 A unrestricted SCF calculation will be
 performed using Roothaan-Hall, DIIS, GDM
 SCF converges when RMS gradient is below 1.0e-07
 ---------------------------------------
  Cycle       Energy         DIIS error
 ---------------------------------------
    1    -647.1320783667      2.53e-04  Roothaan Step
 ---------------------------------------
  Cycle       Energy         DIIS error
 ---------------------------------------
    1    -647.1811529826      2.59e-04  
    2    -647.1885740092      2.16e-04  Done DIIS. Switching to GDM
 ---------------------------------------
  Cycle       Energy        RMS Gradient
 ---------------------------------------
    1    -647.1885740092      1.46e-02   Normal BFGS step
    2    -647.1879795056      2.24e-02  Line search: overstep
    3    -647.1917975514      4.10e-03   Normal BFGS step
    4    -647.1920638510      1.20e-03   Normal BFGS step
    5    -647.1921100786      8.86e-04   Normal BFGS step
    6    -647.1921222437      2.78e-04   Normal BFGS step
    7    -647.1921238019      1.76e-04   Normal BFGS step
    8    -647.1921241723      7.07e-05   Normal BFGS step
    9    -647.1921242490      2.45e-05   Normal BFGS step
   10    -647.1921242591      2.12e-05   Normal BFGS step
   11    -647.1921242625      9.25e-06   Normal BFGS step
   12    -647.1921242634      6.16e-06   Normal BFGS step
   13    -647.1921242637      2.70e-06   Normal BFGS step
   14    -647.1921242637      7.63e-07   Normal BFGS step
   15    -647.1921242637      2.56e-07   Normal BFGS step
   16    -647.1921242637      1.73e-07   Normal BFGS step
   17    -647.1921242638      1.20e-07   Normal BFGS step
   18    -647.1921242639      9.08e-08  Convergence criterion met
 ---------------------------------------
 SCF time:   CPU 3050.77s  wall 211.00s 
<S^2> =          0.760670107
(3)  G-ENP(liq) elect-nuc-pol free energy of system     -647.192124264 a.u.
(4)  G-CDS(liq) cavity-dispersion-solvent structure 
     free energy                                                4.6423 kcal/mol
(6)  G-S(liq) free energy of system                     -647.184726280 a.u.
 SCF   energy in the final basis set =     -647.1847262804
 Total energy in the final basis set =     -647.1847262804
 
 --------------------------------------------------------------
 
                    Orbital Energies (a.u.)
 --------------------------------------------------------------
 
 Alpha MOs
 -- Occupied --
-19.4103 -19.4007 -19.3503 -19.3503 -19.3442 -19.3368 -10.4596 -10.4429
-10.4180 -10.3905 -10.3893  -1.2772  -1.2080  -1.1973  -1.1489  -1.1412
 -1.0606  -0.9247  -0.8615  -0.8129  -0.7394  -0.6913  -0.6693  -0.6670
 -0.6419  -0.6107  -0.6082  -0.5948  -0.5860  -0.5734  -0.5480  -0.5345
 -0.5120  -0.5096  -0.5053  -0.4753  -0.4653  -0.4230  -0.4207  -0.4170
 -0.4090  -0.3965  -0.3892  -0.3408
 -- Virtual --
  0.0231   0.0356   0.0370   0.0418   0.0593   0.0600   0.0687   0.0708
  0.0750   0.0859   0.1015   0.1061   0.1116   0.1244   0.1278   0.1331
  0.1380   0.1468   0.1550   0.1553   0.1629   0.1688   0.1701   0.1756
  0.1817   0.1858   0.1924   0.2001   0.2146   0.2179   0.2295   0.2363
  0.2431   0.2563   0.2585   0.2695   0.2749   0.2777   0.2870   0.2939
  0.3006   0.3046   0.3131   0.3141   0.3166   0.3231   0.3324   0.3393
  0.3453   0.3472   0.3550   0.3555   0.3604   0.3689   0.3758   0.3803
  0.3855   0.3925   0.3950   0.4075   0.4134   0.4153   0.4231   0.4344
  0.4374   0.4432   0.4666   0.4760   0.4852   0.5042   0.5148   0.5225
  0.5446   0.5563   0.5715   0.6006   0.6033   0.6173   0.6225   0.6312
  0.6362   0.6507   0.6574   0.6673   0.6801   0.6873   0.6937   0.7052
  0.7070   0.7166   0.7316   0.7465   0.7487   0.7573   0.7684   0.7735
  0.7874   0.8002   0.8122   0.8296   0.8445   0.8644   0.8815   0.8875
  0.9047   0.9301   0.9389   0.9474   0.9506   0.9645   0.9760   1.0114
  1.0458   1.0555   1.0565   1.0664   1.0889   1.1031   1.1110   1.1352
  1.1473   1.1604   1.1693   1.1736   1.1805   1.1840   1.1957   1.1984
  1.2107   1.2162   1.2200   1.2269   1.2424   1.2455   1.2504   1.2824
  1.2951   1.3040   1.3124   1.3238   1.3372   1.3432   1.3537   1.3615
  1.3803   1.3922   1.3966   1.4273   1.4398   1.4481   1.4511   1.4593
  1.4650   1.4879   1.4918   1.5165   1.5253   1.5376   1.5471   1.5575
  1.5673   1.5800   1.5992   1.6017   1.6286   1.6466   1.6553   1.6701
  1.6889   1.6985   1.7191   1.7463   1.7651   1.7870   1.8092   1.8288
  1.8478   1.8641   1.8731   1.9069   1.9269   1.9533   1.9721   1.9835
  2.0259   2.0309   2.0457   2.1019   2.1396   2.1714   2.2143   2.2343
  2.2500   2.2806   2.2823   2.3276   2.3509   2.3876   2.4045   2.4103
  2.4314   2.4502   2.4663   2.4830   2.5202   2.5424   2.5903   2.5963
  2.6798   2.6930   2.7144   2.7684   2.7800   2.8054   2.8122   2.8299
  2.8387   2.8578   2.8814   2.9049   2.9115   2.9270   2.9579   2.9753
  3.0181   3.0390   3.0529   3.0837   3.1132   3.1228   3.1465   3.1657
  3.1838   3.2109   3.2318   3.2422   3.2582   3.2861   3.3354   3.3436
  3.3647   3.3853   3.3990   3.4297   3.4518   3.4681   3.4816   3.4910
  3.5004   3.5197   3.5357   3.5442   3.5519   3.5995   3.6222   3.6287
  3.6710   3.6873   3.6965   3.7064   3.7113   3.7279   3.7608   3.7681
  3.7913   3.8109   3.8201   3.8321   3.8346   3.8423   3.8662   3.8843
  3.9127   3.9191   3.9395   3.9542   3.9890   4.0006   4.0365   4.0590
  4.0637   4.0873   4.1008   4.1321   4.1623   4.1782   4.1915   4.2160
  4.2259   4.2640   4.2704   4.2874   4.3042   4.3220   4.3310   4.3411
  4.3642   4.4063   4.4374   4.4471   4.4657   4.4910   4.5192   4.5433
  4.5677   4.5877   4.6283   4.6639   4.6987   4.7043   4.7281   4.8096
  4.8228   4.8919   4.9727   5.0087   5.0875   5.1021   5.1896   5.2019
  5.2109   5.2117   5.2195   5.2360   5.2503   5.2787   5.2931   5.3087
  5.3169   5.3311   5.3343   5.3415   5.3577   5.3816   5.4171   5.4271
  5.4359   5.4374   5.4712   5.5022   5.5161   5.5252   5.5353   5.5460
  5.5754   5.6010   5.6109   5.6133   5.6200   5.6356   5.6651   5.6695
  5.6816   5.7101   5.7216   5.7585   5.8460   5.8663   5.8872   5.9178
  5.9362   6.0190   6.0360   6.0654   6.0806   6.1652   6.2592   6.2768
  6.5395   6.6255   6.6619   6.7221   6.7490   6.8451   6.9563   7.0111
  7.0234   7.0599   7.0878   7.1008   7.1401   7.1564   7.1660   7.2385
  7.2547   7.2681   7.2772   7.2913   7.3198   7.3481   7.3591   7.3864
  7.4056   7.4417   7.4511   7.4780   7.5415   7.6148   7.6288   7.6399
  7.6814   7.7110   7.7619   7.8166   7.8362   7.8491   7.8865   7.9705
  8.2051  24.5584  24.7445  24.7851  24.8467  25.0936  50.5052  50.5679
 50.6100  50.6188  50.6507  50.7339
 
 Beta MOs
 -- Occupied --
-19.4102 -19.4006 -19.3503 -19.3502 -19.3376 -19.3367 -10.4586 -10.4438
-10.4186 -10.3905 -10.3786  -1.2769  -1.2075  -1.1892  -1.1458  -1.1410
 -1.0596  -0.9086  -0.8581  -0.8043  -0.7349  -0.6886  -0.6671  -0.6648
 -0.6392  -0.6076  -0.6043  -0.5906  -0.5802  -0.5701  -0.5418  -0.5317
 -0.5084  -0.5046  -0.4846  -0.4656  -0.4615  -0.4224  -0.4195  -0.4163
 -0.4063  -0.3916  -0.3818
 -- Virtual --
 -0.0499   0.0231   0.0359   0.0370   0.0420   0.0595   0.0601   0.0688
  0.0713   0.0785   0.0993   0.1033   0.1089   0.1141   0.1265   0.1280
  0.1331   0.1380   0.1477   0.1556   0.1584   0.1662   0.1695   0.1727
  0.1757   0.1825   0.1859   0.1926   0.2002   0.2145   0.2182   0.2307
  0.2368   0.2445   0.2569   0.2593   0.2709   0.2753   0.2783   0.2898
  0.2948   0.3008   0.3052   0.3145   0.3155   0.3181   0.3256   0.3351
  0.3408   0.3471   0.3498   0.3560   0.3578   0.3622   0.3700   0.3767
  0.3833   0.3864   0.3932   0.3965   0.4079   0.4141   0.4160   0.4240
  0.4349   0.4382   0.4460   0.4683   0.4763   0.4859   0.5050   0.5145
  0.5276   0.5470   0.5585   0.5754   0.6034   0.6058   0.6190   0.6270
  0.6352   0.6369   0.6524   0.6627   0.6686   0.6831   0.6918   0.6961
  0.7067   0.7127   0.7212   0.7336   0.7494   0.7542   0.7616   0.7703
  0.7747   0.7893   0.8028   0.8137   0.8304   0.8466   0.8661   0.8849
  0.8919   0.9076   0.9330   0.9406   0.9480   0.9522   0.9683   0.9774
  1.0152   1.0478   1.0566   1.0572   1.0672   1.0889   1.1038   1.1136
  1.1362   1.1481   1.1608   1.1705   1.1749   1.1844   1.1860   1.1972
  1.2010   1.2130   1.2179   1.2242   1.2305   1.2439   1.2502   1.2512
  1.2852   1.2959   1.3075   1.3158   1.3262   1.3396   1.3454   1.3547
  1.3650   1.3856   1.3939   1.4007   1.4316   1.4423   1.4493   1.4542
  1.4631   1.4675   1.4901   1.4954   1.5200   1.5265   1.5403   1.5496
  1.5603   1.5707   1.5812   1.6029   1.6037   1.6345   1.6480   1.6573
  1.6723   1.6914   1.7022   1.7208   1.7556   1.7671   1.7890   1.8130
  1.8318   1.8527   1.8700   1.8803   1.9116   1.9286   1.9552   1.9772
  1.9867   2.0306   2.0349   2.0482   2.1037   2.1416   2.1746   2.2177
  2.2384   2.2520   2.2821   2.2841   2.3294   2.3533   2.3895   2.4061
  2.4123   2.4332   2.4512   2.4688   2.4846   2.5263   2.5460   2.5955
  2.6040   2.6875   2.6962   2.7173   2.7774   2.7923   2.8174   2.8203
  2.8357   2.8504   2.8651   2.8885   2.9088   2.9281   2.9355   2.9752
  3.0236   3.0339   3.0515   3.0620   3.0952   3.1345   3.1371   3.1552
  3.1733   3.1948   3.2179   3.2422   3.2553   3.2691   3.2976   3.3399
  3.3532   3.3776   3.3923   3.4137   3.4409   3.4636   3.4786   3.4863
  3.4950   3.5098   3.5256   3.5427   3.5521   3.5623   3.6148   3.6342
  3.6368   3.6763   3.6962   3.7057   3.7141   3.7251   3.7382   3.7661
  3.7741   3.8016   3.8131   3.8246   3.8352   3.8377   3.8544   3.8689
  3.8902   3.9185   3.9230   3.9448   3.9624   3.9959   4.0066   4.0431
  4.0642   4.0726   4.0970   4.1100   4.1356   4.1670   4.1852   4.1965
  4.2210   4.2346   4.2676   4.2762   4.2899   4.3139   4.3294   4.3434
  4.3473   4.3701   4.4178   4.4402   4.4522   4.4752   4.4994   4.5354
  4.5487   4.5863   4.6001   4.6481   4.6775   4.7075   4.7112   4.7323
  4.8182   4.8274   4.8958   4.9782   5.0195   5.0931   5.1140   5.2053
  5.2120   5.2136   5.2154   5.2283   5.2502   5.2698   5.2813   5.2955
  5.3103   5.3190   5.3343   5.3377   5.3426   5.3586   5.3851   5.4188
  5.4297   5.4378   5.4431   5.4765   5.5072   5.5189   5.5327   5.5408
  5.5542   5.5777   5.6041   5.6147   5.6177   5.6266   5.6383   5.6710
  5.6776   5.6835   5.7132   5.7378   5.7714   5.8499   5.8734   5.8958
  5.9189   5.9410   6.0208   6.0365   6.0659   6.0819   6.1660   6.2600
  6.2929   6.5405   6.6261   6.6629   6.7294   6.7496   6.8454   6.9870
  7.0116   7.0237   7.0801   7.0910   7.1042   7.1419   7.1596   7.1673
  7.2388   7.2558   7.2688   7.2777   7.3026   7.3213   7.3484   7.3602
  7.3884   7.4175   7.4444   7.4556   7.4787   7.5418   7.6156   7.6332
  7.6430   7.6820   7.7112   7.7703   7.8168   7.8383   7.8524   7.8868
  7.9710   8.2053  24.5649  24.7461  24.7860  24.8471  25.0961  50.5053
 50.5680  50.6100  50.6190  50.6509  50.7385
 --------------------------------------------------------------
 
          Ground-State Mulliken Net Atomic Charges

     Atom                 Charge (a.u.)    Spin (a.u.)
  --------------------------------------------------------
      1 C                    -0.327348       0.006500
      2 O                    -0.486647       0.003263
      3 C                     0.202075       0.029255
      4 O                    -0.475610       0.236215
      5 C                    -0.008578       0.712205
      6 C                    -0.255439      -0.072794
      7 C                    -0.163347       0.063561
      8 O                    -0.424092       0.007279
      9 O                    -0.411922       0.001845
     10 H                     0.236321       0.002096
     11 H                     0.225939       0.001908
     12 H                     0.327145      -0.001570
     13 H                     0.334238      -0.014254
     14 H                     0.305055       0.018644
     15 H                     0.259980      -0.001791
     16 H                     0.360639      -0.000673
     17 H                     0.350589      -0.000010
     18 O                    -0.091092       0.002052
     19 O                    -0.305387       0.006482
     20 H                     0.347479      -0.000214
  --------------------------------------------------------
  Sum of atomic charges =     0.000000
  Sum of spin   charges =     1.000000

 -----------------------------------------------------------------
                    Cartesian Multipole Moments
 -----------------------------------------------------------------
    Charge (ESU x 10^10)
                 0.0000
    Dipole Moment (Debye)
         X       8.7083      Y      -6.1933      Z       2.6412
       Tot      11.0076
    Quadrupole Moments (Debye-Ang)
        XX       6.2936     XY     -20.1565     YY     -62.5974
        XZ      -2.8225     YZ      -3.4263     ZZ     -71.6200
    Octopole Moments (Debye-Ang^2)
       XXX    -126.1311    XXY     -68.8644    XYY    -202.4918
       YYY     -21.5040    XXZ     -27.3984    XYZ     -14.1729
       YYZ      43.0148    XZZ    -212.1876    YZZ      -0.5178
       ZZZ     105.6735
    Hexadecapole Moments (Debye-Ang^3)
      XXXX   -1631.7857   XXXY    -132.5591   XXYY    -966.0910
      XYYY      55.3384   YYYY    -551.5325   XXXZ    -312.0879
      XXYZ     -35.0497   XYYZ     105.1406   YYYZ     -22.2243
      XXZZ    -926.2254   XYZZ      63.4860   YYZZ    -209.8055
      XZZZ     134.2719   YZZZ      65.1004   ZZZZ    -562.7322
 -----------------------------------------------------------------
 Calculating analytic gradient of the SCF energy
 Gradient of CDS energy
            1           2           3           4           5           6
    1  -0.0008558   0.0004931  -0.0010174   0.0008786   0.0000453   0.0000559
    2   0.0002069  -0.0004273   0.0019294  -0.0014715  -0.0000442  -0.0001773
    3  -0.0013563   0.0003494   0.0008055  -0.0003891   0.0002330  -0.0001241
            7           8           9          10          11          12
    1   0.0009660   0.0001355  -0.0013140   0.0001845   0.0001635  -0.0003042
    2   0.0019738  -0.0010054  -0.0011941  -0.0000833  -0.0001160   0.0002900
    3   0.0000338   0.0019003  -0.0017281   0.0001963   0.0002152  -0.0001341
           13          14          15          16          17          18
    1   0.0001025  -0.0000061  -0.0000199   0.0001317   0.0004250  -0.0000979
    2   0.0000773  -0.0000026  -0.0001610   0.0001381   0.0001771   0.0001178
    3   0.0001422   0.0001665  -0.0000796  -0.0004938   0.0002622   0.0000196
           19          20
    1   0.0001087  -0.0000749
    2   0.0002443  -0.0004720
    3  -0.0001749   0.0001560
 Gradient of SCF Energy
            1           2           3           4           5           6
    1   0.0037749  -0.0044903   0.0011524   0.0003205   0.0005027  -0.0031095
    2  -0.0084485   0.0051743   0.0037641   0.0009210  -0.0042241   0.0094380
    3  -0.0010855  -0.0053707   0.0067038  -0.0002785  -0.0048246  -0.0150487
            7           8           9          10          11          12
    1  -0.0143033  -0.0191605  -0.0216020  -0.0036141   0.0020667   0.0004643
    2   0.0162885   0.0016274   0.0021635   0.0002362   0.0033773  -0.0028939
    3   0.0042208   0.0097691   0.0057647   0.0037020   0.0007830  -0.0007907
           13          14          15          16          17          18
    1   0.0015370   0.0021051   0.0115208   0.0203624   0.0221016   0.0022344
    2  -0.0009719  -0.0091035  -0.0131114  -0.0018125  -0.0011755   0.0005865
    3   0.0038347   0.0114579  -0.0029149  -0.0088549  -0.0070930  -0.0024229
           19          20
    1  -0.0113430   0.0094799
    2   0.0130723  -0.0149078
    3  -0.0079036   0.0103521
 Max gradient component =       2.210E-02
 RMS gradient           =       8.640E-03
 Computing fast CPCM-SWIG gradient
 Updating gradient with PCM contributions...
 -- total gradient after adding PCM contribution --
---------------------------------------------------
  Atom         X              Y              Z     
---------------------------------------------------
   1      -0.000247       0.000095      -0.001187
   2      -0.000089      -0.000320      -0.001062
   3       0.001095      -0.001570       0.000570
   4      -0.000267       0.000268      -0.000520
   5      -0.000159       0.001039       0.000822
   6      -0.000216      -0.000467       0.000172
   7      -0.000717       0.000460       0.000353
   8       0.000198      -0.000118      -0.000200
   9       0.000085      -0.000488      -0.000107
  10      -0.000016      -0.000187       0.000329
  11       0.000155       0.000206       0.000146
  12      -0.000707       0.001299       0.001042
  13      -0.000116      -0.000012      -0.000146
  14      -0.000362      -0.000205      -0.000235
  15       0.000248       0.000263      -0.000007
  16       0.000588       0.000250      -0.000314
  17       0.000703       0.000452      -0.000190
  18       0.001538       0.000361      -0.000657
  19      -0.001611      -0.001027       0.000913
  20      -0.000104      -0.000300       0.000277
---------------------------------------------------
 Number of fixed atoms: 0
 Gradient time:  CPU 458.54 s  wall 37.53 s
 Geometry Optimization Parameters
   NAtoms,    NIC,     NZ,  NCons,   NDum,   NFix, NCnnct, MaxDiis
       20     126       0       0       0       0       0       0

 Cartesian Hessian Update
 Hessian updated using BFGS update


** GEOMETRY OPTIMIZATION IN DELOCALIZED INTERNAL COORDINATES **
   Searching for a Minimum

   Optimization Cycle:   2

                       Coordinates (Angstroms)
     ATOM                X               Y               Z
      1  C         1.8745965357    0.2487565405   -1.5981017004
      2  O         0.9861856864    1.1386934046   -2.2469631427
      3  C         2.2805613742    0.8047482165   -0.2495152327
      4  O         1.7208654847    1.8452302054    0.1338830291
      5  C         3.2677951788    0.1978429663    0.5886407741
      6  C         4.1039359762   -1.0011002932    0.3118182333
      7  C         5.4807788243   -0.6190469549   -0.2487755114
      8  O         5.2837735422    0.1104140707   -1.4346912525
      9  O         6.1189336369    0.1478589839    0.7433571990
     10  H         2.7605622811    0.0909161331   -2.2118036088
     11  H         1.3983948623   -0.7215330532   -1.4423250453
     12  H         0.7624406426    1.8207858116   -1.5921187262
     13  H         3.4635596743    0.7219272494    1.5139899900
     14  H         4.2823195125   -1.5362298911    1.2469935237
     15  H         6.0533099666   -1.5238121368   -0.4553157268
     16  H         6.1062361190    0.1070221688   -1.9389326013
     17  H         7.0562980277    0.2079639561    0.5224293952
     18  O         3.5453856516   -1.9041330552   -0.6342310691
     19  O         2.4127414680   -2.5250181651   -0.0205071102
     20  H         2.8054408547   -3.3104361573    0.3916998831
   Point Group: c1    Number of degrees of freedom:    54


   Energy is   -647.184726280

 Hessian updated using BFGS update

 52 Hessian modes will be used to form the next step
  Hessian Eigenvalues:
     0.004489    0.004588    0.006396    0.010334    0.011079    0.012715
     0.013279    0.013744    0.014464    0.014657    0.017802    0.052884
     0.057883    0.059995    0.063408    0.069021    0.074949    0.077712
     0.090112    0.113271    0.139398    0.158501    0.159866    0.160759
     0.172790    0.179954    0.202137    0.206175    0.216508    0.224449
     0.245293    0.250000    0.261527    0.286194    0.303031    0.328762
     0.339551    0.340775    0.341936    0.347166    0.354697    0.390468
     0.406655    0.417811    0.436182    0.443439    0.443999    0.495444
     0.522543    0.529185    0.530434    0.844948

 Minimum search - taking simple RFO step
 Searching for Lamda that Minimizes Along All modes
 Value Taken    Lamda =  -0.00019033
 Step Taken.  Stepsize is  0.072092

                             Maximum     Tolerance    Cnvgd?
         Gradient           0.003538      0.000300      NO
         Displacement       0.030473      0.001200      NO
         Energy change     -0.000604      0.000001      NO


 New Cartesian Coordinates Obtained by Inverse Iteration

 Displacement from previous Coordinates is:  0.275068
 ----------------------------------------------------------------
             Standard Nuclear Orientation (Angstroms)
    I     Atom           X                Y                Z
 ----------------------------------------------------------------
    1      C       1.8661590156     0.2271203708    -1.5785954266
    2      O       0.9651176047     1.0942849476    -2.2382023424
    3      C       2.2854270099     0.8131111427    -0.2489445389
    4      O       1.7232736884     1.8522740385     0.1320802509
    5      C       3.2800931324     0.2136016967     0.5837873191
    6      C       4.1084456564    -0.9880151181     0.3053382548
    7      C       5.4894196793    -0.6171891223    -0.2457607794
    8      O       5.3015779549     0.1230608421    -1.4256898416
    9      O       6.1283106456     0.1362683330     0.7558393691
   10      H       2.7438996224     0.0626682024    -2.2012562229
   11      H       1.3978673576    -0.7419289100    -1.3971416679
   12      H       0.7486872388     1.7922040334    -1.6018171689
   13      H       3.4812732936     0.7387724023     1.5068224490
   14      H       4.2799037566    -1.5288028164     1.2379965656
   15      H       6.0509614204    -1.5271453356    -0.4559926391
   16      H       6.1204265264     0.1090820582    -1.9324185594
   17      H       7.0679740116     0.1784750621     0.5486362241
   18      O       3.5473560985    -1.8755333511    -0.6526442919
   19      O       2.4014414323    -2.4827028973    -0.0587549923
   20      H       2.7765001548    -3.2787555790     0.3462493388
 ----------------------------------------------------------------
 Nuclear Repulsion Energy =         681.34388604 hartrees
 There are       44 alpha and       43 beta electrons
 Discretize the solute cavity surface with Lebedev spheres
	Using 110 Lebedev grid points for each H atom
	Using 194 Lebedev grid points for other atoms
	Atomic van der Waals radii will be scaled by 1.20
 Remove points where switching function is < 1.0e-08
 Keep 1561 surface tesserae and discard 1563 interior tesserae
 Molecular Surface Area = 174.641 Angst**2
 Applying Cartesian multipole field
    Component          Value
    ---------          -----
     (2,0,0)        1.00000E-12
     (0,2,0)        2.00000E-11
     (0,0,2)       -3.00000E-11
 Nucleus-field energy     =     0.0000000043 hartrees
 Requested basis set is 6-311++G(2df,2p)
 There are 142 shells and 464 basis functions
 A cutoff of  1.0D-12 yielded   8713 shell pairs
 There are     92209 function pairs (    114461 Cartesian)
 Smallest overlap matrix eigenvalue = 5.74E-06
 Guess MOs from SCF MO coefficient file

 -----------------------------------------------------------------------
  General SCF calculation program by
  Eric Jon Sundstrom, Paul Horn, Yuezhi Mao, Dmitri Zuev, Alec White,
  David Stuck, Shaama M.S., Shane Yost, Joonho Lee, David Small,
  Daniel Levine, Susi Lehtola, Hugh Burton, Evgeny Epifanovsky,
  Bang C. Huynh
 -----------------------------------------------------------------------
 Exchange:     0.1500 Hartree-Fock + 1.0000 wB97M-V + LR-HF
 Correlation:  1.0000 wB97M-V
 Using SG-2 standard quadrature grid
 Nonlocal Correlation:  VV10 with C = 0.0100 and b = 6.00 and scale = 1.00000
 Grid used for NLC:  SG-1 standard quadrature
 
 Citation of the SMD model:
 Marenich, A.V.; Cramer, C.J.; Truhlar, D.G.
 J. Phys. Chem. B 2009, 113, 6378-6396.
 iSolventCode=           1
 Solvent: water                                                           
 
 vradii
            1           2           3           4           5           6
    1   1.8500000   1.5200000   1.8500000   1.5200000   1.8500000   1.8500000
            7           8           9          10          11          12
    1   1.8500000   1.5200000   1.5200000   1.2000000   1.2000000   1.2000000
           13          14          15          16          17          18
    1   1.2000000   1.2000000   1.2000000   1.2000000   1.2000000   1.5200000
           19          20
    1   1.5200000   1.2000000
 -------------------------------------------------------
 OpenMP BLAS3 based DFT computing Module                
 Release: version 1.0, May 2013, Q-Chem Inc. Pittsburgh 
 -------------------------------------------------------
 A unrestricted SCF calculation will be
 performed using Roothaan-Hall, DIIS, GDM
 SCF converges when RMS gradient is below 1.0e-07
 ---------------------------------------
  Cycle       Energy         DIIS error
 ---------------------------------------
    1    -647.1323742728      2.48e-04  Roothaan Step
 ---------------------------------------
  Cycle       Energy         DIIS error
 ---------------------------------------
    1    -647.1813975670      2.56e-04  
    2    -647.1888125483      2.10e-04  Done DIIS. Switching to GDM
 ---------------------------------------
  Cycle       Energy        RMS Gradient
 ---------------------------------------
    1    -647.1888125483      1.35e-02   Normal BFGS step
    2    -647.1883718943      2.16e-02  Line search: overstep
    3    -647.1918310697      4.29e-03   Normal BFGS step
    4    -647.1920949362      1.23e-03   Normal BFGS step
    5    -647.1921422364      9.66e-04   Normal BFGS step
    6    -647.1921547486      3.22e-04   Normal BFGS step
    7    -647.1921566117      2.28e-04   Normal BFGS step
    8    -647.1921571143      1.53e-04   Normal BFGS step
    9    -647.1921572365      8.04e-05   Normal BFGS step
   10    -647.1921572623      5.07e-05   Normal BFGS step
   11    -647.1921572753      2.95e-05   Normal BFGS step
   12    -647.1921572790      9.07e-06   Normal BFGS step
   13    -647.1921572799      2.90e-06   Normal BFGS step
   14    -647.1921572801      1.90e-06   Normal BFGS step
   15    -647.1921572801      1.48e-06   Normal BFGS step
   16    -647.1921572802      6.75e-07   Normal BFGS step
   17    -647.1921572802      3.77e-07   Normal BFGS step
   18    -647.1921572802      1.43e-07   Normal BFGS step
   19    -647.1921572802      2.98e-08  Convergence criterion met
 ---------------------------------------
 SCF time:   CPU 3240.89s  wall 223.00s 
<S^2> =          0.760605627
(3)  G-ENP(liq) elect-nuc-pol free energy of system     -647.192157280 a.u.
(4)  G-CDS(liq) cavity-dispersion-solvent structure 
     free energy                                                4.6483 kcal/mol
(6)  G-S(liq) free energy of system                     -647.184749798 a.u.
 SCF   energy in the final basis set =     -647.1847497983
 Total energy in the final basis set =     -647.1847497983
 
 --------------------------------------------------------------
 
                    Orbital Energies (a.u.)
 --------------------------------------------------------------
 
 Alpha MOs
 -- Occupied --
-19.4099 -19.4005 -19.3502 -19.3502 -19.3441 -19.3366 -10.4592 -10.4423
-10.4173 -10.3897 -10.3886  -1.2791  -1.2084  -1.1972  -1.1498  -1.1418
 -1.0607  -0.9251  -0.8624  -0.8130  -0.7393  -0.6925  -0.6699  -0.6675
 -0.6428  -0.6114  -0.6084  -0.5949  -0.5865  -0.5729  -0.5481  -0.5348
 -0.5120  -0.5094  -0.5058  -0.4750  -0.4659  -0.4230  -0.4212  -0.4169
 -0.4087  -0.3966  -0.3888  -0.3404
 -- Virtual --
  0.0232   0.0355   0.0371   0.0417   0.0592   0.0600   0.0689   0.0713
  0.0750   0.0862   0.1012   0.1076   0.1114   0.1245   0.1276   0.1333
  0.1384   0.1471   0.1550   0.1555   0.1630   0.1687   0.1703   0.1752
  0.1814   0.1859   0.1927   0.2010   0.2151   0.2178   0.2304   0.2363
  0.2438   0.2561   0.2591   0.2702   0.2755   0.2776   0.2874   0.2951
  0.3013   0.3058   0.3138   0.3150   0.3163   0.3237   0.3333   0.3397
  0.3458   0.3474   0.3554   0.3561   0.3605   0.3692   0.3764   0.3809
  0.3861   0.3927   0.3959   0.4067   0.4145   0.4156   0.4240   0.4345
  0.4369   0.4441   0.4676   0.4773   0.4864   0.5079   0.5171   0.5235
  0.5474   0.5540   0.5738   0.6005   0.6039   0.6187   0.6228   0.6318
  0.6375   0.6519   0.6565   0.6663   0.6816   0.6868   0.6946   0.7036
  0.7065   0.7162   0.7321   0.7461   0.7498   0.7589   0.7685   0.7731
  0.7893   0.8006   0.8116   0.8306   0.8456   0.8637   0.8820   0.8894
  0.9057   0.9340   0.9407   0.9458   0.9497   0.9662   0.9787   1.0106
  1.0474   1.0548   1.0577   1.0654   1.0880   1.1042   1.1151   1.1351
  1.1476   1.1615   1.1710   1.1742   1.1823   1.1855   1.1961   1.2005
  1.2098   1.2187   1.2208   1.2273   1.2410   1.2469   1.2504   1.2835
  1.2959   1.3048   1.3152   1.3265   1.3406   1.3430   1.3535   1.3635
  1.3833   1.3931   1.4012   1.4299   1.4430   1.4488   1.4527   1.4599
  1.4651   1.4886   1.4932   1.5201   1.5278   1.5397   1.5496   1.5633
  1.5664   1.5812   1.6008   1.6054   1.6292   1.6474   1.6601   1.6697
  1.6908   1.6969   1.7208   1.7466   1.7672   1.7878   1.8123   1.8302
  1.8472   1.8685   1.8732   1.9076   1.9275   1.9534   1.9739   1.9838
  2.0273   2.0340   2.0525   2.1041   2.1429   2.1747   2.2183   2.2452
  2.2531   2.2821   2.2864   2.3310   2.3533   2.3896   2.4044   2.4145
  2.4355   2.4513   2.4675   2.4822   2.5220   2.5437   2.5917   2.5962
  2.6806   2.6920   2.7175   2.7701   2.7808   2.8049   2.8136   2.8314
  2.8388   2.8577   2.8871   2.9048   2.9145   2.9281   2.9600   2.9764
  3.0211   3.0415   3.0564   3.0870   3.1160   3.1230   3.1493   3.1702
  3.1867   3.2098   3.2320   3.2427   3.2604   3.2901   3.3357   3.3460
  3.3660   3.3863   3.4026   3.4304   3.4531   3.4689   3.4842   3.4920
  3.5041   3.5212   3.5373   3.5433   3.5517   3.5996   3.6234   3.6332
  3.6718   3.6840   3.6988   3.7086   3.7144   3.7289   3.7623   3.7705
  3.7919   3.8122   3.8243   3.8345   3.8360   3.8465   3.8670   3.8869
  3.9167   3.9228   3.9398   3.9576   3.9899   4.0034   4.0395   4.0634
  4.0684   4.0937   4.1041   4.1360   4.1648   4.1813   4.1945   4.2201
  4.2297   4.2675   4.2750   4.2923   4.3075   4.3253   4.3357   4.3440
  4.3665   4.4088   4.4427   4.4500   4.4709   4.4937   4.5223   4.5476
  4.5702   4.5902   4.6323   4.6633   4.7003   4.7076   4.7306   4.8091
  4.8257   4.8946   4.9730   5.0087   5.0890   5.1046   5.1897   5.2026
  5.2114   5.2131   5.2200   5.2354   5.2508   5.2796   5.2948   5.3142
  5.3239   5.3320   5.3363   5.3430   5.3585   5.3845   5.4191   5.4286
  5.4373   5.4393   5.4721   5.5069   5.5202   5.5294   5.5375   5.5490
  5.5793   5.6033   5.6148   5.6166   5.6233   5.6395   5.6700   5.6734
  5.6837   5.7114   5.7243   5.7643   5.8501   5.8707   5.8894   5.9229
  5.9391   6.0259   6.0418   6.0714   6.0876   6.1708   6.2686   6.2817
  6.5425   6.6325   6.6671   6.7306   6.7515   6.8587   6.9563   7.0131
  7.0273   7.0592   7.0879   7.1013   7.1424   7.1596   7.1694   7.2401
  7.2568   7.2745   7.2853   7.2927   7.3285   7.3576   7.3641   7.3870
  7.4075   7.4463   7.4556   7.4823   7.5453   7.6225   7.6304   7.6415
  7.6848   7.7117   7.7596   7.8160   7.8407   7.8519   7.8882   7.9768
  8.2095  24.5611  24.7495  24.7920  24.8546  25.1010  50.5067  50.5714
 50.6119  50.6228  50.6535  50.7370
 
 Beta MOs
 -- Occupied --
-19.4098 -19.4004 -19.3502 -19.3501 -19.3374 -19.3365 -10.4582 -10.4433
-10.4179 -10.3897 -10.3779  -1.2788  -1.2079  -1.1892  -1.1467  -1.1416
 -1.0597  -0.9090  -0.8590  -0.8044  -0.7348  -0.6899  -0.6677  -0.6653
 -0.6401  -0.6083  -0.6047  -0.5907  -0.5805  -0.5695  -0.5419  -0.5320
 -0.5084  -0.5049  -0.4845  -0.4660  -0.4616  -0.4223  -0.4201  -0.4162
 -0.4060  -0.3915  -0.3814
 -- Virtual --
 -0.0497   0.0232   0.0358   0.0371   0.0419   0.0595   0.0601   0.0690
  0.0716   0.0783   0.0998   0.1040   0.1094   0.1141   0.1266   0.1279
  0.1333   0.1384   0.1481   0.1554   0.1586   0.1662   0.1697   0.1730
  0.1753   0.1822   0.1860   0.1930   0.2011   0.2150   0.2182   0.2316
  0.2368   0.2453   0.2569   0.2598   0.2715   0.2759   0.2783   0.2900
  0.2961   0.3015   0.3067   0.3155   0.3157   0.3181   0.3261   0.3361
  0.3413   0.3471   0.3502   0.3569   0.3579   0.3625   0.3703   0.3772
  0.3837   0.3871   0.3933   0.3978   0.4070   0.4149   0.4165   0.4249
  0.4350   0.4376   0.4472   0.4693   0.4776   0.4872   0.5086   0.5167
  0.5286   0.5497   0.5563   0.5776   0.6045   0.6051   0.6214   0.6265
  0.6359   0.6382   0.6532   0.6609   0.6681   0.6845   0.6920   0.6966
  0.7049   0.7129   0.7208   0.7341   0.7493   0.7550   0.7629   0.7707
  0.7741   0.7912   0.8031   0.8133   0.8314   0.8479   0.8652   0.8851
  0.8936   0.9090   0.9371   0.9418   0.9461   0.9516   0.9701   0.9803
  1.0141   1.0493   1.0561   1.0581   1.0664   1.0880   1.1051   1.1177
  1.1362   1.1484   1.1620   1.1722   1.1754   1.1864   1.1874   1.1977
  1.2025   1.2115   1.2205   1.2267   1.2302   1.2423   1.2510   1.2517
  1.2862   1.2970   1.3081   1.3187   1.3290   1.3432   1.3449   1.3548
  1.3671   1.3881   1.3956   1.4050   1.4339   1.4455   1.4505   1.4565
  1.4631   1.4676   1.4915   1.4961   1.5233   1.5289   1.5426   1.5520
  1.5666   1.5695   1.5824   1.6038   1.6081   1.6348   1.6489   1.6623
  1.6718   1.6932   1.7004   1.7227   1.7559   1.7692   1.7899   1.8160
  1.8334   1.8525   1.8739   1.8802   1.9124   1.9292   1.9555   1.9782
  1.9875   2.0322   2.0378   2.0550   2.1058   2.1448   2.1780   2.2215
  2.2494   2.2551   2.2840   2.2878   2.3328   2.3557   2.3914   2.4059
  2.4166   2.4374   2.4524   2.4700   2.4837   2.5270   2.5484   2.5974
  2.6034   2.6885   2.6954   2.7206   2.7791   2.7929   2.8171   2.8212
  2.8370   2.8501   2.8651   2.8953   2.9093   2.9288   2.9381   2.9772
  3.0268   3.0364   3.0533   3.0649   3.0987   3.1356   3.1390   3.1585
  3.1766   3.1974   3.2176   3.2427   3.2557   3.2712   3.3010   3.3408
  3.3557   3.3782   3.3935   3.4161   3.4422   3.4653   3.4789   3.4886
  3.4960   3.5139   3.5268   3.5448   3.5511   3.5621   3.6160   3.6356
  3.6408   3.6768   3.6930   3.7073   3.7167   3.7287   3.7397   3.7679
  3.7764   3.8020   3.8150   3.8284   3.8365   3.8402   3.8582   3.8696
  3.8927   3.9221   3.9270   3.9451   3.9657   3.9977   4.0087   4.0460
  4.0678   4.0778   4.1038   4.1135   4.1393   4.1699   4.1883   4.1994
  4.2250   4.2386   4.2722   4.2801   4.2944   4.3180   4.3325   4.3464
  4.3513   4.3723   4.4205   4.4457   4.4550   4.4801   4.5023   4.5386
  4.5532   4.5888   4.6032   4.6510   4.6779   4.7108   4.7128   4.7346
  4.8174   4.8305   4.8984   4.9780   5.0198   5.0945   5.1165   5.2060
  5.2121   5.2145   5.2167   5.2290   5.2492   5.2705   5.2819   5.2978
  5.3160   5.3255   5.3349   5.3399   5.3441   5.3594   5.3880   5.4207
  5.4315   5.4389   5.4450   5.4774   5.5124   5.5234   5.5345   5.5452
  5.5572   5.5818   5.6064   5.6180   5.6229   5.6280   5.6429   5.6743
  5.6827   5.6855   5.7155   5.7397   5.7771   5.8537   5.8782   5.8980
  5.9240   5.9438   6.0279   6.0424   6.0722   6.0886   6.1716   6.2694
  6.2977   6.5435   6.6330   6.6680   6.7378   6.7522   6.8590   6.9871
  7.0135   7.0277   7.0803   7.0914   7.1038   7.1442   7.1624   7.1712
  7.2404   7.2580   7.2750   7.2856   7.3043   7.3296   7.3580   7.3652
  7.3888   7.4197   7.4493   7.4594   7.4829   7.5457   7.6232   7.6350
  7.6445   7.6853   7.7119   7.7682   7.8162   7.8436   7.8544   7.8885
  7.9773   8.2098  24.5675  24.7511  24.7929  24.8550  25.1035  50.5068
 50.5715  50.6120  50.6230  50.6536  50.7416
 --------------------------------------------------------------
 
          Ground-State Mulliken Net Atomic Charges

     Atom                 Charge (a.u.)    Spin (a.u.)
  --------------------------------------------------------
      1 C                    -0.330695       0.006520
      2 O                    -0.488461       0.003249
      3 C                     0.203068       0.028927
      4 O                    -0.478421       0.236157
      5 C                    -0.008472       0.711698
      6 C                    -0.246805      -0.073619
      7 C                    -0.166345       0.064463
      8 O                    -0.424393       0.007473
      9 O                    -0.411623       0.001846
     10 H                     0.235996       0.002243
     11 H                     0.229036       0.002106
     12 H                     0.325936      -0.001556
     13 H                     0.334556      -0.014334
     14 H                     0.305594       0.019277
     15 H                     0.259605      -0.001862
     16 H                     0.360053      -0.000656
     17 H                     0.350065       0.000001
     18 O                    -0.091916       0.002053
     19 O                    -0.305413       0.006259
     20 H                     0.348633      -0.000248
  --------------------------------------------------------
  Sum of atomic charges =     0.000000
  Sum of spin   charges =     1.000000

 -----------------------------------------------------------------
                    Cartesian Multipole Moments
 -----------------------------------------------------------------
    Charge (ESU x 10^10)
                 0.0000
    Dipole Moment (Debye)
         X       8.6972      Y      -6.2748      Z       2.6318
       Tot      11.0427
    Quadrupole Moments (Debye-Ang)
        XX       6.1511     XY     -20.5246     YY     -62.3762
        XZ      -2.8184     YZ      -3.4260     ZZ     -71.6417
    Octopole Moments (Debye-Ang^2)
       XXX    -126.1032    XXY     -71.5363    XYY    -202.8609
       YYY     -22.4678    XXZ     -26.2935    XYZ     -13.4376
       YYZ      41.6515    XZZ    -212.3448    YZZ       0.2842
       ZZZ     105.5136
    Hexadecapole Moments (Debye-Ang^3)
      XXXX   -1631.6160   XXXY    -155.3888   XXYY    -969.3578
      XYYY      53.1790   YYYY    -540.0199   XXXZ    -302.5337
      XXYZ     -33.0145   XYYZ     101.0470   YYYZ     -23.8631
      XXZZ    -928.0325   XYZZ      63.6131   YYZZ    -205.9248
      XZZZ     132.5243   YZZZ      58.6415   ZZZZ    -558.0621
 -----------------------------------------------------------------
 Calculating analytic gradient of the SCF energy
 Gradient of CDS energy
            1           2           3           4           5           6
    1  -0.0010446   0.0006685  -0.0010167   0.0008813   0.0000503   0.0000521
    2   0.0003399  -0.0005838   0.0019328  -0.0014649  -0.0000415  -0.0001807
    3  -0.0014487   0.0004704   0.0007950  -0.0003848   0.0002345  -0.0001277
            7           8           9          10          11          12
    1   0.0009890   0.0001403  -0.0013393   0.0001851   0.0001691  -0.0003040
    2   0.0020572  -0.0010895  -0.0011894  -0.0000816  -0.0001080   0.0002888
    3  -0.0000248   0.0020054  -0.0017779   0.0001868   0.0002095  -0.0001382
           13          14          15          16          17          18
    1   0.0001020  -0.0000045  -0.0000283   0.0001358   0.0004265  -0.0000936
    2   0.0000784  -0.0000047  -0.0001612   0.0001402   0.0001690   0.0001239
    3   0.0001402   0.0001666  -0.0000807  -0.0004918   0.0002654   0.0000221
           19          20
    1   0.0001146  -0.0000836
    2   0.0002477  -0.0004726
    3  -0.0001722   0.0001509
 Gradient of SCF Energy
            1           2           3           4           5           6
    1   0.0037435  -0.0041901   0.0015052   0.0006195   0.0001670  -0.0027453
    2  -0.0092138   0.0051623   0.0058698  -0.0000334  -0.0054342   0.0104338
    3   0.0003560  -0.0040393   0.0058757   0.0005988  -0.0058069  -0.0147341
            7           8           9          10          11          12
    1  -0.0136222  -0.0182918  -0.0208028  -0.0039436   0.0020970   0.0013223
    2   0.0157833   0.0017176   0.0027031   0.0005521   0.0034736  -0.0046436
    3   0.0038011   0.0095457   0.0052900   0.0038375   0.0006010  -0.0021583
           13          14          15          16          17          18
    1   0.0013383   0.0024729   0.0107476   0.0188290   0.0204575   0.0005725
    2  -0.0012626  -0.0084565  -0.0132868  -0.0021782  -0.0017916   0.0007140
    3   0.0035636   0.0112367  -0.0027843  -0.0080182  -0.0064255  -0.0018320
           19          20
    1  -0.0091962   0.0089196
    2   0.0140529  -0.0141617
    3  -0.0085106   0.0096033
 Max gradient component =       2.080E-02
 RMS gradient           =       8.354E-03
 Computing fast CPCM-SWIG gradient
 Updating gradient with PCM contributions...
 -- total gradient after adding PCM contribution --
---------------------------------------------------
  Atom         X              Y              Z     
---------------------------------------------------
   1      -0.000440      -0.000349       0.000227
   2       0.000414      -0.000229       0.000344
   3       0.001595       0.000447      -0.000407
   4       0.000003      -0.000725       0.000424
   5      -0.000544       0.000420       0.000055
   6       0.000067      -0.000218       0.000337
   7      -0.000209      -0.000270      -0.000139
   8       0.001022      -0.000350      -0.000397
   9       0.000962      -0.000362      -0.000290
  10      -0.000402       0.000048       0.000380
  11       0.000121       0.000105       0.000034
  12       0.000107      -0.000429      -0.000358
  13      -0.000289      -0.000289      -0.000341
  14       0.000048       0.000479      -0.000442
  15      -0.000369       0.000316       0.000156
  16      -0.000797       0.000185       0.000568
  17      -0.000970       0.000256       0.000135
  18      -0.000145       0.000558      -0.000202
  19       0.000204      -0.000410       0.000326
  20      -0.000378       0.000817      -0.000411
---------------------------------------------------
 Number of fixed atoms: 0
 Gradient time:  CPU 458.09 s  wall 37.66 s
 Geometry Optimization Parameters
   NAtoms,    NIC,     NZ,  NCons,   NDum,   NFix, NCnnct, MaxDiis
       20     126       0       0       0       0       0       0

 Cartesian Hessian Update
 Hessian updated using BFGS update


** GEOMETRY OPTIMIZATION IN DELOCALIZED INTERNAL COORDINATES **
   Searching for a Minimum

   Optimization Cycle:   3

                       Coordinates (Angstroms)
     ATOM                X               Y               Z
      1  C         1.8661590156    0.2271203708   -1.5785954266
      2  O         0.9651176047    1.0942849476   -2.2382023424
      3  C         2.2854270099    0.8131111427   -0.2489445389
      4  O         1.7232736884    1.8522740385    0.1320802509
      5  C         3.2800931324    0.2136016967    0.5837873191
      6  C         4.1084456564   -0.9880151181    0.3053382548
      7  C         5.4894196793   -0.6171891223   -0.2457607794
      8  O         5.3015779549    0.1230608421   -1.4256898416
[...]
    1   0.0001052  -0.0000081  -0.0000272   0.0001419   0.0004285  -0.0000958
    2   0.0000782  -0.0000048  -0.0001583   0.0001307   0.0001618   0.0001203
    3   0.0001389   0.0001662  -0.0000795  -0.0004906   0.0002629   0.0000213
           19          20
    1   0.0001095  -0.0000757
    2   0.0002475  -0.0004738
    3  -0.0001714   0.0001508
 Gradient of SCF Energy
            1           2           3           4           5           6
    1   0.0042988  -0.0047687   0.0000453   0.0005120   0.0008065  -0.0031921
    2  -0.0084244   0.0052963   0.0055166   0.0005309  -0.0057289   0.0100102
    3   0.0000427  -0.0042816   0.0061495   0.0002506  -0.0054751  -0.0151246
            7           8           9          10          11          12
    1  -0.0135780  -0.0188125  -0.0221486  -0.0035556   0.0019260   0.0013198
    2   0.0166642   0.0027406   0.0041071   0.0003887   0.0033177  -0.0041507
    3   0.0034761   0.0101538   0.0047853   0.0033914   0.0006215  -0.0018827
           13          14          15          16          17          18
    1   0.0016523   0.0025029   0.0114923   0.0192471   0.0216600   0.0006970
    2  -0.0009790  -0.0089794  -0.0138266  -0.0031170  -0.0031288   0.0002470
    3   0.0038501   0.0118339  -0.0027924  -0.0087581  -0.0058201  -0.0016687
           19          20
    1  -0.0097615   0.0096569
    2   0.0143020  -0.0147866
    3  -0.0088068   0.0100550
 Max gradient component =       2.215E-02
 RMS gradient           =       8.661E-03
 Computing fast CPCM-SWIG gradient
 Updating gradient with PCM contributions...
 -- total gradient after adding PCM contribution --
---------------------------------------------------
  Atom         X              Y              Z     
---------------------------------------------------
   1      -0.000002       0.000000      -0.000013
   2       0.000032      -0.000002      -0.000065
   3      -0.000037       0.000091       0.000028
   4       0.000027      -0.000052      -0.000009
   5       0.000018      -0.000012      -0.000012
   6      -0.000019      -0.000015       0.000034
   7      -0.000006      -0.000006       0.000007
   8      -0.000001       0.000010       0.000005
   9      -0.000011       0.000025      -0.000032
  10      -0.000022      -0.000022      -0.000015
  11      -0.000007      -0.000013       0.000027
  12      -0.000026      -0.000021       0.000020
  13       0.000020       0.000018      -0.000004
  14      -0.000008       0.000009       0.000010
  15       0.000012       0.000008      -0.000002
  16       0.000000      -0.000020      -0.000022
  17       0.000013      -0.000010      -0.000005
  18       0.000013      -0.000009      -0.000010
  19      -0.000013       0.000006       0.000022
  20       0.000018       0.000017       0.000032
---------------------------------------------------
 Number of fixed atoms: 0
 Gradient time:  CPU 458.79 s  wall 37.91 s
 Geometry Optimization Parameters
   NAtoms,    NIC,     NZ,  NCons,   NDum,   NFix, NCnnct, MaxDiis
       20     126       0       0       0       0       0       0

 Cartesian Hessian Update
 Hessian updated using BFGS update


** GEOMETRY OPTIMIZATION IN DELOCALIZED INTERNAL COORDINATES **
   Searching for a Minimum

   Optimization Cycle:   9

                       Coordinates (Angstroms)
     ATOM                X               Y               Z
      1  C         1.8615048287    0.2398531969   -1.5855449254
      2  O         0.9483313871    1.1062802116   -2.2306752389
      3  C         2.2758294777    0.8144918912   -0.2489283890
      4  O         1.7183296726    1.8559497988    0.1328669121
      5  C         3.2750196896    0.2134923078    0.5800772958
      6  C         4.1063244736   -0.9876678443    0.3051741451
      7  C         5.4882522175   -0.6128120450   -0.2437391882
      8  O         5.2995120720    0.1122062224   -1.4334828218
      9  O         6.1190503134    0.1576749128    0.7500928803
     10  H         2.7423710851    0.0945212503   -2.2106134943
     11  H         1.4043580941   -0.7374966583   -1.4187944960
     12  H         0.7477237720    1.8078394543   -1.5919037985
     13  H         3.4845306038    0.7442800961    1.4989838119
     14  H         4.2768165029   -1.5259729878    1.2405347461
     15  H         6.0578511898   -1.5211695575   -0.4412773275
     16  H         6.1106849578    0.0696792745   -1.9525353192
     17  H         7.0670602572    0.1574046901    0.5753337614
     18  O         3.5521451495   -1.8826219515   -0.6503486644
     19  O         2.4190157574   -2.5077842415   -0.0507016211
     20  H         2.8094037983   -3.2972980209    0.3550130317
   Point Group: c1    Number of degrees of freedom:    54


   Energy is   -647.184825415

 Hessian updated using BFGS update

 54 Hessian modes will be used to form the next step
  Hessian Eigenvalues:
     0.001906    0.004710    0.005420    0.006834    0.011032    0.012557
     0.013128    0.014656    0.015255    0.020139    0.032551    0.053131
     0.059719    0.060048    0.065912    0.070081    0.075312    0.079337
     0.093724    0.114126    0.136878    0.158840    0.159715    0.159921
     0.160238    0.164181    0.177665    0.191787    0.203026    0.206127
     0.215319    0.229812    0.249691    0.262612    0.304879    0.312398
     0.319771    0.339860    0.340748    0.341507    0.342549    0.353547
     0.359905    0.387006    0.418682    0.431041    0.443323    0.445452
     0.480517    0.512124    0.520517    0.530080    0.532302    0.831999

 Minimum search - taking simple RFO step
 Searching for Lamda that Minimizes Along All modes
 Value Taken    Lamda =  -0.00000043
 Step Taken.  Stepsize is  0.008986

                             Maximum     Tolerance    Cnvgd?
         Gradient           0.000066      0.000300     YES
         Displacement       0.005689      0.001200      NO
         Energy change     -0.000001      0.000001     YES

 Final energy is   -647.184825414605     


 ******************************
 **  OPTIMIZATION CONVERGED  **
 ******************************

                       Coordinates (Angstroms)
     ATOM                X               Y               Z
      1  C         1.8615048287    0.2398531969   -1.5855449254
      2  O         0.9483313871    1.1062802116   -2.2306752389
      3  C         2.2758294777    0.8144918912   -0.2489283890
      4  O         1.7183296726    1.8559497988    0.1328669121
      5  C         3.2750196896    0.2134923078    0.5800772958
      6  C         4.1063244736   -0.9876678443    0.3051741451
      7  C         5.4882522175   -0.6128120450   -0.2437391882
      8  O         5.2995120720    0.1122062224   -1.4334828218
      9  O         6.1190503134    0.1576749128    0.7500928803
     10  H         2.7423710851    0.0945212503   -2.2106134943
     11  H         1.4043580941   -0.7374966583   -1.4187944960
     12  H         0.7477237720    1.8078394543   -1.5919037985
     13  H         3.4845306038    0.7442800961    1.4989838119
     14  H         4.2768165029   -1.5259729878    1.2405347461
     15  H         6.0578511898   -1.5211695575   -0.4412773275
     16  H         6.1106849578    0.0696792745   -1.9525353192
     17  H         7.0670602572    0.1574046901    0.5753337614
     18  O         3.5521451495   -1.8826219515   -0.6503486644
     19  O         2.4190157574   -2.5077842415   -0.0507016211
     20  H         2.8094037983   -3.2972980209    0.3550130317

Z-matrix Print:
$molecule
0 2
O 
C  1 1.421647
H  2 1.092584 1 109.030754
O  1 1.426319 2 107.640011 3 52.316926 0
H  4 0.969711 1 102.293795 2 -90.607611 0
C  2 1.486414 1 114.519549 3 -122.521738 0
H  6 1.081674 2 116.444275 1 161.074586 0
C  6 1.430675 2 128.527819 1 -22.878258 0
O  8 1.241454 6 119.198427 2 -177.168186 0
C  8 1.512752 6 122.935485 2 2.672480 0
H  10 1.089843 8 109.636140 6 -53.438698 0
H  10 1.091788 8 108.649572 6 64.209752 0
O  10 1.414487 8 110.311353 6 -174.712923 0
H  13 0.969772 10 106.036873 8 -6.212910 0
C  2 1.533475 1 105.342397 3 114.119099 0
H  15 1.090219 2 109.391201 1 -54.327027 0
O  15 1.405974 2 107.937675 1 65.673302 0
H  17 0.963963 15 108.658782 2 -159.043100 0
O  15 1.406861 2 106.563167 1 -173.788998 0
H  19 0.963983 15 108.223472 2 161.211244 0
$end

 
 --------------------------------------------------------------
 
                    Orbital Energies (a.u.)
 --------------------------------------------------------------
 
 Alpha MOs
 -- Occupied --
-19.4098 -19.4004 -19.3503 -19.3501 -19.3443 -19.3366 -10.4593 -10.4429
-10.4175 -10.3902 -10.3889  -1.2787  -1.2080  -1.1975  -1.1495  -1.1418
 -1.0602  -0.9247  -0.8619  -0.8126  -0.7393  -0.6925  -0.6695  -0.6671
 -0.6425  -0.6108  -0.6089  -0.5950  -0.5861  -0.5732  -0.5482  -0.5345
 -0.5112  -0.5095  -0.5063  -0.4735  -0.4653  -0.4241  -0.4214  -0.4169
 -0.4085  -0.3963  -0.3893  -0.3402
 -- Virtual --
  0.0231   0.0356   0.0371   0.0417   0.0591   0.0603   0.0688   0.0715
  0.0751   0.0860   0.1011   0.1076   0.1114   0.1244   0.1275   0.1331
  0.1386   0.1470   0.1547   0.1555   0.1628   0.1687   0.1702   0.1748
  0.1819   0.1859   0.1924   0.2012   0.2145   0.2188   0.2303   0.2368
  0.2429   0.2562   0.2584   0.2695   0.2748   0.2776   0.2867   0.2942
  0.3016   0.3048   0.3136   0.3147   0.3168   0.3239   0.3325   0.3393
  0.3459   0.3476   0.3551   0.3566   0.3593   0.3690   0.3768   0.3804
  0.3859   0.3908   0.3944   0.4070   0.4141   0.4157   0.4236   0.4341
  0.4370   0.4441   0.4673   0.4776   0.4867   0.5076   0.5173   0.5231
  0.5458   0.5557   0.5737   0.6006   0.6044   0.6189   0.6239   0.6317
  0.6370   0.6523   0.6588   0.6636   0.6799   0.6854   0.6935   0.6986
  0.7054   0.7162   0.7291   0.7460   0.7491   0.7601   0.7694   0.7729
  0.7877   0.8015   0.8114   0.8320   0.8458   0.8632   0.8824   0.8890
  0.9040   0.9313   0.9407   0.9416   0.9512   0.9666   0.9817   1.0086
  1.0477   1.0555   1.0580   1.0666   1.0868   1.1045   1.1135   1.1355
  1.1461   1.1586   1.1713   1.1751   1.1819   1.1860   1.1962   1.2007
  1.2097   1.2171   1.2206   1.2266   1.2411   1.2468   1.2533   1.2825
  1.2954   1.3049   1.3123   1.3245   1.3341   1.3456   1.3520   1.3620
  1.3821   1.3926   1.3985   1.4263   1.4400   1.4448   1.4506   1.4605
  1.4654   1.4876   1.4909   1.5201   1.5271   1.5400   1.5482   1.5594
  1.5665   1.5778   1.6018   1.6035   1.6277   1.6475   1.6575   1.6697
  1.6896   1.6966   1.7207   1.7460   1.7688   1.7893   1.8111   1.8342
  1.8475   1.8671   1.8738   1.9061   1.9272   1.9491   1.9727   1.9814
  2.0255   2.0377   2.0494   2.1031   2.1427   2.1728   2.2196   2.2411
  2.2543   2.2799   2.2863   2.3299   2.3547   2.3883   2.4038   2.4112
  2.4344   2.4505   2.4646   2.4824   2.5157   2.5400   2.5899   2.5960
  2.6743   2.6935   2.7144   2.7705   2.7789   2.8046   2.8172   2.8331
  2.8383   2.8545   2.8843   2.9048   2.9140   2.9265   2.9597   2.9815
  3.0157   3.0401   3.0543   3.0867   3.1167   3.1230   3.1479   3.1672
  3.1866   3.2085   3.2325   3.2400   3.2623   3.2882   3.3337   3.3440
  3.3658   3.3843   3.3999   3.4295   3.4535   3.4680   3.4842   3.4904
  3.5012   3.5229   3.5373   3.5446   3.5515   3.5994   3.6246   3.6324
  3.6711   3.6860   3.6981   3.7103   3.7116   3.7275   3.7608   3.7704
  3.7897   3.8105   3.8234   3.8314   3.8335   3.8450   3.8648   3.8867
  3.9167   3.9233   3.9399   3.9560   3.9898   4.0031   4.0374   4.0621
  4.0678   4.0925   4.1023   4.1339   4.1624   4.1792   4.1983   4.2199
  4.2280   4.2638   4.2714   4.2905   4.3044   4.3214   4.3321   4.3402
  4.3569   4.4057   4.4401   4.4477   4.4688   4.4926   4.5184   4.5452
  4.5698   4.5861   4.6290   4.6654   4.6984   4.7050   4.7297   4.8073
  4.8229   4.8938   4.9707   5.0075   5.0875   5.1012   5.1895   5.2017
  5.2119   5.2141   5.2205   5.2359   5.2504   5.2793   5.2943   5.3121
  5.3194   5.3315   5.3352   5.3443   5.3562   5.3877   5.4183   5.4262
  5.4361   5.4415   5.4675   5.5036   5.5193   5.5250   5.5327   5.5467
  5.5798   5.6010   5.6120   5.6121   5.6212   5.6426   5.6685   5.6700
  5.6806   5.7115   5.7208   5.7614   5.8486   5.8687   5.8874   5.9196
  5.9397   6.0231   6.0421   6.0690   6.0865   6.1754   6.2670   6.2802
  6.5445   6.6287   6.6646   6.7291   6.7480   6.8581   6.9565   7.0119
  7.0269   7.0604   7.0842   7.1008   7.1422   7.1583   7.1697   7.2377
  7.2545   7.2700   7.2822   7.2903   7.3268   7.3542   7.3636   7.3880
  7.4077   7.4464   7.4550   7.4824   7.5518   7.6203   7.6296   7.6407
  7.6831   7.7082   7.7603   7.8095   7.8397   7.8518   7.8893   7.9762
  8.2066  24.5592  24.7462  24.7879  24.8506  25.0958  50.5055  50.5690
 50.6113  50.6219  50.6530  50.7358
 
 Beta MOs
 -- Occupied --
-19.4098 -19.4003 -19.3503 -19.3500 -19.3377 -19.3365 -10.4583 -10.4438
-10.4181 -10.3902 -10.3783  -1.2784  -1.2075  -1.1894  -1.1464  -1.1416
 -1.0592  -0.9087  -0.8586  -0.8039  -0.7348  -0.6899  -0.6671  -0.6652
 -0.6399  -0.6077  -0.6052  -0.5907  -0.5802  -0.5698  -0.5420  -0.5316
 -0.5085  -0.5049  -0.4836  -0.4661  -0.4599  -0.4232  -0.4207  -0.4162
 -0.4058  -0.3913  -0.3819
 -- Virtual --
 -0.0497   0.0231   0.0359   0.0371   0.0419   0.0593   0.0604   0.0688
  0.0719   0.0782   0.0995   0.1041   0.1094   0.1140   0.1265   0.1277
  0.1331   0.1386   0.1479   0.1551   0.1587   0.1660   0.1697   0.1728
  0.1750   0.1827   0.1860   0.1926   0.2013   0.2144   0.2191   0.2315
  0.2372   0.2444   0.2570   0.2591   0.2708   0.2752   0.2783   0.2894
  0.2950   0.3017   0.3055   0.3152   0.3157   0.3186   0.3263   0.3352
  0.3407   0.3472   0.3506   0.3572   0.3575   0.3617   0.3700   0.3775
  0.3833   0.3868   0.3911   0.3965   0.4074   0.4145   0.4166   0.4247
  0.4346   0.4377   0.4470   0.4690   0.4782   0.4872   0.5084   0.5171
  0.5282   0.5481   0.5580   0.5776   0.6041   0.6057   0.6215   0.6271
  0.6357   0.6375   0.6537   0.6620   0.6668   0.6830   0.6904   0.6959
  0.7006   0.7115   0.7207   0.7312   0.7494   0.7540   0.7640   0.7710
  0.7744   0.7898   0.8040   0.8131   0.8327   0.8481   0.8650   0.8856
  0.8930   0.9073   0.9342   0.9408   0.9429   0.9531   0.9705   0.9833
  1.0123   1.0497   1.0567   1.0582   1.0674   1.0868   1.1053   1.1161
  1.1366   1.1468   1.1591   1.1728   1.1765   1.1859   1.1878   1.1980
  1.2028   1.2112   1.2192   1.2255   1.2299   1.2423   1.2513   1.2542
  1.2851   1.2963   1.3083   1.3160   1.3269   1.3369   1.3473   1.3536
  1.3655   1.3868   1.3948   1.4029   1.4304   1.4420   1.4459   1.4548
  1.4631   1.4687   1.4914   1.4930   1.5232   1.5283   1.5427   1.5509
  1.5627   1.5694   1.5789   1.6036   1.6073   1.6335   1.6490   1.6594
  1.6718   1.6920   1.7002   1.7225   1.7553   1.7709   1.7914   1.8147
  1.8375   1.8531   1.8730   1.8800   1.9107   1.9290   1.9512   1.9763
  1.9855   2.0305   2.0415   2.0521   2.1048   2.1447   2.1759   2.2228
  2.2453   2.2562   2.2818   2.2879   2.3318   2.3572   2.3900   2.4053
  2.4132   2.4363   2.4516   2.4668   2.4841   2.5199   2.5457   2.5959
  2.6032   2.6820   2.6971   2.7172   2.7785   2.7913   2.8190   2.8235
  2.8383   2.8496   2.8629   2.8928   2.9084   2.9276   2.9372   2.9767
  3.0301   3.0311   3.0543   3.0636   3.0977   3.1351   3.1384   3.1590
  3.1735   3.1970   3.2164   3.2441   3.2538   3.2709   3.2996   3.3386
  3.3538   3.3780   3.3914   3.4139   3.4417   3.4651   3.4778   3.4880
  3.4953   3.5110   3.5282   3.5451   3.5524   3.5614   3.6155   3.6372
  3.6406   3.6766   3.6944   3.7067   3.7175   3.7263   3.7382   3.7665
  3.7761   3.8004   3.8130   3.8273   3.8325   3.8383   3.8572   3.8674
  3.8926   3.9232   3.9262   3.9455   3.9642   3.9968   4.0089   4.0440
  4.0665   4.0771   4.1028   4.1114   4.1370   4.1674   4.1861   4.2030
  4.2251   4.2371   4.2689   4.2761   4.2925   4.3124   4.3287   4.3429
  4.3483   4.3632   4.4179   4.4433   4.4521   4.4781   4.5013   4.5337
  4.5516   4.5880   4.5992   4.6484   4.6803   4.7083   4.7102   4.7339
  4.8157   4.8276   4.8976   4.9762   5.0183   5.0931   5.1129   5.2055
  5.2128   5.2145   5.2171   5.2287   5.2496   5.2708   5.2814   5.2970
  5.3138   5.3208   5.3335   5.3401   5.3455   5.3573   5.3907   5.4198
  5.4294   5.4383   5.4461   5.4730   5.5085   5.5222   5.5300   5.5413
  5.5551   5.5821   5.6035   5.6137   5.6196   5.6271   5.6463   5.6700
  5.6808   5.6835   5.7143   5.7374   5.7739   5.8521   5.8760   5.8958
  5.9208   5.9444   6.0249   6.0428   6.0699   6.0874   6.1762   6.2677
  6.2962   6.5456   6.6292   6.6656   6.7363   6.7487   6.8584   6.9871
  7.0124   7.0272   7.0789   7.0906   7.1026   7.1442   7.1613   7.1711
  7.2381   7.2556   7.2706   7.2825   7.3019   7.3280   7.3545   7.3645
  7.3900   7.4199   7.4490   7.4592   7.4830   7.5522   7.6213   7.6335
  7.6439   7.6836   7.7084   7.7687   7.8097   7.8422   7.8546   7.8896
  7.9766   8.2069  24.5656  24.7479  24.7888  24.8510  25.0983  50.5056
 50.5691  50.6114  50.6221  50.6531  50.7405
 --------------------------------------------------------------
 
          Ground-State Mulliken Net Atomic Charges

     Atom                 Charge (a.u.)    Spin (a.u.)
  --------------------------------------------------------
      1 C                    -0.333650       0.006334
      2 O                    -0.487192       0.003303
      3 C                     0.208861       0.030159
      4 O                    -0.476956       0.234920
      5 C                    -0.009967       0.710438
      6 C                    -0.234329      -0.072558
      7 C                    -0.175766       0.064552
      8 O                    -0.425374       0.007597
      9 O                    -0.411521       0.001891
     10 H                     0.235987       0.002295
     11 H                     0.226871       0.002066
     12 H                     0.326039      -0.001560
     13 H                     0.333183      -0.014353
     14 H                     0.304869       0.019408
     15 H                     0.258292      -0.001754
     16 H                     0.359286      -0.000657
     17 H                     0.350772       0.000004
     18 O                    -0.091082       0.001867
     19 O                    -0.305791       0.006305
     20 H                     0.347471      -0.000255
  --------------------------------------------------------
  Sum of atomic charges =    -0.000000
  Sum of spin   charges =     1.000000

 -----------------------------------------------------------------
                    Cartesian Multipole Moments
 -----------------------------------------------------------------
    Charge (ESU x 10^10)
                -0.0000
    Dipole Moment (Debye)
         X       8.8001      Y      -6.3796      Z       2.6719
       Tot      11.1928
    Quadrupole Moments (Debye-Ang)
        XX       6.6331     XY     -21.5404     YY     -62.4745
        XZ      -2.4095     YZ      -3.4193     ZZ     -71.3696
    Octopole Moments (Debye-Ang^2)
       XXX    -122.8426    XXY     -79.3394    XYY    -202.4673
       YYY     -22.6764    XXZ     -22.3017    XYZ     -13.5512
       YYZ      41.9772    XZZ    -210.5724    YZZ      -0.1660
       ZZZ     104.8606
    Hexadecapole Moments (Debye-Ang^3)
      XXXX   -1608.3622   XXXY    -207.1732   XXYY    -968.4219
      XYYY      51.4064   YYYY    -545.0647   XXXZ    -271.8124
      XXYZ     -32.0577   XYYZ     102.3042   YYYZ     -24.4423
      XXZZ    -918.3487   XYZZ      62.3394   YYZZ    -207.3229
      XZZZ     129.7771   YZZZ      59.7176   ZZZZ    -555.9361
 -----------------------------------------------------------------
 Total job time:  2322.60s(wall), 32827.70s(cpu) 
 Wed Jul 31 22:10:19 2024

        *************************************************************
        *                                                           *
        *  Thank you very much for using Q-Chem.  Have a nice day.  *
        *                                                           *
        *************************************************************


