
Running Job 1 of 1 Q_in.in
qchem Q_in.in_211349.0 /scratch/ari.fischer/qChem2187293.hpc-mn1/qchem211349/ 0
/usr/local/qchem-5.4.1/exe/qcprog.exe_s Q_in.in_211349.0 /scratch/ari.fischer/qChem2187293.hpc-mn1/qchem211349/
                  Welcome to Q-Chem
     A Quantum Leap Into The Future Of Chemistry


 Q-Chem 5.4, Q-Chem, Inc., Pleasanton, CA (2021)

 License issued to: Nanyang Technological University (site)

 E. Epifanovsky,  A. T. B. Gilbert,  Xintian Feng,  Joonho Lee,  Yuezhi Mao,  
 N. Mardirossian,  P. Pokhilko,  A. White,  M. Wormit,  M. P. Coons,  
 A. L. Dempwolff,  Zhengting Gan,  D. Hait,  P. R. Horn,  L. D. Jacobson,  
 I. Kaliman,  J. Kussmann,  A. W. Lange,  Ka Un Lao,  D. S. Levine,  Jie Liu,  
 S. C. McKenzie,  A. F. Morrison,  K. Nanda,  F. Plasser,  D. R. Rehn,  
 M. L. Vidal,  Zhi-Qiang You,  Ying Zhu,  B. Alam,  B. Albrecht,  
 A. Aldossary,  E. Alguire,  J. H. Andersen,  D. Barton,  K. Begam,  A. Behn,  
 Y. A. Bernard,  E. J. Berquist,  H. Burton,  A. Carreras,  K. Carter-Fenk,  
 R. Chakraborty,  A. D. Chien,  K. D. Closser,  V. Cofer-Shabica,  
 S. Dasgupta,  Jia Deng,  M. de Wergifosse,  M. Diedenhofen,  Hainam Do,  
 S. Ehlert,  Po-Tung Fang,  S. Fatehi,  Qingguo Feng,  T. Friedhoff,  
 J. Gayvert,  Qinghui Ge,  G. Gidofalvi,  M. Goldey,  J. Gomes,  
 C. Gonzalez-Espinoza,  S. Gulania,  A. Gunina,  M. W. D. Hanson-Heine,  
 P. H. P. Harbach,  A. W. Hauser,  M. F. Herbst,  M. Hernandez Vera,  
 M. Hodecker,  Z. C. Holden,  S. Houck,  Xunkun Huang,  Kerwin Hui,  
 B. C. Huynh,  M. Ivanov,  Hyunjun Ji,  Hanjie Jiang,  B. Kaduk,  S. Kaehler,  
 K. Khistyaev,  Jaehoon Kim,  P. Klunzinger,  Z. Koczor-Benda,  
 Joong Hoon Koh,  D. Kosenkov,  L. Koulias,  T. Kowalczyk,  C. M. Krauter,  
 K. Kue,  A. Kunitsa,  T. Kus,  A. Landau,  K. V. Lawler,  D. Lefrancois,  
 S. Lehtola,  Rain Li,  Yi-Pei Li,  Jiashu Liang,  M. Liebenthal,  
 Hung-Hsuan Lin,  You-Sheng Lin,  Fenglai Liu,  Kuan-Yu Liu,  
 M. Loipersberger,  A. Luenser,  A. Manjanath,  P. Manohar,  E. Mansoor,  
 S. F. Manzer,  Shan-Ping Mao,  A. V. Marenich,  T. Markovich,  S. Mason,  
 S. A. Maurer,  P. F. McLaughlin,  M. F. S. J. Menger,  J.-M. Mewes,  
 S. A. Mewes,  P. Morgante,  J. W. Mullinax,  K. J. Oosterbaan,  G. Paran,  
 Alexander C. Paul,  Suranjan K. Paul,  F. Pavosevic,  Zheng Pei,  S. Prager,  
 E. I. Proynov,  E. Ramos,  B. Rana,  A. E. Rask,  A. Rettig,  R. M. Richard,  
 F. Rob,  E. Rossomme,  T. Scheele,  M. Scheurer,  M. Schneider,  
 N. Sergueev,  S. M. Sharada,  W. Skomorowski,  D. W. Small,  C. J. Stein,  
 Yu-Chuan Su,  E. J. Sundstrom,  Zhen Tao,  J. Thirman,  T. Tsuchimochi,  
 N. M. Tubman,  S. P. Veccham,  O. Vydrov,  J. Wenzel,  J. Witte,  A. Yamada,  
 Kun Yao,  S. Yeganeh,  S. R. Yost,  A. Zech,  Igor Ying Zhang,  Xing Zhang,  
 Yu Zhang,  D. Zuev,  A. Aspuru-Guzik,  A. T. Bell,  N. A. Besley,  
 K. B. Bravaya,  B. R. Brooks,  D. Casanova,  Jeng-Da Chai,  S. Coriani,  
 C. J. Cramer,  A. E. DePrince, III,  R. A. DiStasio Jr.,  A. Dreuw,  
 B. D. Dunietz,  T. R. Furlani,  W. A. Goddard III,  S. Grimme,  
 S. Hammes-Schiffer,  T. Head-Gordon,  W. J. Hehre,  Chao-Ping Hsu,  
 T.-C. Jagau,  Yousung Jung,  A. Klamt,  Jing Kong,  D. S. Lambrecht,  
 WanZhen Liang,  N. J. Mayhall,  C. W. McCurdy,  J. B. Neaton,  
 C. Ochsenfeld,  J. A. Parkhill,  R. Peverati,  V. A. Rassolov,  Yihan Shao,  
 L. V. Slipchenko,  T. Stauch,  R. P. Steele,  J. E. Subotnik,  
 A. J. W. Thom,  A. Tkatchenko,  D. G. Truhlar,  T. Van Voorhis,  
 T. A. Wesolowski,  K. B. Whaley,  H. L. Woodcock III,  P. M. Zimmerman,  
 S. Faraji,  P. M. W. Gill,  M. Head-Gordon,  J. M. Herbert,  A. I. Krylov

 Additional authors for Version 5.4.1: 
 S. Kotaru,  Shaozhi Li,  Xiangyuan Li,  F. Matz,  A. Molle,  Haisheng Ren,  
 Yingli Su,  Hung-Yi Tsai,  C. Utku,  Fang Wang

 Contributors to earlier versions of Q-Chem not listed above: 
 R. D. Adamson,  B. Austin,  R. Baer,  J. Baker,  G. J. O. Beran,  
 K. Brandhorst,  S. T. Brown,  E. F. C. Byrd,  A. K. Chakraborty,  
 G. K. L. Chan,  Chun-Min Chang,  Yunqing Chen,  C.-L. Cheng,  
 Siu Hung Chien,  D. M. Chipman,  D. L. Crittenden,  H. Dachsel,  
 R. J. Doerksen,  A. D. Dutoi,  R. G. Edgar,  J. Fosso-Tande,  
 L. Fusti-Molnar,  D. Ghosh,  A. Ghysels,  A. Golubeva-Zadorozhnaya,  
 J. Gonthier,  M. S. Gordon,  S. R. Gwaltney,  G. Hawkins,  J. E. Herr,  
 A. Heyden,  S. Hirata,  E. G. Hohenstein,  G. Kedziora,  F. J. Keil,  
 C. Kelley,  Jihan Kim,  R. A. King,  R. Z. Khaliullin,  P. P. Korambath,  
 W. Kurlancheek,  A. Laurent,  A. M. Lee,  M. S. Lee,  S. V. Levchenko,  
 Ching Yeh Lin,  D. Liotard,  E. Livshits,  R. C. Lochan,  I. Lotan,  
 L. A. Martinez-Martinez,  P. E. Maslen,  N. Nair,  D. P. O'Neill,  
 D. Neuhauser,  E. Neuscamman,  C. M. Oana,  R. Olivares-Amaya,  R. Olson,  
 T. M. Perrine,  B. Peters,  P. A. Pieniazek,  A. Prociuk,  Y. M. Rhee,  
 J. Ritchie,  M. A. Rohrdanz,  E. Rosta,  N. J. Russ,  H. F. Schaefer III,  
 M. W. Schmidt,  N. E. Schultz,  S. Sharma,  N. Shenvi,  C. D. Sherrill,  
 A. C. Simmonett,  A. Sodt,  T. Stein,  D. Stuck,  K. S. Thanthiriwatte,  
 V. Vanovschi,  L. Vogt,  Tao Wang,  A. Warshel,  M. A. Watson,  
 C. F. Williams,  Q. Wu,  X. Xu,  Jun Yang,  W. Zhang,  Yan Zhao

 Please cite Q-Chem as follows:
 Y. Shao et al., Mol. Phys. 113, 184-215 (2015)
 DOI: 10.1080/00268976.2014.952696

 Q-Chem 5.4.1 for Intel X86 EM64T Linux

 Parts of Q-Chem use Armadillo 9.800.1 (Horizon Scraper).
 http://arma.sourceforge.net/

 Q-Chem begins on Tue Jun 25 21:17:16 2024  

 Host: 
0

     Scratch files written to /scratch/ari.fischer/qChem2187293.hpc-mn1/qchem211349//
 Aug1521 |scratch|qcdevops|jenkins|workspace|build_RNUM 8249   
 Processing $rem in /usr/local/qchem-5.4.1/config/preferences:
 Processing $rem in /home/ari.fischer/.qchemrc:
 Symmetry turned off for PCM/SM12/SMD calculation


!!********************************************.
!!******************Warning*******************.
!!Desired Analytical derivatives not available.
!!Finite difference job might take a long time.
!!********************************************.
!!********************************************.


 2-order derivative to be evaluated numerically with 1-order analytical derivatives

 Checking the input file for inconsistencies... 	...done.

--------------------------------------------------------------
User input:
--------------------------------------------------------------
$molecule
0 2
C         2.5879293453   -1.1160763896   -1.0317896225
O         1.4129910757   -0.3420712723   -1.0137414067
C         3.5028280630   -0.5660602903    0.0711902203
O         2.9137898546   -0.8795315709    1.2959620725
C         3.7909187666    0.9165090417   -0.1005164821
C         4.7936050046    1.4524646173    0.9182817674
O         4.3548726425    1.3483274694    2.2193680852
C         5.2916541634    2.8670288430    0.6113347386
O         4.1588988750    3.7045899886    0.5654078741
O         6.2112051376    3.2904153363    1.5860352282
H         3.0857421220   -1.0439840339   -1.9961417149
H         0.9119582887   -0.5452815067   -1.8118138327
H         2.8559135886    1.4630827274   -0.0061541742
H         4.1805185593    1.0968752853   -1.1022665887
H         5.6954495416    0.8064781819    0.9228075729
H         5.8225324811    2.8803406930   -0.3396821076
H         4.4333848104    4.5589201364    0.2124947828
H         5.8218034808    3.1115670133    2.4534586864
O         2.3156594536   -2.4803192146   -0.8304874569
H         1.9858656390   -2.5911102756    0.0714691394
O         4.7213338154   -1.3437501348    0.0922292294
O         5.4057752708   -1.1837140591   -1.1500069554
H         3.2685326646   -0.2770503545    1.9683152513
H         6.1240633559   -0.5764639312   -0.9180296070
$end

$rem
BASIS = 6-311++G(2df,2p)
GUI = 2
JOB_TYPE = Frequency
METHOD = wB97M-V
SOLVENT_METHOD = SMD
SCF_ALGORITHM = DIIS_GDM
MAX_SCF_CYCLES = 400
SCF_CONVERGENCE = 7
THRESH = 12
$end
--------------------------------------------------------------
 ----------------------------------------------------------------
             Standard Nuclear Orientation (Angstroms)
    I     Atom           X                Y                Z
 ----------------------------------------------------------------
    1      C       2.5879293453    -1.1160763896    -1.0317896225
    2      O       1.4129910757    -0.3420712723    -1.0137414067
    3      C       3.5028280630    -0.5660602903     0.0711902203
    4      O       2.9137898546    -0.8795315709     1.2959620725
    5      C       3.7909187666     0.9165090417    -0.1005164821
    6      C       4.7936050046     1.4524646173     0.9182817674
    7      O       4.3548726425     1.3483274694     2.2193680852
    8      C       5.2916541634     2.8670288430     0.6113347386
    9      O       4.1588988750     3.7045899886     0.5654078741
   10      O       6.2112051376     3.2904153363     1.5860352282
   11      H       3.0857421220    -1.0439840339    -1.9961417149
   12      H       0.9119582887    -0.5452815067    -1.8118138327
   13      H       2.8559135886     1.4630827274    -0.0061541742
   14      H       4.1805185593     1.0968752853    -1.1022665887
   15      H       5.6954495416     0.8064781819     0.9228075729
   16      H       5.8225324811     2.8803406930    -0.3396821076
   17      H       4.4333848104     4.5589201364     0.2124947828
   18      H       5.8218034808     3.1115670133     2.4534586864
   19      O       2.3156594536    -2.4803192146    -0.8304874569
   20      H       1.9858656390    -2.5911102756     0.0714691394
   21      O       4.7213338154    -1.3437501348     0.0922292294
   22      O       5.4057752708    -1.1837140591    -1.1500069554
   23      H       3.2685326646    -0.2770503545     1.9683152513
   24      H       6.1240633559    -0.5764639312    -0.9180296070
 ----------------------------------------------------------------
 Nuclear Repulsion Energy =         944.16530117 hartrees
 There are       53 alpha and       52 beta electrons
 Requested basis set is 6-311++G(2df,2p)
 There are 170 shells and 552 basis functions

 Total QAlloc Memory Limit 288000 MB
 Mega-Array Size       188 MB
 MEM_STATIC part       192 MB
 
 Citation of the SMD model:
 Marenich, A.V.; Cramer, C.J.; Truhlar, D.G.
 J. Phys. Chem. B 2009, 113, 6378-6396.
 iSolventCode=           1
 Solvent: water                                                           
 
 vradii
            1           2           3           4           5           6
    1   1.8500000   1.5200000   1.8500000   1.5200000   1.8500000   1.8500000
            7           8           9          10          11          12
    1   1.5200000   1.8500000   1.5200000   1.5200000   1.2000000   1.2000000
           13          14          15          16          17          18
    1   1.2000000   1.2000000   1.2000000   1.2000000   1.2000000   1.2000000
           19          20          21          22          23          24
    1   1.5200000   1.2000000   1.5200000   1.5200000   1.2000000   1.2000000
 Changing PCM_VDW_RADII to SMD_RADIUS
 Discretize the solute cavity surface with Lebedev spheres
	Using 110 Lebedev grid points for each H atom
	Using 194 Lebedev grid points for other atoms
	Atomic van der Waals radii will be scaled by 1.20
 Remove points where switching function is < 1.0e-08
 Keep 1823 surface tesserae and discard 1909 interior tesserae
 Molecular Surface Area = 198.699 Angst**2
 A cutoff of  1.0D-12 yielded  12059 shell pairs
 There are    124090 function pairs (    153124 Cartesian)
 Smallest overlap matrix eigenvalue = 2.38E-06
 Guess from superposition of atomic densities
 Warning:  Energy on first SCF cycle will be non-variational
 SAD guess density has 105.000000 electrons

 -----------------------------------------------------------------------
  General SCF calculation program by
  Eric Jon Sundstrom, Paul Horn, Yuezhi Mao, Dmitri Zuev, Alec White,
  David Stuck, Shaama M.S., Shane Yost, Joonho Lee, David Small,
  Daniel Levine, Susi Lehtola, Hugh Burton, Evgeny Epifanovsky,
  Bang C. Huynh
 -----------------------------------------------------------------------
 Exchange:     0.1500 Hartree-Fock + 1.0000 wB97M-V + LR-HF
 Correlation:  1.0000 wB97M-V
 Using SG-2 standard quadrature grid
 Nonlocal Correlation:  VV10 with C = 0.0100 and b = 6.00 and scale = 1.00000
 Grid used for NLC:  SG-1 standard quadrature
 using 16 threads for integral computing
 -------------------------------------------------------
 OpenMP Integral computing Module                
 Release: version 1.0, May 2013, Q-Chem Inc. Pittsburgh 
 -------------------------------------------------------
 
 Citation of the SMD model:
 Marenich, A.V.; Cramer, C.J.; Truhlar, D.G.
 J. Phys. Chem. B 2009, 113, 6378-6396.
 iSolventCode=           1
 Solvent: water                                                           
 
 vradii
            1           2           3           4           5           6
    1   1.8500000   1.5200000   1.8500000   1.5200000   1.8500000   1.8500000
            7           8           9          10          11          12
    1   1.5200000   1.8500000   1.5200000   1.5200000   1.2000000   1.2000000
           13          14          15          16          17          18
    1   1.2000000   1.2000000   1.2000000   1.2000000   1.2000000   1.2000000
           19          20          21          22          23          24
    1   1.5200000   1.2000000   1.5200000   1.5200000   1.2000000   1.2000000
 -------------------------------------------------------
 OpenMP BLAS3 based DFT computing Module                
 Release: version 1.0, May 2013, Q-Chem Inc. Pittsburgh 
 -------------------------------------------------------
 A unrestricted SCF calculation will be
 performed using DIIS, GDM
 SCF converges when RMS gradient is below 1.0e-07
 ---------------------------------------
  Cycle       Energy         DIIS error
 ---------------------------------------
    1    -801.4591579635      1.05e-02  
    2    -798.4731904627      1.62e-03  Done DIIS. Switching to GDM
 ---------------------------------------
  Cycle       Energy        RMS Gradient
 ---------------------------------------
    1    -798.4731904627      5.25e-01   Descent step
    2    -798.7502012124      9.51e-02   Descent step
    3    -798.8184546100      8.26e-02   Normal BFGS step
    4    -798.8432177778      3.89e-02   Normal BFGS step
    5    -798.8525489296      1.91e-02   Normal BFGS step
    6    -798.8555740275      1.03e-02   Normal BFGS step
    7    -798.8562021993      7.49e-03   Normal BFGS step
    8    -798.8564226139      7.31e-03   Normal BFGS step
    9    -798.8566398430      8.20e-03   Normal BFGS step
   10    -798.8571641831      9.81e-03   Dog-leg BFGS step
   11    -798.8591234314      2.14e-02   Normal BFGS step
   12    -798.8609602524      3.16e-02   Normal BFGS step
   13    -798.8654842795      2.21e-02   Normal BFGS step
   14    -798.8691735579      7.68e-03   Normal BFGS step
   15    -798.8696568957      3.55e-03   Normal BFGS step
   16    -798.8698007611      2.45e-03   Normal BFGS step
   17    -798.8699453750      1.33e-03   Normal BFGS step
   18    -798.8699628596      8.66e-04   Normal BFGS step
   19    -798.8699695131      4.95e-04   Normal BFGS step
   20    -798.8699710575      2.14e-04   Normal BFGS step
   21    -798.8699713728      3.68e-05   Normal BFGS step
   22    -798.8699714511      2.53e-05   Normal BFGS step
   23    -798.8699714611      9.26e-06   Normal BFGS step
   24    -798.8699714648      7.37e-06   Normal BFGS step
   25    -798.8699714652      2.63e-06   Normal BFGS step
   26    -798.8699714653      5.39e-07   Normal BFGS step
   27    -798.8699714653      3.88e-07   Normal BFGS step
   28    -798.8699714653      1.32e-07   Normal BFGS step
   29    -798.8699714653      5.36e-08  Convergence criterion met
 ---------------------------------------
 SCF time:   CPU 6933.16s  wall 473.00s 
<S^2> =          0.754031929
(3)  G-ENP(liq) elect-nuc-pol free energy of system     -798.869971465 a.u.
(4)  G-CDS(liq) cavity-dispersion-solvent structure 
     free energy                                                4.0915 kcal/mol
(6)  G-S(liq) free energy of system                     -798.863451215 a.u.
 SCF   energy in the final basis set =     -798.8634512150
 Total energy in the final basis set =     -798.8634512150
 
 --------------------------------------------------------------
 
                    Orbital Energies (a.u.)
 --------------------------------------------------------------
 
 Alpha MOs
 -- Occupied --
-19.4043 -19.4040 -19.3981 -19.3559 -19.3477 -19.3477 -19.3469 -19.3466
-10.4645 -10.4498 -10.4474 -10.4138 -10.3509  -1.2781  -1.2138  -1.2102
 -1.1845  -1.1710  -1.1371  -1.1369  -1.0388  -0.9171  -0.8569  -0.8076
 -0.7396  -0.7230  -0.6958  -0.6826  -0.6517  -0.6430  -0.6245  -0.6018
 -0.5980  -0.5794  -0.5790  -0.5676  -0.5610  -0.5455  -0.5356  -0.5306
 -0.4967  -0.4784  -0.4672  -0.4629  -0.4496  -0.4384  -0.4342  -0.4317
 -0.4164  -0.4133  -0.4087  -0.3979  -0.3833
 -- Virtual --
  0.0243   0.0348   0.0369   0.0410   0.0544   0.0609   0.0642   0.0677
  0.0787   0.0844   0.0936   0.1054   0.1125   0.1242   0.1307   0.1347
  0.1377   0.1429   0.1485   0.1510   0.1597   0.1643   0.1666   0.1685
  0.1731   0.1825   0.1847   0.1965   0.1982   0.2048   0.2066   0.2185
  0.2233   0.2347   0.2463   0.2537   0.2608   0.2664   0.2728   0.2729
  0.2798   0.2813   0.2832   0.2886   0.2920   0.2943   0.3088   0.3134
  0.3181   0.3215   0.3226   0.3319   0.3334   0.3434   0.3485   0.3507
  0.3606   0.3627   0.3680   0.3738   0.3757   0.3794   0.3821   0.3879
  0.3914   0.3968   0.4023   0.4071   0.4114   0.4139   0.4275   0.4292
  0.4354   0.4372   0.4413   0.4450   0.4531   0.4551   0.4703   0.4752
  0.4825   0.4881   0.5005   0.5123   0.5194   0.5400   0.5619   0.5743
  0.5823   0.6017   0.6162   0.6276   0.6311   0.6389   0.6460   0.6581
  0.6673   0.6701   0.6855   0.6939   0.6980   0.7093   0.7147   0.7310
  0.7383   0.7422   0.7557   0.7652   0.7721   0.7805   0.7911   0.7984
  0.8097   0.8243   0.8405   0.8567   0.8748   0.8796   0.8868   0.9080
  0.9241   0.9499   0.9511   0.9618   0.9783   0.9908   1.0194   1.0274
  1.0354   1.0470   1.0664   1.0767   1.0794   1.0922   1.1095   1.1163
  1.1217   1.1390   1.1441   1.1531   1.1651   1.1689   1.1738   1.1843
  1.1898   1.2006   1.2068   1.2097   1.2163   1.2233   1.2339   1.2387
  1.2425   1.2537   1.2677   1.2736   1.2791   1.2895   1.2935   1.3045
  1.3137   1.3221   1.3283   1.3457   1.3514   1.3546   1.3727   1.3813
  1.3914   1.4129   1.4217   1.4242   1.4401   1.4562   1.4714   1.4754
  1.4878   1.4979   1.5047   1.5127   1.5278   1.5345   1.5402   1.5478
  1.5693   1.5777   1.5889   1.6166   1.6207   1.6338   1.6389   1.6515
  1.6624   1.6790   1.6942   1.7050   1.7133   1.7301   1.7343   1.7495
  1.7661   1.7721   1.8031   1.8186   1.8276   1.8715   1.8818   1.9039
  1.9193   1.9333   1.9419   1.9458   1.9692   2.0008   2.0072   2.0322
  2.0390   2.0685   2.0805   2.0917   2.1455   2.1654   2.1772   2.2054
  2.2189   2.2475   2.2620   2.2811   2.3282   2.3451   2.3528   2.3769
  2.3938   2.3993   2.4109   2.4210   2.4404   2.4564   2.4744   2.4771
  2.4941   2.5070   2.5253   2.5473   2.5798   2.5860   2.6405   2.7048
  2.7094   2.7783   2.7915   2.8208   2.8277   2.8312   2.8591   2.8660
  2.9011   2.9101   2.9334   2.9474   2.9896   3.0305   3.0547   3.0602
  3.0754   3.1255   3.1501   3.1896   3.2054   3.2181   3.2497   3.2585
  3.2779   3.3084   3.3180   3.3428   3.3757   3.3844   3.4029   3.4113
  3.4315   3.4435   3.4676   3.4941   3.5062   3.5287   3.5436   3.5662
  3.5991   3.5994   3.6151   3.6352   3.6466   3.6702   3.6829   3.6924
  3.7108   3.7241   3.7304   3.7494   3.7633   3.7773   3.7929   3.8193
  3.8261   3.8323   3.8387   3.8550   3.8582   3.8698   3.8867   3.8932
  3.9086   3.9198   3.9264   3.9482   3.9600   3.9666   3.9755   4.0148
  4.0365   4.0384   4.0720   4.0993   4.1143   4.1264   4.1537   4.1644
  4.1657   4.2031   4.2143   4.2305   4.2509   4.2571   4.2741   4.2797
  4.2946   4.3055   4.3376   4.3605   4.3634   4.3776   4.3956   4.4054
  4.4219   4.4299   4.4467   4.4713   4.4894   4.5167   4.5699   4.5801
  4.5810   4.6310   4.6555   4.6686   4.7107   4.7373   4.7846   4.7889
  4.8767   4.8939   5.0020   5.0531   5.0758   5.1058   5.1623   5.1835
  5.1895   5.2137   5.2337   5.2405   5.2578   5.2639   5.2789   5.2872
  5.2931   5.2989   5.3065   5.3198   5.3281   5.3372   5.3438   5.3481
  5.3597   5.3653   5.3733   5.3944   5.3975   5.4080   5.4257   5.4342
  5.4466   5.4677   5.4952   5.4978   5.5054   5.5119   5.5327   5.5588
  5.5636   5.5700   5.5876   5.6067   5.6093   5.6221   5.6379   5.6442
  5.6499   5.6689   5.6750   5.6872   5.7013   5.7242   5.7726   5.7893
  5.8186   5.8275   5.8404   5.9072   5.9394   5.9671   6.0115   6.0300
  6.0350   6.0632   6.0960   6.1088   6.1523   6.1565   6.1715   6.2549
  6.5045   6.5522   6.5857   6.7354   6.7505   6.7600   6.8260   6.8718
  6.9103   7.0126   7.0294   7.0588   7.0866   7.0986   7.1099   7.1217
  7.1389   7.1583   7.2577   7.2664   7.2715   7.2764   7.2912   7.3071
  7.3125   7.3247   7.3254   7.3414   7.3546   7.3935   7.4073   7.4301
  7.4370   7.4692   7.4998   7.5135   7.5230   7.5474   7.5931   7.6164
  7.6585   7.6683   7.6928   7.7050   7.7224   7.7814   7.8279   7.8608
  7.8700   7.8822   7.8933   7.9183   8.0271   8.2098  24.6331  24.7645
 24.8013  24.8430  24.8761  50.4997  50.5463  50.6053  50.6117  50.6285
 50.6439  50.6675  50.7164
 
 Beta MOs
 -- Occupied --
-19.4039 -19.3981 -19.3819 -19.3559 -19.3477 -19.3475 -19.3469 -19.3466
-10.4646 -10.4494 -10.4474 -10.4140 -10.3503  -1.2780  -1.2112  -1.2075
 -1.1818  -1.1380  -1.1371  -1.1283  -1.0388  -0.9107  -0.8523  -0.8068
 -0.7389  -0.7128  -0.6934  -0.6784  -0.6512  -0.6409  -0.6191  -0.5954
 -0.5923  -0.5787  -0.5733  -0.5630  -0.5448  -0.5383  -0.5328  -0.5155
 -0.4796  -0.4767  -0.4619  -0.4581  -0.4478  -0.4350  -0.4321  -0.4140
 -0.4130  -0.4074  -0.3962  -0.3776
 -- Virtual --
 -0.0719   0.0246   0.0348   0.0372   0.0410   0.0546   0.0612   0.0642
  0.0678   0.0793   0.0845   0.0938   0.1054   0.1128   0.1248   0.1309
  0.1354   0.1381   0.1433   0.1488   0.1515   0.1600   0.1644   0.1674
  0.1688   0.1735   0.1832   0.1850   0.1965   0.1985   0.2050   0.2079
  0.2190   0.2243   0.2357   0.2474   0.2541   0.2613   0.2674   0.2736
  0.2739   0.2806   0.2818   0.2837   0.2891   0.2923   0.2952   0.3093
  0.3143   0.3189   0.3222   0.3235   0.3331   0.3344   0.3438   0.3498
  0.3516   0.3610   0.3632   0.3690   0.3744   0.3759   0.3800   0.3846
  0.3882   0.3919   0.3989   0.4026   0.4082   0.4121   0.4144   0.4280
  0.4301   0.4374   0.4380   0.4421   0.4452   0.4539   0.4562   0.4708
  0.4758   0.4833   0.4890   0.5011   0.5124   0.5204   0.5402   0.5643
  0.5746   0.5824   0.6041   0.6165   0.6284   0.6317   0.6395   0.6464
  0.6590   0.6675   0.6710   0.6858   0.6945   0.6991   0.7106   0.7155
  0.7326   0.7394   0.7433   0.7559   0.7686   0.7728   0.7813   0.7916
  0.7985   0.8100   0.8249   0.8409   0.8568   0.8753   0.8795   0.8876
  0.9091   0.9246   0.9512   0.9518   0.9622   0.9791   0.9908   1.0207
  1.0282   1.0367   1.0479   1.0670   1.0777   1.0804   1.0927   1.1111
  1.1168   1.1233   1.1415   1.1445   1.1556   1.1658   1.1730   1.1776
  1.1856   1.1913   1.2037   1.2092   1.2104   1.2173   1.2260   1.2370
  1.2426   1.2493   1.2612   1.2685   1.2746   1.2815   1.2907   1.2957
  1.3070   1.3150   1.3232   1.3313   1.3492   1.3516   1.3585   1.3742
  1.3827   1.3943   1.4145   1.4240   1.4251   1.4435   1.4574   1.4722
  1.4762   1.4889   1.4998   1.5079   1.5149   1.5298   1.5354   1.5413
  1.5496   1.5704   1.5792   1.5924   1.6205   1.6223   1.6351   1.6403
  1.6530   1.6647   1.6835   1.6976   1.7100   1.7149   1.7321   1.7379
  1.7514   1.7694   1.7806   1.8064   1.8191   1.8310   1.8735   1.8917
  1.9089   1.9259   1.9396   1.9426   1.9533   1.9711   2.0020   2.0090
  2.0336   2.0413   2.0701   2.0840   2.0932   2.1485   2.1742   2.1785
  2.2111   2.2203   2.2530   2.2655   2.2840   2.3327   2.3455   2.3552
  2.3780   2.3940   2.4008   2.4130   2.4242   2.4431   2.4589   2.4749
  2.4798   2.4976   2.5123   2.5271   2.5502   2.5824   2.5870   2.6413
  2.7052   2.7101   2.7820   2.7926   2.8214   2.8285   2.8319   2.8606
  2.8665   2.9079   2.9112   2.9348   2.9496   2.9919   3.0320   3.0561
  3.0640   3.0769   3.1274   3.1523   3.1913   3.2066   3.2187   3.2513
  3.2598   3.2791   3.3101   3.3190   3.3432   3.3783   3.3858   3.4049
  3.4128   3.4333   3.4476   3.4685   3.4965   3.5076   3.5299   3.5458
  3.5677   3.5998   3.6015   3.6159   3.6357   3.6475   3.6717   3.6833
  3.6932   3.7117   3.7253   3.7317   3.7510   3.7644   3.7782   3.7933
  3.8209   3.8281   3.8332   3.8394   3.8557   3.8588   3.8708   3.8874
  3.8941   3.9092   3.9217   3.9269   3.9501   3.9603   3.9678   3.9774
  4.0175   4.0383   4.0410   4.0729   4.1005   4.1158   4.1280   4.1548
  4.1657   4.1674   4.2049   4.2161   4.2319   4.2518   4.2590   4.2763
  4.2813   4.2988   4.3061   4.3388   4.3615   4.3689   4.3820   4.3985
  4.4070   4.4241   4.4318   4.4496   4.4719   4.4951   4.5199   4.5727
  4.5827   4.5900   4.6340   4.6582   4.6710   4.7132   4.7421   4.7868
  4.7923   4.8775   4.8972   5.0030   5.0534   5.0909   5.1394   5.1908
  5.2116   5.2247   5.2330   5.2441   5.2516   5.2618   5.2784   5.2854
  5.2912   5.2967   5.3014   5.3202   5.3230   5.3334   5.3416   5.3512
  5.3526   5.3648   5.3765   5.3907   5.3982   5.4083   5.4163   5.4341
  5.4459   5.4613   5.4858   5.4993   5.5077   5.5121   5.5178   5.5411
  5.5599   5.5671   5.5813   5.5912   5.6095   5.6133   5.6238   5.6408
  5.6463   5.6555   5.6694   5.6767   5.6874   5.7026   5.7245   5.7737
  5.7901   5.8197   5.8289   5.8430   5.9140   5.9618   5.9800   6.0175
  6.0354   6.0362   6.0639   6.0964   6.1143   6.1542   6.1575   6.1761
  6.2550   6.5048   6.5544   6.5859   6.7389   6.7558   6.7835   6.8271
  6.8721   6.9999   7.0221   7.0593   7.0790   7.0893   7.1110   7.1128
  7.1234   7.1498   7.1646   7.2579   7.2675   7.2719   7.2777   7.2918
  7.3103   7.3205   7.3256   7.3279   7.3491   7.3930   7.3973   7.4255
  7.4319   7.4479   7.4849   7.5044   7.5179   7.5362   7.5514   7.5941
  7.6173   7.6622   7.6694   7.6987   7.7058   7.7547   7.7818   7.8292
  7.8627   7.8726   7.8828   7.8956   7.9183   8.0273   8.2099  24.6333
 24.7645  24.8017  24.8431  24.8762  50.5001  50.5564  50.6056  50.6121
 50.6290  50.6455  50.6698  50.7167
 --------------------------------------------------------------
 
          Ground-State Mulliken Net Atomic Charges

     Atom                 Charge (a.u.)    Spin (a.u.)
  --------------------------------------------------------
      1 C                    -0.089561      -0.002756
      2 O                    -0.425240      -0.000073
      3 C                     0.148085       0.017350
      4 O                    -0.406574       0.001132
      5 C                    -0.687795      -0.034564
      6 C                     0.162561       0.074273
      7 O                    -0.159879       0.858565
      8 C                    -0.352473      -0.012289
      9 O                    -0.405542       0.005656
     10 O                    -0.421199       0.000316
     11 H                     0.306279       0.000061
     12 H                     0.335837      -0.000059
     13 H                     0.292387      -0.002836
     14 H                     0.299051       0.004223
     15 H                     0.322249       0.096462
     16 H                     0.268598      -0.001528
     17 H                     0.339048      -0.000506
     18 H                     0.346800      -0.000670
     19 O                    -0.458488      -0.000087
     20 H                     0.353023      -0.000018
     21 O                    -0.146847       0.001635
     22 O                    -0.282912      -0.000731
     23 H                     0.327988      -0.002623
     24 H                     0.334605      -0.000933
  --------------------------------------------------------
  Sum of atomic charges =    -0.000000
  Sum of spin   charges =     1.000000

 -----------------------------------------------------------------
                    Cartesian Multipole Moments
 -----------------------------------------------------------------
    Charge (ESU x 10^10)
                -0.0000
    Dipole Moment (Debye)
         X       2.3693      Y       4.6729      Z      -2.7493
       Tot       5.9167
    Quadrupole Moments (Debye-Ang)
        XX     -56.8760     XY      21.3189     YY     -84.0460
        XZ      -9.1941     YZ      -8.5172     ZZ     -73.1900
    Octopole Moments (Debye-Ang^2)
       XXX    -795.4285    XXY      40.4043    XYY    -337.3230
       YYY     -43.5951    XXZ     -73.1637    XYZ     -41.6085
       YYZ     -24.3870    XZZ    -299.8781    YZZ     -31.1814
       ZZZ     -56.6781
    Hexadecapole Moments (Debye-Ang^3)
      XXXX   -7580.7691   XXXY    -626.1116   XXYY   -1903.1174
      XYYY    -519.7331   YYYY   -1688.0237   XXXZ    -749.7374
      XXYZ    -329.7495   XYYZ    -199.6479   YYYZ    -428.7152
      XXZZ   -1443.6741   XYZZ    -221.3062   YYZZ    -438.2958
      XZZZ    -326.6581   YZZZ    -270.0482   ZZZZ    -574.4039
 -----------------------------------------------------------------
 Calculating analytic gradient of the SCF energy
 Gradient of CDS energy
            1           2           3           4           5           6
    1  -0.0023697   0.0018929  -0.0015299   0.0016142  -0.0000471  -0.0017946
    2  -0.0016594  -0.0012507  -0.0008481   0.0008495   0.0000493  -0.0003772
    3   0.0000960   0.0002265   0.0032275  -0.0034892  -0.0000565   0.0052120
            7           8           9          10          11          12
    1   0.0017242   0.0010282   0.0013757  -0.0021359   0.0002530  -0.0004321
    2   0.0004642   0.0020258  -0.0011884  -0.0010038  -0.0000203   0.0001607
    3  -0.0051915   0.0018298   0.0002572  -0.0022238  -0.0000162  -0.0002355
           13          14          15          16          17          18
    1  -0.0001492   0.0001030  -0.0000103   0.0000325  -0.0002200   0.0001456
    2   0.0000555  -0.0000668  -0.0001169  -0.0000683   0.0004502   0.0001506
    3   0.0000716  -0.0000946   0.0001040  -0.0001408  -0.0001357   0.0004419
           19          20          21          22          23          24
    1   0.0006961  -0.0002140  -0.0000485  -0.0002738  -0.0001125   0.0004723
    2   0.0029332  -0.0003858  -0.0000176  -0.0000553  -0.0000710  -0.0000094
    3  -0.0003898   0.0002271  -0.0000574   0.0001212   0.0003938  -0.0001778
 Gradient of SCF Energy
            1           2           3           4           5           6
    1  -0.0017072   0.0022988   0.0095838  -0.0036285  -0.0091111  -0.0134900
    2   0.0017676   0.0037351  -0.0023619  -0.0041163  -0.0020802   0.0099849
    3   0.0022711   0.0133359   0.0002837  -0.0021945   0.0154456  -0.0061193
            7           8           9          10          11          12
    1  -0.0006934  -0.0103702  -0.0068528   0.0064988  -0.0002727  -0.0042847
    2  -0.0003046   0.0019234  -0.0132056   0.0030739   0.0040023  -0.0018128
    3  -0.0003263   0.0207476   0.0069452  -0.0062169  -0.0049858  -0.0116909
           13          14          15          16          17          18
    1  -0.0012444   0.0075928   0.0148473   0.0065035   0.0056775  -0.0028682
    2   0.0017624   0.0022146  -0.0086142  -0.0012863   0.0126519  -0.0022103
    3   0.0005345  -0.0116511  -0.0029192  -0.0151397  -0.0078786   0.0074417
           19          20          21          22          23          24
    1   0.0031710  -0.0019960  -0.0029439  -0.0140628   0.0028345   0.0145177
    2  -0.0052098   0.0003757  -0.0046735  -0.0160007   0.0031431   0.0172413
    3  -0.0008074  -0.0002267   0.0023156  -0.0065483   0.0024198   0.0049642
 Max gradient component =       2.075E-02
 RMS gradient           =       7.747E-03
 Computing fast CPCM-SWIG gradient
 Updating gradient with PCM contributions...
 -- total gradient after adding PCM contribution --
---------------------------------------------------
  Atom         X              Y              Z     
---------------------------------------------------
   1       0.000016       0.000002      -0.000013
   2      -0.000012       0.000015      -0.000005
   3      -0.000002       0.000010       0.000007
   4      -0.000019      -0.000047      -0.000011
   5      -0.000004      -0.000002      -0.000046
   6      -0.000001       0.000009       0.000073
   7       0.000026       0.000028      -0.000045
   8       0.000000      -0.000022       0.000013
   9      -0.000005      -0.000008       0.000004
  10       0.000014       0.000012      -0.000011
  11       0.000012       0.000018      -0.000005
  12      -0.000020      -0.000019      -0.000001
  13      -0.000012      -0.000015       0.000013
  14       0.000001      -0.000010       0.000007
  15       0.000015      -0.000004      -0.000011
  16      -0.000001       0.000007      -0.000012
  17       0.000001       0.000023      -0.000001
  18      -0.000004      -0.000001       0.000019
  19      -0.000029      -0.000003      -0.000012
  20      -0.000002      -0.000018       0.000026
  21      -0.000019      -0.000011       0.000033
  22       0.000023       0.000008      -0.000039
  23       0.000015       0.000025       0.000028
  24       0.000005       0.000001      -0.000013
---------------------------------------------------
 Number of fixed atoms: 0
 Gradient time:  CPU 611.64 s  wall 51.30 s
 ######################################################
 ######################################################
 # Starting finite difference calculation for IDERIV  #
 Finite diff step size:  1.88973e-03 a.u.
 ----------------------------------------------------------------
             Standard Nuclear Orientation (Angstroms)
    I     Atom           X                Y                Z
 ----------------------------------------------------------------
    1      C       2.5889293453    -1.1160763896    -1.0317896225
    2      O       1.4129910757    -0.3420712723    -1.0137414067
    3      C       3.5028280630    -0.5660602903     0.0711902203
    4      O       2.9137898546    -0.8795315709     1.2959620725
    5      C       3.7909187666     0.9165090417    -0.1005164821
    6      C       4.7936050046     1.4524646173     0.9182817674
    7      O       4.3548726425     1.3483274694     2.2193680852
    8      C       5.2916541634     2.8670288430     0.6113347386
    9      O       4.1588988750     3.7045899886     0.5654078741
   10      O       6.2112051376     3.2904153363     1.5860352282
   11      H       3.0857421220    -1.0439840339    -1.9961417149
   12      H       0.9119582887    -0.5452815067    -1.8118138327
   13      H       2.8559135886     1.4630827274    -0.0061541742
   14      H       4.1805185593     1.0968752853    -1.1022665887
   15      H       5.6954495416     0.8064781819     0.9228075729
   16      H       5.8225324811     2.8803406930    -0.3396821076
   17      H       4.4333848104     4.5589201364     0.2124947828
   18      H       5.8218034808     3.1115670133     2.4534586864
   19      O       2.3156594536    -2.4803192146    -0.8304874569
   20      H       1.9858656390    -2.5911102756     0.0714691394
   21      O       4.7213338154    -1.3437501348     0.0922292294
   22      O       5.4057752708    -1.1837140591    -1.1500069554
   23      H       3.2685326646    -0.2770503545     1.9683152513
   24      H       6.1240633559    -0.5764639312    -0.9180296070
 ----------------------------------------------------------------
 Nuclear Repulsion Energy =         944.16930233 hartrees
 There are       53 alpha and       52 beta electrons
 Discretize the solute cavity surface with Lebedev spheres
	Using 110 Lebedev grid points for each H atom
	Using 194 Lebedev grid points for other atoms
	Atomic van der Waals radii will be scaled by 1.20
 Remove points where switching function is < 1.0e-08
 Keep 1823 surface tesserae and discard 1909 interior tesserae
 Molecular Surface Area = 198.698 Angst**2
 Requested basis set is 6-311++G(2df,2p)
 There are 170 shells and 552 basis functions
 A cutoff of  1.0D-12 yielded  12059 shell pairs
 There are    124090 function pairs (    153124 Cartesian)
 Smallest overlap matrix eigenvalue = 2.38E-06
 Guess MOs from SCF MO coefficient file

 -----------------------------------------------------------------------
  General SCF calculation program by
  Eric Jon Sundstrom, Paul Horn, Yuezhi Mao, Dmitri Zuev, Alec White,
  David Stuck, Shaama M.S., Shane Yost, Joonho Lee, David Small,
  Daniel Levine, Susi Lehtola, Hugh Burton, Evgeny Epifanovsky,
  Bang C. Huynh
 -----------------------------------------------------------------------
 Exchange:     0.1500 Hartree-Fock + 1.0000 wB97M-V + LR-HF
 Correlation:  1.0000 wB97M-V
 Using SG-2 standard quadrature grid
 Nonlocal Correlation:  VV10 with C = 0.0100 and b = 6.00 and scale = 1.00000
 Grid used for NLC:  SG-1 standard quadrature
 
 Citation of the SMD model:
 Marenich, A.V.; Cramer, C.J.; Truhlar, D.G.
 J. Phys. Chem. B 2009, 113, 6378-6396.
 iSolventCode=           1
 Solvent: water                                                           
 
 vradii
            1           2           3           4           5           6
    1   1.8500000   1.5200000   1.8500000   1.5200000   1.8500000   1.8500000
            7           8           9          10          11          12
    1   1.5200000   1.8500000   1.5200000   1.5200000   1.2000000   1.2000000
           13          14          15          16          17          18
    1   1.2000000   1.2000000   1.2000000   1.2000000   1.2000000   1.2000000
           19          20          21          22          23          24
    1   1.5200000   1.2000000   1.5200000   1.5200000   1.2000000   1.2000000
 -------------------------------------------------------
 OpenMP BLAS3 based DFT computing Module                
 Release: version 1.0, May 2013, Q-Chem Inc. Pittsburgh 
 -------------------------------------------------------
 A unrestricted SCF calculation will be
 performed using Roothaan-Hall, DIIS, GDM
 SCF converges when RMS gradient is below 1.0e-07
 ---------------------------------------
  Cycle       Energy         DIIS error
 ---------------------------------------
    1    -798.8045825992      2.13e-04  Roothaan Step
 ---------------------------------------
  Cycle       Energy         DIIS error
 ---------------------------------------
    1    -798.8577223662      2.32e-04  
    2    -798.8669880010      1.62e-04  Done DIIS. Switching to GDM
 ---------------------------------------
  Cycle       Energy        RMS Gradient
 ---------------------------------------
    1    -798.8669880010      4.74e-03   Normal BFGS step
    2    -798.8674266703      6.84e-03   Normal BFGS step
    3    -798.8699294436      6.57e-04   Normal BFGS step
    4    -798.8699549309      3.80e-04   Normal BFGS step
    5    -798.8699648108      2.24e-04   Normal BFGS step
    6    -798.8699655497      9.17e-05   Normal BFGS step
    7    -798.8699659636      9.55e-05   Normal BFGS step
    8    -798.8699659955      5.24e-05   Normal BFGS step
    9    -798.8699660072      1.71e-05   Normal BFGS step
   10    -798.8699660096      9.71e-06   Normal BFGS step
   11    -798.8699660103      9.03e-06   Normal BFGS step
   12    -798.8699660106      8.45e-06   Normal BFGS step
   13    -798.8699660112      6.72e-06   Normal BFGS step
   14    -798.8699660120      4.72e-06   Normal BFGS step
   15    -798.8699660126      4.80e-06   Normal BFGS step
   16    -798.8699660128      3.62e-06   Normal BFGS step
   17    -798.8699660129      1.80e-06   Normal BFGS step
   18    -798.8699660129      5.54e-07   Normal BFGS step
   19    -798.8699660129      2.07e-07   Normal BFGS step
   20    -798.8699660129      8.61e-08  Convergence criterion met
 ---------------------------------------
 SCF time:   CPU 4793.92s  wall 330.00s 
<S^2> =          0.754031914
(3)  G-ENP(liq) elect-nuc-pol free energy of system     -798.869966013 a.u.
(4)  G-CDS(liq) cavity-dispersion-solvent structure 
     free energy                                                4.0888 kcal/mol
(6)  G-S(liq) free energy of system                     -798.863450095 a.u.
 SCF   energy in the final basis set =     -798.8634500950
 Total energy in the final basis set =     -798.8634500950
 
 --------------------------------------------------------------
 
                    Orbital Energies (a.u.)
 --------------------------------------------------------------
 
 Alpha MOs
 -- Occupied --
-19.4043 -19.4040 -19.3981 -19.3559 -19.3477 -19.3476 -19.3469 -19.3466
-10.4646 -10.4498 -10.4474 -10.4138 -10.3509  -1.2781  -1.2137  -1.2101
 -1.1845  -1.1710  -1.1370  -1.1368  -1.0389  -0.9171  -0.8570  -0.8076
 -0.7397  -0.7230  -0.6958  -0.6825  -0.6516  -0.6430  -0.6245  -0.6018
 -0.5980  -0.5794  -0.5790  -0.5676  -0.5610  -0.5456  -0.5356  -0.5305
 -0.4967  -0.4784  -0.4672  -0.4629  -0.4496  -0.4384  -0.4342  -0.4317
 -0.4164  -0.4133  -0.4087  -0.3979  -0.3834
 -- Virtual --
  0.0243   0.0348   0.0369   0.0410   0.0544   0.0609   0.0642   0.0677
  0.0787   0.0844   0.0936   0.1054   0.1125   0.1242   0.1307   0.1347
  0.1377   0.1429   0.1485   0.1510   0.1597   0.1643   0.1666   0.1685
  0.1731   0.1825   0.1847   0.1965   0.1982   0.2048   0.2066   0.2184
  0.2232   0.2347   0.2462   0.2537   0.2608   0.2664   0.2728   0.2729
  0.2798   0.2813   0.2832   0.2886   0.2920   0.2943   0.3088   0.3135
  0.3181   0.3215   0.3227   0.3319   0.3334   0.3434   0.3485   0.3507
  0.3606   0.3627   0.3679   0.3737   0.3757   0.3794   0.3821   0.3879
  0.3915   0.3968   0.4023   0.4071   0.4114   0.4139   0.4275   0.4293
  0.4354   0.4372   0.4413   0.4450   0.4532   0.4551   0.4702   0.4752
  0.4825   0.4881   0.5005   0.5123   0.5194   0.5400   0.5619   0.5743
  0.5823   0.6017   0.6162   0.6276   0.6311   0.6389   0.6460   0.6581
  0.6672   0.6701   0.6854   0.6939   0.6981   0.7093   0.7147   0.7311
  0.7383   0.7422   0.7558   0.7652   0.7721   0.7805   0.7911   0.7984
  0.8098   0.8243   0.8405   0.8567   0.8748   0.8797   0.8868   0.9080
  0.9241   0.9499   0.9511   0.9618   0.9783   0.9907   1.0193   1.0274
  1.0354   1.0470   1.0664   1.0767   1.0793   1.0922   1.1095   1.1164
  1.1217   1.1390   1.1441   1.1531   1.1651   1.1689   1.1738   1.1843
  1.1898   1.2006   1.2068   1.2097   1.2164   1.2232   1.2339   1.2387
  1.2425   1.2537   1.2677   1.2736   1.2791   1.2895   1.2935   1.3045
  1.3137   1.3222   1.3283   1.3457   1.3515   1.3546   1.3727   1.3813
  1.3914   1.4130   1.4218   1.4242   1.4401   1.4562   1.4714   1.4753
  1.4878   1.4980   1.5047   1.5127   1.5278   1.5345   1.5402   1.5478
  1.5693   1.5777   1.5889   1.6166   1.6207   1.6338   1.6391   1.6516
  1.6625   1.6790   1.6942   1.7050   1.7133   1.7301   1.7343   1.7496
  1.7662   1.7721   1.8032   1.8186   1.8277   1.8716   1.8818   1.9039
  1.9193   1.9333   1.9419   1.9458   1.9692   2.0007   2.0071   2.0323
  2.0390   2.0684   2.0805   2.0916   2.1454   2.1654   2.1772   2.2054
  2.2189   2.2474   2.2620   2.2810   2.3281   2.3450   2.3528   2.3769
  2.3935   2.3993   2.4108   2.4210   2.4403   2.4564   2.4743   2.4770
  2.4941   2.5070   2.5253   2.5472   2.5798   2.5860   2.6405   2.7048
  2.7094   2.7784   2.7914   2.8207   2.8278   2.8312   2.8590   2.8660
  2.9011   2.9100   2.9333   2.9474   2.9896   3.0305   3.0547   3.0602
  3.0754   3.1256   3.1502   3.1896   3.2054   3.2181   3.2499   3.2585
  3.2779   3.3084   3.3180   3.3425   3.3757   3.3844   3.4029   3.4113
  3.4314   3.4435   3.4677   3.4942   3.5062   3.5287   3.5435   3.5660
  3.5991   3.5994   3.6152   3.6353   3.6467   3.6702   3.6828   3.6923
  3.7108   3.7242   3.7304   3.7495   3.7633   3.7773   3.7930   3.8194
  3.8261   3.8323   3.8388   3.8550   3.8583   3.8697   3.8868   3.8932
  3.9087   3.9198   3.9263   3.9482   3.9599   3.9665   3.9754   4.0147
  4.0366   4.0384   4.0722   4.0994   4.1144   4.1264   4.1536   4.1646
  4.1657   4.2030   4.2143   4.2307   4.2509   4.2572   4.2742   4.2797
  4.2946   4.3055   4.3378   4.3605   4.3635   4.3777   4.3957   4.4054
  4.4220   4.4300   4.4468   4.4715   4.4894   4.5168   4.5701   4.5801
  4.5813   4.6312   4.6556   4.6688   4.7108   4.7374   4.7847   4.7889
  4.8768   4.8939   5.0021   5.0531   5.0758   5.1059   5.1623   5.1835
  5.1895   5.2136   5.2336   5.2405   5.2578   5.2640   5.2789   5.2871
  5.2931   5.2989   5.3065   5.3198   5.3281   5.3372   5.3439   5.3481
  5.3597   5.3653   5.3734   5.3945   5.3976   5.4079   5.4258   5.4344
  5.4466   5.4678   5.4953   5.4978   5.5055   5.5118   5.5327   5.5587
  5.5635   5.5699   5.5877   5.6069   5.6094   5.6221   5.6378   5.6442
  5.6499   5.6689   5.6750   5.6871   5.7013   5.7241   5.7725   5.7891
  5.8185   5.8274   5.8404   5.9071   5.9393   5.9670   6.0115   6.0299
  6.0348   6.0630   6.0959   6.1087   6.1521   6.1547   6.1710   6.2549
  6.5045   6.5522   6.5853   6.7354   6.7499   6.7593   6.8260   6.8718
  6.9103   7.0126   7.0294   7.0589   7.0866   7.0987   7.1098   7.1217
  7.1389   7.1583   7.2577   7.2664   7.2714   7.2764   7.2911   7.3070
  7.3125   7.3247   7.3253   7.3413   7.3545   7.3935   7.4073   7.4300
  7.4369   7.4691   7.4997   7.5134   7.5230   7.5474   7.5930   7.6164
  7.6585   7.6683   7.6928   7.7049   7.7223   7.7813   7.8279   7.8608
  7.8699   7.8822   7.8933   7.9180   8.0271   8.2098  24.6330  24.7643
 24.8011  24.8430  24.8764  50.4997  50.5463  50.6053  50.6117  50.6284
 50.6438  50.6676  50.7163
 
 Beta MOs
 -- Occupied --
-19.4039 -19.3981 -19.3819 -19.3559 -19.3476 -19.3475 -19.3469 -19.3466
-10.4646 -10.4494 -10.4474 -10.4140 -10.3504  -1.2780  -1.2111  -1.2075
 -1.1817  -1.1380  -1.1370  -1.1283  -1.0388  -0.9107  -0.8524  -0.8068
 -0.7390  -0.7129  -0.6934  -0.6784  -0.6512  -0.6409  -0.6192  -0.5954
 -0.5923  -0.5786  -0.5733  -0.5629  -0.5448  -0.5383  -0.5328  -0.5155
 -0.4796  -0.4767  -0.4619  -0.4581  -0.4478  -0.4350  -0.4321  -0.4140
 -0.4130  -0.4075  -0.3962  -0.3777
 -- Virtual --
 -0.0719   0.0246   0.0348   0.0372   0.0410   0.0546   0.0612   0.0642
  0.0678   0.0793   0.0845   0.0938   0.1054   0.1128   0.1248   0.1310
  0.1354   0.1381   0.1433   0.1488   0.1516   0.1600   0.1644   0.1674
  0.1688   0.1735   0.1832   0.1850   0.1965   0.1985   0.2050   0.2079
  0.2189   0.2243   0.2357   0.2474   0.2541   0.2613   0.2674   0.2736
  0.2739   0.2806   0.2818   0.2837   0.2891   0.2923   0.2952   0.3093
  0.3143   0.3189   0.3222   0.3235   0.3331   0.3344   0.3439   0.3498
  0.3516   0.3610   0.3632   0.3690   0.3744   0.3759   0.3800   0.3846
  0.3883   0.3919   0.3989   0.4026   0.4081   0.4121   0.4144   0.4280
  0.4301   0.4373   0.4380   0.4421   0.4452   0.4539   0.4562   0.4708
  0.4758   0.4833   0.4890   0.5011   0.5124   0.5204   0.5402   0.5643
  0.5746   0.5825   0.6041   0.6165   0.6284   0.6317   0.6395   0.6464
  0.6590   0.6675   0.6710   0.6858   0.6944   0.6991   0.7107   0.7154
  0.7327   0.7394   0.7433   0.7559   0.7686   0.7728   0.7813   0.7917
  0.7985   0.8100   0.8249   0.8409   0.8568   0.8753   0.8795   0.8876
  0.9091   0.9246   0.9512   0.9518   0.9623   0.9791   0.9908   1.0207
  1.0282   1.0367   1.0479   1.0670   1.0777   1.0804   1.0926   1.1111
  1.1168   1.1233   1.1415   1.1445   1.1556   1.1658   1.1729   1.1776
  1.1856   1.1913   1.2036   1.2092   1.2103   1.2173   1.2259   1.2371
  1.2426   1.2492   1.2613   1.2684   1.2746   1.2815   1.2908   1.2957
  1.3070   1.3150   1.3232   1.3313   1.3492   1.3517   1.3585   1.3742
  1.3826   1.3943   1.4146   1.4241   1.4250   1.4435   1.4574   1.4723
  1.4761   1.4889   1.4998   1.5079   1.5149   1.5298   1.5354   1.5413
  1.5496   1.5704   1.5793   1.5924   1.6206   1.6223   1.6351   1.6405
  1.6530   1.6648   1.6836   1.6975   1.7100   1.7149   1.7321   1.7379
  1.7514   1.7695   1.7806   1.8065   1.8191   1.8311   1.8736   1.8917
  1.9089   1.9259   1.9396   1.9426   1.9533   1.9711   2.0020   2.0089
  2.0337   2.0412   2.0701   2.0840   2.0930   2.1485   2.1742   2.1784
  2.2111   2.2202   2.2529   2.2655   2.2840   2.3327   2.3455   2.3551
  2.3780   2.3936   2.4008   2.4129   2.4242   2.4431   2.4589   2.4749
  2.4796   2.4976   2.5122   2.5271   2.5501   2.5824   2.5870   2.6413
  2.7052   2.7100   2.7822   2.7925   2.8212   2.8286   2.8319   2.8605
  2.8664   2.9078   2.9112   2.9347   2.9496   2.9919   3.0319   3.0561
  3.0640   3.0769   3.1275   3.1524   3.1913   3.2067   3.2187   3.2515
  3.2598   3.2791   3.3101   3.3190   3.3429   3.3783   3.3859   3.4049
  3.4128   3.4332   3.4476   3.4685   3.4965   3.5075   3.5299   3.5457
  3.5674   3.5998   3.6015   3.6160   3.6358   3.6476   3.6717   3.6832
  3.6931   3.7117   3.7254   3.7317   3.7510   3.7645   3.7782   3.7934
  3.8210   3.8281   3.8332   3.8395   3.8557   3.8589   3.8708   3.8875
  3.8941   3.9093   3.9218   3.9269   3.9501   3.9602   3.9677   3.9773
  4.0175   4.0384   4.0411   4.0731   4.1006   4.1159   4.1280   4.1547
  4.1659   4.1674   4.2048   4.2161   4.2320   4.2518   4.2591   4.2763
  4.2813   4.2989   4.3061   4.3389   4.3615   4.3690   4.3822   4.3986
  4.4070   4.4243   4.4319   4.4497   4.4722   4.4951   4.5201   4.5730
  4.5828   4.5901   4.6342   4.6584   4.6711   4.7133   4.7421   4.7869
  4.7923   4.8776   4.8972   5.0031   5.0534   5.0911   5.1395   5.1907
  5.2116   5.2247   5.2330   5.2441   5.2516   5.2618   5.2784   5.2853
  5.2912   5.2966   5.3014   5.3202   5.3230   5.3333   5.3416   5.3512
  5.3526   5.3648   5.3765   5.3908   5.3983   5.4082   5.4164   5.4343
  5.4460   5.4613   5.4858   5.4994   5.5077   5.5121   5.5178   5.5411
  5.5599   5.5669   5.5812   5.5914   5.6096   5.6133   5.6238   5.6407
  5.6463   5.6555   5.6693   5.6767   5.6874   5.7026   5.7244   5.7737
  5.7899   5.8196   5.8288   5.8430   5.9139   5.9617   5.9799   6.0175
  6.0352   6.0361   6.0637   6.0962   6.1141   6.1540   6.1557   6.1757
  6.2550   6.5048   6.5544   6.5855   6.7389   6.7545   6.7835   6.8271
  6.8721   6.9999   7.0221   7.0594   7.0790   7.0893   7.1109   7.1128
  7.1234   7.1498   7.1646   7.2578   7.2675   7.2718   7.2777   7.2918
  7.3103   7.3204   7.3255   7.3279   7.3490   7.3930   7.3973   7.4254
  7.4319   7.4479   7.4849   7.5043   7.5178   7.5361   7.5514   7.5940
  7.6173   7.6622   7.6693   7.6986   7.7057   7.7547   7.7817   7.8292
  7.8626   7.8726   7.8828   7.8956   7.9181   8.0273   8.2099  24.6332
 24.7644  24.8015  24.8431  24.8765  50.5001  50.5564  50.6055  50.6121
 50.6288  50.6455  50.6699  50.7166
 --------------------------------------------------------------
 
          Ground-State Mulliken Net Atomic Charges

     Atom                 Charge (a.u.)    Spin (a.u.)
  --------------------------------------------------------
      1 C                    -0.089818      -0.002765
      2 O                    -0.425645      -0.000073
      3 C                     0.147988       0.017368
      4 O                    -0.406546       0.001132
      5 C                    -0.687502      -0.034580
      6 C                     0.162451       0.074278
      7 O                    -0.159863       0.858568
      8 C                    -0.352494      -0.012288
      9 O                    -0.405538       0.005656
     10 O                    -0.421195       0.000315
     11 H                     0.306711       0.000061
     12 H                     0.335807      -0.000059
     13 H                     0.292414      -0.002838
     14 H                     0.299052       0.004224
     15 H                     0.322262       0.096462
     16 H                     0.268600      -0.001528
     17 H                     0.339050      -0.000506
     18 H                     0.346798      -0.000670
     19 O                    -0.458529      -0.000087
     20 H                     0.353053      -0.000018
     21 O                    -0.146849       0.001636
     22 O                    -0.282805      -0.000731
     23 H                     0.327986      -0.002623
     24 H                     0.334611      -0.000933
  --------------------------------------------------------
  Sum of atomic charges =    -0.000000
  Sum of spin   charges =     1.000000

 -----------------------------------------------------------------
                    Cartesian Multipole Moments
 -----------------------------------------------------------------
    Charge (ESU x 10^10)
                -0.0000
    Dipole Moment (Debye)
         X       2.3752      Y       4.6720      Z      -2.7489
       Tot       5.9183
    Quadrupole Moments (Debye-Ang)
        XX     -56.8468     XY      21.3145     YY     -84.0431
        XZ      -9.1990     YZ      -8.5151     ZZ     -73.1853
    Octopole Moments (Debye-Ang^2)
       XXX    -795.3181    XXY      40.3896    XYY    -337.3133
       YYY     -43.5945    XXZ     -73.1875    XYZ     -41.5979
       YYZ     -24.3873    XZZ    -299.8572    YZZ     -31.1878
       ZZZ     -56.6833
    Hexadecapole Moments (Debye-Ang^3)
      XXXX   -7580.3687   XXXY    -626.1340   XXYY   -1903.0739
      XYYY    -519.7010   YYYY   -1688.0020   XXXZ    -749.8143
      XXYZ    -329.7056   XYYZ    -199.6478   YYYZ    -428.7074
      XXZZ   -1443.5974   XYZZ    -221.3224   YYZZ    -438.2833
      XZZZ    -326.6761   YZZZ    -270.0310   ZZZZ    -574.3595
 -----------------------------------------------------------------
 Calculating analytic gradient of the SCF energy
 Gradient of CDS energy
            1           2           3           4           5           6
    1  -0.0022150   0.0017478  -0.0015300   0.0016140  -0.0000471  -0.0017946
    2  -0.0017111  -0.0011539  -0.0008481   0.0008496   0.0000493  -0.0003772
    3   0.0000874   0.0002285   0.0032274  -0.0034893  -0.0000566   0.0052120
            7           8           9          10          11          12
    1   0.0017242   0.0010282   0.0013757  -0.0021359   0.0002522  -0.0004325
    2   0.0004642   0.0020258  -0.0011884  -0.0010038  -0.0000196   0.0001609
    3  -0.0051915   0.0018298   0.0002572  -0.0022238  -0.0000164  -0.0002355
           13          14          15          16          17          18
    1  -0.0001495   0.0001030  -0.0000103   0.0000325  -0.0002200   0.0001456
    2   0.0000555  -0.0000668  -0.0001169  -0.0000683   0.0004502   0.0001506
    3   0.0000715  -0.0000946   0.0001040  -0.0001408  -0.0001357   0.0004419
           19          20          21          22          23          24
    1   0.0006884  -0.0002142  -0.0000485  -0.0002737  -0.0001125   0.0004723
    2   0.0028871  -0.0003859  -0.0000176  -0.0000552  -0.0000710  -0.0000094
    3  -0.0003827   0.0002271  -0.0000574   0.0001213   0.0003938  -0.0001778
 Gradient of SCF Energy
            1           2           3           4           5           6
    1  -0.0005545   0.0017832   0.0093816  -0.0036184  -0.0091147  -0.0134951
    2   0.0017939   0.0039253  -0.0024259  -0.0041036  -0.0021012   0.0099918
    3   0.0021526   0.0133021   0.0001772  -0.0021627   0.0154467  -0.0061237
            7           8           9          10          11          12
    1  -0.0006929  -0.0103722  -0.0068537   0.0065000  -0.0004629  -0.0043225
    2  -0.0003031   0.0019232  -0.0132055   0.0030759   0.0039857  -0.0017754
    3  -0.0003266   0.0207549   0.0069451  -0.0062182  -0.0048066  -0.0116731
           13          14          15          16          17          18
    1  -0.0012403   0.0075963   0.0148518   0.0065053   0.0056781  -0.0028688
    2   0.0017636   0.0022135  -0.0086179  -0.0012867   0.0126526  -0.0022112
    3   0.0005362  -0.0116568  -0.0029198  -0.0151430  -0.0078789   0.0074434
           19          20          21          22          23          24
    1   0.0030078  -0.0019997  -0.0029993  -0.0140654   0.0028355   0.0145205
    2  -0.0053401   0.0003388  -0.0046710  -0.0160048   0.0031370   0.0172450
    3  -0.0007498  -0.0002242   0.0022817  -0.0065508   0.0024296   0.0049647
 Max gradient component =       2.075E-02
 RMS gradient           =       7.739E-03
 Computing fast CPCM-SWIG gradient
 Updating gradient with PCM contributions...
 -- total gradient after adding PCM contribution --
---------------------------------------------------
  Atom         X              Y              Z     
---------------------------------------------------
   1       0.001170       0.000022      -0.000141
   2      -0.000508       0.000206      -0.000027
   3      -0.000200      -0.000048      -0.000106
   4      -0.000004      -0.000034       0.000030
   5      -0.000004      -0.000020      -0.000049
   6      -0.000001       0.000014       0.000071
   7       0.000027       0.000029      -0.000045
   8       0.000000      -0.000024       0.000014
   9      -0.000005      -0.000007       0.000004
  10       0.000015       0.000014      -0.000011
  11      -0.000181       0.000001       0.000188
  12      -0.000071       0.000017       0.000006
  13      -0.000013      -0.000014       0.000013
  14       0.000001      -0.000011       0.000006
  15       0.000014      -0.000005      -0.000011
  16      -0.000001       0.000007      -0.000012
  17       0.000001       0.000023      -0.000001
  18      -0.000004      -0.000001       0.000019
  19      -0.000187      -0.000138       0.000042
  20      -0.000012      -0.000053       0.000031
  21      -0.000078      -0.000006      -0.000000
  22       0.000022       0.000008      -0.000042
  23       0.000014       0.000018       0.000034
  24       0.000005       0.000001      -0.000012
---------------------------------------------------
 Number of fixed atoms: 0
 Gradient time:  CPU 615.09 s  wall 51.28 s
 ----------------------------------------------------------------
             Standard Nuclear Orientation (Angstroms)
    I     Atom           X                Y                Z
 ----------------------------------------------------------------
    1      C       2.5869293453    -1.1160763896    -1.0317896225
    2      O       1.4129910757    -0.3420712723    -1.0137414067
    3      C       3.5028280630    -0.5660602903     0.0711902203
    4      O       2.9137898546    -0.8795315709     1.2959620725
    5      C       3.7909187666     0.9165090417    -0.1005164821
    6      C       4.7936050046     1.4524646173     0.9182817674
    7      O       4.3548726425     1.3483274694     2.2193680852
    8      C       5.2916541634     2.8670288430     0.6113347386
    9      O       4.1588988750     3.7045899886     0.5654078741
   10      O       6.2112051376     3.2904153363     1.5860352282
   11      H       3.0857421220    -1.0439840339    -1.9961417149
   12      H       0.9119582887    -0.5452815067    -1.8118138327
   13      H       2.8559135886     1.4630827274    -0.0061541742
   14      H       4.1805185593     1.0968752853    -1.1022665887
   15      H       5.6954495416     0.8064781819     0.9228075729
   16      H       5.8225324811     2.8803406930    -0.3396821076
   17      H       4.4333848104     4.5589201364     0.2124947828
   18      H       5.8218034808     3.1115670133     2.4534586864
   19      O       2.3156594536    -2.4803192146    -0.8304874569
   20      H       1.9858656390    -2.5911102756     0.0714691394
   21      O       4.7213338154    -1.3437501348     0.0922292294
   22      O       5.4057752708    -1.1837140591    -1.1500069554
   23      H       3.2685326646    -0.2770503545     1.9683152513
   24      H       6.1240633559    -0.5764639312    -0.9180296070
 ----------------------------------------------------------------
 Nuclear Repulsion Energy =         944.16130356 hartrees
 There are       53 alpha and       52 beta electrons
 Discretize the solute cavity surface with Lebedev spheres
	Using 110 Lebedev grid points for each H atom
	Using 194 Lebedev grid points for other atoms
	Atomic van der Waals radii will be scaled by 1.20
 Remove points where switching function is < 1.0e-08
 Keep 1823 surface tesserae and discard 1909 interior tesserae
 Molecular Surface Area = 198.700 Angst**2
 Requested basis set is 6-311++G(2df,2p)
 There are 170 shells and 552 basis functions
 A cutoff of  1.0D-12 yielded  12059 shell pairs
 There are    124090 function pairs (    153124 Cartesian)
 Smallest overlap matrix eigenvalue = 2.38E-06
 Guess MOs from SCF MO coefficient file

 -----------------------------------------------------------------------
  General SCF calculation program by
  Eric Jon Sundstrom, Paul Horn, Yuezhi Mao, Dmitri Zuev, Alec White,
  David Stuck, Shaama M.S., Shane Yost, Joonho Lee, David Small,
  Daniel Levine, Susi Lehtola, Hugh Burton, Evgeny Epifanovsky,
  Bang C. Huynh
 -----------------------------------------------------------------------
 Exchange:     0.1500 Hartree-Fock + 1.0000 wB97M-V + LR-HF
 Correlation:  1.0000 wB97M-V
 Using SG-2 standard quadrature grid
 Nonlocal Correlation:  VV10 with C = 0.0100 and b = 6.00 and scale = 1.00000
 Grid used for NLC:  SG-1 standard quadrature
 
 Citation of the SMD model:
 Marenich, A.V.; Cramer, C.J.; Truhlar, D.G.
 J. Phys. Chem. B 2009, 113, 6378-6396.
 iSolventCode=           1
 Solvent: water                                                           
 
 vradii
            1           2           3           4           5           6
    1   1.8500000   1.5200000   1.8500000   1.5200000   1.8500000   1.8500000
            7           8           9          10          11          12
    1   1.5200000   1.8500000   1.5200000   1.5200000   1.2000000   1.2000000
           13          14          15          16          17          18
    1   1.2000000   1.2000000   1.2000000   1.2000000   1.2000000   1.2000000
           19          20          21          22          23          24
    1   1.5200000   1.2000000   1.5200000   1.5200000   1.2000000   1.2000000
 -------------------------------------------------------
 OpenMP BLAS3 based DFT computing Module                
 Release: version 1.0, May 2013, Q-Chem Inc. Pittsburgh 
 -------------------------------------------------------
 A unrestricted SCF calculation will be
 performed using Roothaan-Hall, DIIS, GDM
 SCF converges when RMS gradient is below 1.0e-07
 ---------------------------------------
  Cycle       Energy         DIIS error
 ---------------------------------------
    1    -798.8045875823      2.13e-04  Roothaan Step
 ---------------------------------------
  Cycle       Energy         DIIS error
 ---------------------------------------
    1    -798.8577473114      2.32e-04  
    2    -798.8670116984      1.61e-04  Done DIIS. Switching to GDM
 ---------------------------------------
  Cycle       Energy        RMS Gradient
 ---------------------------------------
    1    -798.8670116984      4.77e-03   Normal BFGS step
    2    -798.8674518632      6.85e-03   Normal BFGS step
    3    -798.8699384816      6.57e-04   Normal BFGS step
    4    -798.8699639250      3.80e-04   Normal BFGS step
    5    -798.8699738284      2.25e-04   Normal BFGS step
    6    -798.8699745647      9.19e-05   Normal BFGS step
    7    -798.8699749793      9.58e-05   Normal BFGS step
    8    -798.8699750111      5.27e-05   Normal BFGS step
    9    -798.8699750228      1.73e-05   Normal BFGS step
   10    -798.8699750250      8.29e-06   Normal BFGS step
   11    -798.8699750257      7.67e-06   Normal BFGS step
   12    -798.8699750259      7.26e-06   Normal BFGS step
   13    -798.8699750263      5.99e-06   Normal BFGS step
   14    -798.8699750268      4.08e-06   Normal BFGS step
   15    -798.8699750272      4.47e-06   Normal BFGS step
   16    -798.8699750275      3.55e-06   Normal BFGS step
   17    -798.8699750276      1.83e-06   Normal BFGS step
   18    -798.8699750276      5.47e-07   Normal BFGS step
   19    -798.8699750276      1.97e-07   Normal BFGS step
   20    -798.8699750276      8.92e-08  Convergence criterion met
 ---------------------------------------
 SCF time:   CPU 4782.19s  wall 329.00s 
<S^2> =          0.754031942
(3)  G-ENP(liq) elect-nuc-pol free energy of system     -798.869975028 a.u.
(4)  G-CDS(liq) cavity-dispersion-solvent structure 
     free energy                                                4.0944 kcal/mol
(6)  G-S(liq) free energy of system                     -798.863450155 a.u.
 SCF   energy in the final basis set =     -798.8634501551
 Total energy in the final basis set =     -798.8634501551
 
 --------------------------------------------------------------
 
                    Orbital Energies (a.u.)
 --------------------------------------------------------------
 
 Alpha MOs
 -- Occupied --
-19.4043 -19.4040 -19.3981 -19.3559 -19.3478 -19.3477 -19.3469 -19.3465
-10.4645 -10.4498 -10.4474 -10.4138 -10.3508  -1.2780  -1.2138  -1.2103
 -1.1845  -1.1710  -1.1373  -1.1369  -1.0388  -0.9170  -0.8568  -0.8075
 -0.7396  -0.7230  -0.6958  -0.6826  -0.6517  -0.6429  -0.6245  -0.6018
 -0.5980  -0.5794  -0.5790  -0.5676  -0.5610  -0.5455  -0.5356  -0.5306
 -0.4967  -0.4783  -0.4672  -0.4629  -0.4496  -0.4384  -0.4342  -0.4317
 -0.4165  -0.4134  -0.4086  -0.3979  -0.3833
 -- Virtual --
  0.0243   0.0348   0.0369   0.0410   0.0544   0.0609   0.0642   0.0677
  0.0787   0.0844   0.0936   0.1054   0.1125   0.1242   0.1307   0.1347
  0.1377   0.1429   0.1485   0.1510   0.1597   0.1643   0.1666   0.1685
  0.1731   0.1825   0.1847   0.1965   0.1982   0.2048   0.2066   0.2186
  0.2233   0.2347   0.2463   0.2537   0.2608   0.2664   0.2728   0.2729
  0.2798   0.2814   0.2832   0.2887   0.2920   0.2943   0.3088   0.3134
  0.3181   0.3215   0.3226   0.3319   0.3334   0.3434   0.3485   0.3507
  0.3606   0.3627   0.3680   0.3738   0.3757   0.3795   0.3821   0.3879
  0.3914   0.3968   0.4024   0.4071   0.4114   0.4139   0.4275   0.4292
  0.4354   0.4372   0.4413   0.4450   0.4531   0.4551   0.4703   0.4752
  0.4825   0.4881   0.5005   0.5123   0.5195   0.5401   0.5619   0.5742
  0.5822   0.6017   0.6162   0.6276   0.6311   0.6390   0.6461   0.6581
  0.6673   0.6701   0.6855   0.6939   0.6980   0.7092   0.7147   0.7310
  0.7383   0.7422   0.7557   0.7652   0.7721   0.7805   0.7911   0.7984
  0.8097   0.8243   0.8405   0.8567   0.8747   0.8796   0.8868   0.9080
  0.9241   0.9499   0.9511   0.9618   0.9783   0.9908   1.0194   1.0275
  1.0354   1.0470   1.0663   1.0768   1.0794   1.0923   1.1095   1.1163
  1.1216   1.1391   1.1441   1.1531   1.1651   1.1690   1.1738   1.1843
  1.1898   1.2006   1.2067   1.2097   1.2163   1.2233   1.2339   1.2387
  1.2425   1.2537   1.2677   1.2737   1.2791   1.2895   1.2935   1.3045
  1.3137   1.3221   1.3283   1.3457   1.3513   1.3546   1.3726   1.3814
  1.3915   1.4129   1.4217   1.4242   1.4401   1.4562   1.4714   1.4754
  1.4878   1.4979   1.5047   1.5127   1.5278   1.5345   1.5401   1.5478
  1.5693   1.5776   1.5888   1.6166   1.6207   1.6338   1.6388   1.6515
  1.6623   1.6789   1.6942   1.7050   1.7133   1.7301   1.7343   1.7495
  1.7661   1.7721   1.8030   1.8187   1.8274   1.8714   1.8818   1.9039
  1.9193   1.9333   1.9419   1.9458   1.9692   2.0008   2.0073   2.0322
  2.0390   2.0685   2.0805   2.0919   2.1455   2.1654   2.1772   2.2054
  2.2190   2.2477   2.2621   2.2811   2.3282   2.3451   2.3529   2.3769
  2.3941   2.3993   2.4109   2.4210   2.4404   2.4564   2.4744   2.4772
  2.4942   2.5070   2.5253   2.5473   2.5799   2.5860   2.6405   2.7048
  2.7095   2.7782   2.7915   2.8209   2.8276   2.8313   2.8591   2.8660
  2.9012   2.9101   2.9335   2.9474   2.9897   3.0305   3.0546   3.0602
  3.0754   3.1255   3.1501   3.1896   3.2054   3.2181   3.2494   3.2585
  3.2780   3.3085   3.3180   3.3430   3.3758   3.3843   3.4029   3.4114
  3.4317   3.4436   3.4675   3.4941   3.5063   3.5288   3.5437   3.5664
  3.5992   3.5994   3.6151   3.6351   3.6466   3.6702   3.6829   3.6925
  3.7108   3.7241   3.7304   3.7494   3.7633   3.7773   3.7928   3.8193
  3.8261   3.8323   3.8386   3.8550   3.8582   3.8699   3.8866   3.8931
  3.9086   3.9198   3.9264   3.9482   3.9600   3.9667   3.9755   4.0148
  4.0364   4.0384   4.0718   4.0992   4.1142   4.1264   4.1538   4.1643
  4.1657   4.2031   4.2143   4.2304   4.2508   4.2570   4.2741   4.2797
  4.2945   4.3054   4.3375   4.3604   4.3633   4.3774   4.3955   4.4053
  4.4217   4.4298   4.4465   4.4710   4.4893   4.5166   4.5697   4.5801
  4.5808   4.6308   4.6553   4.6685   4.7106   4.7373   4.7845   4.7889
  4.8767   4.8938   5.0020   5.0531   5.0757   5.1056   5.1623   5.1835
  5.1894   5.2137   5.2337   5.2406   5.2578   5.2639   5.2789   5.2872
  5.2931   5.2988   5.3065   5.3198   5.3281   5.3373   5.3438   5.3481
  5.3597   5.3653   5.3733   5.3943   5.3974   5.4080   5.4257   5.4339
  5.4466   5.4676   5.4952   5.4978   5.5054   5.5120   5.5327   5.5588
  5.5638   5.5701   5.5875   5.6066   5.6093   5.6221   5.6379   5.6442
  5.6499   5.6690   5.6750   5.6873   5.7013   5.7243   5.7726   5.7894
  5.8187   5.8275   5.8404   5.9072   5.9395   5.9672   6.0116   6.0301
  6.0352   6.0634   6.0962   6.1090   6.1525   6.1581   6.1722   6.2549
  6.5045   6.5523   6.5862   6.7354   6.7510   6.7607   6.8260   6.8718
  6.9103   7.0126   7.0294   7.0588   7.0866   7.0986   7.1099   7.1217
  7.1388   7.1582   7.2578   7.2664   7.2716   7.2764   7.2912   7.3071
  7.3125   7.3247   7.3255   7.3414   7.3546   7.3935   7.4074   7.4302
  7.4370   7.4692   7.4998   7.5136   7.5230   7.5474   7.5931   7.6164
  7.6584   7.6684   7.6928   7.7051   7.7224   7.7815   7.8279   7.8609
  7.8700   7.8822   7.8933   7.9185   8.0271   8.2097  24.6332  24.7646
 24.8015  24.8430  24.8758  50.4996  50.5463  50.6054  50.6117  50.6287
 50.6439  50.6675  50.7164
 
 Beta MOs
 -- Occupied --
-19.4039 -19.3981 -19.3819 -19.3559 -19.3478 -19.3475 -19.3469 -19.3465
-10.4645 -10.4494 -10.4474 -10.4140 -10.3503  -1.2780  -1.2113  -1.2075
 -1.1818  -1.1380  -1.1373  -1.1283  -1.0388  -0.9106  -0.8522  -0.8067
 -0.7389  -0.7128  -0.6934  -0.6784  -0.6513  -0.6408  -0.6191  -0.5954
 -0.5923  -0.5787  -0.5733  -0.5630  -0.5448  -0.5383  -0.5328  -0.5155
 -0.4795  -0.4767  -0.4619  -0.4580  -0.4478  -0.4350  -0.4321  -0.4140
 -0.4131  -0.4073  -0.3962  -0.3776
 -- Virtual --
 -0.0719   0.0246   0.0348   0.0372   0.0410   0.0546   0.0612   0.0643
  0.0678   0.0793   0.0845   0.0938   0.1054   0.1128   0.1248   0.1309
  0.1354   0.1381   0.1433   0.1488   0.1515   0.1599   0.1644   0.1674
  0.1688   0.1735   0.1832   0.1850   0.1966   0.1985   0.2050   0.2079
  0.2191   0.2243   0.2357   0.2474   0.2541   0.2612   0.2674   0.2736
  0.2739   0.2806   0.2819   0.2838   0.2891   0.2924   0.2952   0.3093
  0.3143   0.3189   0.3223   0.3235   0.3331   0.3344   0.3438   0.3498
  0.3516   0.3610   0.3632   0.3690   0.3744   0.3759   0.3800   0.3846
  0.3882   0.3919   0.3989   0.4027   0.4082   0.4121   0.4144   0.4281
  0.4301   0.4374   0.4380   0.4421   0.4452   0.4539   0.4562   0.4708
  0.4758   0.4833   0.4890   0.5011   0.5124   0.5204   0.5402   0.5643
  0.5745   0.5824   0.6041   0.6165   0.6283   0.6317   0.6395   0.6465
  0.6590   0.6676   0.6710   0.6858   0.6945   0.6990   0.7106   0.7155
  0.7326   0.7394   0.7433   0.7559   0.7686   0.7728   0.7813   0.7916
  0.7985   0.8100   0.8250   0.8410   0.8568   0.8752   0.8795   0.8877
  0.9091   0.9246   0.9513   0.9518   0.9622   0.9791   0.9909   1.0207
  1.0283   1.0367   1.0479   1.0670   1.0778   1.0805   1.0927   1.1111
  1.1167   1.1232   1.1415   1.1445   1.1556   1.1658   1.1730   1.1775
  1.1856   1.1913   1.2037   1.2092   1.2104   1.2172   1.2260   1.2370
  1.2426   1.2493   1.2612   1.2685   1.2746   1.2815   1.2907   1.2957
  1.3070   1.3150   1.3232   1.3314   1.3492   1.3515   1.3585   1.3741
  1.3827   1.3943   1.4145   1.4240   1.4251   1.4435   1.4574   1.4722
  1.4762   1.4889   1.4998   1.5079   1.5149   1.5298   1.5354   1.5413
  1.5496   1.5703   1.5791   1.5924   1.6205   1.6223   1.6351   1.6402
  1.6530   1.6646   1.6835   1.6976   1.7100   1.7149   1.7320   1.7379
  1.7514   1.7693   1.7806   1.8063   1.8192   1.8309   1.8734   1.8917
  1.9089   1.9259   1.9396   1.9426   1.9533   1.9712   2.0020   2.0092
  2.0336   2.0413   2.0702   2.0841   2.0933   2.1485   2.1742   2.1785
  2.2111   2.2204   2.2532   2.2656   2.2840   2.3327   2.3456   2.3552
  2.3780   2.3943   2.4008   2.4131   2.4242   2.4431   2.4589   2.4749
  2.4800   2.4976   2.5123   2.5271   2.5502   2.5824   2.5870   2.6414
  2.7052   2.7102   2.7819   2.7927   2.8215   2.8284   2.8319   2.8606
  2.8665   2.9079   2.9113   2.9349   2.9496   2.9919   3.0320   3.0560
  3.0640   3.0770   3.1273   3.1522   3.1913   3.2066   3.2188   3.2511
  3.2598   3.2792   3.3101   3.3190   3.3434   3.3784   3.3858   3.4050
  3.4129   3.4334   3.4476   3.4684   3.4964   3.5076   3.5300   3.5459
  3.5679   3.5999   3.6015   3.6159   3.6357   3.6475   3.6717   3.6833
  3.6933   3.7117   3.7253   3.7317   3.7510   3.7644   3.7782   3.7932
  3.8209   3.8281   3.8331   3.8394   3.8557   3.8588   3.8709   3.8874
  3.8940   3.9091   3.9217   3.9270   3.9500   3.9603   3.9678   3.9774
  4.0175   4.0382   4.0410   4.0727   4.1004   4.1157   4.1280   4.1549
  4.1656   4.1674   4.2049   4.2161   4.2318   4.2517   4.2589   4.2763
  4.2813   4.2988   4.3061   4.3386   4.3614   4.3687   4.3819   4.3984
  4.4069   4.4239   4.4317   4.4495   4.4716   4.4951   4.5198   4.5725
  4.5826   4.5899   4.6338   4.6580   4.6709   4.7131   4.7421   4.7868
  4.7923   4.8775   4.8971   5.0029   5.0534   5.0907   5.1394   5.1908
  5.2117   5.2247   5.2330   5.2440   5.2516   5.2619   5.2783   5.2854
  5.2913   5.2967   5.3014   5.3202   5.3230   5.3334   5.3417   5.3512
  5.3526   5.3648   5.3764   5.3906   5.3982   5.4084   5.4163   5.4338
  5.4458   5.4613   5.4858   5.4993   5.5077   5.5122   5.5178   5.5411
  5.5600   5.5672   5.5813   5.5910   5.6094   5.6132   5.6238   5.6408
  5.6463   5.6554   5.6694   5.6767   5.6875   5.7026   5.7246   5.7738
  5.7902   5.8198   5.8290   5.8430   5.9141   5.9619   5.9800   6.0176
  6.0356   6.0362   6.0641   6.0966   6.1144   6.1544   6.1594   6.1765
  6.2550   6.5048   6.5545   6.5864   6.7389   6.7571   6.7835   6.8271
  6.8721   6.9999   7.0221   7.0593   7.0790   7.0893   7.1110   7.1128
  7.1234   7.1498   7.1646   7.2579   7.2675   7.2720   7.2777   7.2919
  7.3103   7.3205   7.3257   7.3279   7.3492   7.3930   7.3973   7.4257
  7.4320   7.4479   7.4850   7.5044   7.5180   7.5362   7.5513   7.5941
  7.6173   7.6622   7.6694   7.6987   7.7059   7.7547   7.7819   7.8292
  7.8627   7.8726   7.8828   7.8956   7.9186   8.0273   8.2099  24.6334
 24.7646  24.8018  24.8431  24.8759  50.5000  50.5564  50.6056  50.6121
 50.6292  50.6456  50.6698  50.7167
 --------------------------------------------------------------
 
          Ground-State Mulliken Net Atomic Charges

     Atom                 Charge (a.u.)    Spin (a.u.)
  --------------------------------------------------------
      1 C                    -0.089307      -0.002748
      2 O                    -0.424834      -0.000073
      3 C                     0.148185       0.017331
      4 O                    -0.406603       0.001133
      5 C                    -0.688088      -0.034547
      6 C                     0.162671       0.074268
      7 O                    -0.159895       0.858563
      8 C                    -0.352452      -0.012290
      9 O                    -0.405547       0.005656
     10 O                    -0.421202       0.000316
     11 H                     0.305848       0.000060
     12 H                     0.335868      -0.000059
     13 H                     0.292360      -0.002835
     14 H                     0.299049       0.004223
     15 H                     0.322236       0.096463
     16 H                     0.268596      -0.001527
     17 H                     0.339046      -0.000506
     18 H                     0.346801      -0.000670
     19 O                    -0.458447      -0.000087
     20 H                     0.352992      -0.000018
     21 O                    -0.146846       0.001635
     22 O                    -0.283020      -0.000730
     23 H                     0.327990      -0.002623
     24 H                     0.334599      -0.000933
  --------------------------------------------------------
  Sum of atomic charges =    -0.000000
  Sum of spin   charges =     1.000000

 -----------------------------------------------------------------
                    Cartesian Multipole Moments
 -----------------------------------------------------------------
    Charge (ESU x 10^10)
                -0.0000
    Dipole Moment (Debye)
         X       2.3633      Y       4.6737      Z      -2.7497
       Tot       5.9152
    Quadrupole Moments (Debye-Ang)
        XX     -56.9051     XY      21.3232     YY     -84.0488
        XZ      -9.1892     YZ      -8.5194     ZZ     -73.1947
    Octopole Moments (Debye-Ang^2)
       XXX    -795.5389    XXY      40.4190    XYY    -337.3327
       YYY     -43.5956    XXZ     -73.1398    XYZ     -41.6191
       YYZ     -24.3867    XZZ    -299.8989    YZZ     -31.1751
       ZZZ     -56.6728
    Hexadecapole Moments (Debye-Ang^3)
      XXXX   -7581.1693   XXXY    -626.0892   XXYY   -1903.1608
      XYYY    -519.7652   YYYY   -1688.0453   XXXZ    -749.6602
      XXYZ    -329.7935   XYYZ    -199.6479   YYYZ    -428.7230
      XXZZ   -1443.7510   XYZZ    -221.2899   YYZZ    -438.3084
      XZZZ    -326.6399   YZZZ    -270.0654   ZZZZ    -574.4484
 -----------------------------------------------------------------
 Calculating analytic gradient of the SCF energy
 Gradient of CDS energy
            1           2           3           4           5           6
    1  -0.0025216   0.0020351  -0.0015299   0.0016144  -0.0000470  -0.0017946
    2  -0.0016089  -0.0013458  -0.0008480   0.0008494   0.0000493  -0.0003772
    3   0.0001045   0.0002245   0.0032275  -0.0034891  -0.0000564   0.0052120
            7           8           9          10          11          12
    1   0.0017242   0.0010282   0.0013757  -0.0021359   0.0002538  -0.0004316
    2   0.0004642   0.0020258  -0.0011884  -0.0010038  -0.0000211   0.0001604
    3  -0.0051915   0.0018298   0.0002572  -0.0022238  -0.0000160  -0.0002354
           13          14          15          16          17          18
    1  -0.0001489   0.0001029  -0.0000103   0.0000325  -0.0002200   0.0001456
    2   0.0000556  -0.0000668  -0.0001169  -0.0000683   0.0004502   0.0001506
    3   0.0000717  -0.0000946   0.0001040  -0.0001408  -0.0001357   0.0004419
           19          20          21          22          23          24
    1   0.0007037  -0.0002139  -0.0000484  -0.0002739  -0.0001125   0.0004723
    2   0.0029788  -0.0003857  -0.0000175  -0.0000555  -0.0000710  -0.0000094
    3  -0.0003968   0.0002271  -0.0000574   0.0001212   0.0003938  -0.0001778
 Gradient of SCF Energy
            1           2           3           4           5           6
    1  -0.0028587   0.0028135   0.0097858  -0.0036385  -0.0091074  -0.0134848
    2   0.0017418   0.0035452  -0.0022982  -0.0041291  -0.0020593   0.0099780
    3   0.0023893   0.0133698   0.0003897  -0.0022263   0.0154444  -0.0061148
            7           8           9          10          11          12
    1  -0.0006938  -0.0103683  -0.0068518   0.0064976  -0.0000825  -0.0042467
    2  -0.0003060   0.0019236  -0.0132056   0.0030718   0.0040188  -0.0018503
    3  -0.0003259   0.0207402   0.0069453  -0.0062157  -0.0051644  -0.0117085
           13          14          15          16          17          18
    1  -0.0012484   0.0075892   0.0148428   0.0065017   0.0056769  -0.0028677
    2   0.0017612   0.0022156  -0.0086104  -0.0012860   0.0126511  -0.0022093
    3   0.0005327  -0.0116454  -0.0029186  -0.0151365  -0.0078783   0.0074400
           19          20          21          22          23          24
[...]
 IR Active:          YES                    YES                    YES
 IR Intens:       28.930                 78.071                 45.915
 Raman Active:       YES                    YES                    YES
               X      Y      Z        X      Y      Z        X      Y      Z
 C         -0.019 -0.073  0.018   -0.072 -0.116  0.103    0.006 -0.024 -0.025
 O         -0.003  0.011  0.004    0.013 -0.004 -0.014   -0.000  0.005  0.003
 C         -0.027 -0.022  0.011    0.062  0.075 -0.159   -0.070 -0.119  0.178
 O          0.005  0.005 -0.010   -0.038 -0.026  0.051    0.016  0.005 -0.066
 C          0.044  0.056  0.038    0.041  0.046  0.049    0.101  0.187  0.012
 C         -0.013 -0.042 -0.058   -0.026 -0.020  0.037   -0.023 -0.075  0.051
 O          0.001  0.005  0.001    0.001  0.003 -0.005    0.005  0.008 -0.013
 C          0.086  0.106  0.231   -0.012 -0.004 -0.050   -0.032 -0.013 -0.077
 O          0.013 -0.016 -0.019    0.000 -0.001  0.002    0.014 -0.000 -0.002
 O         -0.020 -0.015 -0.110    0.001  0.002  0.023    0.004  0.003  0.039
 H         -0.019 -0.037  0.024    0.128  0.076  0.227   -0.197 -0.063 -0.129
 H          0.061 -0.046 -0.023   -0.099  0.084  0.037    0.065 -0.051 -0.025
 H         -0.143 -0.238 -0.097   -0.017 -0.049 -0.004   -0.348 -0.541 -0.144
 H         -0.052 -0.104 -0.028   -0.270 -0.497 -0.171   -0.187 -0.270 -0.180
 H         -0.036 -0.079  0.077   -0.026 -0.020 -0.135    0.069  0.042 -0.066
 H         -0.210 -0.070  0.075   -0.019  0.050 -0.054   -0.100  0.122 -0.115
 H          0.013 -0.010 -0.001    0.027 -0.009  0.001   -0.046  0.023  0.012
 H         -0.639 -0.297 -0.424    0.135  0.065  0.092    0.200  0.102  0.139
 O          0.014  0.031 -0.019    0.021  0.027 -0.052    0.007  0.023  0.002
 H          0.030  0.195  0.011    0.082  0.585  0.054    0.001 -0.022 -0.008
 O         -0.001  0.006 -0.003    0.006 -0.018  0.014   -0.015  0.028 -0.019
 O          0.001 -0.000  0.000   -0.005  0.007  0.008    0.008 -0.006 -0.003
 H          0.014 -0.005 -0.007    0.125  0.105 -0.147    0.180  0.129 -0.251
 H          0.002 -0.002 -0.002    0.039  0.002 -0.108   -0.014 -0.001  0.046
 TransDip   0.052 -0.082  0.142    0.139  0.122 -0.214   -0.092 -0.133  0.144

 Mode:                49                     50                     51
 Frequency:      1409.15                1431.14                1436.15
 Force Cnst:      1.6638                 1.6077                 1.5794
 Red. Mass:       1.4221                 1.3323                 1.2997
 IR Active:          YES                    YES                    YES
 IR Intens:       91.330                103.449                 79.699
 Raman Active:       YES                    YES                    YES
               X      Y      Z        X      Y      Z        X      Y      Z
 C         -0.049  0.031 -0.076   -0.012  0.006 -0.009    0.082 -0.114  0.001
 O         -0.003  0.010  0.034    0.001  0.001  0.005   -0.010  0.009 -0.025
 C         -0.016 -0.076 -0.098   -0.002 -0.015 -0.001   -0.009  0.002 -0.031
 O          0.028  0.041  0.017    0.002  0.003 -0.001    0.004  0.006  0.007
 C          0.036  0.050  0.047    0.009  0.028 -0.001    0.017 -0.001  0.024
 C         -0.003 -0.003  0.007    0.006 -0.015  0.011   -0.001 -0.003  0.001
 O         -0.001 -0.003 -0.004    0.003  0.001 -0.005   -0.000 -0.000 -0.001
 C          0.006 -0.008 -0.006   -0.132  0.060 -0.045   -0.006  0.012 -0.004
 O          0.003  0.001 -0.003    0.001 -0.021  0.025   -0.001 -0.003  0.002
 O         -0.004 -0.001  0.006    0.045  0.011 -0.012    0.001 -0.000  0.000
 H          0.452 -0.017  0.163    0.058 -0.037  0.022   -0.268  0.831 -0.106
 H          0.224 -0.179 -0.069    0.033 -0.025 -0.010   -0.135  0.092  0.037
 H         -0.026 -0.007 -0.207   -0.037 -0.056  0.034    0.014  0.026 -0.155
 H         -0.264 -0.159 -0.115   -0.001 -0.095 -0.027   -0.156  0.025 -0.042
 H         -0.013 -0.014 -0.025   -0.035 -0.066  0.019   -0.015 -0.020 -0.015
 H         -0.083  0.037 -0.053    0.764 -0.202  0.445    0.038 -0.040  0.019
 H         -0.028  0.013  0.004    0.169 -0.089 -0.022    0.026 -0.013 -0.002
 H          0.049  0.031  0.035   -0.204 -0.133 -0.147    0.002 -0.001  0.000
 O         -0.000  0.004  0.025    0.001  0.001  0.001   -0.015  0.032  0.036
 H         -0.029 -0.255 -0.023    0.001 -0.010 -0.001   -0.071 -0.310 -0.033
 O          0.004  0.003  0.007   -0.003  0.000  0.000   -0.002 -0.001 -0.000
 O         -0.002  0.002  0.001    0.001  0.001  0.002   -0.000  0.001  0.001
 H         -0.343 -0.279  0.463   -0.019 -0.012  0.021   -0.062 -0.053  0.088
 H         -0.000 -0.004  0.006    0.021 -0.003 -0.046    0.001 -0.000 -0.002
 TransDip  -0.136 -0.274 -0.015   -0.282 -0.031 -0.160    0.012 -0.286  0.006

 Mode:                52                     53                     54
 Frequency:      1443.50                1452.38                1457.55
 Force Cnst:      1.3688                 1.9191                 1.4137
 Red. Mass:       1.1149                 1.5442                 1.1295
 IR Active:          YES                    YES                    YES
 IR Intens:       65.430                127.542                 75.161
 Raman Active:       YES                    YES                    YES
               X      Y      Z        X      Y      Z        X      Y      Z
 C         -0.010 -0.030 -0.026   -0.000 -0.007  0.003    0.001  0.005  0.007
 O         -0.000  0.006  0.006   -0.000  0.001 -0.001    0.000 -0.001 -0.001
 C         -0.003  0.004 -0.027   -0.000  0.013 -0.006   -0.007  0.017 -0.016
 O          0.002  0.002  0.008   -0.004 -0.004  0.003   -0.003 -0.003  0.004
 C         -0.030  0.047 -0.049    0.007 -0.006  0.008    0.011 -0.006  0.002
 C          0.001  0.014 -0.014    0.005  0.038  0.022   -0.001 -0.013  0.004
 O         -0.001 -0.002  0.004    0.001 -0.002 -0.005   -0.002  0.002  0.002
 C          0.005 -0.022  0.006   -0.057 -0.185  0.031    0.007  0.046 -0.008
 O          0.002  0.004 -0.003    0.028  0.031 -0.021   -0.005 -0.008  0.005
 O          0.000  0.002  0.000    0.046  0.031 -0.008   -0.008 -0.006  0.001
 H          0.093  0.201  0.039    0.004  0.029  0.008    0.000 -0.019  0.005
 H          0.056 -0.047 -0.018   -0.002  0.001  0.001   -0.012  0.010  0.004
 H         -0.105 -0.215  0.627    0.008  0.012 -0.088    0.016 -0.002  0.010
 H          0.529 -0.395  0.099   -0.102  0.016 -0.030   -0.025 -0.017 -0.015
 H          0.009  0.027  0.038    0.027  0.073 -0.044   -0.065 -0.080 -0.144
 H         -0.038  0.060 -0.016    0.142  0.668  0.176    0.001 -0.153 -0.019
 H         -0.044  0.020  0.003   -0.402  0.181  0.035    0.095 -0.043 -0.009
 H         -0.005  0.001 -0.002   -0.298 -0.147 -0.188    0.052  0.023  0.032
 O         -0.002  0.013  0.014   -0.001  0.000 -0.000   -0.001 -0.003 -0.002
 H         -0.022 -0.128 -0.013    0.001  0.006  0.001    0.002  0.018  0.002
 O          0.005 -0.000  0.001    0.015  0.005 -0.001    0.048  0.020 -0.005
 O         -0.002 -0.001 -0.001   -0.005 -0.008 -0.013   -0.017 -0.026 -0.042
 H         -0.050 -0.035  0.064    0.029  0.033 -0.049    0.008  0.002 -0.005
 H         -0.024  0.005  0.048   -0.122  0.018  0.260   -0.408  0.063  0.865
 TransDip   0.030 -0.247  0.071   -0.312 -0.175 -0.051   -0.157  0.064  0.220

 Mode:                55                     56                     57
 Frequency:      1494.48                2903.25                3098.38
 Force Cnst:      2.6475                 5.3280                 6.0160
 Red. Mass:       2.0119                 1.0729                 1.0636
 IR Active:          YES                    YES                    YES
 IR Intens:       22.756                 46.423                  2.715
 Raman Active:       YES                    YES                    YES
               X      Y      Z        X      Y      Z        X      Y      Z
 C          0.151  0.102  0.128    0.000 -0.000  0.000   -0.001  0.000  0.002
 O         -0.015 -0.016 -0.039   -0.000 -0.000 -0.000   -0.000 -0.000 -0.000
 C         -0.092 -0.089 -0.116   -0.000  0.000 -0.001   -0.000 -0.001 -0.000
 O          0.027  0.032  0.016   -0.000 -0.000 -0.000   -0.000 -0.000  0.000
 C          0.016  0.044  0.014    0.001 -0.000  0.000   -0.011  0.034 -0.061
 C          0.003  0.015 -0.007   -0.060  0.047 -0.007    0.000  0.000 -0.000
 O         -0.001 -0.003 -0.000   -0.004  0.001  0.006    0.000  0.000  0.000
 C         -0.005 -0.014  0.001   -0.002  0.000 -0.001   -0.005  0.000  0.009
 O          0.002  0.002 -0.001    0.000 -0.000 -0.000    0.000  0.000  0.000
 O          0.002  0.002  0.001    0.000 -0.000  0.000   -0.000 -0.000 -0.000
 H         -0.497 -0.297 -0.217   -0.000 -0.000  0.000    0.012  0.002 -0.022
 H         -0.326  0.253  0.099   -0.000 -0.000 -0.000    0.000 -0.000  0.000
 H         -0.053 -0.090  0.093   -0.017  0.012  0.002    0.438 -0.253 -0.055
 H          0.050 -0.182 -0.012   -0.001 -0.001  0.006   -0.311 -0.136  0.778
 H         -0.015 -0.005  0.010    0.810 -0.581 -0.031    0.007 -0.003  0.002
 H          0.004  0.030  0.008   -0.006 -0.000  0.015    0.060  0.002 -0.107
 H         -0.024  0.010  0.002   -0.000  0.001  0.000   -0.000 -0.000 -0.000
 H         -0.008 -0.002 -0.005    0.001  0.002  0.000   -0.001 -0.000  0.001
 O         -0.008 -0.042 -0.023   -0.000 -0.000 -0.000    0.000  0.000  0.000
 H          0.019  0.198  0.023   -0.000  0.000  0.000   -0.000 -0.000 -0.000
 O          0.009 -0.001  0.008    0.000  0.000  0.000    0.000  0.000 -0.000
 O         -0.001  0.003  0.002    0.000 -0.000 -0.000    0.000 -0.000  0.000
 H         -0.261 -0.218  0.367    0.000  0.002  0.005   -0.001 -0.001  0.001
 H          0.015 -0.006 -0.026   -0.004  0.004  0.007   -0.000  0.001  0.000
 TransDip  -0.088  0.065  0.106    0.072 -0.046 -0.201   -0.035  0.028 -0.028

 Mode:                58                     59                     60
 Frequency:      3110.38                3131.36                3154.43
 Force Cnst:      6.2015                 6.2865                 6.4573
 Red. Mass:       1.0880                 1.0882                 1.1014
 IR Active:          YES                    YES                    YES
 IR Intens:       40.512                 24.884                  3.040
 Raman Active:       YES                    YES                    YES
               X      Y      Z        X      Y      Z        X      Y      Z
 C         -0.000  0.000  0.000    0.037  0.006 -0.077   -0.002  0.000  0.003
 O         -0.000 -0.000 -0.000    0.000  0.000  0.001   -0.000 -0.000 -0.000
 C          0.000 -0.000  0.000    0.001  0.000 -0.000   -0.001  0.000  0.001
 O         -0.000 -0.000 -0.000    0.000  0.000  0.001    0.000  0.000 -0.000
 C         -0.003  0.005 -0.007   -0.003  0.002 -0.000   -0.075  0.029  0.045
 C          0.001 -0.001 -0.000   -0.000 -0.000  0.000   -0.002  0.001  0.000
 O         -0.000 -0.000  0.001   -0.000 -0.000  0.000    0.000 -0.000 -0.000
 C          0.040  0.003 -0.075    0.000  0.000 -0.000   -0.001  0.000  0.002
 O         -0.000 -0.001  0.001    0.000 -0.000  0.000    0.000  0.000  0.000
 O         -0.001 -0.000  0.001   -0.000 -0.000  0.000    0.000 -0.000 -0.000
 H          0.003  0.000 -0.005   -0.445 -0.066  0.887    0.016  0.002 -0.034
 H          0.000 -0.000  0.000   -0.000 -0.005 -0.003   -0.000 -0.001  0.000
 H          0.072 -0.042 -0.008    0.039 -0.023 -0.004    0.735 -0.433 -0.070
 H         -0.035 -0.015  0.089   -0.002 -0.001  0.002    0.175  0.089 -0.466
 H         -0.010  0.009  0.000    0.001 -0.000  0.000    0.019 -0.010  0.003
 H         -0.479 -0.025  0.864   -0.001 -0.000  0.002    0.010  0.001 -0.019
 H          0.005  0.002  0.001    0.000 -0.000  0.000    0.001  0.000  0.000
 H          0.013  0.006 -0.011    0.000  0.000 -0.000   -0.000 -0.000  0.000
 O          0.000  0.000  0.000   -0.001  0.000  0.002    0.000 -0.000 -0.000
 H         -0.000 -0.000 -0.000    0.005 -0.006 -0.017   -0.000  0.000  0.001
 O          0.000  0.000 -0.000   -0.000  0.000 -0.000    0.000 -0.001  0.000
 O          0.000 -0.000  0.000    0.001  0.000  0.000   -0.000  0.000 -0.000
 H          0.000 -0.000  0.001   -0.001 -0.001  0.000    0.000  0.002 -0.000
 H         -0.000 -0.000 -0.000    0.000 -0.001  0.001    0.001 -0.002 -0.001
 TransDip   0.105 -0.036 -0.171    0.108  0.020 -0.116   -0.043  0.003  0.035

 Mode:                61                     62                     63
 Frequency:      3689.63                3764.80                3767.36
 Force Cnst:      8.5569                 8.9218                 8.9101
 Red. Mass:       1.0668                 1.0684                 1.0655
 IR Active:          YES                    YES                    YES
 IR Intens:      421.080                133.739                124.299
 Raman Active:       YES                    YES                    YES
               X      Y      Z        X      Y      Z        X      Y      Z
 C         -0.000 -0.000  0.000   -0.000 -0.000 -0.000   -0.000  0.000 -0.000
 O         -0.000 -0.000 -0.000   -0.000 -0.000 -0.000   -0.000 -0.000 -0.000
 C          0.000 -0.001 -0.002   -0.001  0.000 -0.000    0.000 -0.000  0.000
 O         -0.022 -0.038 -0.045   -0.000 -0.001 -0.001   -0.000 -0.000 -0.000
 C          0.000  0.000  0.000    0.000 -0.000  0.000    0.000  0.000 -0.000
 C          0.000 -0.000  0.001    0.000 -0.000  0.000    0.000  0.000 -0.000
 O          0.000  0.000 -0.000    0.000  0.000 -0.000   -0.000 -0.000  0.000
 C         -0.000 -0.000 -0.000    0.000  0.000 -0.000    0.001  0.000 -0.002
 O         -0.000 -0.000  0.000    0.000  0.000 -0.000    0.001  0.001 -0.000
 O         -0.000 -0.000  0.000    0.000  0.000 -0.000    0.023  0.011 -0.056
 H          0.001  0.001  0.002   -0.000  0.000  0.000    0.000  0.000  0.000
 H          0.001  0.001  0.002    0.001  0.000  0.002    0.000  0.000  0.000
 H         -0.001  0.001 -0.001    0.000 -0.000 -0.000    0.000 -0.000  0.000
 H         -0.002 -0.003 -0.000    0.000 -0.000 -0.001   -0.001 -0.000  0.000
 H         -0.003  0.003 -0.001   -0.002 -0.001 -0.003   -0.000 -0.001  0.000
 H          0.001  0.001 -0.001   -0.000  0.000  0.000   -0.006  0.000  0.014
 H          0.001  0.002 -0.001   -0.000 -0.000  0.000   -0.006 -0.018  0.007
 H          0.002 -0.000 -0.006   -0.001 -0.000  0.001   -0.385 -0.174  0.904
 O          0.000  0.000 -0.000   -0.000 -0.000  0.001   -0.000 -0.000  0.000
 H         -0.003 -0.002  0.005    0.003  0.001 -0.008    0.001  0.000 -0.002
 O         -0.000 -0.000  0.000    0.001  0.000 -0.001   -0.000  0.000 -0.000
 O          0.001  0.001  0.000   -0.047 -0.040 -0.015    0.000  0.000  0.000
 H          0.346  0.606  0.713    0.006  0.011  0.013    0.002  0.004  0.004
 H         -0.013 -0.011 -0.004    0.734  0.626  0.254   -0.001 -0.001 -0.000
 TransDip   0.221  0.448  0.427    0.314  0.196  0.013   -0.088 -0.076  0.338

 Mode:                64                     65                     66
 Frequency:      3780.58                3819.69                3824.81
 Force Cnst:      8.9747                 9.1684                 9.1942
 Red. Mass:       1.0657                 1.0666                 1.0667
 IR Active:          YES                    YES                    YES
 IR Intens:      126.093                149.570                142.871
 Raman Active:       YES                    YES                    YES
               X      Y      Z        X      Y      Z        X      Y      Z
 C          0.001  0.000 -0.002   -0.000 -0.000 -0.000    0.000 -0.000 -0.001
 O         -0.001 -0.001 -0.001   -0.000 -0.000 -0.000   -0.034 -0.012 -0.051
 C          0.000 -0.000  0.000    0.000 -0.000  0.000    0.000 -0.000  0.000
 O          0.000  0.000  0.000    0.000  0.000  0.000    0.000  0.000  0.000
 C         -0.000  0.000 -0.000   -0.000  0.000 -0.000    0.000 -0.000  0.000
 C         -0.000 -0.000  0.000    0.000  0.000 -0.000    0.000  0.000 -0.000
 O          0.000  0.000  0.000   -0.000  0.000 -0.000   -0.000  0.000  0.000
 C          0.000  0.000 -0.000   -0.001 -0.001  0.001   -0.000 -0.000  0.000
 O          0.000  0.000 -0.000   -0.016 -0.056  0.023    0.000  0.000 -0.000
 O          0.000  0.000 -0.000    0.000  0.000 -0.001   -0.000  0.000  0.000
 H         -0.007 -0.003  0.014    0.000 -0.000  0.000    0.002 -0.002  0.004
 H          0.012  0.005  0.019    0.002  0.001  0.003    0.526  0.200  0.824
 H          0.000 -0.000  0.000   -0.000  0.000  0.000   -0.000 -0.000  0.000
 H         -0.000  0.000  0.000    0.000  0.000  0.000   -0.000 -0.000 -0.000
 H         -0.000  0.000  0.000   -0.001  0.000 -0.000    0.000 -0.000 -0.000
 H         -0.000 -0.000  0.000   -0.001  0.003 -0.003    0.000  0.000 -0.000
 H         -0.000 -0.001  0.000    0.272  0.887 -0.367   -0.001 -0.003  0.001
 H         -0.001 -0.000  0.002   -0.007 -0.004  0.018    0.000  0.000 -0.000
 O          0.021  0.009 -0.058    0.000  0.000 -0.000   -0.000 -0.001  0.001
 H         -0.343 -0.134  0.927   -0.000 -0.000  0.000    0.007  0.003 -0.022
 O          0.000 -0.000 -0.000   -0.000  0.000 -0.000    0.000 -0.000  0.000
 O         -0.000 -0.000 -0.000   -0.000 -0.000 -0.000    0.000  0.000  0.000
 H         -0.002 -0.004 -0.005   -0.001 -0.002 -0.002   -0.001 -0.002 -0.002
 H          0.007  0.006  0.002    0.000  0.000  0.000   -0.002 -0.001 -0.001
 TransDip  -0.103 -0.113  0.326    0.028  0.365 -0.140    0.255  0.011  0.285

 STANDARD THERMODYNAMIC QUANTITIES AT   298.15 K  AND     1.00 ATM

   This Molecule has  0 Imaginary Frequencies
   Zero point vibrational energy:      116.431 kcal/mol

   Atom    1 Element C  Has Mass   12.00000
   Atom    2 Element O  Has Mass   15.99491
   Atom    3 Element C  Has Mass   12.00000
   Atom    4 Element O  Has Mass   15.99491
   Atom    5 Element C  Has Mass   12.00000
   Atom    6 Element C  Has Mass   12.00000
   Atom    7 Element O  Has Mass   15.99491
   Atom    8 Element C  Has Mass   12.00000
   Atom    9 Element O  Has Mass   15.99491
   Atom   10 Element O  Has Mass   15.99491
   Atom   11 Element H  Has Mass    1.00783
   Atom   12 Element H  Has Mass    1.00783
   Atom   13 Element H  Has Mass    1.00783
   Atom   14 Element H  Has Mass    1.00783
   Atom   15 Element H  Has Mass    1.00783
   Atom   16 Element H  Has Mass    1.00783
   Atom   17 Element H  Has Mass    1.00783
   Atom   18 Element H  Has Mass    1.00783
   Atom   19 Element O  Has Mass   15.99491
   Atom   20 Element H  Has Mass    1.00783
   Atom   21 Element O  Has Mass   15.99491
   Atom   22 Element O  Has Mass   15.99491
   Atom   23 Element H  Has Mass    1.00783
   Atom   24 Element H  Has Mass    1.00783
   Molecular Mass:   199.045410 amu
   Principal axes and moments of inertia in amu*Bohr^2:
                             1           2           3
    Eigenvalues --     1272.77289  4091.95932  4393.65925
          X               0.44953     0.87510    -0.17925
          Y               0.82708    -0.48356    -0.28655
          Z               0.33743     0.01944     0.94115
   Rotational Symmetry Number is   1
   The Molecule is an Asymmetric Top
   Translational Enthalpy:        0.889 kcal/mol
   Rotational Enthalpy:           0.889 kcal/mol
   Vibrational Enthalpy:        123.904 kcal/mol
   gas constant (RT):             0.592 kcal/mol
   Translational Entropy:        41.770  cal/mol.K
   Rotational Entropy:           31.504  cal/mol.K
   Vibrational Entropy:          46.644  cal/mol.K

   Total Enthalpy:              126.274 kcal/mol
   Total Entropy:               119.917  cal/mol.K
 Total job time:  54545.97s(wall), 773585.68s(cpu) 
 Wed Jun 26 12:26:22 2024

        *************************************************************
        *                                                           *
        *  Thank you very much for using Q-Chem.  Have a nice day.  *
        *                                                           *
        *************************************************************


