
Running Job 1 of 1 Q_in.in
qchem Q_in.in_353856.0 /scratch/ari.fischer/qChem2183952.hpc-mn1/qchem353856/ 0
/usr/local/qchem-5.4.1/exe/qcprog.exe_s Q_in.in_353856.0 /scratch/ari.fischer/qChem2183952.hpc-mn1/qchem353856/
                  Welcome to Q-Chem
     A Quantum Leap Into The Future Of Chemistry


 Q-Chem 5.4, Q-Chem, Inc., Pleasanton, CA (2021)

 License issued to: Nanyang Technological University (site)

 E. Epifanovsky,  A. T. B. Gilbert,  Xintian Feng,  Joonho Lee,  Yuezhi Mao,  
 N. Mardirossian,  P. Pokhilko,  A. White,  M. Wormit,  M. P. Coons,  
 A. L. Dempwolff,  Zhengting Gan,  D. Hait,  P. R. Horn,  L. D. Jacobson,  
 I. Kaliman,  J. Kussmann,  A. W. Lange,  Ka Un Lao,  D. S. Levine,  Jie Liu,  
 S. C. McKenzie,  A. F. Morrison,  K. Nanda,  F. Plasser,  D. R. Rehn,  
 M. L. Vidal,  Zhi-Qiang You,  Ying Zhu,  B. Alam,  B. Albrecht,  
 A. Aldossary,  E. Alguire,  J. H. Andersen,  D. Barton,  K. Begam,  A. Behn,  
 Y. A. Bernard,  E. J. Berquist,  H. Burton,  A. Carreras,  K. Carter-Fenk,  
 R. Chakraborty,  A. D. Chien,  K. D. Closser,  V. Cofer-Shabica,  
 S. Dasgupta,  Jia Deng,  M. de Wergifosse,  M. Diedenhofen,  Hainam Do,  
 S. Ehlert,  Po-Tung Fang,  S. Fatehi,  Qingguo Feng,  T. Friedhoff,  
 J. Gayvert,  Qinghui Ge,  G. Gidofalvi,  M. Goldey,  J. Gomes,  
 C. Gonzalez-Espinoza,  S. Gulania,  A. Gunina,  M. W. D. Hanson-Heine,  
 P. H. P. Harbach,  A. W. Hauser,  M. F. Herbst,  M. Hernandez Vera,  
 M. Hodecker,  Z. C. Holden,  S. Houck,  Xunkun Huang,  Kerwin Hui,  
 B. C. Huynh,  M. Ivanov,  Hyunjun Ji,  Hanjie Jiang,  B. Kaduk,  S. Kaehler,  
 K. Khistyaev,  Jaehoon Kim,  P. Klunzinger,  Z. Koczor-Benda,  
 Joong Hoon Koh,  D. Kosenkov,  L. Koulias,  T. Kowalczyk,  C. M. Krauter,  
 K. Kue,  A. Kunitsa,  T. Kus,  A. Landau,  K. V. Lawler,  D. Lefrancois,  
 S. Lehtola,  Rain Li,  Yi-Pei Li,  Jiashu Liang,  M. Liebenthal,  
 Hung-Hsuan Lin,  You-Sheng Lin,  Fenglai Liu,  Kuan-Yu Liu,  
 M. Loipersberger,  A. Luenser,  A. Manjanath,  P. Manohar,  E. Mansoor,  
 S. F. Manzer,  Shan-Ping Mao,  A. V. Marenich,  T. Markovich,  S. Mason,  
 S. A. Maurer,  P. F. McLaughlin,  M. F. S. J. Menger,  J.-M. Mewes,  
 S. A. Mewes,  P. Morgante,  J. W. Mullinax,  K. J. Oosterbaan,  G. Paran,  
 Alexander C. Paul,  Suranjan K. Paul,  F. Pavosevic,  Zheng Pei,  S. Prager,  
 E. I. Proynov,  E. Ramos,  B. Rana,  A. E. Rask,  A. Rettig,  R. M. Richard,  
 F. Rob,  E. Rossomme,  T. Scheele,  M. Scheurer,  M. Schneider,  
 N. Sergueev,  S. M. Sharada,  W. Skomorowski,  D. W. Small,  C. J. Stein,  
 Yu-Chuan Su,  E. J. Sundstrom,  Zhen Tao,  J. Thirman,  T. Tsuchimochi,  
 N. M. Tubman,  S. P. Veccham,  O. Vydrov,  J. Wenzel,  J. Witte,  A. Yamada,  
 Kun Yao,  S. Yeganeh,  S. R. Yost,  A. Zech,  Igor Ying Zhang,  Xing Zhang,  
 Yu Zhang,  D. Zuev,  A. Aspuru-Guzik,  A. T. Bell,  N. A. Besley,  
 K. B. Bravaya,  B. R. Brooks,  D. Casanova,  Jeng-Da Chai,  S. Coriani,  
 C. J. Cramer,  A. E. DePrince, III,  R. A. DiStasio Jr.,  A. Dreuw,  
 B. D. Dunietz,  T. R. Furlani,  W. A. Goddard III,  S. Grimme,  
 S. Hammes-Schiffer,  T. Head-Gordon,  W. J. Hehre,  Chao-Ping Hsu,  
 T.-C. Jagau,  Yousung Jung,  A. Klamt,  Jing Kong,  D. S. Lambrecht,  
 WanZhen Liang,  N. J. Mayhall,  C. W. McCurdy,  J. B. Neaton,  
 C. Ochsenfeld,  J. A. Parkhill,  R. Peverati,  V. A. Rassolov,  Yihan Shao,  
 L. V. Slipchenko,  T. Stauch,  R. P. Steele,  J. E. Subotnik,  
 A. J. W. Thom,  A. Tkatchenko,  D. G. Truhlar,  T. Van Voorhis,  
 T. A. Wesolowski,  K. B. Whaley,  H. L. Woodcock III,  P. M. Zimmerman,  
 S. Faraji,  P. M. W. Gill,  M. Head-Gordon,  J. M. Herbert,  A. I. Krylov

 Additional authors for Version 5.4.1: 
 S. Kotaru,  Shaozhi Li,  Xiangyuan Li,  F. Matz,  A. Molle,  Haisheng Ren,  
 Yingli Su,  Hung-Yi Tsai,  C. Utku,  Fang Wang

 Contributors to earlier versions of Q-Chem not listed above: 
 R. D. Adamson,  B. Austin,  R. Baer,  J. Baker,  G. J. O. Beran,  
 K. Brandhorst,  S. T. Brown,  E. F. C. Byrd,  A. K. Chakraborty,  
 G. K. L. Chan,  Chun-Min Chang,  Yunqing Chen,  C.-L. Cheng,  
 Siu Hung Chien,  D. M. Chipman,  D. L. Crittenden,  H. Dachsel,  
 R. J. Doerksen,  A. D. Dutoi,  R. G. Edgar,  J. Fosso-Tande,  
 L. Fusti-Molnar,  D. Ghosh,  A. Ghysels,  A. Golubeva-Zadorozhnaya,  
 J. Gonthier,  M. S. Gordon,  S. R. Gwaltney,  G. Hawkins,  J. E. Herr,  
 A. Heyden,  S. Hirata,  E. G. Hohenstein,  G. Kedziora,  F. J. Keil,  
 C. Kelley,  Jihan Kim,  R. A. King,  R. Z. Khaliullin,  P. P. Korambath,  
 W. Kurlancheek,  A. Laurent,  A. M. Lee,  M. S. Lee,  S. V. Levchenko,  
 Ching Yeh Lin,  D. Liotard,  E. Livshits,  R. C. Lochan,  I. Lotan,  
 L. A. Martinez-Martinez,  P. E. Maslen,  N. Nair,  D. P. O'Neill,  
 D. Neuhauser,  E. Neuscamman,  C. M. Oana,  R. Olivares-Amaya,  R. Olson,  
 T. M. Perrine,  B. Peters,  P. A. Pieniazek,  A. Prociuk,  Y. M. Rhee,  
 J. Ritchie,  M. A. Rohrdanz,  E. Rosta,  N. J. Russ,  H. F. Schaefer III,  
 M. W. Schmidt,  N. E. Schultz,  S. Sharma,  N. Shenvi,  C. D. Sherrill,  
 A. C. Simmonett,  A. Sodt,  T. Stein,  D. Stuck,  K. S. Thanthiriwatte,  
 V. Vanovschi,  L. Vogt,  Tao Wang,  A. Warshel,  M. A. Watson,  
 C. F. Williams,  Q. Wu,  X. Xu,  Jun Yang,  W. Zhang,  Yan Zhao

 Please cite Q-Chem as follows:
 Y. Shao et al., Mol. Phys. 113, 184-215 (2015)
 DOI: 10.1080/00268976.2014.952696

 Q-Chem 5.4.1 for Intel X86 EM64T Linux

 Parts of Q-Chem use Armadillo 9.800.1 (Horizon Scraper).
 http://arma.sourceforge.net/

 Q-Chem begins on Sun Jun 23 23:18:05 2024  

 Host: 
0

     Scratch files written to /scratch/ari.fischer/qChem2183952.hpc-mn1/qchem353856//
 Aug1521 |scratch|qcdevops|jenkins|workspace|build_RNUM 8249   
 Processing $rem in /usr/local/qchem-5.4.1/config/preferences:
 Processing $rem in /home/ari.fischer/.qchemrc:
 Symmetry turned off for PCM/SM12/SMD calculation

 Checking the input file for inconsistencies... 	...done.

--------------------------------------------------------------
User input:
--------------------------------------------------------------
$molecule
0 2
C         2.5792468399   -1.1315068441   -1.0338689140
O         1.4265348414   -0.3215729545   -1.0391568801
C         3.5063558183   -0.5618335834    0.0495539494
O         2.9043298807   -0.8448733760    1.2786783022
C         3.8155295602    0.9182448683   -0.1407454389
C         4.8197348090    1.4506611967    0.8829684462
O         4.3808785569    1.3208861397    2.1911884581
C         5.2920306755    2.8869175342    0.6234218928
O         4.1316917978    3.6868520376    0.5791565260
O         6.1774675237    3.2949928028    1.6359371484
H         3.0784247277   -1.1206779193   -2.0058797521
H         0.8950653017   -0.5946517299   -1.8051809252
H         2.8838830422    1.4823037027   -0.0597628145
H         4.2187256479    1.0825046315   -1.1451821591
H         5.7318365969    0.8150448992    0.8780058794
H         5.8504246079    2.9435121383   -0.3160033766
H         4.4115430889    4.5760879735    0.3042321264
H         5.7424326063    3.0631308060    2.4775554626
O         2.2773060186   -2.4783879376   -0.7625656926
H         1.9747750097   -2.5063128682    0.1636947256
O         4.7178331190   -1.3515473844    0.0883271813
O         5.3980289036   -1.2063927042   -1.1692911074
H         3.3060318747   -0.2485263359    1.9422332862
H         6.1271151516   -0.6036687931   -0.9295916242
$end

$rem
BASIS = 6-311++G(2df,2p)
GUI = 2
JOB_TYPE = Optimization
METHOD = wB97M-V
SCF_ALGORITHM = DIIS_GDM
MAX_SCF_CYCLES = 400
GEOM_OPT_MAX_CYCLES = 150
SCF_CONVERGENCE = 7
THRESH = 12
Solvent_method = SMD
$end
--------------------------------------------------------------
 ----------------------------------------------------------------
             Standard Nuclear Orientation (Angstroms)
    I     Atom           X                Y                Z
 ----------------------------------------------------------------
    1      C       2.5792468399    -1.1315068441    -1.0338689140
    2      O       1.4265348414    -0.3215729545    -1.0391568801
    3      C       3.5063558183    -0.5618335834     0.0495539494
    4      O       2.9043298807    -0.8448733760     1.2786783022
    5      C       3.8155295602     0.9182448683    -0.1407454389
    6      C       4.8197348090     1.4506611967     0.8829684462
    7      O       4.3808785569     1.3208861397     2.1911884581
    8      C       5.2920306755     2.8869175342     0.6234218928
    9      O       4.1316917978     3.6868520376     0.5791565260
   10      O       6.1774675237     3.2949928028     1.6359371484
   11      H       3.0784247277    -1.1206779193    -2.0058797521
   12      H       0.8950653017    -0.5946517299    -1.8051809252
   13      H       2.8838830422     1.4823037027    -0.0597628145
   14      H       4.2187256479     1.0825046315    -1.1451821591
   15      H       5.7318365969     0.8150448992     0.8780058794
   16      H       5.8504246079     2.9435121383    -0.3160033766
   17      H       4.4115430889     4.5760879735     0.3042321264
   18      H       5.7424326063     3.0631308060     2.4775554626
   19      O       2.2773060186    -2.4783879376    -0.7625656926
   20      H       1.9747750097    -2.5063128682     0.1636947256
   21      O       4.7178331190    -1.3515473844     0.0883271813
   22      O       5.3980289036    -1.2063927042    -1.1692911074
   23      H       3.3060318747    -0.2485263359     1.9422332862
   24      H       6.1271151516    -0.6036687931    -0.9295916242
 ----------------------------------------------------------------
 Nuclear Repulsion Energy =         944.25433610 hartrees
 There are       53 alpha and       52 beta electrons
 Requested basis set is 6-311++G(2df,2p)
 There are 170 shells and 552 basis functions

 Total QAlloc Memory Limit 288000 MB
 Mega-Array Size       188 MB
 MEM_STATIC part       192 MB
 
 Citation of the SMD model:
 Marenich, A.V.; Cramer, C.J.; Truhlar, D.G.
 J. Phys. Chem. B 2009, 113, 6378-6396.
 iSolventCode=           1
 Solvent: water                                                           
 
 vradii
            1           2           3           4           5           6
    1   1.8500000   1.5200000   1.8500000   1.5200000   1.8500000   1.8500000
            7           8           9          10          11          12
    1   1.5200000   1.8500000   1.5200000   1.5200000   1.2000000   1.2000000
           13          14          15          16          17          18
    1   1.2000000   1.2000000   1.2000000   1.2000000   1.2000000   1.2000000
           19          20          21          22          23          24
    1   1.5200000   1.2000000   1.5200000   1.5200000   1.2000000   1.2000000
 Changing PCM_VDW_RADII to SMD_RADIUS
 Discretize the solute cavity surface with Lebedev spheres
	Using 110 Lebedev grid points for each H atom
	Using 194 Lebedev grid points for other atoms
	Atomic van der Waals radii will be scaled by 1.20
 Remove points where switching function is < 1.0e-08
 Keep 1813 surface tesserae and discard 1919 interior tesserae
 Molecular Surface Area = 198.048 Angst**2
 A cutoff of  1.0D-12 yielded  12051 shell pairs
 There are    124083 function pairs (    153133 Cartesian)
 Smallest overlap matrix eigenvalue = 2.41E-06

 Scale SEOQF with 1.000000e-02/1.000000e-01/1.000000e-01

 Standard Electronic Orientation quadrupole field applied
 Nucleus-field energy     =     0.0000000223 hartrees
 Guess from superposition of atomic densities
 Warning:  Energy on first SCF cycle will be non-variational
 SAD guess density has 105.000000 electrons

 -----------------------------------------------------------------------
  General SCF calculation program by
  Eric Jon Sundstrom, Paul Horn, Yuezhi Mao, Dmitri Zuev, Alec White,
  David Stuck, Shaama M.S., Shane Yost, Joonho Lee, David Small,
  Daniel Levine, Susi Lehtola, Hugh Burton, Evgeny Epifanovsky,
  Bang C. Huynh
 -----------------------------------------------------------------------
 Exchange:     0.1500 Hartree-Fock + 1.0000 wB97M-V + LR-HF
 Correlation:  1.0000 wB97M-V
 Using SG-2 standard quadrature grid
 Nonlocal Correlation:  VV10 with C = 0.0100 and b = 6.00 and scale = 1.00000
 Grid used for NLC:  SG-1 standard quadrature
 
 Citation of the SMD model:
 Marenich, A.V.; Cramer, C.J.; Truhlar, D.G.
 J. Phys. Chem. B 2009, 113, 6378-6396.
 iSolventCode=           1
 Solvent: water                                                           
 
 vradii
            1           2           3           4           5           6
    1   1.8500000   1.5200000   1.8500000   1.5200000   1.8500000   1.8500000
            7           8           9          10          11          12
    1   1.5200000   1.8500000   1.5200000   1.5200000   1.2000000   1.2000000
           13          14          15          16          17          18
    1   1.2000000   1.2000000   1.2000000   1.2000000   1.2000000   1.2000000
           19          20          21          22          23          24
    1   1.5200000   1.2000000   1.5200000   1.5200000   1.2000000   1.2000000
 using 16 threads for integral computing
 -------------------------------------------------------
 OpenMP Integral computing Module                
 Release: version 1.0, May 2013, Q-Chem Inc. Pittsburgh 
 -------------------------------------------------------
 -------------------------------------------------------
 OpenMP BLAS3 based DFT computing Module                
 Release: version 1.0, May 2013, Q-Chem Inc. Pittsburgh 
 -------------------------------------------------------
 A unrestricted SCF calculation will be
 performed using DIIS, GDM
 SCF converges when RMS gradient is below 1.0e-07
 ---------------------------------------
  Cycle       Energy         DIIS error
 ---------------------------------------
    1    -801.3810514697      1.04e-02  
    2    -798.4741345911      1.61e-03  Done DIIS. Switching to GDM
 ---------------------------------------
  Cycle       Energy        RMS Gradient
 ---------------------------------------
    1    -798.4741345911      5.12e-01   Descent step
    2    -798.7492780408      9.30e-02   Descent step
    3    -798.8160425704      8.10e-02   Normal BFGS step
    4    -798.8405288247      4.07e-02   Normal BFGS step
    5    -798.8505378849      1.93e-02   Normal BFGS step
    6    -798.8537410993      1.09e-02   Normal BFGS step
    7    -798.8544789366      7.55e-03   Normal BFGS step
    8    -798.8547203403      7.53e-03   Normal BFGS step
    9    -798.8549784434      8.70e-03   Normal BFGS step
   10    -798.8555727814      1.05e-02   Dog-leg BFGS step
   11    -798.8576045116      2.48e-02   Normal BFGS step
   12    -798.8596571091      3.25e-02   Normal BFGS step
   13    -798.8642949922      2.13e-02   Normal BFGS step
   14    -798.8677214531      8.61e-03   Normal BFGS step
   15    -798.8680628787      7.76e-03   Normal BFGS step
   16    -798.8686295644      2.07e-03   Normal BFGS step
   17    -798.8686879896      1.57e-03   Normal BFGS step
   18    -798.8687148356      8.92e-04   Normal BFGS step
   19    -798.8687203261      4.42e-04   Normal BFGS step
   20    -798.8687215111      1.38e-04   Normal BFGS step
   21    -798.8687217830      3.67e-05   Normal BFGS step
   22    -798.8687218351      2.67e-05   Normal BFGS step
   23    -798.8687218426      8.02e-06   Normal BFGS step
   24    -798.8687218450      5.34e-06   Normal BFGS step
   25    -798.8687218454      2.31e-06   Normal BFGS step
   26    -798.8687218455      7.62e-07   Normal BFGS step
   27    -798.8687218455      4.20e-07   Normal BFGS step
   28    -798.8687218455      1.56e-07   Normal BFGS step
   29    -798.8687218455      5.26e-08  Convergence criterion met
 ---------------------------------------
 SCF time:   CPU 7639.03s  wall 525.00s 
<S^2> =          0.754045170
(3)  G-ENP(liq) elect-nuc-pol free energy of system     -798.868721845 a.u.
(4)  G-CDS(liq) cavity-dispersion-solvent structure 
     free energy                                                3.9687 kcal/mol
(6)  G-S(liq) free energy of system                     -798.862397389 a.u.
 SCF   energy in the final basis set =     -798.8623973886
 Total energy in the final basis set =     -798.8623973886
 
 --------------------------------------------------------------
 
                    Orbital Energies (a.u.)
 --------------------------------------------------------------
 
 Alpha MOs
 -- Occupied --
-19.4065 -19.4046 -19.3991 -19.3560 -19.3491 -19.3488 -19.3482 -19.3476
-10.4649 -10.4505 -10.4478 -10.4154 -10.3528  -1.2746  -1.2139  -1.2099
 -1.1830  -1.1690  -1.1364  -1.1361  -1.0384  -0.9154  -0.8546  -0.8058
 -0.7363  -0.7213  -0.6947  -0.6805  -0.6489  -0.6397  -0.6227  -0.6009
 -0.5968  -0.5790  -0.5766  -0.5662  -0.5607  -0.5458  -0.5375  -0.5319
 -0.4957  -0.4791  -0.4674  -0.4650  -0.4497  -0.4385  -0.4342  -0.4310
 -0.4186  -0.4144  -0.4088  -0.3986  -0.3839
 -- Virtual --
  0.0244   0.0347   0.0365   0.0411   0.0545   0.0615   0.0636   0.0670
  0.0791   0.0843   0.0929   0.1049   0.1116   0.1214   0.1294   0.1351
  0.1376   0.1419   0.1486   0.1515   0.1581   0.1641   0.1674   0.1682
  0.1724   0.1839   0.1844   0.1954   0.1994   0.2046   0.2086   0.2194
  0.2212   0.2332   0.2440   0.2514   0.2601   0.2648   0.2711   0.2730
  0.2780   0.2821   0.2824   0.2879   0.2917   0.2934   0.3081   0.3123
  0.3170   0.3217   0.3222   0.3300   0.3329   0.3417   0.3472   0.3493
  0.3602   0.3612   0.3659   0.3699   0.3763   0.3786   0.3811   0.3882
  0.3888   0.3972   0.4014   0.4075   0.4109   0.4150   0.4255   0.4301
  0.4341   0.4383   0.4424   0.4446   0.4509   0.4545   0.4688   0.4748
  0.4835   0.4905   0.4975   0.5115   0.5179   0.5406   0.5628   0.5737
  0.5792   0.6002   0.6146   0.6254   0.6272   0.6354   0.6439   0.6558
  0.6667   0.6717   0.6826   0.6903   0.6955   0.7069   0.7172   0.7279
  0.7369   0.7428   0.7546   0.7669   0.7704   0.7826   0.7901   0.7973
  0.8098   0.8182   0.8409   0.8531   0.8747   0.8763   0.8843   0.9070
  0.9263   0.9469   0.9530   0.9613   0.9790   0.9902   1.0197   1.0281
  1.0319   1.0464   1.0619   1.0776   1.0784   1.0879   1.1022   1.1180
  1.1210   1.1390   1.1484   1.1525   1.1636   1.1681   1.1707   1.1837
  1.1890   1.2015   1.2089   1.2108   1.2144   1.2254   1.2367   1.2390
  1.2423   1.2560   1.2660   1.2731   1.2801   1.2925   1.2936   1.3079
  1.3192   1.3255   1.3321   1.3476   1.3510   1.3652   1.3780   1.3796
  1.3875   1.4086   1.4149   1.4224   1.4395   1.4562   1.4662   1.4764
  1.4896   1.4983   1.5028   1.5068   1.5268   1.5324   1.5383   1.5463
  1.5629   1.5694   1.5860   1.6125   1.6197   1.6266   1.6399   1.6518
  1.6596   1.6773   1.6884   1.7006   1.7126   1.7285   1.7319   1.7504
  1.7618   1.7736   1.8029   1.8161   1.8238   1.8649   1.8820   1.9014
  1.9150   1.9337   1.9474   1.9479   1.9628   1.9968   2.0095   2.0300
  2.0337   2.0632   2.0850   2.0879   2.1383   2.1579   2.1750   2.2050
  2.2193   2.2542   2.2681   2.2783   2.3274   2.3460   2.3555   2.3747
  2.3953   2.4016   2.4168   2.4213   2.4440   2.4577   2.4731   2.4768
  2.4928   2.5054   2.5299   2.5513   2.5808   2.5967   2.6419   2.7012
  2.7078   2.7811   2.7873   2.8194   2.8240   2.8349   2.8569   2.8618
  2.8928   2.9033   2.9267   2.9501   2.9882   3.0250   3.0474   3.0569
  3.0766   3.1249   3.1478   3.1843   3.2004   3.2132   3.2401   3.2542
  3.2716   3.3094   3.3175   3.3408   3.3753   3.3820   3.4006   3.4057
  3.4291   3.4405   3.4681   3.4968   3.5058   3.5246   3.5379   3.5676
  3.5913   3.5996   3.6162   3.6355   3.6410   3.6709   3.6834   3.6913
  3.7069   3.7246   3.7284   3.7487   3.7654   3.7784   3.7866   3.8191
  3.8228   3.8285   3.8418   3.8545   3.8575   3.8650   3.8849   3.8880
  3.9054   3.9125   3.9248   3.9396   3.9536   3.9676   3.9699   4.0161
  4.0292   4.0409   4.0690   4.0992   4.1075   4.1219   4.1428   4.1525
  4.1587   4.1958   4.2080   4.2207   4.2421   4.2491   4.2675   4.2732
  4.2896   4.2926   4.3195   4.3487   4.3535   4.3736   4.3847   4.3972
  4.4128   4.4302   4.4420   4.4623   4.4786   4.5136   4.5581   4.5702
  4.5791   4.6238   4.6487   4.6623   4.7058   4.7269   4.7819   4.7832
  4.8748   4.8884   5.0048   5.0542   5.0748   5.1042   5.1679   5.1813
  5.1913   5.2112   5.2321   5.2378   5.2605   5.2653   5.2790   5.2880
  5.2884   5.2946   5.3093   5.3217   5.3285   5.3374   5.3438   5.3461
  5.3620   5.3655   5.3709   5.3909   5.3945   5.4070   5.4218   5.4336
  5.4472   5.4662   5.4888   5.4960   5.5016   5.5071   5.5349   5.5559
  5.5636   5.5645   5.5803   5.5954   5.5982   5.6084   5.6201   5.6341
  5.6402   5.6614   5.6620   5.6715   5.6982   5.7123   5.7677   5.7816
  5.8068   5.8200   5.8294   5.8952   5.9244   5.9488   5.9875   6.0051
  6.0133   6.0355   6.0681   6.0845   6.1334   6.1550   6.1662   6.2242
  6.4976   6.5470   6.5796   6.7180   6.7375   6.7488   6.8144   6.8403
  6.9067   7.0147   7.0335   7.0552   7.0884   7.0984   7.1058   7.1190
  7.1365   7.1635   7.2356   7.2394   7.2470   7.2676   7.2728   7.2886
  7.2899   7.3046   7.3158   7.3302   7.3433   7.3915   7.4008   7.4228
  7.4343   7.4570   7.4968   7.5090   7.5242   7.5459   7.5899   7.6026
  7.6459   7.6541   7.6852   7.7039   7.7175   7.7747   7.8279   7.8534
  7.8643   7.8821   7.8922   7.9156   8.0181   8.2163  24.6179  24.7497
 24.7842  24.8254  24.8601  50.4989  50.5439  50.6012  50.6070  50.6234
 50.6421  50.6652  50.7147
 
 Beta MOs
 -- Occupied --
-19.4046 -19.3991 -19.3840 -19.3560 -19.3489 -19.3488 -19.3482 -19.3476
-10.4649 -10.4502 -10.4478 -10.4156 -10.3523  -1.2745  -1.2108  -1.2077
 -1.1797  -1.1376  -1.1362  -1.1263  -1.0383  -0.9089  -0.8500  -0.8049
 -0.7356  -0.7114  -0.6919  -0.6766  -0.6485  -0.6377  -0.6173  -0.5945
 -0.5909  -0.5767  -0.5732  -0.5619  -0.5462  -0.5380  -0.5338  -0.5156
 -0.4784  -0.4775  -0.4637  -0.4587  -0.4475  -0.4346  -0.4309  -0.4152
 -0.4139  -0.4077  -0.3970  -0.3787
 -- Virtual --
 -0.0733   0.0248   0.0348   0.0368   0.0411   0.0547   0.0617   0.0636
  0.0671   0.0796   0.0845   0.0932   0.1049   0.1118   0.1219   0.1298
  0.1360   0.1378   0.1422   0.1488   0.1521   0.1584   0.1642   0.1681
  0.1686   0.1730   0.1844   0.1849   0.1955   0.1997   0.2047   0.2098
  0.2199   0.2225   0.2342   0.2453   0.2518   0.2605   0.2659   0.2721
  0.2738   0.2789   0.2826   0.2830   0.2884   0.2920   0.2945   0.3087
  0.3133   0.3176   0.3224   0.3229   0.3316   0.3337   0.3421   0.3484
  0.3499   0.3605   0.3620   0.3665   0.3710   0.3765   0.3792   0.3828
  0.3885   0.3907   0.3988   0.4018   0.4086   0.4116   0.4153   0.4258
  0.4311   0.4361   0.4396   0.4433   0.4446   0.4515   0.4553   0.4694
  0.4752   0.4847   0.4912   0.4980   0.5117   0.5188   0.5407   0.5650
  0.5739   0.5794   0.6029   0.6149   0.6259   0.6279   0.6362   0.6441
  0.6568   0.6668   0.6727   0.6829   0.6908   0.6965   0.7083   0.7181
  0.7293   0.7385   0.7438   0.7548   0.7694   0.7718   0.7831   0.7905
  0.7975   0.8099   0.8190   0.8412   0.8533   0.8753   0.8762   0.8853
  0.9079   0.9267   0.9486   0.9533   0.9620   0.9798   0.9902   1.0213
  1.0291   1.0328   1.0474   1.0625   1.0778   1.0799   1.0884   1.1037
  1.1186   1.1230   1.1417   1.1488   1.1545   1.1646   1.1714   1.1741
  1.1856   1.1913   1.2044   1.2112   1.2125   1.2151   1.2288   1.2386
  1.2419   1.2492   1.2626   1.2667   1.2741   1.2840   1.2939   1.2952
  1.3097   1.3203   1.3287   1.3343   1.3505   1.3516   1.3687   1.3800
  1.3818   1.3888   1.4102   1.4159   1.4248   1.4429   1.4573   1.4675
  1.4772   1.4904   1.5015   1.5045   1.5098   1.5283   1.5333   1.5393
  1.5479   1.5634   1.5710   1.5897   1.6153   1.6229   1.6279   1.6420
  1.6530   1.6626   1.6807   1.6934   1.7042   1.7136   1.7306   1.7347
  1.7527   1.7678   1.7797   1.8056   1.8177   1.8270   1.8679   1.8932
  1.9058   1.9192   1.9380   1.9493   1.9533   1.9660   1.9988   2.0113
  2.0322   2.0359   2.0642   2.0881   2.0905   2.1402   2.1669   2.1783
  2.2103   2.2208   2.2562   2.2755   2.2815   2.3318   2.3465   2.3579
  2.3760   2.3957   2.4033   2.4201   2.4234   2.4463   2.4611   2.4741
  2.4791   2.4979   2.5091   2.5308   2.5540   2.5829   2.5978   2.6426
  2.7018   2.7083   2.7836   2.7891   2.8204   2.8247   2.8356   2.8578
  2.8630   2.8985   2.9042   2.9275   2.9536   2.9906   3.0265   3.0487
  3.0607   3.0780   3.1266   3.1499   3.1860   3.2017   3.2138   3.2418
  3.2554   3.2724   3.3112   3.3184   3.3412   3.3778   3.3839   3.4032
  3.4067   3.4320   3.4428   3.4693   3.4987   3.5073   3.5257   3.5404
  3.5690   3.5923   3.6011   3.6169   3.6366   3.6414   3.6722   3.6840
  3.6920   3.7079   3.7254   3.7295   3.7504   3.7664   3.7792   3.7870
  3.8207   3.8251   3.8293   3.8423   3.8553   3.8582   3.8658   3.8854
  3.8888   3.9064   3.9141   3.9256   3.9406   3.9540   3.9689   3.9716
  4.0189   4.0324   4.0421   4.0699   4.1004   4.1089   4.1237   4.1438
  4.1544   4.1596   4.1977   4.2098   4.2217   4.2427   4.2523   4.2688
  4.2751   4.2911   4.2953   4.3205   4.3495   4.3582   4.3770   4.3887
  4.4000   4.4152   4.4321   4.4445   4.4630   4.4838   4.5168   4.5621
  4.5723   4.5865   4.6269   4.6512   4.6647   4.7083   4.7314   4.7829
  4.7878   4.8757   4.8912   5.0059   5.0545   5.0893   5.1382   5.1907
  5.2095   5.2286   5.2335   5.2409   5.2526   5.2668   5.2794   5.2825
  5.2898   5.2953   5.2969   5.3224   5.3238   5.3376   5.3420   5.3495
  5.3520   5.3668   5.3765   5.3876   5.3956   5.4083   5.4123   5.4296
  5.4465   5.4570   5.4872   5.4969   5.5018   5.5085   5.5170   5.5437
  5.5574   5.5672   5.5713   5.5841   5.5989   5.6007   5.6099   5.6223
  5.6361   5.6461   5.6624   5.6639   5.6719   5.6994   5.7126   5.7693
  5.7824   5.8080   5.8213   5.8319   5.9033   5.9501   5.9553   5.9953
  6.0107   6.0155   6.0360   6.0689   6.0897   6.1341   6.1562   6.1699
  6.2243   6.4978   6.5492   6.5798   6.7328   6.7466   6.7565   6.8149
  6.8407   6.9948   7.0187   7.0555   7.0825   7.0919   7.1054   7.1127
  7.1207   7.1486   7.1738   7.2358   7.2406   7.2474   7.2690   7.2738
  7.2901   7.2938   7.3075   7.3248   7.3364   7.3873   7.3966   7.4173
  7.4251   7.4438   7.4728   7.4994   7.5139   7.5354   7.5532   7.5903
  7.6038   7.6493   7.6546   7.6913   7.7043   7.7512   7.7753   7.8289
  7.8566   7.8646   7.8829   7.8951   7.9156   8.0182   8.2164  24.6181
 24.7496  24.7845  24.8256  24.8601  50.4992  50.5541  50.6014  50.6076
 50.6238  50.6437  50.6674  50.7149
 --------------------------------------------------------------
 
          Ground-State Mulliken Net Atomic Charges

     Atom                 Charge (a.u.)    Spin (a.u.)
  --------------------------------------------------------
      1 C                    -0.096342      -0.002904
      2 O                    -0.428395      -0.000078
      3 C                     0.208978       0.015914
      4 O                    -0.409188       0.001248
      5 C                    -0.738041      -0.032747
      6 C                     0.180570       0.070943
      7 O                    -0.150409       0.862941
      8 C                    -0.372995      -0.011881
      9 O                    -0.406749       0.005662
     10 O                    -0.416686       0.000488
     11 H                     0.299559       0.000148
     12 H                     0.339958      -0.000067
     13 H                     0.287841      -0.002195
     14 H                     0.296961       0.003594
     15 H                     0.324760       0.094729
     16 H                     0.265524      -0.001439
     17 H                     0.343290      -0.000464
     18 H                     0.346431      -0.000885
     19 O                    -0.456945      -0.000075
     20 H                     0.354724      -0.000022
     21 O                    -0.152788       0.001452
     22 O                    -0.283843      -0.000612
     23 H                     0.329901      -0.002925
     24 H                     0.333883      -0.000823
  --------------------------------------------------------
  Sum of atomic charges =    -0.000000
  Sum of spin   charges =     1.000000

 -----------------------------------------------------------------
                    Cartesian Multipole Moments
 -----------------------------------------------------------------
    Charge (ESU x 10^10)
                -0.0000
    Dipole Moment (Debye)
         X       2.5437      Y       4.7010      Z      -2.6575
       Tot       5.9693
    Quadrupole Moments (Debye-Ang)
        XX     -55.3532     XY      21.3389     YY     -83.9222
        XZ      -9.3236     YZ      -7.6546     ZZ     -73.2977
    Octopole Moments (Debye-Ang^2)
       XXX    -784.8087    XXY      39.6288    XYY    -335.3326
       YYY     -36.7365    XXZ     -76.6180    XYZ     -40.3313
       YYZ     -23.1398    XZZ    -301.4735    YZZ     -34.0431
       ZZZ     -56.1567
    Hexadecapole Moments (Debye-Ang^3)
      XXXX   -7502.2291   XXXY    -629.5128   XXYY   -1892.9581
      XYYY    -500.1252   YYYY   -1677.0818   XXXZ    -782.9141
      XXYZ    -336.3165   XYYZ    -199.3348   YYYZ    -418.1960
      XXZZ   -1459.2476   XYZZ    -234.7905   YYZZ    -439.6216
      XZZZ    -329.4440   YZZZ    -270.7915   ZZZZ    -573.7227
 -----------------------------------------------------------------
 Calculating analytic gradient of the SCF energy
 Gradient of CDS energy
            1           2           3           4           5           6
    1  -0.0020572   0.0015517  -0.0014159   0.0015043  -0.0000561  -0.0017110
    2  -0.0015342  -0.0010873  -0.0007000   0.0007028   0.0000485  -0.0004569
    3   0.0001054   0.0002897   0.0029396  -0.0032110  -0.0000519   0.0050021
            7           8           9          10          11          12
    1   0.0016596   0.0009773   0.0012834  -0.0020160   0.0002768  -0.0004396
    2   0.0005413   0.0019137  -0.0010863  -0.0009577  -0.0000545   0.0001481
    3  -0.0050290   0.0018313   0.0002725  -0.0022726  -0.0000039  -0.0002298
           13          14          15          16          17          18
    1  -0.0001505   0.0001063  -0.0000077   0.0000784  -0.0002272   0.0001199
    2   0.0000595  -0.0000666  -0.0001228  -0.0000869   0.0004533   0.0001345
    3   0.0000736  -0.0000999   0.0001122  -0.0001216  -0.0001083   0.0004530
           19          20          21          22          23          24
    1   0.0007028  -0.0002214  -0.0000507  -0.0002676  -0.0001099   0.0004703
    2   0.0026581  -0.0003634  -0.0000171  -0.0000457  -0.0000634  -0.0000170
    3  -0.0004933   0.0002513  -0.0000573   0.0001195   0.0004029  -0.0001742
 Gradient of SCF Energy
            1           2           3           4           5           6
    1  -0.0050755   0.0052919   0.0104802  -0.0093411  -0.0100657  -0.0129029
    2   0.0012012   0.0101216  -0.0015386  -0.0088291  -0.0033330   0.0100992
    3   0.0039263   0.0200885  -0.0011569  -0.0053941   0.0168958  -0.0092796
            7           8           9          10          11          12
    1  -0.0018647  -0.0124425  -0.0127718   0.0136983   0.0015710  -0.0071275
    2  -0.0001517   0.0058710  -0.0219469   0.0051079   0.0025014  -0.0057961
    3   0.0036757   0.0244166   0.0075329  -0.0111898  -0.0073150  -0.0165294
           13          14          15          16          17          18
    1  -0.0037367   0.0090161   0.0169821   0.0094319   0.0094058  -0.0084390
    2   0.0035359   0.0023260  -0.0100114  -0.0007642   0.0188813  -0.0051048
    3   0.0006149  -0.0141825  -0.0031137  -0.0169702  -0.0083159   0.0110852
           19          20          21          22          23          24
    1   0.0062819  -0.0033438  -0.0028950  -0.0181246   0.0068679   0.0191039
    2  -0.0088355   0.0032082  -0.0057217  -0.0194791   0.0073424   0.0213161
    3  -0.0077518   0.0058357   0.0074783  -0.0140779   0.0056068   0.0081203
 Max gradient component =       2.442E-02
 RMS gradient           =       1.053E-02
 Computing fast CPCM-SWIG gradient
 Updating gradient with PCM contributions...
 -- total gradient after adding PCM contribution --
---------------------------------------------------
  Atom         X              Y              Z     
---------------------------------------------------
   1      -0.003750      -0.001157       0.002322
   2       0.002885       0.005294       0.007741
   3      -0.000107      -0.000051      -0.001259
   4      -0.005565      -0.005258      -0.003276
   5       0.000824      -0.001140       0.001606
   6       0.000458       0.000816      -0.003467
   7      -0.001348       0.000238       0.004187
   8      -0.001215       0.004163       0.003992
   9      -0.005657      -0.008273       0.002117
  10       0.006716       0.001844      -0.005603
  11       0.001992      -0.000887      -0.002710
  12      -0.002701      -0.003186      -0.005578
  13      -0.002832       0.001925       0.000164
  14       0.001242       0.000375      -0.002958
  15       0.001689      -0.001259      -0.000015
  16       0.002443      -0.000123      -0.002330
  17       0.003658       0.005743      -0.001805
  18      -0.005212      -0.002575       0.004166
  19       0.003502      -0.003376      -0.007904
  20      -0.001531       0.002793       0.006569
  21       0.000038      -0.001039       0.005278
  22      -0.003813      -0.003648      -0.007567
  23       0.003918       0.004511       0.003301
  24       0.004365       0.004271       0.003031
---------------------------------------------------
 Number of fixed atoms: 0
 Gradient time:  CPU 715.60 s  wall 59.19 s
 Geometry Optimization Parameters
   NAtoms,    NIC,     NZ,  NCons,   NDum,   NFix, NCnnct, MaxDiis
       24     163       0       0       0       0       0       0


** GEOMETRY OPTIMIZATION IN DELOCALIZED INTERNAL COORDINATES **
   Searching for a Minimum

   Optimization Cycle:   1

                       Coordinates (Angstroms)
     ATOM                X               Y               Z
      1  C         2.5792468399   -1.1315068441   -1.0338689140
      2  O         1.4265348414   -0.3215729545   -1.0391568801
      3  C         3.5063558183   -0.5618335834    0.0495539494
      4  O         2.9043298807   -0.8448733760    1.2786783022
      5  C         3.8155295602    0.9182448683   -0.1407454389
      6  C         4.8197348090    1.4506611967    0.8829684462
      7  O         4.3808785569    1.3208861397    2.1911884581
      8  C         5.2920306755    2.8869175342    0.6234218928
      9  O         4.1316917978    3.6868520376    0.5791565260
     10  O         6.1774675237    3.2949928028    1.6359371484
     11  H         3.0784247277   -1.1206779193   -2.0058797521
     12  H         0.8950653017   -0.5946517299   -1.8051809252
     13  H         2.8838830422    1.4823037027   -0.0597628145
     14  H         4.2187256479    1.0825046315   -1.1451821591
     15  H         5.7318365969    0.8150448992    0.8780058794
     16  H         5.8504246079    2.9435121383   -0.3160033766
     17  H         4.4115430889    4.5760879735    0.3042321264
     18  H         5.7424326063    3.0631308060    2.4775554626
     19  O         2.2773060186   -2.4783879376   -0.7625656926
     20  H         1.9747750097   -2.5063128682    0.1636947256
     21  O         4.7178331190   -1.3515473844    0.0883271813
     22  O         5.3980289036   -1.2063927042   -1.1692911074
     23  H         3.3060318747   -0.2485263359    1.9422332862
     24  H         6.1271151516   -0.6036687931   -0.9295916242
   Point Group: c1    Number of degrees of freedom:    66


   Energy is   -798.862397389


 Attempting to generate delocalized internal coordinates
 Initial Hessian constructed with Jon Baker's OPTIMIZE code

 66 Hessian modes will be used to form the next step
  Hessian Eigenvalues:
     0.004195    0.004478    0.004677    0.005254    0.006010    0.009473
     0.014316    0.014479    0.014756    0.014905    0.015963    0.037214
     0.039577    0.048319    0.048520    0.050085    0.058031    0.058129
     0.061767    0.063271    0.063767    0.084129    0.091818    0.091965
     0.097035    0.097594    0.122382    0.160000    0.160000    0.160000
     0.160000    0.160000    0.160000    0.172574    0.179236    0.182212
     0.182717    0.190837    0.206629    0.206783    0.219597    0.234187
     0.250000    0.289183    0.290540    0.294541    0.299889    0.324167
     0.342713    0.343186    0.344969    0.345709    0.386857    0.399818
     0.439948    0.441900    0.445247    0.447050    0.460201    0.480293
     0.516935    0.521977    0.522956    0.524052    0.529853    0.530703

 Minimum search - taking simple RFO step
 Searching for Lamda that Minimizes Along All modes
 Value Taken    Lamda =  -0.00185059
 Step Taken.  Stepsize is  0.149479

                             Maximum     Tolerance    Cnvgd?
         Gradient           0.007296      0.000300      NO
         Displacement       0.057213      0.001200      NO
         Energy change     *********      0.000001      NO


 New Cartesian Coordinates Obtained by Inverse Iteration

 Displacement from previous Coordinates is:  0.424508
 ----------------------------------------------------------------
             Standard Nuclear Orientation (Angstroms)
    I     Atom           X                Y                Z
 ----------------------------------------------------------------
    1      C       2.5896616306    -1.1212590808    -1.0373368851
    2      O       1.4295418089    -0.3243680304    -1.0558184736
    3      C       3.5002057552    -0.5639998831     0.0673035778
    4      O       2.8950486963    -0.8693058148     1.2883810847
    5      C       3.7945174777     0.9175569468    -0.1086372893
    6      C       4.8087461936     1.4537831033     0.8976678366
    7      O       4.3937627900     1.3318428590     2.2093695696
    8      C       5.2820789737     2.8821589357     0.6076565737
    9      O       4.1373563555     3.7049453744     0.5932044380
   10      O       6.2086915128     3.3025285913     1.5779134912
   11      H       3.0991163978    -1.0821454292    -1.9975490479
   12      H       0.9137891093    -0.5706552832    -1.8330784186
   13      H       2.8633961412     1.4700165582    -0.0130381228
   14      H       4.1814454374     1.0920487214    -1.1123539477
   15      H       5.7171453925     0.8190409933     0.8804130224
   16      H       5.7990940679     2.9222699974    -0.3503367435
   17      H       4.4033088966     4.5823541762     0.2916900919
   18      H       5.8344359804     3.1011534573     2.4484960016
   19      O       2.2843130437    -2.4748212051    -0.8051775114
   20      H       1.9583897548    -2.5578938140     0.1026518506
   21      O       4.7159700755    -1.3452978425     0.1042647332
   22      O       5.4094489419    -1.1987131075    -1.1394295430
   23      H       3.2676579627    -0.2846872080     1.9692326878
   24      H       6.1601036040    -0.6353667159    -0.8977642763
 ----------------------------------------------------------------
 Nuclear Repulsion Energy =         943.40923340 hartrees
 There are       53 alpha and       52 beta electrons
 Discretize the solute cavity surface with Lebedev spheres
	Using 110 Lebedev grid points for each H atom
	Using 194 Lebedev grid points for other atoms
	Atomic van der Waals radii will be scaled by 1.20
 Remove points where switching function is < 1.0e-08
 Keep 1814 surface tesserae and discard 1918 interior tesserae
 Molecular Surface Area = 198.813 Angst**2
 Applying Cartesian multipole field
    Component          Value
    ---------          -----
     (2,0,0)        1.00000E-12
     (0,2,0)        2.00000E-11
     (0,0,2)       -3.00000E-11
 Nucleus-field energy     =     0.0000000224 hartrees
 Requested basis set is 6-311++G(2df,2p)
 There are 170 shells and 552 basis functions
 A cutoff of  1.0D-12 yielded  12039 shell pairs
 There are    123903 function pairs (    152901 Cartesian)
 Smallest overlap matrix eigenvalue = 2.34E-06
 Guess MOs from SCF MO coefficient file

 -----------------------------------------------------------------------
  General SCF calculation program by
  Eric Jon Sundstrom, Paul Horn, Yuezhi Mao, Dmitri Zuev, Alec White,
  David Stuck, Shaama M.S., Shane Yost, Joonho Lee, David Small,
  Daniel Levine, Susi Lehtola, Hugh Burton, Evgeny Epifanovsky,
  Bang C. Huynh
 -----------------------------------------------------------------------
 Exchange:     0.1500 Hartree-Fock + 1.0000 wB97M-V + LR-HF
 Correlation:  1.0000 wB97M-V
 Using SG-2 standard quadrature grid
 Nonlocal Correlation:  VV10 with C = 0.0100 and b = 6.00 and scale = 1.00000
 Grid used for NLC:  SG-1 standard quadrature
 
 Citation of the SMD model:
 Marenich, A.V.; Cramer, C.J.; Truhlar, D.G.
 J. Phys. Chem. B 2009, 113, 6378-6396.
 iSolventCode=           1
 Solvent: water                                                           
 
 vradii
            1           2           3           4           5           6
    1   1.8500000   1.5200000   1.8500000   1.5200000   1.8500000   1.8500000
            7           8           9          10          11          12
    1   1.5200000   1.8500000   1.5200000   1.5200000   1.2000000   1.2000000
           13          14          15          16          17          18
    1   1.2000000   1.2000000   1.2000000   1.2000000   1.2000000   1.2000000
           19          20          21          22          23          24
    1   1.5200000   1.2000000   1.5200000   1.5200000   1.2000000   1.2000000
 -------------------------------------------------------
 OpenMP BLAS3 based DFT computing Module                
 Release: version 1.0, May 2013, Q-Chem Inc. Pittsburgh 
 -------------------------------------------------------
 A unrestricted SCF calculation will be
 performed using Roothaan-Hall, DIIS, GDM
 SCF converges when RMS gradient is below 1.0e-07
 ---------------------------------------
  Cycle       Energy         DIIS error
 ---------------------------------------
    1    -798.8016281392      2.56e-04  Roothaan Step
 ---------------------------------------
  Cycle       Energy         DIIS error
 ---------------------------------------
    1    -798.8576335656      2.29e-04  
    2    -798.8668589144      1.59e-04  Done DIIS. Switching to GDM
 ---------------------------------------
  Cycle       Energy        RMS Gradient
 ---------------------------------------
    1    -798.8668589144      5.56e-03   Normal BFGS step
    2    -798.8673007671      6.67e-03   Normal BFGS step
    3    -798.8697424048      7.18e-04   Normal BFGS step
    4    -798.8697684473      4.67e-04   Normal BFGS step
    5    -798.8697796221      2.60e-04   Normal BFGS step
    6    -798.8697805359      1.30e-04   Normal BFGS step
    7    -798.8697810299      1.13e-04   Normal BFGS step
    8    -798.8697811190      6.31e-05   Normal BFGS step
    9    -798.8697811791      6.45e-05   Normal BFGS step
   10    -798.8697812029      6.32e-05   Normal BFGS step
   11    -798.8697812263      5.81e-05   Normal BFGS step
   12    -798.8697812752      4.59e-05   Normal BFGS step
   13    -798.8697813057      4.09e-05   Normal BFGS step
   14    -798.8697813227      3.29e-05   Normal BFGS step
   15    -798.8697813286      1.61e-05   Normal BFGS step
   16    -798.8697813299      5.51e-06   Normal BFGS step
   17    -798.8697813301      1.29e-06   Normal BFGS step
   18    -798.8697813301      5.28e-07   Normal BFGS step
   19    -798.8697813301      1.91e-07   Normal BFGS step
   20    -798.8697813301      1.01e-07   Normal BFGS step
  GDM::WARNING energy changes are now smaller than effective accuracy.
  GDM::        calculation will continue, but THRESH should be increased
  GDM::        or SCF_CONVERGENCE decreased. 
  GDM::        effective_thresh = 5.24e-09
   21    -798.8697813298      4.41e-08  Convergence criterion met
 ---------------------------------------
 SCF time:   CPU 5494.11s  wall 380.00s 
<S^2> =          0.754013747
(3)  G-ENP(liq) elect-nuc-pol free energy of system     -798.869781330 a.u.
(4)  G-CDS(liq) cavity-dispersion-solvent structure 
     free energy                                                4.0606 kcal/mol
(6)  G-S(liq) free energy of system                     -798.863310289 a.u.
 SCF   energy in the final basis set =     -798.8633102895
 Total energy in the final basis set =     -798.8633102895
 
 --------------------------------------------------------------
 
                    Orbital Energies (a.u.)
 --------------------------------------------------------------
 
 Alpha MOs
 -- Occupied --
-19.4044 -19.4042 -19.3983 -19.3564 -19.3476 -19.3476 -19.3470 -19.3468
-10.4654 -10.4500 -10.4479 -10.4140 -10.3509  -1.2764  -1.2132  -1.2099
 -1.1835  -1.1700  -1.1365  -1.1362  -1.0396  -0.9168  -0.8566  -0.8075
 -0.7393  -0.7226  -0.6949  -0.6818  -0.6514  -0.6427  -0.6235  -0.6016
 -0.5977  -0.5794  -0.5786  -0.5668  -0.5606  -0.5446  -0.5359  -0.5308
 -0.4963  -0.4787  -0.4672  -0.4641  -0.4493  -0.4376  -0.4338  -0.4313
 -0.4176  -0.4144  -0.4085  -0.3974  -0.3833
 -- Virtual --
  0.0243   0.0347   0.0367   0.0410   0.0545   0.0609   0.0639   0.0669
  0.0793   0.0844   0.0932   0.1049   0.1122   0.1230   0.1298   0.1349
  0.1373   0.1425   0.1487   0.1514   0.1592   0.1644   0.1670   0.1686
  0.1733   0.1825   0.1849   0.1958   0.1987   0.2048   0.2077   0.2193
  0.2223   0.2340   0.2448   0.2533   0.2614   0.2648   0.2719   0.2728
  0.2789   0.2820   0.2826   0.2876   0.2918   0.2930   0.3089   0.3131
  0.3174   0.3211   0.3218   0.3318   0.3330   0.3427   0.3473   0.3494
  0.3614   0.3628   0.3682   0.3724   0.3764   0.3798   0.3821   0.3881
  0.3910   0.3971   0.4031   0.4070   0.4101   0.4145   0.4263   0.4299
  0.4353   0.4377   0.4418   0.4448   0.4508   0.4542   0.4686   0.4737
  0.4837   0.4883   0.4999   0.5122   0.5173   0.5391   0.5627   0.5742
  0.5818   0.6023   0.6177   0.6269   0.6295   0.6367   0.6460   0.6594
  0.6668   0.6712   0.6853   0.6915   0.6985   0.7094   0.7146   0.7287
  0.7374   0.7433   0.7556   0.7649   0.7713   0.7822   0.7919   0.7995
  0.8102   0.8206   0.8425   0.8544   0.8754   0.8769   0.8855   0.9082
  0.9210   0.9459   0.9533   0.9586   0.9797   0.9882   1.0201   1.0279
  1.0331   1.0468   1.0654   1.0748   1.0769   1.0890   1.1052   1.1162
  1.1217   1.1377   1.1464   1.1537   1.1644   1.1683   1.1742   1.1829
  1.1887   1.1994   1.2063   1.2102   1.2151   1.2228   1.2349   1.2384
  1.2425   1.2536   1.2666   1.2714   1.2815   1.2899   1.2929   1.3053
  1.3161   1.3232   1.3290   1.3477   1.3529   1.3563   1.3741   1.3794
  1.3895   1.4082   1.4175   1.4246   1.4383   1.4561   1.4719   1.4752
  1.4881   1.4998   1.5040   1.5104   1.5265   1.5318   1.5410   1.5476
  1.5689   1.5750   1.5856   1.6146   1.6206   1.6315   1.6414   1.6517
  1.6594   1.6783   1.6921   1.7038   1.7142   1.7291   1.7325   1.7516
  1.7614   1.7690   1.8038   1.8166   1.8248   1.8676   1.8820   1.9036
  1.9187   1.9320   1.9412   1.9472   1.9658   1.9951   2.0072   2.0287
  2.0340   2.0637   2.0740   2.0917   2.1430   2.1638   2.1787   2.2031
  2.2162   2.2503   2.2600   2.2799   2.3252   2.3447   2.3497   2.3743
  2.3921   2.3970   2.4112   2.4203   2.4390   2.4550   2.4703   2.4775
  2.4912   2.5054   2.5238   2.5491   2.5826   2.5888   2.6370   2.7002
  2.7055   2.7788   2.7895   2.8120   2.8256   2.8335   2.8548   2.8652
  2.8966   2.9070   2.9349   2.9474   2.9862   3.0269   3.0525   3.0562
  3.0767   3.1250   3.1475   3.1903   3.2037   3.2149   3.2460   3.2567
  3.2741   3.3079   3.3164   3.3401   3.3730   3.3833   3.4018   3.4075
  3.4290   3.4416   3.4659   3.4972   3.5067   3.5262   3.5431   3.5645
  3.5932   3.5996   3.6171   3.6385   3.6448   3.6705   3.6831   3.6918
  3.7079   3.7242   3.7290   3.7486   3.7652   3.7770   3.7916   3.8181
  3.8237   3.8316   3.8391   3.8550   3.8576   3.8664   3.8861   3.8882
  3.9065   3.9164   3.9248   3.9443   3.9550   3.9703   3.9730   4.0126
  4.0336   4.0356   4.0698   4.0969   4.1115   4.1233   4.1511   4.1609
  4.1634   4.1998   4.2143   4.2278   4.2501   4.2564   4.2735   4.2792
  4.2963   4.3033   4.3367   4.3593   4.3609   4.3776   4.3928   4.4072
  4.4212   4.4332   4.4467   4.4678   4.4855   4.5186   4.5684   4.5772
  4.5819   4.6294   4.6523   4.6726   4.7080   4.7314   4.7844   4.7869
  4.8748   4.8944   5.0087   5.0530   5.0732   5.1037   5.1620   5.1814
  5.1864   5.2098   5.2312   5.2383   5.2568   5.2639   5.2766   5.2882
  5.2913   5.2967   5.3074   5.3197   5.3285   5.3366   5.3440   5.3459
  5.3588   5.3638   5.3704   5.3926   5.3956   5.4058   5.4250   5.4341
  5.4415   5.4639   5.4918   5.4969   5.5024   5.5054   5.5349   5.5593
  5.5681   5.5708   5.5888   5.6065   5.6098   5.6223   5.6356   5.6420
  5.6471   5.6662   5.6732   5.6819   5.6996   5.7211   5.7683   5.7826
  5.8167   5.8269   5.8396   5.9045   5.9336   5.9615   6.0041   6.0251
  6.0296   6.0551   6.0883   6.1019   6.1457   6.1524   6.1635   6.2436
  6.5006   6.5501   6.5826   6.7297   6.7437   6.7540   6.8199   6.8569
  6.9099   7.0082   7.0237   7.0572   7.0888   7.0982   7.1066   7.1199
  7.1377   7.1592   7.2579   7.2627   7.2681   7.2777   7.2881   7.3029
  7.3086   7.3212   7.3227   7.3359   7.3480   7.3904   7.4051   7.4250
  7.4346   7.4610   7.4981   7.5139   7.5209   7.5455   7.5943   7.6117
  7.6574   7.6677   7.6928   7.7047   7.7197   7.7802   7.8267   7.8563
  7.8675   7.8803   7.8911   7.9174   8.0201   8.2132  24.6304  24.7602
 24.7996  24.8360  24.8703  50.5002  50.5430  50.6037  50.6106  50.6269
 50.6426  50.6651  50.7121
 
 Beta MOs
 -- Occupied --
-19.4044 -19.3983 -19.3818 -19.3564 -19.3476 -19.3474 -19.3470 -19.3468
-10.4654 -10.4496 -10.4479 -10.4141 -10.3504  -1.2763  -1.2109  -1.2072
 -1.1810  -1.1373  -1.1365  -1.1266  -1.0396  -0.9104  -0.8520  -0.8067
 -0.7386  -0.7125  -0.6925  -0.6778  -0.6510  -0.6409  -0.6182  -0.5951
 -0.5918  -0.5781  -0.5737  -0.5627  -0.5446  -0.5373  -0.5326  -0.5155
 -0.4795  -0.4771  -0.4627  -0.4582  -0.4471  -0.4340  -0.4315  -0.4150
 -0.4135  -0.4075  -0.3953  -0.3779
 -- Virtual --
 -0.0715   0.0247   0.0348   0.0369   0.0410   0.0546   0.0612   0.0640
  0.0670   0.0799   0.0846   0.0934   0.1049   0.1124   0.1235   0.1302
  0.1357   0.1376   0.1429   0.1489   0.1521   0.1595   0.1644   0.1678
  0.1689   0.1737   0.1831   0.1853   0.1959   0.1990   0.2050   0.2091
  0.2198   0.2234   0.2350   0.2461   0.2537   0.2617   0.2658   0.2727
  0.2738   0.2798   0.2824   0.2833   0.2880   0.2924   0.2937   0.3094
  0.3141   0.3182   0.3220   0.3222   0.3332   0.3338   0.3432   0.3491
  0.3497   0.3617   0.3635   0.3688   0.3734   0.3766   0.3803   0.3843
  0.3884   0.3919   0.3991   0.4033   0.4080   0.4109   0.4149   0.4268
  0.4307   0.4367   0.4395   0.4428   0.4449   0.4513   0.4551   0.4693
  0.4744   0.4846   0.4889   0.5003   0.5124   0.5182   0.5394   0.5649
  0.5745   0.5820   0.6048   0.6180   0.6277   0.6299   0.6374   0.6464
  0.6605   0.6670   0.6721   0.6855   0.6919   0.6995   0.7111   0.7152
  0.7301   0.7389   0.7443   0.7557   0.7680   0.7723   0.7828   0.7923
  0.7997   0.8106   0.8212   0.8427   0.8545   0.8760   0.8768   0.8864
  0.9091   0.9216   0.9470   0.9543   0.9591   0.9805   0.9882   1.0211
  1.0289   1.0347   1.0479   1.0660   1.0756   1.0783   1.0895   1.1067
  1.1169   1.1232   1.1401   1.1468   1.1557   1.1651   1.1723   1.1779
  1.1846   1.1911   1.2022   1.2090   1.2106   1.2158   1.2255   1.2381
  1.2425   1.2482   1.2611   1.2673   1.2728   1.2843   1.2910   1.2948
  1.3073   1.3170   1.3250   1.3321   1.3511   1.3533   1.3602   1.3753
  1.3813   1.3919   1.4096   1.4192   1.4263   1.4417   1.4574   1.4728
  1.4761   1.4889   1.5016   1.5075   1.5127   1.5282   1.5328   1.5420
  1.5492   1.5696   1.5767   1.5891   1.6177   1.6238   1.6329   1.6432
  1.6529   1.6618   1.6817   1.6960   1.7089   1.7159   1.7313   1.7354
  1.7534   1.7646   1.7783   1.8073   1.8173   1.8278   1.8699   1.8938
  1.9065   1.9246   1.9378   1.9468   1.9510   1.9676   1.9967   2.0093
  2.0302   2.0360   2.0657   2.0779   2.0926   2.1458   2.1730   2.1802
  2.2087   2.2180   2.2546   2.2645   2.2830   2.3295   2.3452   2.3522
  2.3754   2.3924   2.3987   2.4137   2.4229   2.4420   2.4575   2.4706
  2.4804   2.4955   2.5093   2.5255   2.5523   2.5843   2.5902   2.6377
  2.7007   2.7062   2.7833   2.7899   2.8126   2.8265   2.8343   2.8557
  2.8658   2.9005   2.9099   2.9359   2.9503   2.9885   3.0283   3.0537
  3.0599   3.0784   3.1267   3.1496   3.1921   3.2050   3.2154   3.2478
  3.2578   3.2751   3.3096   3.3174   3.3404   3.3756   3.3848   3.4030
  3.4094   3.4311   3.4453   3.4669   3.4993   3.5080   3.5273   3.5453
  3.5661   3.5943   3.6012   3.6177   3.6394   3.6454   3.6720   3.6835
  3.6926   3.7089   3.7253   3.7302   3.7500   3.7663   3.7778   3.7920
  3.8198   3.8260   3.8321   3.8397   3.8558   3.8582   3.8675   3.8863
  3.8894   3.9072   3.9183   3.9254   3.9458   3.9554   3.9717   3.9747
  4.0151   4.0347   4.0392   4.0707   4.0980   4.1129   4.1250   4.1521
  4.1622   4.1651   4.2015   4.2162   4.2291   4.2510   4.2584   4.2747
  4.2816   4.3003   4.3039   4.3378   4.3604   4.3672   4.3810   4.3958
  4.4087   4.4236   4.4349   4.4495   4.4683   4.4911   4.5216   4.5721
  4.5794   4.5897   4.6323   4.6546   4.6752   4.7109   4.7357   4.7874
  4.7897   4.8757   4.8976   5.0097   5.0534   5.0865   5.1393   5.1909
  5.2082   5.2210   5.2318   5.2410   5.2509   5.2607   5.2788   5.2826
  5.2912   5.2957   5.2986   5.3205   5.3241   5.3342   5.3405   5.3496
  5.3516   5.3643   5.3735   5.3890   5.3955   5.4068   5.4144   5.4352
  5.4431   5.4570   5.4833   5.4983   5.5014   5.5088   5.5165   5.5431
  5.5610   5.5704   5.5815   5.5929   5.6090   5.6134   5.6237   5.6377
  5.6438   5.6530   5.6668   5.6753   5.6822   5.7009   5.7214   5.7695
  5.7831   5.8179   5.8283   5.8423   5.9117   5.9576   5.9732   6.0102
  6.0296   6.0315   6.0557   6.0887   6.1067   6.1475   6.1528   6.1685
  6.2437   6.5009   6.5524   6.5828   6.7371   6.7520   6.7703   6.8209
  6.8573   7.0003   7.0184   7.0575   7.0777   7.0913   7.1068   7.1093
  7.1217   7.1491   7.1644   7.2580   7.2637   7.2686   7.2786   7.2889
  7.3064   7.3166   7.3214   7.3255   7.3424   7.3885   7.3952   7.4222
  7.4257   7.4455   7.4792   7.5014   7.5176   7.5348   7.5498   7.5953
  7.6127   7.6612   7.6684   7.6984   7.7053   7.7533   7.7805   7.8276
  7.8592   7.8690   7.8809   7.8934   7.9174   8.0203   8.2133  24.6306
 24.7602  24.7999  24.8361  24.8704  50.5005  50.5534  50.6040  50.6110
 50.6273  50.6443  50.6671  50.7123
 --------------------------------------------------------------
 
          Ground-State Mulliken Net Atomic Charges

     Atom                 Charge (a.u.)    Spin (a.u.)
  --------------------------------------------------------
      1 C                    -0.094528      -0.002593
      2 O                    -0.426988      -0.000069
      3 C                     0.166027       0.014978
      4 O                    -0.403990       0.001183
      5 C                    -0.702673      -0.033289
      6 C                     0.175069       0.073217
      7 O                    -0.160151       0.862298
      8 C                    -0.363454      -0.012032
      9 O                    -0.407569       0.005329
     10 O                    -0.421059       0.000361
     11 H                     0.306053       0.000149
     12 H                     0.337379      -0.000064
     13 H                     0.290589      -0.002499
     14 H                     0.296088       0.003681
     15 H                     0.324831       0.094617
     16 H                     0.269211      -0.001519
     17 H                     0.340857      -0.000449
     18 H                     0.347247      -0.000722
     19 O                    -0.459103      -0.000077
     20 H                     0.353606      -0.000016
     21 O                    -0.146796       0.001498
     22 O                    -0.281676      -0.000564
     23 H                     0.327735      -0.002576
     24 H                     0.333295      -0.000842
  --------------------------------------------------------
  Sum of atomic charges =    -0.000000
  Sum of spin   charges =     1.000000

 -----------------------------------------------------------------
                    Cartesian Multipole Moments
 -----------------------------------------------------------------
    Charge (ESU x 10^10)
                -0.0000
    Dipole Moment (Debye)
         X       2.4875      Y       4.5060      Z      -2.5973
       Tot       5.7652
    Quadrupole Moments (Debye-Ang)
        XX     -55.5528     XY      20.4075     YY     -83.7429
        XZ      -8.7816     YZ      -7.7780     ZZ     -73.1300
    Octopole Moments (Debye-Ang^2)
       XXX    -783.9986    XXY      34.0031    XYY    -335.9288
       YYY     -40.3174    XXZ     -71.5107    XYZ     -38.4544
       YYZ     -22.5389    XZZ    -299.6720    YZZ     -32.5037
       ZZZ     -56.1738
    Hexadecapole Moments (Debye-Ang^3)
      XXXX   -7490.6741   XXXY    -669.6893   XXYY   -1900.0125
      XYYY    -512.6566   YYYY   -1680.7718   XXXZ    -742.5290
      XXYZ    -314.0956   XYYZ    -191.7897   YYYZ    -416.6481
      XXZZ   -1442.4254   XYZZ    -224.8784   YYZZ    -437.6387
      XZZZ    -326.6808   YZZZ    -268.9579   ZZZZ    -571.4515
 -----------------------------------------------------------------
 Calculating analytic gradient of the SCF energy
 Gradient of CDS energy
            1           2           3           4           5           6
    1  -0.0022569   0.0017900  -0.0014817   0.0015724  -0.0000533  -0.0016885
    2  -0.0013841  -0.0012248  -0.0007809   0.0007883   0.0000463  -0.0004479
    3   0.0000577   0.0002782   0.0030353  -0.0033044  -0.0000535   0.0052320
            7           8           9          10          11          12
    1   0.0016323   0.0009626   0.0013396  -0.0020355   0.0002476  -0.0004340
    2   0.0005274   0.0019194  -0.0011391  -0.0009470  -0.0000148   0.0001525
    3  -0.0052330   0.0017277   0.0002088  -0.0020927  -0.0000178  -0.0002382
           13          14          15          16          17          18
    1  -0.0001492   0.0001097  -0.0000130   0.0000324  -0.0002261   0.0001485
    2   0.0000559  -0.0000632  -0.0001158  -0.0000627   0.0004542   0.0001428
    3   0.0000710  -0.0000983   0.0001111  -0.0001439  -0.0001108   0.0004446
           19          20          21          22          23          24
    1   0.0006931  -0.0002209  -0.0000536  -0.0002746  -0.0001158   0.0004749
    2   0.0026208  -0.0003765  -0.0000176  -0.0000437  -0.0000693  -0.0000200
    3  -0.0004032   0.0002360  -0.0000576   0.0001232   0.0004016  -0.0001737
 Gradient of SCF Energy
            1           2           3           4           5           6
    1  -0.0005084   0.0025346   0.0105154  -0.0053277  -0.0106573  -0.0121741
    2   0.0026216   0.0045675  -0.0019340  -0.0051671  -0.0020581   0.0088177
    3   0.0015908   0.0125218  -0.0004370  -0.0028403   0.0151808  -0.0077856
            7           8           9          10          11          12
    1  -0.0007479  -0.0102708  -0.0067294   0.0070621  -0.0007092  -0.0049332
    2   0.0000799   0.0015708  -0.0134823   0.0038223   0.0039696  -0.0025927
    3   0.0014687   0.0200837   0.0057247  -0.0066918  -0.0048669  -0.0115452
           13          14          15          16          17          18
    1  -0.0007173   0.0074561   0.0147674   0.0059770   0.0054289  -0.0030281
    2   0.0015976   0.0020892  -0.0088002  -0.0006762   0.0137389  -0.0024940
    3   0.0003786  -0.0107479  -0.0031977  -0.0147421  -0.0068393   0.0086576
           19          20          21          22          23          24
    1   0.0026118  -0.0023766  -0.0038228  -0.0137667   0.0033162   0.0160999
    2  -0.0062526   0.0001736  -0.0047258  -0.0147082   0.0037572   0.0160851
    3  -0.0012910   0.0009180   0.0041829  -0.0083030   0.0040044   0.0045758
 Max gradient component =       2.008E-02
 RMS gradient           =       7.773E-03
 Computing fast CPCM-SWIG gradient
 Updating gradient with PCM contributions...
 -- total gradient after adding PCM contribution --
---------------------------------------------------
  Atom         X              Y              Z     
---------------------------------------------------
   1       0.000868       0.000643      -0.000213
   2       0.000223       0.000083      -0.000068
   3       0.000497      -0.000040      -0.000879
   4      -0.001692      -0.001329      -0.000423
   5      -0.000571       0.000051       0.000720
   6       0.000854      -0.000612      -0.002607
   7      -0.000133       0.000419       0.001762
   8      -0.000207      -0.000040      -0.000091
   9      -0.000000      -0.000226      -0.000181
  10       0.000656       0.000606      -0.000412
  11      -0.000339       0.000312      -0.000202
  12      -0.000629      -0.000276      -0.000401
  13       0.000166       0.000064      -0.000151
  14       0.000175      -0.000050       0.000292
  15      -0.000253      -0.000058       0.000067
  16      -0.000149       0.000155      -0.000099
  17       0.000045       0.000911       0.000052
  18      -0.000317      -0.000161       0.001209
  19      -0.000484      -0.000917      -0.000762
  20      -0.000391      -0.000264       0.001243
  21      -0.000765      -0.000009       0.001781
  22       0.001033       0.000277      -0.001545
  23       0.000510       0.000757       0.001468
  24       0.000903      -0.000298      -0.000558
---------------------------------------------------
 Number of fixed atoms: 0
 Gradient time:  CPU 726.40 s  wall 60.08 s
 Geometry Optimization Parameters
   NAtoms,    NIC,     NZ,  NCons,   NDum,   NFix, NCnnct, MaxDiis
       24     163       0       0       0       0       0       0

 Cartesian Hessian Update
 Hessian updated using BFGS update


** GEOMETRY OPTIMIZATION IN DELOCALIZED INTERNAL COORDINATES **
   Searching for a Minimum

   Optimization Cycle:   2

                       Coordinates (Angstroms)
     ATOM                X               Y               Z
      1  C         2.5896616306   -1.1212590808   -1.0373368851
      2  O         1.4295418089   -0.3243680304   -1.0558184736
      3  C         3.5002057552   -0.5639998831    0.0673035778
      4  O         2.8950486963   -0.8693058148    1.2883810847
      5  C         3.7945174777    0.9175569468   -0.1086372893
      6  C         4.8087461936    1.4537831033    0.8976678366
      7  O         4.3937627900    1.3318428590    2.2093695696
      8  C         5.2820789737    2.8821589357    0.6076565737
      9  O         4.1373563555    3.7049453744    0.5932044380
     10  O         6.2086915128    3.3025285913    1.5779134912
     11  H         3.0991163978   -1.0821454292   -1.9975490479
     12  H         0.9137891093   -0.5706552832   -1.8330784186
     13  H         2.8633961412    1.4700165582   -0.0130381228
     14  H         4.1814454374    1.0920487214   -1.1123539477
     15  H         5.7171453925    0.8190409933    0.8804130224
     16  H         5.7990940679    2.9222699974   -0.3503367435
     17  H         4.4033088966    4.5823541762    0.2916900919
     18  H         5.8344359804    3.1011534573    2.4484960016
     19  O         2.2843130437   -2.4748212051   -0.8051775114
     20  H         1.9583897548   -2.5578938140    0.1026518506
     21  O         4.7159700755   -1.3452978425    0.1042647332
     22  O         5.4094489419   -1.1987131075   -1.1394295430
     23  H         3.2676579627   -0.2846872080    1.9692326878
     24  H         6.1601036040   -0.6353667159   -0.8977642763
   Point Group: c1    Number of degrees of freedom:    66


   Energy is   -798.863310289

 Hessian updated using BFGS update

 62 Hessian modes will be used to form the next step
  Hessian Eigenvalues:
     0.004299    0.004475    0.004778    0.005266    0.006148    0.009536
     0.014225    0.014436    0.014751    0.014904    0.015934    0.037390
     0.039241    0.048045    0.048370    0.050153    0.058101    0.058477
     0.061817    0.062897    0.063716    0.084105    0.091856    0.092595
     0.097029    0.097553    0.122407    0.154114    0.167383    0.172915
     0.177920    0.182455    0.187609    0.189691    0.206672    0.208191
     0.224991    0.231630    0.259872    0.288487    0.289913    0.293838
     0.298351    0.324628    0.341589    0.343081    0.344306    0.345661
     0.385395    0.389947    0.439705    0.441182    0.445155    0.447181
     0.455937    0.472003    0.500841    0.520188    0.523384    0.523685
     0.529486    0.530657

 Minimum search - taking simple RFO step
 Searching for Lamda that Minimizes Along All modes
 Value Taken    Lamda =  -0.00045138
 Step Taken.  Stepsize is  0.237861

                             Maximum     Tolerance    Cnvgd?
         Gradient           0.002694      0.000300      NO
         Displacement       0.131462      0.001200      NO
         Energy change     -0.000913      0.000001      NO


 New Cartesian Coordinates Obtained by Inverse Iteration

 Displacement from previous Coordinates is:  0.462302
 ----------------------------------------------------------------
             Standard Nuclear Orientation (Angstroms)
    I     Atom           X                Y                Z
 ----------------------------------------------------------------
    1      C       2.5966173106    -1.1232467028    -1.0340980922
    2      O       1.4319451983    -0.3340654254    -1.0516582957
    3      C       3.4996966422    -0.5681511092     0.0757360250
    4      O       2.8972366731    -0.8700280516     1.2966927740
    5      C       3.7945835201     0.9102329714    -0.1035784056
    6      C       4.8012547347     1.4434798888     0.9091649957
    7      O       4.3719670271     1.3325745239     2.2140271499
    8      C       5.2914394831     2.8603932002     0.6036517870
    9      O       4.1576612250     3.6970814197     0.5773945863
   10      O       6.2232264004     3.2825408997     1.5667470033
   11      H       3.1115285280    -1.0721796051    -1.9893184467
   12      H       0.9267645593    -0.5661068790    -1.8371886096
   13      H       2.8638437053     1.4618335432    -0.0123426138
   14      H       4.1851079821     1.0826247586    -1.1052504899
   15      H       5.7042678043     0.8019002514     0.9039795040
   16      H       5.8079480163     2.8806204693    -0.3537681692
   17      H       4.4297098417     4.5616931956     0.2533117887
   18      H       5.8536263516     3.0995712021     2.4401353833
   19      O       2.3017146556    -2.4801504884    -0.8182754081
   20      H       1.9689384376    -2.5816735237     0.0819517529
   21      O       4.7148078858    -1.3473621414     0.1157258885
   22      O       5.4175298938    -1.1779092106    -1.1139947001
   23      H       3.2644325231    -0.2816147774     1.9723402074
   24      H       6.0313776010    -0.4608721093    -0.9036609151
 ----------------------------------------------------------------
 Nuclear Repulsion Energy =         945.36290089 hartrees
 There are       53 alpha and       52 beta electrons
 Discretize the solute cavity surface with Lebedev spheres
	Using 110 Lebedev grid points for each H atom
	Using 194 Lebedev grid points for other atoms
	Atomic van der Waals radii will be scaled by 1.20
 Remove points where switching function is < 1.0e-08
 Keep 1809 surface tesserae and discard 1923 interior tesserae
 Molecular Surface Area = 197.387 Angst**2
 Applying Cartesian multipole field
    Component          Value
    ---------          -----
     (2,0,0)        1.00000E-12
     (0,2,0)        2.00000E-11
     (0,0,2)       -3.00000E-11
 Nucleus-field energy     =     0.0000000223 hartrees
 Requested basis set is 6-311++G(2df,2p)
 There are 170 shells and 552 basis functions
 A cutoff of  1.0D-12 yielded  12074 shell pairs
 There are    124326 function pairs (    153438 Cartesian)
 Smallest overlap matrix eigenvalue = 2.38E-06
 Guess MOs from SCF MO coefficient file

 -----------------------------------------------------------------------
  General SCF calculation program by
  Eric Jon Sundstrom, Paul Horn, Yuezhi Mao, Dmitri Zuev, Alec White,
  David Stuck, Shaama M.S., Shane Yost, Joonho Lee, David Small,
  Daniel Levine, Susi Lehtola, Hugh Burton, Evgeny Epifanovsky,
  Bang C. Huynh
 -----------------------------------------------------------------------
 Exchange:     0.1500 Hartree-Fock + 1.0000 wB97M-V + LR-HF
 Correlation:  1.0000 wB97M-V
 Using SG-2 standard quadrature grid
 Nonlocal Correlation:  VV10 with C = 0.0100 and b = 6.00 and scale = 1.00000
 Grid used for NLC:  SG-1 standard quadrature
 
 Citation of the SMD model:
 Marenich, A.V.; Cramer, C.J.; Truhlar, D.G.
 J. Phys. Chem. B 2009, 113, 6378-6396.
 iSolventCode=           1
 Solvent: water                                                           
 
 vradii
            1           2           3           4           5           6
    1   1.8500000   1.5200000   1.8500000   1.5200000   1.8500000   1.8500000
            7           8           9          10          11          12
    1   1.5200000   1.8500000   1.5200000   1.5200000   1.2000000   1.2000000
           13          14          15          16          17          18
    1   1.2000000   1.2000000   1.2000000   1.2000000   1.2000000   1.2000000
           19          20          21          22          23          24
    1   1.5200000   1.2000000   1.5200000   1.5200000   1.2000000   1.2000000
 -------------------------------------------------------
 OpenMP BLAS3 based DFT computing Module                
 Release: version 1.0, May 2013, Q-Chem Inc. Pittsburgh 
 -------------------------------------------------------
 A unrestricted SCF calculation will be
 performed using Roothaan-Hall, DIIS, GDM
 SCF converges when RMS gradient is below 1.0e-07
 ---------------------------------------
  Cycle       Energy         DIIS error
 ---------------------------------------
    1    -798.7962267970      3.03e-04  Roothaan Step
 ---------------------------------------
  Cycle       Energy         DIIS error
 ---------------------------------------
    1    -798.8560591025      2.43e-04  
    2    -798.8661332058      1.68e-04  Done DIIS. Switching to GDM
 ---------------------------------------
  Cycle       Energy        RMS Gradient
 ---------------------------------------
    1    -798.8661332058      5.46e-03   Normal BFGS step
    2    -798.8666908118      7.36e-03   Normal BFGS step
    3    -798.8693081636      5.88e-04   Normal BFGS step
    4    -798.8693371302      4.94e-04   Normal BFGS step
    5    -798.8693450090      2.34e-04   Normal BFGS step
    6    -798.8693455681      1.44e-04   Normal BFGS step
    7    -798.8693458496      1.14e-04   Normal BFGS step
    8    -798.8693459102      6.32e-05   Normal BFGS step
    9    -798.8693459325      2.16e-05   Normal BFGS step
   10    -798.8693459374      1.40e-05   Normal BFGS step
   11    -798.8693459389      1.22e-05   Normal BFGS step
   12    -798.8693459396      1.02e-05   Normal BFGS step
   13    -798.8693459402      7.75e-06   Normal BFGS step
   14    -798.8693459410      7.07e-06   Normal BFGS step
   15    -798.8693459419      1.04e-05   Normal BFGS step
   16    -798.8693459426      8.37e-06   Normal BFGS step
   17    -798.8693459430      3.57e-06   Normal BFGS step
   18    -798.8693459430      4.24e-07   Normal BFGS step
   19    -798.8693459430      1.93e-07   Normal BFGS step
   20    -798.8693459431      1.21e-07   Normal BFGS step
  GDM::WARNING energy changes are now smaller than effective accuracy.
  GDM::        calculation will continue, but THRESH should be increased
  GDM::        or SCF_CONVERGENCE decreased. 
  GDM::        effective_thresh = 5.24e-09
   21    -798.8693459430      5.14e-08  Convergence criterion met
 ---------------------------------------
 SCF time:   CPU 5436.97s  wall 376.00s 
<S^2> =          0.754008444
(3)  G-ENP(liq) elect-nuc-pol free energy of system     -798.869345943 a.u.
(4)  G-CDS(liq) cavity-dispersion-solvent structure 
     free energy                                                4.0289 kcal/mol
(6)  G-S(liq) free energy of system                     -798.862925500 a.u.
 SCF   energy in the final basis set =     -798.8629255001
 Total energy in the final basis set =     -798.8629255001
 
 --------------------------------------------------------------
 
                    Orbital Energies (a.u.)
 --------------------------------------------------------------
 
 Alpha MOs
 -- Occupied --
-19.4052 -19.4050 -19.3994 -19.3559 -19.3474 -19.3474 -19.3469 -19.3466
-10.4648 -10.4499 -10.4475 -10.4145 -10.3511  -1.2807  -1.2142  -1.2106
 -1.1851  -1.1715  -1.1374  -1.1371  -1.0398  -0.9193  -0.8581  -0.8086
 -0.7407  -0.7242  -0.6978  -0.6836  -0.6518  -0.6441  -0.6258  -0.6030
 -0.5980  -0.5805  -0.5784  -0.5687  -0.5612  -0.5456  -0.5361  -0.5311
 -0.4984  -0.4793  -0.4679  -0.4630  -0.4500  -0.4382  -0.4341  -0.4315
 -0.4176  -0.4136  -0.4079  -0.4016  -0.3838
 -- Virtual --
  0.0243   0.0348   0.0370   0.0414   0.0545   0.0611   0.0642   0.0680
  0.0789   0.0844   0.0938   0.1056   0.1124   0.1245   0.1309   0.1346
  0.1374   0.1428   0.1484   0.1511   0.1595   0.1645   0.1668   0.1680
  0.1729   0.1821   0.1851   0.1965   0.1981   0.2044   0.2071   0.2189
  0.2220   0.2353   0.2455   0.2545   0.2609   0.2660   0.2723   0.2730
  0.2798   0.2816   0.2829   0.2885   0.2914   0.2952   0.3093   0.3144
  0.3203   0.3223   0.3244   0.3317   0.3355   0.3414   0.3487   0.3522
  0.3602   0.3610   0.3633   0.3731   0.3763   0.3794   0.3826   0.3882
  0.3914   0.3971   0.4013   0.4086   0.4137   0.4147   0.4276   0.4292
  0.4347   0.4373   0.4407   0.4449   0.4530   0.4575   0.4675   0.4737
  0.4797   0.4936   0.5014   0.5136   0.5178   0.5406   0.5609   0.5762
  0.5794   0.6010   0.6173   0.6291   0.6305   0.6397   0.6453   0.6575
  0.6666   0.6723   0.6858   0.6946   0.6984   0.7080   0.7106   0.7319
  0.7380   0.7424   0.7516   0.7629   0.7755   0.7804   0.7895   0.8014
  0.8034   0.8231   0.8340   0.8547   0.8736   0.8811   0.8865   0.9119
  0.9326   0.9461   0.9572   0.9665   0.9840   0.9908   1.0138   1.0297
  1.0364   1.0551   1.0642   1.0756   1.0809   1.0931   1.1068   1.1156
  1.1182   1.1378   1.1442   1.1511   1.1656   1.1710   1.1735   1.1826
  1.1899   1.2021   1.2071   1.2092   1.2156   1.2224   1.2347   1.2382
  1.2433   1.2542   1.2667   1.2742   1.2806   1.2906   1.2933   1.3050
  1.3158   1.3230   1.3266   1.3461   1.3517   1.3621   1.3762   1.3779
  1.3903   1.4104   1.4226   1.4251   1.4415   1.4537   1.4708   1.4740
  1.4863   1.4993   1.5114   1.5137   1.5313   1.5361   1.5382   1.5494
  1.5751   1.5798   1.5979   1.6165   1.6233   1.6338   1.6403   1.6488
  1.6646   1.6782   1.6917   1.7048   1.7172   1.7332   1.7343   1.7493
  1.7677   1.7711   1.8035   1.8185   1.8257   1.8694   1.8826   1.9080
  1.9158   1.9340   1.9458   1.9504   1.9667   2.0079   2.0109   2.0302
  2.0386   2.0693   2.0818   2.0910   2.1471   2.1624   2.1805   2.2055
  2.2200   2.2507   2.2604   2.2929   2.3287   2.3408   2.3497   2.3760
  2.3905   2.4029   2.4063   2.4192   2.4385   2.4568   2.4739   2.4840
  2.4935   2.5075   2.5221   2.5516   2.5818   2.5867   2.6383   2.7025
  2.7091   2.7779   2.7951   2.8251   2.8306   2.8440   2.8581   2.8639
  2.9047   2.9096   2.9347   2.9528   2.9982   3.0337   3.0568   3.0609
  3.0820   3.1285   3.1507   3.1910   3.2112   3.2182   3.2519   3.2564
  3.2845   3.3086   3.3171   3.3404   3.3764   3.3851   3.4007   3.4164
  3.4306   3.4445   3.4689   3.4962   3.5090   3.5340   3.5488   3.5700
  3.5967   3.6001   3.6113   3.6409   3.6494   3.6701   3.6813   3.6955
  3.7102   3.7251   3.7294   3.7489   3.7634   3.7762   3.7967   3.8201
  3.8285   3.8325   3.8389   3.8559   3.8577   3.8690   3.8873   3.8952
  3.9088   3.9207   3.9292   3.9456   3.9604   3.9684   3.9755   4.0131
  4.0380   4.0601   4.0772   4.1020   4.1186   4.1284   4.1541   4.1664
  4.1680   4.2058   4.2156   4.2327   4.2539   4.2624   4.2767   4.2864
  4.2972   4.3095   4.3430   4.3640   4.3658   4.3809   4.3992   4.4108
  4.4255   4.4347   4.4506   4.4720   4.4959   4.5229   4.5746   4.5813
  4.5862   4.6336   4.6574   4.6739   4.7155   4.7391   4.7754   4.7988
  4.8803   4.8968   4.9896   5.0528   5.0792   5.1115   5.1623   5.1827
  5.1890   5.2111   5.2344   5.2371   5.2562   5.2622   5.2772   5.2896
  5.2922   5.2979   5.3063   5.3211   5.3296   5.3393   5.3438   5.3492
  5.3580   5.3662   5.3737   5.3953   5.3994   5.4111   5.4270   5.4325
  5.4559   5.4695   5.4960   5.4968   5.5041   5.5126   5.5355   5.5536
  5.5676   5.5760   5.5897   5.6019   5.6155   5.6245   5.6388   5.6471
  5.6508   5.6757   5.6789   5.6878   5.7032   5.7249   5.7742   5.7979
  5.8254   5.8278   5.8429   5.9072   5.9391   5.9688   6.0108   6.0328
  6.0372   6.0676   6.0990   6.1107   6.1509   6.1593   6.1695   6.2564
  6.5092   6.5534   6.5866   6.7363   6.7497   6.7593   6.8292   6.8728
  6.9095   7.0133   7.0299   7.0589   7.0874   7.0992   7.1096   7.1266
  7.1413   7.1590   7.2673   7.2714   7.2763   7.2822   7.2943   7.3100
  7.3159   7.3294   7.3315   7.3443   7.3535   7.4006   7.4095   7.4307
  7.4398   7.4689   7.4992   7.5055   7.5236   7.5469   7.5941   7.6185
  7.6589   7.6714   7.6934   7.7065   7.7232   7.7829   7.8281   7.8607
  7.8715   7.8821   7.8930   7.9179   8.0280   8.2131  24.6361  24.7688
 24.8075  24.8455  24.8810  50.5012  50.5457  50.6065  50.6129  50.6289
 50.6447  50.6692  50.7156
 
 Beta MOs
 -- Occupied --
-19.4052 -19.3993 -19.3826 -19.3559 -19.3474 -19.3473 -19.3469 -19.3466
-10.4649 -10.4496 -10.4475 -10.4147 -10.3506  -1.2806  -1.2117  -1.2079
 -1.1824  -1.1381  -1.1374  -1.1286  -1.0398  -0.9129  -0.8535  -0.8078
 -0.7400  -0.7141  -0.6957  -0.6792  -0.6515  -0.6420  -0.6205  -0.5952
 -0.5932  -0.5793  -0.5743  -0.5618  -0.5463  -0.5386  -0.5330  -0.5169
 -0.4804  -0.4778  -0.4628  -0.4582  -0.4485  -0.4345  -0.4311  -0.4143
 -0.4132  -0.4057  -0.4011  -0.3779
 -- Virtual --
 -0.0724   0.0247   0.0349   0.0373   0.0414   0.0547   0.0613   0.0643
  0.0680   0.0795   0.0846   0.0940   0.1057   0.1127   0.1251   0.1312
  0.1352   0.1379   0.1431   0.1488   0.1517   0.1597   0.1646   0.1674
  0.1686   0.1733   0.1828   0.1854   0.1965   0.1984   0.2046   0.2084
  0.2194   0.2231   0.2363   0.2467   0.2549   0.2613   0.2671   0.2732
  0.2740   0.2807   0.2820   0.2833   0.2891   0.2916   0.2962   0.3097
  0.3151   0.3213   0.3228   0.3249   0.3332   0.3364   0.3419   0.3501
  0.3527   0.3607   0.3617   0.3643   0.3737   0.3765   0.3799   0.3849
  0.3885   0.3919   0.3993   0.4016   0.4096   0.4143   0.4153   0.4280
  0.4299   0.4367   0.4387   0.4414   0.4449   0.4539   0.4586   0.4682
  0.4739   0.4809   0.4945   0.5016   0.5139   0.5185   0.5411   0.5633
  0.5765   0.5795   0.6032   0.6175   0.6298   0.6315   0.6399   0.6461
  0.6586   0.6668   0.6732   0.6862   0.6951   0.6994   0.7082   0.7124
  0.7332   0.7391   0.7434   0.7519   0.7648   0.7776   0.7808   0.7902
  0.8014   0.8037   0.8235   0.8347   0.8549   0.8739   0.8810   0.8874
  0.9130   0.9333   0.9472   0.9581   0.9669   0.9845   0.9911   1.0158
  1.0304   1.0370   1.0562   1.0647   1.0767   1.0818   1.0934   1.1084
  1.1162   1.1203   1.1402   1.1447   1.1535   1.1673   1.1740   1.1774
  1.1844   1.1912   1.2048   1.2087   1.2107   1.2166   1.2253   1.2366
  1.2434   1.2512   1.2600   1.2677   1.2748   1.2832   1.2923   1.2950
  1.3077   1.3170   1.3249   1.3297   1.3493   1.3519   1.3649   1.3782
  1.3802   1.3924   1.4120   1.4245   1.4262   1.4450   1.4547   1.4714
  1.4749   1.4874   1.5013   1.5142   1.5161   1.5324   1.5379   1.5397
  1.5519   1.5757   1.5822   1.6005   1.6198   1.6256   1.6351   1.6423
  1.6495   1.6681   1.6817   1.6963   1.7087   1.7181   1.7358   1.7374
  1.7519   1.7691   1.7819   1.8074   1.8190   1.8285   1.8714   1.8922
  1.9146   1.9216   1.9399   1.9468   1.9555   1.9705   2.0094   2.0123
[...]
  21      -0.000019      -0.000011       0.000033
  22       0.000024       0.000008      -0.000039
  23       0.000015       0.000025       0.000028
  24       0.000005       0.000001      -0.000013
---------------------------------------------------
 Number of fixed atoms: 0
 Gradient time:  CPU 713.16 s  wall 59.31 s
 Geometry Optimization Parameters
   NAtoms,    NIC,     NZ,  NCons,   NDum,   NFix, NCnnct, MaxDiis
       24     163       0       0       0       0       0       0

 Cartesian Hessian Update
 Hessian updated using BFGS update


** GEOMETRY OPTIMIZATION IN DELOCALIZED INTERNAL COORDINATES **
   Searching for a Minimum

   Optimization Cycle:  10

                       Coordinates (Angstroms)
     ATOM                X               Y               Z
      1  C         2.5879293453   -1.1160763896   -1.0317896225
      2  O         1.4129910757   -0.3420712723   -1.0137414067
      3  C         3.5028280630   -0.5660602903    0.0711902203
      4  O         2.9137898546   -0.8795315709    1.2959620725
      5  C         3.7909187666    0.9165090417   -0.1005164821
      6  C         4.7936050046    1.4524646173    0.9182817674
      7  O         4.3548726425    1.3483274694    2.2193680852
      8  C         5.2916541634    2.8670288430    0.6113347386
      9  O         4.1588988750    3.7045899886    0.5654078741
     10  O         6.2112051376    3.2904153363    1.5860352282
     11  H         3.0857421220   -1.0439840339   -1.9961417149
     12  H         0.9119582887   -0.5452815067   -1.8118138327
     13  H         2.8559135886    1.4630827274   -0.0061541742
     14  H         4.1805185593    1.0968752853   -1.1022665887
     15  H         5.6954495416    0.8064781819    0.9228075729
     16  H         5.8225324811    2.8803406930   -0.3396821076
     17  H         4.4333848104    4.5589201364    0.2124947828
     18  H         5.8218034808    3.1115670133    2.4534586864
     19  O         2.3156594536   -2.4803192146   -0.8304874569
     20  H         1.9858656390   -2.5911102756    0.0714691394
     21  O         4.7213338154   -1.3437501348    0.0922292294
     22  O         5.4057752708   -1.1837140591   -1.1500069554
     23  H         3.2685326646   -0.2770503545    1.9683152513
     24  H         6.1240633559   -0.5764639312   -0.9180296070
   Point Group: c1    Number of degrees of freedom:    66


   Energy is   -798.863451215

 Hessian updated using BFGS update

 66 Hessian modes will be used to form the next step
  Hessian Eigenvalues:
     0.002859    0.004687    0.004761    0.005365    0.007610    0.011197
     0.014337    0.014699    0.014910    0.015843    0.020493    0.038589
     0.045442    0.049203    0.050685    0.055246    0.058071    0.058592
     0.063212    0.063490    0.063834    0.084115    0.091977    0.093819
     0.097302    0.113524    0.124160    0.158974    0.159803    0.160249
     0.162025    0.166742    0.170988    0.181981    0.182390    0.185865
     0.195438    0.206658    0.210539    0.220226    0.232178    0.261228
     0.287149    0.296677    0.303937    0.312252    0.325930    0.342571
     0.343682    0.345934    0.346437    0.378224    0.393394    0.434598
     0.440242    0.442183    0.444121    0.450181    0.463671    0.483944
     0.519056    0.521754    0.523624    0.525563    0.530254    0.532325

 Minimum search - taking simple RFO step
 Searching for Lamda that Minimizes Along All modes
 Value Taken    Lamda =  -0.00000022
 Step Taken.  Stepsize is  0.006703

                             Maximum     Tolerance    Cnvgd?
         Gradient           0.000097      0.000300     YES
         Displacement       0.002430      0.001200      NO
         Energy change     -0.000001      0.000001     YES

 Final energy is   -798.863451214701     


 ******************************
 **  OPTIMIZATION CONVERGED  **
 ******************************

                       Coordinates (Angstroms)
     ATOM                X               Y               Z
      1  C         2.5879293453   -1.1160763896   -1.0317896225
      2  O         1.4129910757   -0.3420712723   -1.0137414067
      3  C         3.5028280630   -0.5660602903    0.0711902203
      4  O         2.9137898546   -0.8795315709    1.2959620725
      5  C         3.7909187666    0.9165090417   -0.1005164821
      6  C         4.7936050046    1.4524646173    0.9182817674
      7  O         4.3548726425    1.3483274694    2.2193680852
      8  C         5.2916541634    2.8670288430    0.6113347386
      9  O         4.1588988750    3.7045899886    0.5654078741
     10  O         6.2112051376    3.2904153363    1.5860352282
     11  H         3.0857421220   -1.0439840339   -1.9961417149
     12  H         0.9119582887   -0.5452815067   -1.8118138327
     13  H         2.8559135886    1.4630827274   -0.0061541742
     14  H         4.1805185593    1.0968752853   -1.1022665887
     15  H         5.6954495416    0.8064781819    0.9228075729
     16  H         5.8225324811    2.8803406930   -0.3396821076
     17  H         4.4333848104    4.5589201364    0.2124947828
     18  H         5.8218034808    3.1115670133    2.4534586864
     19  O         2.3156594536   -2.4803192146   -0.8304874569
     20  H         1.9858656390   -2.5911102756    0.0714691394
     21  O         4.7213338154   -1.3437501348    0.0922292294
     22  O         5.4057752708   -1.1837140591   -1.1500069554
     23  H         3.2685326646   -0.2770503545    1.9683152513
     24  H         6.1240633559   -0.5764639312   -0.9180296070

Z-matrix Print:
$molecule
0 2
O 
O  1 1.427313
H  2 0.968764 1 102.557726
C  1 1.445683 2 109.341326 3 103.769725 0
O  4 1.394739 1 102.843001 2 176.636929 0
H  5 0.969992 4 108.338620 1 86.645836 0
C  4 1.520030 1 111.504808 2 -61.419514 0
H  7 1.087144 4 108.515403 1 -174.183632 0
H  7 1.089873 4 109.450661 1 68.539368 0
C  7 1.526623 4 113.048956 1 -52.769617 0
H  10 1.109343 7 109.404548 4 51.149904 0
O  10 1.377010 7 113.250000 4 -62.113577 0
C  10 1.530772 7 113.847279 4 169.432226 0
H  13 1.089239 10 110.178169 7 -62.400932 0
O  13 1.405301 10 110.623550 7 -179.815497 0
H  15 0.967494 13 107.625350 10 -48.743025 0
O  13 1.409522 10 107.107651 7 58.257410 0
H  17 0.964246 13 108.037394 10 -169.536160 0
C  4 1.534966 1 108.667527 2 63.030711 0
H  19 1.087653 4 109.910700 1 -59.937947 0
O  19 1.405636 4 111.119704 1 57.391589 0
H  21 0.966729 19 108.114917 4 52.635819 0
O  19 1.407085 4 106.940494 1 179.574540 0
H  23 0.963975 19 107.904261 4 168.080943 0
$end

 
 --------------------------------------------------------------
 
                    Orbital Energies (a.u.)
 --------------------------------------------------------------
 
 Alpha MOs
 -- Occupied --
-19.4043 -19.4040 -19.3981 -19.3559 -19.3477 -19.3477 -19.3469 -19.3466
-10.4645 -10.4498 -10.4474 -10.4138 -10.3509  -1.2781  -1.2138  -1.2102
 -1.1845  -1.1710  -1.1371  -1.1369  -1.0388  -0.9171  -0.8569  -0.8076
 -0.7396  -0.7230  -0.6958  -0.6826  -0.6517  -0.6430  -0.6245  -0.6018
 -0.5980  -0.5794  -0.5790  -0.5676  -0.5610  -0.5455  -0.5356  -0.5306
 -0.4967  -0.4784  -0.4672  -0.4629  -0.4496  -0.4384  -0.4342  -0.4317
 -0.4164  -0.4133  -0.4087  -0.3979  -0.3833
 -- Virtual --
  0.0243   0.0348   0.0369   0.0410   0.0544   0.0609   0.0642   0.0677
  0.0787   0.0844   0.0936   0.1054   0.1125   0.1242   0.1307   0.1347
  0.1377   0.1429   0.1485   0.1510   0.1597   0.1643   0.1666   0.1685
  0.1731   0.1825   0.1847   0.1965   0.1982   0.2048   0.2066   0.2185
  0.2233   0.2347   0.2463   0.2537   0.2608   0.2664   0.2728   0.2729
  0.2798   0.2813   0.2832   0.2886   0.2920   0.2943   0.3088   0.3134
  0.3181   0.3215   0.3226   0.3319   0.3334   0.3434   0.3485   0.3507
  0.3606   0.3627   0.3680   0.3738   0.3757   0.3794   0.3821   0.3879
  0.3914   0.3968   0.4023   0.4071   0.4114   0.4139   0.4275   0.4292
  0.4354   0.4372   0.4413   0.4450   0.4531   0.4551   0.4703   0.4752
  0.4825   0.4881   0.5005   0.5123   0.5194   0.5400   0.5619   0.5743
  0.5823   0.6017   0.6162   0.6276   0.6311   0.6389   0.6460   0.6581
  0.6673   0.6701   0.6855   0.6939   0.6980   0.7093   0.7147   0.7310
  0.7383   0.7422   0.7557   0.7652   0.7721   0.7805   0.7911   0.7984
  0.8097   0.8243   0.8405   0.8567   0.8748   0.8796   0.8868   0.9080
  0.9241   0.9499   0.9511   0.9618   0.9783   0.9908   1.0194   1.0274
  1.0354   1.0470   1.0664   1.0767   1.0794   1.0922   1.1095   1.1163
  1.1217   1.1390   1.1441   1.1531   1.1651   1.1689   1.1738   1.1843
  1.1898   1.2006   1.2068   1.2097   1.2163   1.2233   1.2339   1.2387
  1.2425   1.2537   1.2677   1.2736   1.2791   1.2895   1.2935   1.3045
  1.3137   1.3221   1.3283   1.3457   1.3514   1.3546   1.3727   1.3813
  1.3914   1.4129   1.4217   1.4242   1.4401   1.4562   1.4714   1.4754
  1.4878   1.4979   1.5047   1.5127   1.5278   1.5345   1.5402   1.5478
  1.5693   1.5777   1.5889   1.6166   1.6207   1.6338   1.6389   1.6515
  1.6624   1.6790   1.6942   1.7050   1.7133   1.7301   1.7343   1.7495
  1.7661   1.7721   1.8031   1.8186   1.8276   1.8715   1.8818   1.9039
  1.9193   1.9333   1.9419   1.9458   1.9692   2.0008   2.0072   2.0322
  2.0390   2.0685   2.0805   2.0917   2.1455   2.1654   2.1772   2.2054
  2.2189   2.2475   2.2620   2.2811   2.3282   2.3451   2.3528   2.3769
  2.3938   2.3993   2.4109   2.4210   2.4404   2.4564   2.4744   2.4771
  2.4941   2.5070   2.5253   2.5473   2.5798   2.5860   2.6405   2.7048
  2.7094   2.7783   2.7915   2.8208   2.8277   2.8312   2.8591   2.8660
  2.9011   2.9101   2.9334   2.9474   2.9896   3.0305   3.0547   3.0602
  3.0754   3.1255   3.1501   3.1896   3.2054   3.2181   3.2497   3.2585
  3.2779   3.3084   3.3180   3.3428   3.3757   3.3844   3.4029   3.4113
  3.4315   3.4435   3.4676   3.4941   3.5062   3.5287   3.5436   3.5662
  3.5991   3.5994   3.6151   3.6352   3.6466   3.6702   3.6829   3.6924
  3.7108   3.7241   3.7304   3.7494   3.7633   3.7773   3.7929   3.8193
  3.8261   3.8323   3.8387   3.8550   3.8582   3.8698   3.8867   3.8932
  3.9086   3.9198   3.9264   3.9482   3.9600   3.9666   3.9755   4.0148
  4.0365   4.0384   4.0720   4.0993   4.1143   4.1264   4.1537   4.1644
  4.1657   4.2031   4.2143   4.2305   4.2509   4.2571   4.2741   4.2797
  4.2946   4.3055   4.3376   4.3605   4.3634   4.3776   4.3956   4.4054
  4.4219   4.4299   4.4467   4.4713   4.4894   4.5167   4.5699   4.5801
  4.5810   4.6310   4.6555   4.6686   4.7107   4.7373   4.7846   4.7889
  4.8767   4.8939   5.0020   5.0531   5.0758   5.1058   5.1623   5.1835
  5.1895   5.2137   5.2337   5.2405   5.2578   5.2639   5.2789   5.2872
  5.2931   5.2989   5.3065   5.3198   5.3281   5.3372   5.3438   5.3481
  5.3597   5.3653   5.3733   5.3944   5.3975   5.4080   5.4257   5.4342
  5.4466   5.4677   5.4952   5.4978   5.5054   5.5119   5.5327   5.5588
  5.5636   5.5700   5.5876   5.6067   5.6093   5.6221   5.6379   5.6442
  5.6499   5.6689   5.6750   5.6872   5.7013   5.7242   5.7726   5.7893
  5.8186   5.8275   5.8404   5.9072   5.9394   5.9671   6.0115   6.0300
  6.0350   6.0632   6.0960   6.1088   6.1523   6.1565   6.1715   6.2549
  6.5045   6.5522   6.5857   6.7354   6.7505   6.7600   6.8260   6.8718
  6.9103   7.0126   7.0294   7.0588   7.0866   7.0986   7.1099   7.1217
  7.1389   7.1583   7.2577   7.2664   7.2715   7.2764   7.2912   7.3071
  7.3125   7.3247   7.3254   7.3414   7.3546   7.3935   7.4073   7.4301
  7.4370   7.4692   7.4998   7.5135   7.5230   7.5474   7.5931   7.6164
  7.6585   7.6683   7.6928   7.7050   7.7224   7.7814   7.8279   7.8608
  7.8700   7.8822   7.8933   7.9183   8.0271   8.2098  24.6331  24.7645
 24.8013  24.8430  24.8761  50.4997  50.5463  50.6053  50.6117  50.6285
 50.6439  50.6675  50.7164
 
 Beta MOs
 -- Occupied --
-19.4039 -19.3981 -19.3819 -19.3559 -19.3477 -19.3475 -19.3469 -19.3466
-10.4646 -10.4494 -10.4474 -10.4140 -10.3503  -1.2780  -1.2112  -1.2075
 -1.1818  -1.1380  -1.1371  -1.1283  -1.0388  -0.9107  -0.8523  -0.8068
 -0.7389  -0.7128  -0.6934  -0.6784  -0.6512  -0.6409  -0.6191  -0.5954
 -0.5923  -0.5787  -0.5733  -0.5630  -0.5448  -0.5383  -0.5328  -0.5155
 -0.4796  -0.4767  -0.4619  -0.4581  -0.4478  -0.4350  -0.4321  -0.4140
 -0.4130  -0.4074  -0.3962  -0.3776
 -- Virtual --
 -0.0719   0.0246   0.0348   0.0372   0.0410   0.0546   0.0612   0.0642
  0.0678   0.0793   0.0845   0.0938   0.1054   0.1128   0.1248   0.1309
  0.1354   0.1381   0.1433   0.1488   0.1515   0.1600   0.1644   0.1674
  0.1688   0.1735   0.1832   0.1850   0.1965   0.1985   0.2050   0.2079
  0.2190   0.2243   0.2357   0.2474   0.2541   0.2613   0.2674   0.2736
  0.2739   0.2806   0.2818   0.2837   0.2891   0.2923   0.2952   0.3093
  0.3143   0.3189   0.3222   0.3235   0.3331   0.3344   0.3438   0.3498
  0.3516   0.3610   0.3632   0.3690   0.3744   0.3759   0.3800   0.3846
  0.3882   0.3919   0.3989   0.4026   0.4082   0.4121   0.4144   0.4280
  0.4301   0.4374   0.4380   0.4421   0.4452   0.4539   0.4562   0.4708
  0.4758   0.4833   0.4890   0.5011   0.5124   0.5204   0.5402   0.5643
  0.5746   0.5824   0.6041   0.6165   0.6284   0.6317   0.6395   0.6464
  0.6590   0.6675   0.6710   0.6858   0.6945   0.6991   0.7106   0.7155
  0.7326   0.7394   0.7433   0.7559   0.7686   0.7728   0.7813   0.7916
  0.7985   0.8100   0.8249   0.8409   0.8568   0.8753   0.8795   0.8876
  0.9091   0.9246   0.9512   0.9518   0.9622   0.9791   0.9908   1.0207
  1.0282   1.0367   1.0479   1.0670   1.0777   1.0804   1.0927   1.1111
  1.1168   1.1233   1.1415   1.1445   1.1556   1.1658   1.1730   1.1776
  1.1856   1.1913   1.2037   1.2092   1.2104   1.2173   1.2260   1.2370
  1.2426   1.2493   1.2612   1.2685   1.2746   1.2815   1.2907   1.2957
  1.3070   1.3150   1.3232   1.3313   1.3492   1.3516   1.3585   1.3742
  1.3827   1.3943   1.4145   1.4240   1.4251   1.4435   1.4574   1.4722
  1.4762   1.4889   1.4998   1.5079   1.5149   1.5298   1.5354   1.5413
  1.5496   1.5704   1.5792   1.5924   1.6205   1.6223   1.6351   1.6403
  1.6530   1.6647   1.6835   1.6976   1.7100   1.7149   1.7321   1.7379
  1.7514   1.7694   1.7806   1.8064   1.8191   1.8310   1.8735   1.8917
  1.9089   1.9259   1.9396   1.9426   1.9533   1.9711   2.0020   2.0090
  2.0336   2.0413   2.0701   2.0840   2.0932   2.1485   2.1742   2.1785
  2.2111   2.2203   2.2530   2.2655   2.2840   2.3327   2.3455   2.3552
  2.3780   2.3940   2.4008   2.4130   2.4242   2.4431   2.4589   2.4749
  2.4798   2.4976   2.5123   2.5271   2.5502   2.5824   2.5870   2.6413
  2.7052   2.7101   2.7820   2.7926   2.8214   2.8285   2.8319   2.8606
  2.8665   2.9079   2.9112   2.9348   2.9496   2.9919   3.0320   3.0561
  3.0640   3.0769   3.1274   3.1523   3.1913   3.2066   3.2187   3.2513
  3.2598   3.2791   3.3101   3.3190   3.3432   3.3783   3.3858   3.4049
  3.4128   3.4333   3.4476   3.4685   3.4965   3.5076   3.5299   3.5458
  3.5677   3.5998   3.6015   3.6159   3.6357   3.6475   3.6717   3.6833
  3.6932   3.7117   3.7253   3.7317   3.7510   3.7644   3.7782   3.7933
  3.8209   3.8281   3.8332   3.8394   3.8557   3.8588   3.8708   3.8874
  3.8941   3.9092   3.9217   3.9269   3.9501   3.9603   3.9678   3.9774
  4.0175   4.0383   4.0410   4.0729   4.1005   4.1158   4.1280   4.1548
  4.1657   4.1674   4.2049   4.2161   4.2319   4.2518   4.2590   4.2763
  4.2813   4.2988   4.3061   4.3388   4.3615   4.3689   4.3820   4.3985
  4.4070   4.4241   4.4318   4.4496   4.4719   4.4951   4.5199   4.5727
  4.5827   4.5900   4.6340   4.6582   4.6710   4.7132   4.7421   4.7868
  4.7923   4.8775   4.8972   5.0030   5.0534   5.0909   5.1394   5.1908
  5.2116   5.2247   5.2330   5.2441   5.2516   5.2618   5.2784   5.2854
  5.2912   5.2967   5.3014   5.3202   5.3230   5.3334   5.3416   5.3512
  5.3526   5.3648   5.3765   5.3907   5.3982   5.4083   5.4163   5.4341
  5.4459   5.4613   5.4858   5.4993   5.5077   5.5121   5.5178   5.5411
  5.5599   5.5671   5.5813   5.5912   5.6095   5.6133   5.6238   5.6408
  5.6463   5.6555   5.6694   5.6767   5.6874   5.7026   5.7245   5.7737
  5.7901   5.8197   5.8289   5.8430   5.9140   5.9618   5.9800   6.0175
  6.0354   6.0362   6.0639   6.0964   6.1143   6.1542   6.1575   6.1761
  6.2550   6.5048   6.5544   6.5859   6.7389   6.7558   6.7835   6.8271
  6.8721   6.9999   7.0221   7.0593   7.0790   7.0893   7.1110   7.1128
  7.1234   7.1498   7.1646   7.2579   7.2675   7.2719   7.2777   7.2918
  7.3103   7.3205   7.3256   7.3279   7.3491   7.3930   7.3973   7.4255
  7.4319   7.4479   7.4849   7.5044   7.5179   7.5362   7.5514   7.5941
  7.6173   7.6622   7.6694   7.6987   7.7058   7.7547   7.7818   7.8292
  7.8627   7.8726   7.8828   7.8956   7.9183   8.0273   8.2099  24.6333
 24.7645  24.8017  24.8431  24.8762  50.5001  50.5564  50.6056  50.6121
 50.6290  50.6455  50.6698  50.7167
 --------------------------------------------------------------
 
          Ground-State Mulliken Net Atomic Charges

     Atom                 Charge (a.u.)    Spin (a.u.)
  --------------------------------------------------------
      1 C                    -0.089562      -0.002756
      2 O                    -0.425240      -0.000073
      3 C                     0.148086       0.017350
      4 O                    -0.406574       0.001132
      5 C                    -0.687795      -0.034564
      6 C                     0.162561       0.074273
      7 O                    -0.159879       0.858565
      8 C                    -0.352473      -0.012289
      9 O                    -0.405542       0.005656
     10 O                    -0.421199       0.000316
     11 H                     0.306279       0.000061
     12 H                     0.335837      -0.000059
     13 H                     0.292387      -0.002836
     14 H                     0.299050       0.004223
     15 H                     0.322249       0.096462
     16 H                     0.268598      -0.001528
     17 H                     0.339048      -0.000506
     18 H                     0.346800      -0.000670
     19 O                    -0.458488      -0.000087
     20 H                     0.353023      -0.000018
     21 O                    -0.146847       0.001635
     22 O                    -0.282912      -0.000731
     23 H                     0.327988      -0.002623
     24 H                     0.334605      -0.000933
  --------------------------------------------------------
  Sum of atomic charges =    -0.000000
  Sum of spin   charges =     1.000000

 -----------------------------------------------------------------
                    Cartesian Multipole Moments
 -----------------------------------------------------------------
    Charge (ESU x 10^10)
                -0.0000
    Dipole Moment (Debye)
         X       2.3693      Y       4.6729      Z      -2.7493
       Tot       5.9167
    Quadrupole Moments (Debye-Ang)
        XX     -56.8760     XY      21.3189     YY     -84.0460
        XZ      -9.1941     YZ      -8.5172     ZZ     -73.1900
    Octopole Moments (Debye-Ang^2)
       XXX    -795.4285    XXY      40.4043    XYY    -337.3230
       YYY     -43.5950    XXZ     -73.1637    XYZ     -41.6085
       YYZ     -24.3870    XZZ    -299.8781    YZZ     -31.1814
       ZZZ     -56.6781
    Hexadecapole Moments (Debye-Ang^3)
      XXXX   -7580.7690   XXXY    -626.1116   XXYY   -1903.1173
      XYYY    -519.7331   YYYY   -1688.0236   XXXZ    -749.7373
      XXYZ    -329.7495   XYYZ    -199.6478   YYYZ    -428.7152
      XXZZ   -1443.6741   XYZZ    -221.3062   YYZZ    -438.2958
      XZZZ    -326.6581   YZZZ    -270.0482   ZZZZ    -574.4039
 -----------------------------------------------------------------
 Total job time:  4483.09s(wall), 63390.71s(cpu) 
 Mon Jun 24 00:32:48 2024

        *************************************************************
        *                                                           *
        *  Thank you very much for using Q-Chem.  Have a nice day.  *
        *                                                           *
        *************************************************************


