
Running Job 1 of 2 Q_in.in
qchem Q_in.in_210880.0 /scratch/ari.fischer/qChem2188628.hpc-mn1/qchem210880/ 0
/usr/local/qchem-5.4.1/exe/qcprog.exe_s Q_in.in_210880.0 /scratch/ari.fischer/qChem2188628.hpc-mn1/qchem210880/
                  Welcome to Q-Chem
     A Quantum Leap Into The Future Of Chemistry


 Q-Chem 5.4, Q-Chem, Inc., Pleasanton, CA (2021)

 License issued to: Nanyang Technological University (site)

 E. Epifanovsky,  A. T. B. Gilbert,  Xintian Feng,  Joonho Lee,  Yuezhi Mao,  
 N. Mardirossian,  P. Pokhilko,  A. White,  M. Wormit,  M. P. Coons,  
 A. L. Dempwolff,  Zhengting Gan,  D. Hait,  P. R. Horn,  L. D. Jacobson,  
 I. Kaliman,  J. Kussmann,  A. W. Lange,  Ka Un Lao,  D. S. Levine,  Jie Liu,  
 S. C. McKenzie,  A. F. Morrison,  K. Nanda,  F. Plasser,  D. R. Rehn,  
 M. L. Vidal,  Zhi-Qiang You,  Ying Zhu,  B. Alam,  B. Albrecht,  
 A. Aldossary,  E. Alguire,  J. H. Andersen,  D. Barton,  K. Begam,  A. Behn,  
 Y. A. Bernard,  E. J. Berquist,  H. Burton,  A. Carreras,  K. Carter-Fenk,  
 R. Chakraborty,  A. D. Chien,  K. D. Closser,  V. Cofer-Shabica,  
 S. Dasgupta,  Jia Deng,  M. de Wergifosse,  M. Diedenhofen,  Hainam Do,  
 S. Ehlert,  Po-Tung Fang,  S. Fatehi,  Qingguo Feng,  T. Friedhoff,  
 J. Gayvert,  Qinghui Ge,  G. Gidofalvi,  M. Goldey,  J. Gomes,  
 C. Gonzalez-Espinoza,  S. Gulania,  A. Gunina,  M. W. D. Hanson-Heine,  
 P. H. P. Harbach,  A. W. Hauser,  M. F. Herbst,  M. Hernandez Vera,  
 M. Hodecker,  Z. C. Holden,  S. Houck,  Xunkun Huang,  Kerwin Hui,  
 B. C. Huynh,  M. Ivanov,  Hyunjun Ji,  Hanjie Jiang,  B. Kaduk,  S. Kaehler,  
 K. Khistyaev,  Jaehoon Kim,  P. Klunzinger,  Z. Koczor-Benda,  
 Joong Hoon Koh,  D. Kosenkov,  L. Koulias,  T. Kowalczyk,  C. M. Krauter,  
 K. Kue,  A. Kunitsa,  T. Kus,  A. Landau,  K. V. Lawler,  D. Lefrancois,  
 S. Lehtola,  Rain Li,  Yi-Pei Li,  Jiashu Liang,  M. Liebenthal,  
 Hung-Hsuan Lin,  You-Sheng Lin,  Fenglai Liu,  Kuan-Yu Liu,  
 M. Loipersberger,  A. Luenser,  A. Manjanath,  P. Manohar,  E. Mansoor,  
 S. F. Manzer,  Shan-Ping Mao,  A. V. Marenich,  T. Markovich,  S. Mason,  
 S. A. Maurer,  P. F. McLaughlin,  M. F. S. J. Menger,  J.-M. Mewes,  
 S. A. Mewes,  P. Morgante,  J. W. Mullinax,  K. J. Oosterbaan,  G. Paran,  
 Alexander C. Paul,  Suranjan K. Paul,  F. Pavosevic,  Zheng Pei,  S. Prager,  
 E. I. Proynov,  E. Ramos,  B. Rana,  A. E. Rask,  A. Rettig,  R. M. Richard,  
 F. Rob,  E. Rossomme,  T. Scheele,  M. Scheurer,  M. Schneider,  
 N. Sergueev,  S. M. Sharada,  W. Skomorowski,  D. W. Small,  C. J. Stein,  
 Yu-Chuan Su,  E. J. Sundstrom,  Zhen Tao,  J. Thirman,  T. Tsuchimochi,  
 N. M. Tubman,  S. P. Veccham,  O. Vydrov,  J. Wenzel,  J. Witte,  A. Yamada,  
 Kun Yao,  S. Yeganeh,  S. R. Yost,  A. Zech,  Igor Ying Zhang,  Xing Zhang,  
 Yu Zhang,  D. Zuev,  A. Aspuru-Guzik,  A. T. Bell,  N. A. Besley,  
 K. B. Bravaya,  B. R. Brooks,  D. Casanova,  Jeng-Da Chai,  S. Coriani,  
 C. J. Cramer,  A. E. DePrince, III,  R. A. DiStasio Jr.,  A. Dreuw,  
 B. D. Dunietz,  T. R. Furlani,  W. A. Goddard III,  S. Grimme,  
 S. Hammes-Schiffer,  T. Head-Gordon,  W. J. Hehre,  Chao-Ping Hsu,  
 T.-C. Jagau,  Yousung Jung,  A. Klamt,  Jing Kong,  D. S. Lambrecht,  
 WanZhen Liang,  N. J. Mayhall,  C. W. McCurdy,  J. B. Neaton,  
 C. Ochsenfeld,  J. A. Parkhill,  R. Peverati,  V. A. Rassolov,  Yihan Shao,  
 L. V. Slipchenko,  T. Stauch,  R. P. Steele,  J. E. Subotnik,  
 A. J. W. Thom,  A. Tkatchenko,  D. G. Truhlar,  T. Van Voorhis,  
 T. A. Wesolowski,  K. B. Whaley,  H. L. Woodcock III,  P. M. Zimmerman,  
 S. Faraji,  P. M. W. Gill,  M. Head-Gordon,  J. M. Herbert,  A. I. Krylov

 Additional authors for Version 5.4.1: 
 S. Kotaru,  Shaozhi Li,  Xiangyuan Li,  F. Matz,  A. Molle,  Haisheng Ren,  
 Yingli Su,  Hung-Yi Tsai,  C. Utku,  Fang Wang

 Contributors to earlier versions of Q-Chem not listed above: 
 R. D. Adamson,  B. Austin,  R. Baer,  J. Baker,  G. J. O. Beran,  
 K. Brandhorst,  S. T. Brown,  E. F. C. Byrd,  A. K. Chakraborty,  
 G. K. L. Chan,  Chun-Min Chang,  Yunqing Chen,  C.-L. Cheng,  
 Siu Hung Chien,  D. M. Chipman,  D. L. Crittenden,  H. Dachsel,  
 R. J. Doerksen,  A. D. Dutoi,  R. G. Edgar,  J. Fosso-Tande,  
 L. Fusti-Molnar,  D. Ghosh,  A. Ghysels,  A. Golubeva-Zadorozhnaya,  
 J. Gonthier,  M. S. Gordon,  S. R. Gwaltney,  G. Hawkins,  J. E. Herr,  
 A. Heyden,  S. Hirata,  E. G. Hohenstein,  G. Kedziora,  F. J. Keil,  
 C. Kelley,  Jihan Kim,  R. A. King,  R. Z. Khaliullin,  P. P. Korambath,  
 W. Kurlancheek,  A. Laurent,  A. M. Lee,  M. S. Lee,  S. V. Levchenko,  
 Ching Yeh Lin,  D. Liotard,  E. Livshits,  R. C. Lochan,  I. Lotan,  
 L. A. Martinez-Martinez,  P. E. Maslen,  N. Nair,  D. P. O'Neill,  
 D. Neuhauser,  E. Neuscamman,  C. M. Oana,  R. Olivares-Amaya,  R. Olson,  
 T. M. Perrine,  B. Peters,  P. A. Pieniazek,  A. Prociuk,  Y. M. Rhee,  
 J. Ritchie,  M. A. Rohrdanz,  E. Rosta,  N. J. Russ,  H. F. Schaefer III,  
 M. W. Schmidt,  N. E. Schultz,  S. Sharma,  N. Shenvi,  C. D. Sherrill,  
 A. C. Simmonett,  A. Sodt,  T. Stein,  D. Stuck,  K. S. Thanthiriwatte,  
 V. Vanovschi,  L. Vogt,  Tao Wang,  A. Warshel,  M. A. Watson,  
 C. F. Williams,  Q. Wu,  X. Xu,  Jun Yang,  W. Zhang,  Yan Zhao

 Please cite Q-Chem as follows:
 Y. Shao et al., Mol. Phys. 113, 184-215 (2015)
 DOI: 10.1080/00268976.2014.952696

 Q-Chem 5.4.1 for Intel X86 EM64T Linux

 Parts of Q-Chem use Armadillo 9.800.1 (Horizon Scraper).
 http://arma.sourceforge.net/

 Q-Chem begins on Wed Jun 26 09:32:11 2024  

 Host: 
0

     Scratch files written to /scratch/ari.fischer/qChem2188628.hpc-mn1/qchem210880//
 Aug1521 |scratch|qcdevops|jenkins|workspace|build_RNUM 8249   
 Processing $rem in /usr/local/qchem-5.4.1/config/preferences:
 Processing $rem in /home/ari.fischer/.qchemrc:
 Symmetry turned off for PCM/SM12/SMD calculation


!!********************************************.
!!******************Warning*******************.
!!Desired Analytical derivatives not available.
!!Finite difference job might take a long time.
!!********************************************.
!!********************************************.


 2-order derivative to be evaluated numerically with 1-order analytical derivatives

 Checking the input file for inconsistencies... 	...done.

--------------------------------------------------------------
User input:
--------------------------------------------------------------
$molecule
0 2
C         2.2061888022   -0.3912348327   -0.9996898453
O         1.2227842394   -1.2870675761   -1.0007484292
C         2.3741059148    0.3616610544    0.2339615395
O         1.7635493558    0.0073435288    1.2489233895
C         3.2655976025    1.5851460072    0.2408110739
C         4.6860801315    1.3804075704   -0.2760325081
O         4.5858386057    1.3134600082   -1.7024234273
O         5.7529694518    0.6465461039   -2.2084783476
C         5.5916538362    2.5364075632    0.1587985201
O         5.8702245297    2.2937211428    1.5207790597
O         6.7611938370    2.6331063103   -0.6171970359
H         2.6711237542   -0.1069815985   -1.9367929098
H         1.1622179601   -1.7029726113   -1.8794048844
H         3.3134207865    1.9396186429    1.2734464858
H         2.7903719654    2.3715367623   -0.3616718392
H         5.1158668539    0.4421946247    0.0939896639
H         5.4699309791   -0.2887452119   -2.1413672452
H         5.0795299236    3.4973420966    0.0324199278
H         6.2710218112    3.1022812460    1.8801181792
H         7.0750637066    1.7290899968   -0.7942326548
O         3.8102632200   -1.8216709512   -0.4379108024
O         4.8058854326   -1.9042710767   -1.1570366102
$end

$rem
BASIS = 6-311++G(2df,2p)
GUI = 2
JOB_TYPE = Frequency
METHOD = wB97M-V
SCF_ALGORITHM = DIIS_GDM
MAX_SCF_CYCLES = 400
SCF_CONVERGENCE = 6
THRESH = 11
solvent_method = SMD
$end

--------------------------------------------------------------
 ----------------------------------------------------------------
             Standard Nuclear Orientation (Angstroms)
    I     Atom           X                Y                Z
 ----------------------------------------------------------------
    1      C       2.2061888022    -0.3912348327    -0.9996898453
    2      O       1.2227842394    -1.2870675761    -1.0007484292
    3      C       2.3741059148     0.3616610544     0.2339615395
    4      O       1.7635493558     0.0073435288     1.2489233895
    5      C       3.2655976025     1.5851460072     0.2408110739
    6      C       4.6860801315     1.3804075704    -0.2760325081
    7      O       4.5858386057     1.3134600082    -1.7024234273
    8      O       5.7529694518     0.6465461039    -2.2084783476
    9      C       5.5916538362     2.5364075632     0.1587985201
   10      O       5.8702245297     2.2937211428     1.5207790597
   11      O       6.7611938370     2.6331063103    -0.6171970359
   12      H       2.6711237542    -0.1069815985    -1.9367929098
   13      H       1.1622179601    -1.7029726113    -1.8794048844
   14      H       3.3134207865     1.9396186429     1.2734464858
   15      H       2.7903719654     2.3715367623    -0.3616718392
   16      H       5.1158668539     0.4421946247     0.0939896639
   17      H       5.4699309791    -0.2887452119    -2.1413672452
   18      H       5.0795299236     3.4973420966     0.0324199278
   19      H       6.2710218112     3.1022812460     1.8801181792
   20      H       7.0750637066     1.7290899968    -0.7942326548
   21      O       3.8102632200    -1.8216709512    -0.4379108024
   22      O       4.8058854326    -1.9042710767    -1.1570366102
 ----------------------------------------------------------------
 Nuclear Repulsion Energy =         896.27599208 hartrees
 There are       52 alpha and       51 beta electrons
 Requested basis set is 6-311++G(2df,2p)
 There are 158 shells and 532 basis functions

 Total QAlloc Memory Limit 288000 MB
 Mega-Array Size       188 MB
 MEM_STATIC part       192 MB
 
 Citation of the SMD model:
 Marenich, A.V.; Cramer, C.J.; Truhlar, D.G.
 J. Phys. Chem. B 2009, 113, 6378-6396.
 iSolventCode=           1
 Solvent: water                                                           
 
 vradii
            1           2           3           4           5           6
    1   1.8500000   1.5200000   1.8500000   1.5200000   1.8500000   1.8500000
            7           8           9          10          11          12
    1   1.5200000   1.5200000   1.8500000   1.5200000   1.5200000   1.2000000
           13          14          15          16          17          18
    1   1.2000000   1.2000000   1.2000000   1.2000000   1.2000000   1.2000000
           19          20          21          22
    1   1.2000000   1.2000000   1.5200000   1.5200000
 Changing PCM_VDW_RADII to SMD_RADIUS
 Discretize the solute cavity surface with Lebedev spheres
	Using 110 Lebedev grid points for each H atom
	Using 194 Lebedev grid points for other atoms
	Atomic van der Waals radii will be scaled by 1.20
 Remove points where switching function is < 1.0e-08
 Keep 1790 surface tesserae and discard 1722 interior tesserae
 Molecular Surface Area = 197.917 Angst**2
 A cutoff of  1.0D-11 yielded  10218 shell pairs
 There are    113008 function pairs (    140125 Cartesian)
 Smallest overlap matrix eigenvalue = 5.86E-06
 Guess from superposition of atomic densities
 Warning:  Energy on first SCF cycle will be non-variational
 SAD guess density has 103.000000 electrons

 -----------------------------------------------------------------------
  General SCF calculation program by
  Eric Jon Sundstrom, Paul Horn, Yuezhi Mao, Dmitri Zuev, Alec White,
  David Stuck, Shaama M.S., Shane Yost, Joonho Lee, David Small,
  Daniel Levine, Susi Lehtola, Hugh Burton, Evgeny Epifanovsky,
  Bang C. Huynh
 -----------------------------------------------------------------------
 Exchange:     0.1500 Hartree-Fock + 1.0000 wB97M-V + LR-HF
 Correlation:  1.0000 wB97M-V
 Using SG-2 standard quadrature grid
 Nonlocal Correlation:  VV10 with C = 0.0100 and b = 6.00 and scale = 1.00000
 Grid used for NLC:  SG-1 standard quadrature
 using 16 threads for integral computing
 -------------------------------------------------------
 OpenMP Integral computing Module                
 Release: version 1.0, May 2013, Q-Chem Inc. Pittsburgh 
 -------------------------------------------------------
 
 Citation of the SMD model:
 Marenich, A.V.; Cramer, C.J.; Truhlar, D.G.
 J. Phys. Chem. B 2009, 113, 6378-6396.
 iSolventCode=           1
 Solvent: water                                                           
 
 vradii
            1           2           3           4           5           6
    1   1.8500000   1.5200000   1.8500000   1.5200000   1.8500000   1.8500000
            7           8           9          10          11          12
    1   1.5200000   1.5200000   1.8500000   1.5200000   1.5200000   1.2000000
           13          14          15          16          17          18
    1   1.2000000   1.2000000   1.2000000   1.2000000   1.2000000   1.2000000
           19          20          21          22
    1   1.2000000   1.2000000   1.5200000   1.5200000
 -------------------------------------------------------
 OpenMP BLAS3 based DFT computing Module                
 Release: version 1.0, May 2013, Q-Chem Inc. Pittsburgh 
 -------------------------------------------------------
 A unrestricted SCF calculation will be
 performed using DIIS, GDM
 SCF converges when RMS gradient is below 1.0e-06
 ---------------------------------------
  Cycle       Energy         DIIS error
 ---------------------------------------
    1    -799.8537711516      1.06e-02  
    2    -797.3084023610      1.39e-03  Done DIIS. Switching to GDM
 ---------------------------------------
  Cycle       Energy        RMS Gradient
 ---------------------------------------
    1    -797.3084023610      1.02e-01   Descent step
    2    -797.4941434998      2.56e-02   Normal BFGS step
    3    -797.5282910066      3.06e-02   Normal BFGS step
    4    -797.5316467914      1.54e-02   Normal BFGS step
    5    -797.5335405431      1.68e-02   Normal BFGS step
    6    -797.5340436900      1.38e-02   Normal BFGS step
    7    -797.5350373286      1.67e-02   Dog-leg BFGS step
    8    -797.5310870927      6.50e-02  Line search: overstep
    9    -797.5363691719      2.15e-02   Normal BFGS step
   10    -797.5369066354      3.50e-02   Normal BFGS step
   11    -797.5389417857      2.63e-02   Normal BFGS step
   12    -797.5408896090      1.64e-02   Normal BFGS step
   13    -797.5421030671      6.88e-03   Normal BFGS step
   14    -797.5426296632      2.82e-03   Normal BFGS step
   15    -797.5427229182      2.17e-03   Normal BFGS step
   16    -797.5427577356      1.55e-03   Normal BFGS step
   17    -797.5427663537      9.00e-04   Normal BFGS step
   18    -797.5427692376      6.00e-04   Normal BFGS step
   19    -797.5427705060      2.95e-04   Normal BFGS step
   20    -797.5427708497      1.15e-04   Normal BFGS step
   21    -797.5427709819      3.06e-05   Normal BFGS step
   22    -797.5427709982      1.94e-05   Normal BFGS step
   23    -797.5427710027      5.86e-06   Normal BFGS step
   24    -797.5427710037      5.46e-06   Normal BFGS step
   25    -797.5427710041      3.46e-06   Normal BFGS step
   26    -797.5427710037      1.82e-06   Normal BFGS step
   27    -797.5427710036      7.31e-07  Convergence criterion met
 ---------------------------------------
 SCF time:   CPU 5547.21s  wall 388.00s 
<S^2> =          1.403069671
(3)  G-ENP(liq) elect-nuc-pol free energy of system     -797.542771004 a.u.
(4)  G-CDS(liq) cavity-dispersion-solvent structure 
     free energy                                                4.5900 kcal/mol
(6)  G-S(liq) free energy of system                     -797.535456422 a.u.
 SCF   energy in the final basis set =     -797.5354564220
 Total energy in the final basis set =     -797.5354564220
 
 --------------------------------------------------------------
 
                    Orbital Energies (a.u.)
 --------------------------------------------------------------
 
 Alpha MOs
 -- Occupied --
-19.4846 -19.4603 -19.4057 -19.3957 -19.3952 -19.3471 -19.3447 -19.3322
-10.4463 -10.4447 -10.4357 -10.4091 -10.3558  -1.3992  -1.2692  -1.2246
 -1.1995  -1.1708  -1.1345  -1.0543  -0.9584  -0.9124  -0.8533  -0.8062
 -0.7408  -0.6899  -0.6839  -0.6727  -0.6542  -0.6515  -0.6414  -0.6341
 -0.6267  -0.5979  -0.5840  -0.5625  -0.5620  -0.5387  -0.5318  -0.5239
 -0.5060  -0.4909  -0.4790  -0.4633  -0.4500  -0.4278  -0.4230  -0.4093
 -0.4026  -0.3990  -0.3884  -0.3721
 -- Virtual --
 -0.0179   0.0285   0.0344   0.0391   0.0483   0.0575   0.0657   0.0682
  0.0730   0.0839   0.0926   0.1091   0.1128   0.1173   0.1260   0.1287
  0.1358   0.1410   0.1431   0.1516   0.1540   0.1606   0.1639   0.1681
  0.1723   0.1851   0.1887   0.1911   0.1963   0.2013   0.2118   0.2141
  0.2308   0.2348   0.2440   0.2559   0.2574   0.2637   0.2671   0.2731
  0.2796   0.2865   0.2938   0.3028   0.3042   0.3091   0.3110   0.3144
  0.3242   0.3275   0.3331   0.3371   0.3402   0.3453   0.3509   0.3559
  0.3591   0.3639   0.3664   0.3750   0.3802   0.3823   0.3892   0.3907
  0.3949   0.3985   0.4009   0.4133   0.4270   0.4303   0.4405   0.4477
  0.4489   0.4527   0.4674   0.4781   0.4810   0.4885   0.4997   0.5110
  0.5157   0.5403   0.5467   0.5685   0.5987   0.6062   0.6071   0.6127
  0.6273   0.6390   0.6499   0.6587   0.6623   0.6780   0.6817   0.6841
  0.7028   0.7102   0.7227   0.7326   0.7393   0.7510   0.7601   0.7686
  0.7774   0.7861   0.8006   0.8137   0.8296   0.8403   0.8464   0.8692
  0.8837   0.8961   0.9087   0.9093   0.9386   0.9523   0.9685   0.9782
  0.9948   1.0045   1.0176   1.0294   1.0425   1.0721   1.0826   1.0856
  1.1014   1.1137   1.1222   1.1350   1.1408   1.1460   1.1574   1.1622
  1.1698   1.1780   1.1837   1.1957   1.1977   1.2133   1.2153   1.2230
  1.2376   1.2437   1.2485   1.2544   1.2639   1.2700   1.2833   1.2899
  1.3035   1.3075   1.3196   1.3275   1.3398   1.3437   1.3595   1.3635
  1.3693   1.3906   1.4003   1.4040   1.4179   1.4373   1.4483   1.4522
  1.4634   1.4760   1.4818   1.4908   1.5032   1.5141   1.5229   1.5393
  1.5478   1.5647   1.5789   1.5866   1.5983   1.6124   1.6145   1.6225
  1.6453   1.6754   1.6833   1.6898   1.7047   1.7206   1.7340   1.7431
  1.7642   1.7655   1.7852   1.8098   1.8126   1.8239   1.8499   1.8517
  1.8829   1.9032   1.9102   1.9529   1.9679   1.9757   2.0128   2.0222
  2.0518   2.0741   2.1022   2.1245   2.1433   2.1657   2.1984   2.2011
  2.2610   2.2853   2.3044   2.3300   2.3399   2.3419   2.3587   2.3778
  2.3872   2.4072   2.4307   2.4466   2.4614   2.4700   2.5078   2.5198
  2.5632   2.6167   2.6700   2.6947   2.7242   2.7347   2.7365   2.7893
  2.7904   2.8076   2.8095   2.8453   2.8750   2.8898   2.9128   2.9305
  2.9709   2.9800   3.0032   3.0503   3.0617   3.0723   3.0918   3.1246
  3.1325   3.1637   3.1895   3.1937   3.2064   3.2260   3.2608   3.2772
  3.3129   3.3321   3.3404   3.3714   3.3891   3.4040   3.4305   3.4399
  3.4479   3.4723   3.4844   3.5041   3.5119   3.5373   3.5603   3.5794
  3.5898   3.6100   3.6328   3.6615   3.6766   3.7000   3.7081   3.7143
  3.7380   3.7528   3.7753   3.7904   3.7980   3.8098   3.8269   3.8457
  3.8595   3.8703   3.8851   3.8870   3.9193   3.9337   3.9527   3.9841
  3.9879   4.0022   4.0154   4.0335   4.0898   4.1180   4.1241   4.1458
  4.1653   4.1949   4.2129   4.2339   4.2620   4.2685   4.2744   4.2879
  4.3223   4.3405   4.3411   4.3492   4.3744   4.3906   4.4138   4.4508
  4.4950   4.5134   4.5205   4.5348   4.5715   4.6078   4.6187   4.6239
  4.6329   4.6683   4.6748   4.7062   4.7182   4.7696   4.7936   4.8076
  4.8543   4.8944   4.9359   4.9610   4.9696   4.9914   5.0145   5.0401
  5.0538   5.0787   5.1416   5.1523   5.1609   5.1882   5.1930   5.2027
  5.2077   5.2226   5.2331   5.2522   5.2544   5.2691   5.2731   5.2798
  5.2877   5.2988   5.3006   5.3165   5.3314   5.3387   5.3471   5.3631
  5.3864   5.4029   5.4291   5.4574   5.4698   5.4897   5.5022   5.5177
  5.5405   5.5510   5.5583   5.5824   5.6041   5.6064   5.6204   5.6304
  5.6506   5.6655   5.6781   5.6812   5.7189   5.7225   5.7337   5.7393
  5.7813   5.8129   5.8380   5.8870   5.9621   5.9812   6.0085   6.0573
  6.1057   6.1687   6.2224   6.2404   6.3399   6.5257   6.6366   6.7261
  6.7418   6.7459   6.7611   6.7799   6.8003   6.8249   6.8364   6.8971
  6.9363   6.9829   7.0025   7.0186   7.0378   7.0479   7.0569   7.0762
  7.0862   7.1205   7.1490   7.1682   7.1873   7.2458   7.2610   7.2862
  7.3031   7.3056   7.3116   7.3433   7.3486   7.3618   7.3816   7.4081
  7.4140   7.4290   7.4538   7.4812   7.5344   7.5927   7.5999   7.6544
  7.6885   7.7082   7.8040   7.8096   7.8425   7.8453   7.9044   7.9716
  8.1054   8.1288   8.2007  24.6273  24.7326  24.7607  24.8238  25.0880
 50.4729  50.4864  50.5120  50.5932  50.6057  50.6136  50.6284  50.7517
 
 Beta MOs
 -- Occupied --
-19.4568 -19.4351 -19.4057 -19.3986 -19.3955 -19.3471 -19.3447 -19.3364
-10.4463 -10.4448 -10.4427 -10.4092 -10.3557  -1.3492  -1.2690  -1.2324
 -1.1995  -1.1779  -1.1345  -1.0541  -0.9168  -0.8893  -0.8582  -0.8092
 -0.7409  -0.6904  -0.6845  -0.6738  -0.6399  -0.6297  -0.6208  -0.6003
 -0.5878  -0.5719  -0.5665  -0.5626  -0.5519  -0.5405  -0.5325  -0.5293
 -0.5113  -0.4990  -0.4861  -0.4635  -0.4580  -0.4278  -0.4212  -0.4091
 -0.3938  -0.3757  -0.2958
 -- Virtual --
 -0.0320  -0.0176   0.0287   0.0344   0.0395   0.0484   0.0578   0.0662
  0.0683   0.0736   0.0841   0.0927   0.1005   0.1101   0.1153   0.1190
  0.1275   0.1345   0.1421   0.1432   0.1508   0.1547   0.1611   0.1641
  0.1685   0.1726   0.1850   0.1896   0.1912   0.1965   0.2013   0.2132
  0.2148   0.2329   0.2370   0.2455   0.2555   0.2584   0.2657   0.2684
  0.2733   0.2806   0.2863   0.2937   0.2997   0.3067   0.3110   0.3142
  0.3165   0.3262   0.3271   0.3343   0.3379   0.3405   0.3444   0.3525
  0.3566   0.3591   0.3640   0.3676   0.3750   0.3808   0.3821   0.3903
  0.3914   0.3981   0.4011   0.4066   0.4143   0.4273   0.4297   0.4412
  0.4489   0.4498   0.4542   0.4659   0.4775   0.4808   0.4896   0.4994
  0.5111   0.5146   0.5364   0.5463   0.5673   0.5975   0.6047   0.6062
  0.6109   0.6268   0.6380   0.6502   0.6580   0.6619   0.6758   0.6800
  0.6838   0.7007   0.7079   0.7223   0.7325   0.7384   0.7491   0.7592
  0.7660   0.7749   0.7841   0.7980   0.8103   0.8289   0.8373   0.8457
  0.8681   0.8786   0.8929   0.9087   0.9099   0.9404   0.9523   0.9681
  0.9797   0.9949   1.0058   1.0184   1.0298   1.0438   1.0755   1.0833
  1.0876   1.1063   1.1158   1.1231   1.1406   1.1437   1.1524   1.1579
  1.1662   1.1742   1.1839   1.1887   1.1963   1.2006   1.2131   1.2155
  1.2243   1.2406   1.2435   1.2496   1.2573   1.2668   1.2747   1.2842
  1.2954   1.3134   1.3149   1.3218   1.3295   1.3405   1.3445   1.3593
  1.3635   1.3737   1.3933   1.4010   1.4119   1.4211   1.4368   1.4502
  1.4542   1.4675   1.4769   1.4873   1.4978   1.5031   1.5161   1.5291
  1.5450   1.5516   1.5641   1.5760   1.5855   1.6052   1.6129   1.6235
  1.6316   1.6467   1.6775   1.6851   1.6926   1.7090   1.7252   1.7420
  1.7475   1.7694   1.7769   1.7864   1.8105   1.8153   1.8246   1.8492
  1.8619   1.8804   1.9038   1.9177   1.9481   1.9684   1.9768   2.0131
  2.0219   2.0555   2.0759   2.1040   2.1245   2.1510   2.1638   2.1950
  2.2007   2.2604   2.2968   2.3075   2.3355   2.3458   2.3465   2.3702
  2.3894   2.3947   2.4086   2.4298   2.4463   2.4570   2.4696   2.5127
  2.5185   2.5622   2.6135   2.6745   2.6914   2.7236   2.7252   2.7324
  2.7869   2.7880   2.8020   2.8054   2.8332   2.8721   2.8867   2.9060
  2.9145   2.9607   2.9772   2.9966   3.0383   3.0487   3.0624   3.0841
  3.1206   3.1289   3.1509   3.1801   3.1851   3.1983   3.2211   3.2522
  3.2728   3.3050   3.3155   3.3353   3.3586   3.3739   3.3963   3.4243
  3.4307   3.4440   3.4615   3.4800   3.4932   3.5076   3.5327   3.5464
  3.5645   3.5871   3.6059   3.6216   3.6529   3.6727   3.6934   3.6947
  3.7030   3.7314   3.7499   3.7699   3.7865   3.7959   3.8049   3.8245
  3.8418   3.8548   3.8655   3.8790   3.8860   3.9178   3.9323   3.9465
  3.9771   3.9819   3.9999   4.0145   4.0311   4.0875   4.1152   4.1213
  4.1427   4.1637   4.1940   4.2099   4.2309   4.2561   4.2606   4.2726
  4.2802   4.3094   4.3371   4.3398   4.3456   4.3669   4.3891   4.4118
  4.4464   4.4895   4.5122   4.5206   4.5355   4.5934   4.6172   4.6299
  4.6372   4.6539   4.6686   4.6903   4.7288   4.7463   4.7623   4.7957
  4.8067   4.8512   4.8887   4.9359   5.0066   5.0104   5.0281   5.0419
  5.0451   5.0785   5.1257   5.1807   5.1895   5.1928   5.2025   5.2064
  5.2221   5.2307   5.2426   5.2526   5.2609   5.2651   5.2732   5.2747
  5.2908   5.2989   5.3051   5.3189   5.3334   5.3416   5.3466   5.3602
  5.3760   5.3869   5.4097   5.4285   5.4554   5.4691   5.4875   5.4977
  5.5148   5.5384   5.5433   5.5577   5.5729   5.6040   5.6055   5.6202
  5.6266   5.6450   5.6632   5.6768   5.6780   5.7186   5.7307   5.7661
  5.7750   5.7854   5.8127   5.8379   5.8865   5.9504   5.9689   6.0074
  6.0573   6.1057   6.1686   6.2206   6.2358   6.3286   6.5259   6.6404
  6.7425   6.7880   6.7957   6.7971   6.8206   6.8367   6.8692   6.8938
  6.9689   6.9845   7.0109   7.0226   7.0312   7.0574   7.0614   7.0724
  7.0925   7.1121   7.1496   7.1564   7.1800   7.2081   7.2459   7.2611
  7.2822   7.3012   7.3045   7.3226   7.3451   7.3521   7.3661   7.3817
  7.4116   7.4209   7.4476   7.4697   7.4976   7.5344   7.5877   7.6014
  7.6544   7.6871   7.7031   7.8041   7.8056   7.8349   7.8451   7.9044
  7.9719   8.1501   8.1517   8.2013  24.6272  24.7305  24.7585  24.8235
 25.0851  50.4931  50.5066  50.5127  50.5929  50.6056  50.6119  50.6284
 50.7487
 --------------------------------------------------------------
 
          Ground-State Mulliken Net Atomic Charges

     Atom                 Charge (a.u.)    Spin (a.u.)
  --------------------------------------------------------
      1 C                    -0.279289      -0.460682
      2 O                    -0.288804      -0.099814
      3 C                     0.381947      -0.033979
      4 O                    -0.505823      -0.156385
      5 C                    -0.429431      -0.011390
      6 C                    -0.221098       0.014140
      7 O                    -0.066136      -0.003563
      8 O                    -0.359168       0.004919
      9 C                    -0.149061      -0.001920
     10 O                    -0.396761      -0.000047
     11 O                    -0.462479      -0.000095
     12 H                     0.312460       0.010161
     13 H                     0.364872       0.001888
     14 H                     0.229503       0.000193
     15 H                     0.256286      -0.004693
     16 H                     0.312434      -0.004854
     17 H                     0.357907       0.000062
     18 H                     0.285821       0.000006
     19 H                     0.343816      -0.000002
     20 H                     0.347458       0.000006
     21 O                     0.035898       0.897014
     22 O                    -0.070349       0.849038
  --------------------------------------------------------
  Sum of atomic charges =     0.000000
  Sum of spin   charges =     1.000000

 -----------------------------------------------------------------
                    Cartesian Multipole Moments
 -----------------------------------------------------------------
    Charge (ESU x 10^10)
                 0.0000
    Dipole Moment (Debye)
         X      -0.5378      Y      -0.4188      Z      -4.2921
       Tot       4.3458
    Quadrupole Moments (Debye-Ang)
        XX     -88.4174     XY      -5.7461     YY     -70.2041
        XZ       3.4240     YZ      16.3777     ZZ     -77.2669
    Octopole Moments (Debye-Ang^2)
       XXX   -1044.7500    XXY    -107.5918    XYY    -305.8771
       YYY    -115.8962    XXZ      95.6719    XYZ      74.3349
       YYZ      52.9583    XZZ    -333.4748    YZZ     -69.6935
       ZZZ      75.8506
    Hexadecapole Moments (Debye-Ang^3)
      XXXX   -9854.7966   XXXY   -1438.7612   XXYY   -1797.5804
      XYYY    -806.8615   YYYY   -1196.0897   XXXZ     878.0537
      XXYZ     406.0682   XYYZ     338.2096   YYYZ      56.9890
      XXZZ   -1750.3294   XYZZ    -366.6710   YYZZ    -296.4528
      XZZZ     449.6714   YZZZ      12.9099   ZZZZ    -662.0738
 -----------------------------------------------------------------
 Calculating analytic gradient of the SCF energy
 Gradient of CDS energy
            1           2           3           4           5           6
    1  -0.0029319   0.0025430  -0.0010934   0.0009106  -0.0000061   0.0000139
    2  -0.0020920   0.0021200  -0.0007083   0.0005758   0.0001941   0.0000486
    3  -0.0005883   0.0001500   0.0020361  -0.0014234   0.0001314  -0.0000586
            7           8           9          10          11          12
    1   0.0000290  -0.0001921   0.0023719  -0.0003035  -0.0022634   0.0002607
    2  -0.0001089   0.0002991   0.0002730   0.0000700  -0.0002525   0.0000011
    3   0.0000112   0.0000708  -0.0002335  -0.0014674   0.0013601   0.0000857
           13          14          15          16          17          18
    1  -0.0002163   0.0000843   0.0000060   0.0000298   0.0002047  -0.0001133
    2  -0.0002804   0.0000147   0.0001429  -0.0001087  -0.0002552   0.0000911
    3  -0.0002659   0.0001215  -0.0001694   0.0000034  -0.0002716  -0.0000286
           19          20          21          22
    1   0.0001624   0.0004708   0.0001231  -0.0000903
    2   0.0001770  -0.0001260   0.0000049  -0.0000804
    3   0.0004575  -0.0000434  -0.0000136   0.0001361
 Gradient of SCF Energy
            1           2           3           4           5           6
    1  -0.0041543  -0.0054934   0.0056980  -0.0070738   0.0051293  -0.0049297
    2   0.0013298   0.0081132   0.0041765  -0.0057200  -0.0188586   0.0162809
    3   0.0149435   0.0357672  -0.0016591   0.0073623   0.0002265  -0.0006855
            7           8           9          10          11          12
    1  -0.0008701   0.0102118   0.0108932  -0.0087419  -0.0006516   0.0092780
    2   0.0039364   0.0231230  -0.0114258  -0.0207357   0.0161470   0.0039575
    3  -0.0008301  -0.0057798  -0.0006707  -0.0012019  -0.0058259  -0.0214942
           13          14          15          16          17          18
    1   0.0001391   0.0002528  -0.0051341   0.0054631  -0.0100690  -0.0064698
    2  -0.0118308   0.0038619   0.0097163  -0.0127764  -0.0208200   0.0090588
    3  -0.0307495   0.0048706  -0.0076760   0.0018181   0.0049820   0.0000638
           19          20          21          22
    1   0.0062970   0.0012023  -0.0199154   0.0189385
    2   0.0179128  -0.0148670   0.0015934  -0.0021732
    3   0.0045497   0.0016878   0.0152710  -0.0149698
 Max gradient component =       3.577E-02
 RMS gradient           =       1.154E-02
 Computing fast CPCM-SWIG gradient
 Updating gradient with PCM contributions...
 -- total gradient after adding PCM contribution --
---------------------------------------------------
  Atom         X              Y              Z     
---------------------------------------------------
   1       0.004482      -0.000377      -0.002497
   2      -0.004631      -0.000468       0.008103
   3       0.000523       0.001199       0.000363
   4      -0.002985      -0.002207       0.004003
   5       0.000145      -0.000607      -0.001532
   6       0.000278       0.000857       0.000681
   7      -0.004236       0.000963      -0.001305
   8       0.007348       0.005716      -0.000906
   9       0.005241      -0.001564       0.000976
  10      -0.004785      -0.008459      -0.000100
  11      -0.001484       0.008188      -0.001768
  12       0.001297       0.001192      -0.003053
  13       0.000572      -0.002268      -0.006094
  14       0.000204       0.000800       0.003312
  15      -0.000979       0.002560      -0.001626
  16       0.001232      -0.002381       0.001047
  17      -0.003594      -0.006282       0.001394
  18      -0.001332       0.002667      -0.001328
  19       0.002896       0.006296       0.000919
  20       0.000273      -0.007087      -0.000093
  21      -0.013373       0.000965       0.009100
  22       0.012909       0.000296      -0.009595
---------------------------------------------------
 Number of fixed atoms: 0
 Gradient time:  CPU 509.73 s  wall 46.34 s
 ######################################################
 ######################################################
 # Starting finite difference calculation for IDERIV  #
 Finite diff step size:  1.88973e-03 a.u.
 ----------------------------------------------------------------
             Standard Nuclear Orientation (Angstroms)
    I     Atom           X                Y                Z
 ----------------------------------------------------------------
    1      C       2.2071888022    -0.3912348327    -0.9996898453
    2      O       1.2227842394    -1.2870675761    -1.0007484292
    3      C       2.3741059148     0.3616610544     0.2339615395
    4      O       1.7635493558     0.0073435288     1.2489233895
    5      C       3.2655976025     1.5851460072     0.2408110739
    6      C       4.6860801315     1.3804075704    -0.2760325081
    7      O       4.5858386057     1.3134600082    -1.7024234273
    8      O       5.7529694518     0.6465461039    -2.2084783476
    9      C       5.5916538362     2.5364075632     0.1587985201
   10      O       5.8702245297     2.2937211428     1.5207790597
   11      O       6.7611938370     2.6331063103    -0.6171970359
   12      H       2.6711237542    -0.1069815985    -1.9367929098
   13      H       1.1622179601    -1.7029726113    -1.8794048844
   14      H       3.3134207865     1.9396186429     1.2734464858
   15      H       2.7903719654     2.3715367623    -0.3616718392
   16      H       5.1158668539     0.4421946247     0.0939896639
   17      H       5.4699309791    -0.2887452119    -2.1413672452
   18      H       5.0795299236     3.4973420966     0.0324199278
   19      H       6.2710218112     3.1022812460     1.8801181792
   20      H       7.0750637066     1.7290899968    -0.7942326548
   21      O       3.8102632200    -1.8216709512    -0.4379108024
   22      O       4.8058854326    -1.9042710767    -1.1570366102
 ----------------------------------------------------------------
 Nuclear Repulsion Energy =         896.28176087 hartrees
 There are       52 alpha and       51 beta electrons
 Discretize the solute cavity surface with Lebedev spheres
	Using 110 Lebedev grid points for each H atom
	Using 194 Lebedev grid points for other atoms
	Atomic van der Waals radii will be scaled by 1.20
 Remove points where switching function is < 1.0e-08
 Keep 1791 surface tesserae and discard 1721 interior tesserae
 Molecular Surface Area = 197.912 Angst**2
 Requested basis set is 6-311++G(2df,2p)
 There are 158 shells and 532 basis functions
 A cutoff of  1.0D-11 yielded  10218 shell pairs
 There are    113008 function pairs (    140125 Cartesian)
 Smallest overlap matrix eigenvalue = 5.86E-06
 Guess MOs from SCF MO coefficient file

 -----------------------------------------------------------------------
  General SCF calculation program by
  Eric Jon Sundstrom, Paul Horn, Yuezhi Mao, Dmitri Zuev, Alec White,
  David Stuck, Shaama M.S., Shane Yost, Joonho Lee, David Small,
  Daniel Levine, Susi Lehtola, Hugh Burton, Evgeny Epifanovsky,
  Bang C. Huynh
 -----------------------------------------------------------------------
 Exchange:     0.1500 Hartree-Fock + 1.0000 wB97M-V + LR-HF
 Correlation:  1.0000 wB97M-V
 Using SG-2 standard quadrature grid
 Nonlocal Correlation:  VV10 with C = 0.0100 and b = 6.00 and scale = 1.00000
 Grid used for NLC:  SG-1 standard quadrature
 
 Citation of the SMD model:
 Marenich, A.V.; Cramer, C.J.; Truhlar, D.G.
 J. Phys. Chem. B 2009, 113, 6378-6396.
 iSolventCode=           1
 Solvent: water                                                           
 
 vradii
            1           2           3           4           5           6
    1   1.8500000   1.5200000   1.8500000   1.5200000   1.8500000   1.8500000
            7           8           9          10          11          12
    1   1.5200000   1.5200000   1.8500000   1.5200000   1.5200000   1.2000000
           13          14          15          16          17          18
    1   1.2000000   1.2000000   1.2000000   1.2000000   1.2000000   1.2000000
           19          20          21          22
    1   1.2000000   1.2000000   1.5200000   1.5200000
 -------------------------------------------------------
 OpenMP BLAS3 based DFT computing Module                
 Release: version 1.0, May 2013, Q-Chem Inc. Pittsburgh 
 -------------------------------------------------------
 A unrestricted SCF calculation will be
 performed using Roothaan-Hall, DIIS, GDM
 SCF converges when RMS gradient is below 1.0e-06
 ---------------------------------------
  Cycle       Energy         DIIS error
 ---------------------------------------
    1    -797.4777025562      2.38e-04  Roothaan Step
 ---------------------------------------
  Cycle       Energy         DIIS error
 ---------------------------------------
    1    -797.5257404747      2.98e-04  
    2    -797.5328632233      3.23e-04  Done DIIS. Switching to GDM
 ---------------------------------------
  Cycle       Energy        RMS Gradient
 ---------------------------------------
    1    -797.5328632233      2.83e-02   Normal BFGS step
    2    -797.5270974617      4.98e-02  Line search: overstep
    3    -797.5423245242      4.88e-03   Normal BFGS step
    4    -797.5426644546      2.44e-03   Normal BFGS step
    5    -797.5427257010      2.48e-03   Normal BFGS step
    6    -797.5427479289      9.03e-04   Normal BFGS step
    7    -797.5427515757      1.10e-03   Normal BFGS step
    8    -797.5427543757      7.56e-04   Normal BFGS step
    9    -797.5427554250      3.33e-04   Normal BFGS step
   10    -797.5427559532      1.66e-04   Normal BFGS step
   11    -797.5427561797      1.07e-04   Normal BFGS step
   12    -797.5427562831      4.08e-05   Normal BFGS step
   13    -797.5427563140      2.30e-05   Normal BFGS step
   14    -797.5427563204      2.39e-05   Normal BFGS step
   15    -797.5427563227      8.07e-06   Normal BFGS step
   16    -797.5427563231      5.66e-06   Normal BFGS step
   17    -797.5427563233      2.75e-06   Normal BFGS step
   18    -797.5427563226      1.91e-06   Normal BFGS step
   19    -797.5427563224      1.17e-06   Normal BFGS step
   20    -797.5427563217      5.28e-07  Convergence criterion met
 ---------------------------------------
 SCF time:   CPU 4344.51s  wall 306.00s 
<S^2> =          1.402516715
(3)  G-ENP(liq) elect-nuc-pol free energy of system     -797.542756322 a.u.
(4)  G-CDS(liq) cavity-dispersion-solvent structure 
     free energy                                                4.5865 kcal/mol
(6)  G-S(liq) free energy of system                     -797.535447299 a.u.
 SCF   energy in the final basis set =     -797.5354472995
 Total energy in the final basis set =     -797.5354472995
 
 --------------------------------------------------------------
 
                    Orbital Energies (a.u.)
 --------------------------------------------------------------
 
 Alpha MOs
 -- Occupied --
-19.4846 -19.4603 -19.4057 -19.3957 -19.3951 -19.3471 -19.3447 -19.3322
-10.4463 -10.4448 -10.4358 -10.4091 -10.3558  -1.3992  -1.2692  -1.2243
 -1.1995  -1.1708  -1.1345  -1.0543  -0.9585  -0.9124  -0.8534  -0.8062
 -0.7409  -0.6899  -0.6838  -0.6727  -0.6542  -0.6515  -0.6414  -0.6341
 -0.6267  -0.5979  -0.5840  -0.5625  -0.5620  -0.5387  -0.5318  -0.5238
 -0.5060  -0.4909  -0.4790  -0.4633  -0.4501  -0.4278  -0.4230  -0.4094
 -0.4026  -0.3990  -0.3885  -0.3721
 -- Virtual --
 -0.0180   0.0285   0.0344   0.0391   0.0483   0.0575   0.0657   0.0682
  0.0730   0.0839   0.0926   0.1091   0.1128   0.1173   0.1260   0.1287
  0.1358   0.1410   0.1431   0.1516   0.1541   0.1606   0.1640   0.1681
  0.1723   0.1851   0.1887   0.1911   0.1963   0.2013   0.2118   0.2141
  0.2309   0.2347   0.2440   0.2559   0.2574   0.2637   0.2671   0.2731
  0.2796   0.2865   0.2938   0.3028   0.3042   0.3091   0.3110   0.3144
  0.3243   0.3274   0.3332   0.3371   0.3402   0.3453   0.3509   0.3559
  0.3591   0.3639   0.3664   0.3750   0.3802   0.3823   0.3892   0.3907
  0.3949   0.3985   0.4009   0.4133   0.4270   0.4303   0.4405   0.4477
  0.4489   0.4526   0.4673   0.4781   0.4810   0.4885   0.4997   0.5110
  0.5157   0.5402   0.5467   0.5684   0.5987   0.6061   0.6071   0.6127
  0.6273   0.6390   0.6499   0.6586   0.6623   0.6780   0.6817   0.6841
  0.7028   0.7102   0.7227   0.7326   0.7393   0.7510   0.7601   0.7686
  0.7775   0.7861   0.8005   0.8137   0.8296   0.8403   0.8464   0.8692
  0.8836   0.8963   0.9087   0.9093   0.9386   0.9523   0.9685   0.9782
  0.9948   1.0045   1.0176   1.0294   1.0425   1.0721   1.0826   1.0856
  1.1014   1.1137   1.1222   1.1350   1.1409   1.1461   1.1574   1.1622
  1.1698   1.1780   1.1837   1.1957   1.1977   1.2133   1.2153   1.2230
  1.2376   1.2437   1.2485   1.2544   1.2639   1.2700   1.2833   1.2899
  1.3036   1.3075   1.3196   1.3275   1.3399   1.3437   1.3595   1.3635
  1.3693   1.3906   1.4002   1.4040   1.4179   1.4373   1.4484   1.4522
  1.4634   1.4760   1.4818   1.4908   1.5032   1.5141   1.5230   1.5392
  1.5478   1.5647   1.5790   1.5867   1.5983   1.6124   1.6145   1.6225
  1.6453   1.6754   1.6833   1.6897   1.7048   1.7205   1.7340   1.7430
  1.7642   1.7656   1.7851   1.8098   1.8126   1.8239   1.8499   1.8517
  1.8830   1.9032   1.9102   1.9529   1.9679   1.9757   2.0128   2.0222
  2.0519   2.0741   2.1020   2.1245   2.1433   2.1657   2.1984   2.2010
  2.2610   2.2853   2.3044   2.3299   2.3399   2.3419   2.3587   2.3778
  2.3872   2.4071   2.4307   2.4465   2.4612   2.4698   2.5078   2.5196
  2.5632   2.6166   2.6700   2.6946   2.7242   2.7347   2.7364   2.7893
  2.7904   2.8076   2.8094   2.8453   2.8750   2.8897   2.9128   2.9305
  2.9708   2.9800   3.0032   3.0503   3.0616   3.0724   3.0917   3.1246
  3.1326   3.1636   3.1896   3.1937   3.2064   3.2259   3.2609   3.2771
  3.3128   3.3320   3.3405   3.3713   3.3893   3.4038   3.4305   3.4397
  3.4479   3.4723   3.4844   3.5040   3.5120   3.5372   3.5603   3.5795
  3.5898   3.6100   3.6327   3.6614   3.6766   3.7001   3.7080   3.7144
  3.7379   3.7529   3.7753   3.7905   3.7981   3.8098   3.8270   3.8457
  3.8595   3.8703   3.8852   3.8870   3.9193   3.9337   3.9527   3.9842
  3.9880   4.0022   4.0154   4.0335   4.0899   4.1180   4.1240   4.1458
  4.1654   4.1949   4.2129   4.2339   4.2620   4.2685   4.2744   4.2879
  4.3224   4.3404   4.3411   4.3492   4.3746   4.3906   4.4138   4.4510
  4.4954   4.5135   4.5205   4.5348   4.5715   4.6078   4.6187   4.6240
  4.6330   4.6683   4.6748   4.7062   4.7183   4.7696   4.7937   4.8076
  4.8543   4.8945   4.9359   4.9610   4.9696   4.9914   5.0145   5.0402
  5.0539   5.0787   5.1417   5.1523   5.1610   5.1883   5.1930   5.2027
  5.2077   5.2225   5.2332   5.2521   5.2544   5.2691   5.2731   5.2796
  5.2877   5.2988   5.3006   5.3165   5.3315   5.3387   5.3471   5.3632
  5.3864   5.4030   5.4292   5.4575   5.4698   5.4896   5.5020   5.5177
  5.5405   5.5510   5.5582   5.5823   5.6041   5.6064   5.6204   5.6301
  5.6505   5.6654   5.6780   5.6811   5.7189   5.7225   5.7337   5.7395
  5.7813   5.8129   5.8380   5.8870   5.9610   5.9806   6.0085   6.0573
  6.1057   6.1687   6.2221   6.2391   6.3398   6.5257   6.6366   6.7261
  6.7418   6.7459   6.7611   6.7799   6.7996   6.8247   6.8357   6.8971
  6.9364   6.9829   7.0025   7.0186   7.0378   7.0479   7.0568   7.0762
  7.0862   7.1205   7.1490   7.1682   7.1873   7.2458   7.2610   7.2860
  7.3031   7.3054   7.3115   7.3432   7.3485   7.3617   7.3816   7.4081
  7.4140   7.4290   7.4538   7.4812   7.5344   7.5927   7.5999   7.6544
  7.6884   7.7078   7.8040   7.8095   7.8424   7.8453   7.9044   7.9716
  8.1054   8.1289   8.2007  24.6272  24.7321  24.7604  24.8237  25.0878
 50.4729  50.4864  50.5120  50.5932  50.6056  50.6133  50.6284  50.7516
 
 Beta MOs
 -- Occupied --
-19.4568 -19.4351 -19.4057 -19.3985 -19.3955 -19.3471 -19.3447 -19.3365
-10.4463 -10.4448 -10.4427 -10.4092 -10.3558  -1.3492  -1.2690  -1.2321
 -1.1995  -1.1779  -1.1345  -1.0541  -0.9169  -0.8893  -0.8582  -0.8092
 -0.7409  -0.6902  -0.6845  -0.6739  -0.6399  -0.6297  -0.6208  -0.6003
 -0.5878  -0.5719  -0.5665  -0.5626  -0.5519  -0.5405  -0.5325  -0.5292
 -0.5113  -0.4990  -0.4862  -0.4635  -0.4580  -0.4278  -0.4212  -0.4091
 -0.3938  -0.3757  -0.2959
 -- Virtual --
 -0.0321  -0.0176   0.0287   0.0344   0.0395   0.0484   0.0578   0.0662
  0.0683   0.0736   0.0841   0.0927   0.1005   0.1102   0.1153   0.1190
  0.1275   0.1345   0.1421   0.1432   0.1508   0.1547   0.1611   0.1641
  0.1685   0.1727   0.1850   0.1896   0.1912   0.1965   0.2013   0.2131
  0.2148   0.2329   0.2370   0.2455   0.2555   0.2584   0.2657   0.2684
  0.2733   0.2806   0.2863   0.2937   0.2997   0.3067   0.3110   0.3142
  0.3165   0.3262   0.3270   0.3343   0.3379   0.3405   0.3444   0.3525
  0.3566   0.3590   0.3640   0.3676   0.3750   0.3808   0.3821   0.3903
  0.3913   0.3980   0.4011   0.4066   0.4143   0.4272   0.4297   0.4412
  0.4489   0.4498   0.4542   0.4658   0.4775   0.4808   0.4896   0.4994
  0.5111   0.5146   0.5363   0.5463   0.5673   0.5975   0.6046   0.6062
  0.6109   0.6268   0.6380   0.6502   0.6579   0.6619   0.6757   0.6800
  0.6838   0.7007   0.7079   0.7223   0.7325   0.7384   0.7491   0.7592
  0.7660   0.7749   0.7842   0.7979   0.8103   0.8289   0.8373   0.8458
  0.8681   0.8785   0.8930   0.9087   0.9099   0.9404   0.9523   0.9681
  0.9797   0.9949   1.0058   1.0184   1.0298   1.0438   1.0755   1.0833
  1.0875   1.1063   1.1158   1.1232   1.1406   1.1438   1.1524   1.1579
  1.1662   1.1743   1.1839   1.1887   1.1963   1.2006   1.2131   1.2155
  1.2243   1.2406   1.2436   1.2496   1.2573   1.2668   1.2748   1.2842
  1.2954   1.3134   1.3150   1.3218   1.3295   1.3405   1.3445   1.3593
  1.3635   1.3738   1.3934   1.4009   1.4119   1.4211   1.4368   1.4502
  1.4542   1.4674   1.4769   1.4873   1.4978   1.5031   1.5161   1.5291
  1.5450   1.5516   1.5642   1.5760   1.5856   1.6052   1.6129   1.6235
  1.6316   1.6467   1.6775   1.6851   1.6925   1.7091   1.7252   1.7420
  1.7474   1.7694   1.7768   1.7864   1.8105   1.8153   1.8246   1.8491
  1.8618   1.8805   1.9039   1.9177   1.9482   1.9684   1.9767   2.0131
  2.0219   2.0557   2.0759   2.1038   2.1245   2.1510   2.1637   2.1948
  2.2007   2.2604   2.2968   2.3075   2.3355   2.3458   2.3465   2.3702
  2.3893   2.3947   2.4086   2.4297   2.4462   2.4568   2.4695   2.5126
  2.5184   2.5622   2.6134   2.6745   2.6914   2.7235   2.7251   2.7325
  2.7869   2.7880   2.8019   2.8054   2.8332   2.8721   2.8867   2.9059
  2.9145   2.9607   2.9772   2.9966   3.0383   3.0486   3.0625   3.0840
  3.1206   3.1290   3.1508   3.1801   3.1852   3.1983   3.2210   3.2523
  3.2728   3.3047   3.3154   3.3353   3.3585   3.3740   3.3961   3.4243
  3.4306   3.4440   3.4615   3.4801   3.4931   3.5076   3.5327   3.5464
  3.5646   3.5871   3.6058   3.6216   3.6527   3.6728   3.6935   3.6947
  3.7030   3.7313   3.7500   3.7699   3.7865   3.7959   3.8048   3.8245
  3.8418   3.8548   3.8656   3.8791   3.8860   3.9178   3.9323   3.9466
  3.9773   3.9819   3.9999   4.0145   4.0311   4.0875   4.1151   4.1212
  4.1427   4.1637   4.1940   4.2099   4.2309   4.2562   4.2606   4.2727
  4.2801   4.3094   4.3371   4.3398   4.3456   4.3671   4.3890   4.4118
  4.4466   4.4899   4.5123   4.5207   4.5355   4.5934   4.6172   4.6301
  4.6372   4.6539   4.6686   4.6903   4.7290   4.7463   4.7624   4.7958
  4.8067   4.8513   4.8888   4.9358   5.0066   5.0104   5.0282   5.0420
  5.0452   5.0785   5.1257   5.1807   5.1895   5.1928   5.2025   5.2064
  5.2221   5.2307   5.2426   5.2527   5.2609   5.2649   5.2732   5.2747
  5.2907   5.2989   5.3051   5.3189   5.3334   5.3416   5.3466   5.3602
  5.3760   5.3869   5.4097   5.4285   5.4555   5.4691   5.4874   5.4976
  5.5148   5.5384   5.5432   5.5577   5.5729   5.6040   5.6055   5.6202
  5.6264   5.6449   5.6631   5.6767   5.6780   5.7187   5.7308   5.7661
  5.7749   5.7854   5.8127   5.8379   5.8864   5.9493   5.9682   6.0074
  6.0573   6.1057   6.1686   6.2201   6.2348   6.3285   6.5259   6.6404
  6.7425   6.7875   6.7956   6.7967   6.8203   6.8361   6.8692   6.8939
  6.9689   6.9845   7.0109   7.0226   7.0312   7.0574   7.0614   7.0724
  7.0925   7.1121   7.1496   7.1564   7.1800   7.2082   7.2459   7.2611
  7.2821   7.3009   7.3045   7.3226   7.3451   7.3521   7.3660   7.3817
  7.4116   7.4209   7.4476   7.4697   7.4977   7.5344   7.5878   7.6014
  7.6544   7.6870   7.7028   7.8041   7.8055   7.8349   7.8451   7.9044
  7.9718   8.1502   8.1517   8.2013  24.6272  24.7298  24.7582  24.8235
 25.0849  50.4931  50.5066  50.5127  50.5928  50.6056  50.6116  50.6284
 50.7486
 --------------------------------------------------------------
 
          Ground-State Mulliken Net Atomic Charges

     Atom                 Charge (a.u.)    Spin (a.u.)
  --------------------------------------------------------
      1 C                    -0.279270      -0.460827
      2 O                    -0.289327      -0.099693
      3 C                     0.382011      -0.033808
      4 O                    -0.505612      -0.156221
      5 C                    -0.429602      -0.011389
      6 C                    -0.221056       0.014145
      7 O                    -0.066070      -0.003557
      8 O                    -0.359190       0.004919
      9 C                    -0.149106      -0.001930
     10 O                    -0.396763      -0.000047
     11 O                    -0.462477      -0.000095
     12 H                     0.312739       0.010143
     13 H                     0.364786       0.001892
     14 H                     0.229478       0.000186
     15 H                     0.256329      -0.004678
     16 H                     0.312475      -0.004854
     17 H                     0.357912       0.000059
     18 H                     0.285823       0.000006
     19 H                     0.343818      -0.000002
     20 H                     0.347459       0.000006
     21 O                     0.036026       0.896810
     22 O                    -0.070381       0.848934
  --------------------------------------------------------
  Sum of atomic charges =     0.000000
  Sum of spin   charges =     1.000000

 -----------------------------------------------------------------
                    Cartesian Multipole Moments
 -----------------------------------------------------------------
    Charge (ESU x 10^10)
                 0.0000
    Dipole Moment (Debye)
         X      -0.5339      Y      -0.4147      Z      -4.2893
       Tot       4.3422
    Quadrupole Moments (Debye-Ang)
        XX     -88.4014     XY      -5.7402     YY     -70.2082
        XZ       3.4250     YZ      16.3728     ZZ     -77.2650
    Octopole Moments (Debye-Ang^2)
       XXX   -1044.7016    XXY    -107.5760    XYY    -305.8830
       YYY    -115.8789    XXZ      95.6684    XYZ      74.3284
       YYZ      52.9650    XZZ    -333.4681    YZZ     -69.6851
       ZZZ      75.8573
    Hexadecapole Moments (Debye-Ang^3)
      XXXX   -9854.6413   XXXY   -1438.6781   XXYY   -1797.5837
      XYYY    -806.8202   YYYY   -1196.1048   XXXZ     878.0466
      XXYZ     406.0562   XYYZ     338.2213   YYYZ      56.9714
      XXZZ   -1750.3099   XYZZ    -366.6573   YYZZ    -296.4606
      XZZZ     449.6842   YZZZ      12.8931   ZZZZ    -662.0514
 -----------------------------------------------------------------
 Calculating analytic gradient of the SCF energy
 Gradient of CDS energy
            1           2           3           4           5           6
    1  -0.0029519   0.0025650  -0.0010939   0.0009103  -0.0000060   0.0000139
    2  -0.0021081   0.0021371  -0.0007084   0.0005754   0.0001941   0.0000486
    3  -0.0005885   0.0001503   0.0020359  -0.0014236   0.0001314  -0.0000586
            7           8           9          10          11          12
    1   0.0000290  -0.0001921   0.0023719  -0.0003035  -0.0022634   0.0002607
    2  -0.0001089   0.0002991   0.0002730   0.0000700  -0.0002525   0.0000011
    3   0.0000112   0.0000708  -0.0002335  -0.0014674   0.0013601   0.0000859
           13          14          15          16          17          18
    1  -0.0002171   0.0000843   0.0000060   0.0000298   0.0002047  -0.0001133
    2  -0.0002807   0.0000147   0.0001429  -0.0001087  -0.0002552   0.0000911
    3  -0.0002659   0.0001215  -0.0001694   0.0000034  -0.0002716  -0.0000286
           19          20          21          22
    1   0.0001624   0.0004708   0.0001227  -0.0000902
    2   0.0001770  -0.0001260   0.0000048  -0.0000804
    3   0.0004575  -0.0000434  -0.0000136   0.0001361
 Gradient of SCF Energy
            1           2           3           4           5           6
    1  -0.0034317  -0.0058906   0.0055583  -0.0070864   0.0051508  -0.0049332
    2   0.0018762   0.0077927   0.0040872  -0.0057249  -0.0188912   0.0162983
    3   0.0147608   0.0357660  -0.0017810   0.0074624   0.0001980  -0.0006844
            7           8           9          10          11          12
    1  -0.0008746   0.0102135   0.0108951  -0.0087424  -0.0006503   0.0090901
    2   0.0039321   0.0231265  -0.0114367  -0.0207371   0.0161511   0.0038762
    3  -0.0008281  -0.0057814  -0.0006749  -0.0012040  -0.0058249  -0.0212990
           13          14          15          16          17          18
    1   0.0001259   0.0002502  -0.0051355   0.0054657  -0.0100705  -0.0064724
    2  -0.0118341   0.0038587   0.0097209  -0.0127823  -0.0208210   0.0090630
    3  -0.0307309   0.0048782  -0.0076782   0.0018212   0.0049840   0.0000633
           19          20          21          22
    1   0.0062979   0.0012023  -0.0198787   0.0189168
    2   0.0179150  -0.0148701   0.0015712  -0.0021715
    3   0.0045515   0.0016870   0.0152700  -0.0149556
 Max gradient component =       3.577E-02
 RMS gradient           =       1.153E-02
 Computing fast CPCM-SWIG gradient
 Updating gradient with PCM contributions...
 -- total gradient after adding PCM contribution --
---------------------------------------------------
  Atom         X              Y              Z     
---------------------------------------------------
   1       0.005170       0.000163      -0.002690
   2      -0.005007      -0.000769       0.008112
   3       0.000387       0.001112       0.000245
   4      -0.002996      -0.002212       0.004111
   5       0.000157      -0.000630      -0.001564
   6       0.000278       0.000861       0.000684
   7      -0.004240       0.000960      -0.001305
   8       0.007349       0.005715      -0.000907
   9       0.005240      -0.001566       0.000974
  10      -0.004785      -0.008458      -0.000099
  11      -0.001482       0.008189      -0.001768
  12       0.001127       0.001108      -0.002843
  13       0.000552      -0.002286      -0.006093
  14       0.000202       0.000795       0.003312
  15      -0.000977       0.002560      -0.001624
  16       0.001230      -0.002380       0.001046
  17      -0.003594      -0.006281       0.001394
  18      -0.001332       0.002667      -0.001328
  19       0.002896       0.006296       0.000919
  20       0.000273      -0.007086      -0.000093
  21      -0.013337       0.000945       0.009098
  22       0.012887       0.000298      -0.009581
---------------------------------------------------
 Number of fixed atoms: 0
 Gradient time:  CPU 535.18 s  wall 48.44 s
 ----------------------------------------------------------------
             Standard Nuclear Orientation (Angstroms)
    I     Atom           X                Y                Z
 ----------------------------------------------------------------
    1      C       2.2051888022    -0.3912348327    -0.9996898453
    2      O       1.2227842394    -1.2870675761    -1.0007484292
    3      C       2.3741059148     0.3616610544     0.2339615395
    4      O       1.7635493558     0.0073435288     1.2489233895
    5      C       3.2655976025     1.5851460072     0.2408110739
    6      C       4.6860801315     1.3804075704    -0.2760325081
    7      O       4.5858386057     1.3134600082    -1.7024234273
    8      O       5.7529694518     0.6465461039    -2.2084783476
    9      C       5.5916538362     2.5364075632     0.1587985201
   10      O       5.8702245297     2.2937211428     1.5207790597
   11      O       6.7611938370     2.6331063103    -0.6171970359
   12      H       2.6711237542    -0.1069815985    -1.9367929098
   13      H       1.1622179601    -1.7029726113    -1.8794048844
   14      H       3.3134207865     1.9396186429     1.2734464858
   15      H       2.7903719654     2.3715367623    -0.3616718392
   16      H       5.1158668539     0.4421946247     0.0939896639
   17      H       5.4699309791    -0.2887452119    -2.1413672452
   18      H       5.0795299236     3.4973420966     0.0324199278
   19      H       6.2710218112     3.1022812460     1.8801181792
   20      H       7.0750637066     1.7290899968    -0.7942326548
   21      O       3.8102632200    -1.8216709512    -0.4379108024
   22      O       4.8058854326    -1.9042710767    -1.1570366102
 ----------------------------------------------------------------
 Nuclear Repulsion Energy =         896.27022572 hartrees
 There are       52 alpha and       51 beta electrons
 Discretize the solute cavity surface with Lebedev spheres
	Using 110 Lebedev grid points for each H atom
	Using 194 Lebedev grid points for other atoms
	Atomic van der Waals radii will be scaled by 1.20
 Remove points where switching function is < 1.0e-08
 Keep 1790 surface tesserae and discard 1722 interior tesserae
 Molecular Surface Area = 197.921 Angst**2
 Requested basis set is 6-311++G(2df,2p)
 There are 158 shells and 532 basis functions
 A cutoff of  1.0D-11 yielded  10218 shell pairs
 There are    113008 function pairs (    140125 Cartesian)
 Smallest overlap matrix eigenvalue = 5.86E-06
 Guess MOs from SCF MO coefficient file

 -----------------------------------------------------------------------
  General SCF calculation program by
  Eric Jon Sundstrom, Paul Horn, Yuezhi Mao, Dmitri Zuev, Alec White,
  David Stuck, Shaama M.S., Shane Yost, Joonho Lee, David Small,
  Daniel Levine, Susi Lehtola, Hugh Burton, Evgeny Epifanovsky,
  Bang C. Huynh
 -----------------------------------------------------------------------
 Exchange:     0.1500 Hartree-Fock + 1.0000 wB97M-V + LR-HF
 Correlation:  1.0000 wB97M-V
 Using SG-2 standard quadrature grid
 Nonlocal Correlation:  VV10 with C = 0.0100 and b = 6.00 and scale = 1.00000
 Grid used for NLC:  SG-1 standard quadrature
 
 Citation of the SMD model:
 Marenich, A.V.; Cramer, C.J.; Truhlar, D.G.
 J. Phys. Chem. B 2009, 113, 6378-6396.
 iSolventCode=           1
 Solvent: water                                                           
 
 vradii
            1           2           3           4           5           6
    1   1.8500000   1.5200000   1.8500000   1.5200000   1.8500000   1.8500000
            7           8           9          10          11          12
    1   1.5200000   1.5200000   1.8500000   1.5200000   1.5200000   1.2000000
           13          14          15          16          17          18
    1   1.2000000   1.2000000   1.2000000   1.2000000   1.2000000   1.2000000
           19          20          21          22
    1   1.2000000   1.2000000   1.5200000   1.5200000
 -------------------------------------------------------
 OpenMP BLAS3 based DFT computing Module                
 Release: version 1.0, May 2013, Q-Chem Inc. Pittsburgh 
 -------------------------------------------------------
 A unrestricted SCF calculation will be
 performed using Roothaan-Hall, DIIS, GDM
 SCF converges when RMS gradient is below 1.0e-06
 ---------------------------------------
  Cycle       Energy         DIIS error
 ---------------------------------------
    1    -797.4777388215      2.38e-04  Roothaan Step
 ---------------------------------------
  Cycle       Energy         DIIS error
 ---------------------------------------
    1    -797.5257795364      2.98e-04  
    2    -797.5329048179      3.23e-04  Done DIIS. Switching to GDM
 ---------------------------------------
  Cycle       Energy        RMS Gradient
 ---------------------------------------
    1    -797.5329048179      2.84e-02   Normal BFGS step
    2    -797.5271480121      5.00e-02  Line search: overstep
    3    -797.5423502340      4.88e-03   Normal BFGS step
    4    -797.5426911151      2.50e-03   Normal BFGS step
    5    -797.5427529272      2.49e-03   Normal BFGS step
    6    -797.5427754749      9.19e-04   Normal BFGS step
    7    -797.5427793026      1.14e-03   Normal BFGS step
    8    -797.5427822332      7.88e-04   Normal BFGS step
    9    -797.5427833835      3.40e-04   Normal BFGS step
   10    -797.5427839474      1.74e-04   Normal BFGS step
   11    -797.5427841935      1.11e-04   Normal BFGS step
   12    -797.5427843016      3.96e-05   Normal BFGS step
   13    -797.5427843332      2.40e-05   Normal BFGS step
   14    -797.5427843397      2.39e-05   Normal BFGS step
   15    -797.5427843421      7.83e-06   Normal BFGS step
   16    -797.5427843425      6.32e-06   Normal BFGS step
   17    -797.5427843427      2.99e-06   Normal BFGS step
   18    -797.5427843421      2.03e-06   Normal BFGS step
   19    -797.5427843419      1.22e-06   Normal BFGS step
   20    -797.5427843412      5.24e-07  Convergence criterion met
 ---------------------------------------
 SCF time:   CPU 4306.85s  wall 303.00s 
<S^2> =          1.403618478
(3)  G-ENP(liq) elect-nuc-pol free energy of system     -797.542784341 a.u.
(4)  G-CDS(liq) cavity-dispersion-solvent structure 
     free energy                                                4.5934 kcal/mol
(6)  G-S(liq) free energy of system                     -797.535464238 a.u.
 SCF   energy in the final basis set =     -797.5354642379
 Total energy in the final basis set =     -797.5354642379
 
 --------------------------------------------------------------
 
                    Orbital Energies (a.u.)
 --------------------------------------------------------------
 
 Alpha MOs
 -- Occupied --
-19.4846 -19.4603 -19.4057 -19.3957 -19.3952 -19.3471 -19.3447 -19.3321
-10.4463 -10.4446 -10.4357 -10.4091 -10.3558  -1.3992  -1.2692  -1.2249
 -1.1995  -1.1707  -1.1345  -1.0543  -0.9584  -0.9123  -0.8533  -0.8062
 -0.7408  -0.6900  -0.6839  -0.6726  -0.6542  -0.6515  -0.6414  -0.6341
 -0.6267  -0.5979  -0.5840  -0.5625  -0.5620  -0.5386  -0.5318  -0.5240
 -0.5061  -0.4909  -0.4790  -0.4633  -0.4500  -0.4278  -0.4230  -0.4093
 -0.4026  -0.3990  -0.3884  -0.3721
 -- Virtual --
 -0.0179   0.0285   0.0344   0.0391   0.0483   0.0575   0.0658   0.0682
  0.0730   0.0839   0.0926   0.1091   0.1128   0.1173   0.1260   0.1288
  0.1358   0.1410   0.1431   0.1516   0.1540   0.1606   0.1639   0.1681
  0.1723   0.1851   0.1887   0.1910   0.1963   0.2013   0.2118   0.2140
  0.2308   0.2348   0.2440   0.2560   0.2574   0.2637   0.2671   0.2731
  0.2796   0.2865   0.2938   0.3028   0.3041   0.3091   0.3110   0.3144
  0.3242   0.3275   0.3331   0.3371   0.3402   0.3453   0.3509   0.3559
  0.3591   0.3639   0.3664   0.3750   0.3802   0.3823   0.3892   0.3907
  0.3949   0.3985   0.4009   0.4133   0.4270   0.4303   0.4405   0.4477
  0.4489   0.4527   0.4675   0.4781   0.4811   0.4885   0.4997   0.5110
  0.5157   0.5404   0.5467   0.5685   0.5987   0.6062   0.6072   0.6128
  0.6272   0.6390   0.6499   0.6587   0.6624   0.6780   0.6817   0.6841
  0.7029   0.7101   0.7227   0.7326   0.7393   0.7510   0.7601   0.7686
  0.7774   0.7860   0.8006   0.8137   0.8296   0.8404   0.8464   0.8692
  0.8838   0.8960   0.9086   0.9093   0.9386   0.9523   0.9685   0.9782
  0.9948   1.0045   1.0176   1.0294   1.0425   1.0720   1.0826   1.0856
  1.1014   1.1137   1.1222   1.1350   1.1407   1.1459   1.1574   1.1621
  1.1698   1.1780   1.1836   1.1957   1.1977   1.2133   1.2153   1.2230
  1.2376   1.2437   1.2485   1.2544   1.2639   1.2700   1.2832   1.2899
  1.3035   1.3075   1.3196   1.3275   1.3398   1.3437   1.3595   1.3635
  1.3693   1.3906   1.4003   1.4040   1.4180   1.4373   1.4482   1.4522
  1.4634   1.4760   1.4818   1.4908   1.5032   1.5141   1.5227   1.5393
  1.5478   1.5646   1.5789   1.5866   1.5983   1.6124   1.6145   1.6225
  1.6454   1.6754   1.6833   1.6898   1.7047   1.7206   1.7340   1.7431
  1.7642   1.7655   1.7854   1.8098   1.8126   1.8239   1.8500   1.8518
  1.8829   1.9032   1.9102   1.9529   1.9679   1.9758   2.0129   2.0221
  2.0517   2.0741   2.1023   2.1245   2.1433   2.1658   2.1985   2.2012
  2.2611   2.2853   2.3045   2.3300   2.3399   2.3419   2.3586   2.3778
  2.3872   2.4072   2.4308   2.4466   2.4615   2.4702   2.5079   2.5200
  2.5632   2.6168   2.6700   2.6947   2.7241   2.7347   2.7367   2.7894
  2.7904   2.8076   2.8095   2.8453   2.8749   2.8898   2.9129   2.9305
  2.9710   2.9801   3.0032   3.0503   3.0619   3.0722   3.0919   3.1247
  3.1324   3.1637   3.1894   3.1937   3.2064   3.2260   3.2608   3.2772
  3.3130   3.3322   3.3404   3.3716   3.3889   3.4042   3.4304   3.4402
  3.4479   3.4723   3.4843   3.5041   3.5118   3.5373   3.5603   3.5793
  3.5897   3.6101   3.6329   3.6616   3.6765   3.6999   3.7081   3.7142
  3.7381   3.7528   3.7753   3.7904   3.7980   3.8099   3.8268   3.8457
  3.8596   3.8703   3.8850   3.8871   3.9193   3.9337   3.9527   3.9840
  3.9877   4.0022   4.0154   4.0335   4.0898   4.1181   4.1241   4.1459
  4.1653   4.1948   4.2129   4.2339   4.2620   4.2685   4.2744   4.2880
  4.3222   4.3405   4.3411   4.3492   4.3741   4.3906   4.4137   4.4506
  4.4946   4.5133   4.5204   4.5347   4.5714   4.6077   4.6187   4.6238
  4.6328   4.6683   4.6748   4.7061   4.7182   4.7696   4.7936   4.8076
  4.8542   4.8943   4.9359   4.9609   4.9695   4.9914   5.0145   5.0400
  5.0538   5.0787   5.1416   5.1523   5.1609   5.1882   5.1929   5.2027
  5.2077   5.2226   5.2331   5.2523   5.2544   5.2692   5.2731   5.2800
  5.2878   5.2988   5.3006   5.3165   5.3314   5.3387   5.3470   5.3631
  5.3864   5.4029   5.4291   5.4574   5.4698   5.4897   5.5024   5.5176
  5.5405   5.5510   5.5583   5.5824   5.6041   5.6065   5.6204   5.6306
  5.6508   5.6656   5.6781   5.6813   5.7189   5.7225   5.7337   5.7391
  5.7813   5.8129   5.8380   5.8870   5.9631   5.9818   6.0085   6.0573
  6.1057   6.1687   6.2226   6.2417   6.3400   6.5257   6.6366   6.7261
  6.7418   6.7458   6.7611   6.7799   6.8010   6.8251   6.8372   6.8971
  6.9362   6.9829   7.0025   7.0186   7.0378   7.0479   7.0569   7.0762
  7.0862   7.1204   7.1490   7.1683   7.1874   7.2458   7.2611   7.2864
  7.3031   7.3057   7.3118   7.3433   7.3486   7.3618   7.3816   7.4081
  7.4141   7.4290   7.4538   7.4812   7.5344   7.5926   7.5999   7.6544
  7.6886   7.7086   7.8040   7.8098   7.8426   7.8453   7.9044   7.9716
  8.1053   8.1288   8.2007  24.6273  24.7332  24.7611  24.8238  25.0881
 50.4728  50.4864  50.5120  50.5932  50.6057  50.6139  50.6284  50.7518
 
 Beta MOs
 -- Occupied --
-19.4568 -19.4351 -19.4057 -19.3987 -19.3955 -19.3471 -19.3447 -19.3363
-10.4463 -10.4447 -10.4426 -10.4092 -10.3557  -1.3491  -1.2690  -1.2327
 -1.1995  -1.1779  -1.1345  -1.0541  -0.9168  -0.8893  -0.8582  -0.8092
 -0.7409  -0.6905  -0.6845  -0.6738  -0.6399  -0.6297  -0.6208  -0.6003
 -0.5878  -0.5719  -0.5665  -0.5626  -0.5519  -0.5405  -0.5325  -0.5293
 -0.5113  -0.4990  -0.4861  -0.4635  -0.4580  -0.4278  -0.4212  -0.4091
 -0.3938  -0.3756  -0.2957
 -- Virtual --
 -0.0320  -0.0176   0.0287   0.0344   0.0395   0.0484   0.0578   0.0662
  0.0683   0.0736   0.0841   0.0927   0.1006   0.1101   0.1153   0.1190
  0.1275   0.1345   0.1421   0.1432   0.1508   0.1547   0.1611   0.1641
  0.1685   0.1726   0.1850   0.1896   0.1912   0.1965   0.2013   0.2132
  0.2148   0.2329   0.2370   0.2455   0.2555   0.2584   0.2657   0.2685
  0.2733   0.2806   0.2863   0.2937   0.2997   0.3067   0.3110   0.3143
  0.3165   0.3262   0.3271   0.3343   0.3379   0.3405   0.3444   0.3524
  0.3566   0.3591   0.3640   0.3676   0.3750   0.3808   0.3821   0.3903
  0.3914   0.3981   0.4011   0.4066   0.4143   0.4273   0.4297   0.4412
  0.4489   0.4497   0.4543   0.4659   0.4775   0.4808   0.4896   0.4994
  0.5111   0.5147   0.5364   0.5462   0.5674   0.5975   0.6048   0.6062
  0.6110   0.6268   0.6380   0.6501   0.6580   0.6619   0.6758   0.6800
  0.6838   0.7007   0.7079   0.7223   0.7325   0.7384   0.7491   0.7592
  0.7660   0.7749   0.7841   0.7980   0.8103   0.8289   0.8373   0.8457
  0.8682   0.8787   0.8927   0.9087   0.9099   0.9404   0.9523   0.9681
  0.9797   0.9948   1.0058   1.0184   1.0298   1.0438   1.0754   1.0832
  1.0876   1.1063   1.1158   1.1231   1.1406   1.1437   1.1523   1.1579
  1.1662   1.1742   1.1838   1.1887   1.1964   1.2006   1.2131   1.2154
  1.2243   1.2406   1.2435   1.2495   1.2573   1.2668   1.2747   1.2841
  1.2954   1.3134   1.3149   1.3218   1.3294   1.3404   1.3445   1.3593
  1.3635   1.3737   1.3933   1.4010   1.4120   1.4211   1.4368   1.4501
  1.4542   1.4675   1.4769   1.4873   1.4978   1.5031   1.5161   1.5290
  1.5450   1.5516   1.5641   1.5759   1.5855   1.6052   1.6129   1.6235
  1.6316   1.6467   1.6775   1.6852   1.6927   1.7090   1.7253   1.7420
  1.7476   1.7694   1.7770   1.7865   1.8105   1.8153   1.8246   1.8492
  1.8619   1.8804   1.9038   1.9177   1.9481   1.9684   1.9769   2.0132
  2.0218   2.0554   2.0759   2.1042   2.1245   2.1510   2.1638   2.1952
  2.2008   2.2605   2.2968   2.3076   2.3356   2.3459   2.3464   2.3703
  2.3894   2.3947   2.4086   2.4298   2.4463   2.4573   2.4698   2.5128
  2.5187   2.5622   2.6136   2.6745   2.6915   2.7236   2.7254   2.7324
  2.7870   2.7880   2.8020   2.8054   2.8333   2.8720   2.8868   2.9060
  2.9145   2.9607   2.9773   2.9966   3.0383   3.0489   3.0624   3.0841
  3.1206   3.1288   3.1509   3.1800   3.1850   3.1983   3.2211   3.2522
  3.2729   3.3052   3.3156   3.3352   3.3587   3.3738   3.3965   3.4243
  3.4309   3.4440   3.4615   3.4800   3.4932   3.5075   3.5328   3.5463
  3.5645   3.5870   3.6059   3.6217   3.6530   3.6727   3.6933   3.6947
  3.7029   3.7315   3.7499   3.7699   3.7864   3.7958   3.8049   3.8244
  3.8418   3.8549   3.8655   3.8789   3.8860   3.9178   3.9323   3.9465
  3.9770   3.9818   3.9998   4.0145   4.0311   4.0875   4.1153   4.1213
  4.1427   4.1636   4.1940   4.2100   4.2309   4.2560   4.2607   4.2726
  4.2802   4.3094   4.3370   4.3398   4.3456   4.3667   4.3891   4.4117
  4.4462   4.4891   4.5121   4.5206   4.5354   4.5934   4.6172   4.6298
  4.6372   4.6539   4.6686   4.6903   4.7287   4.7463   4.7623   4.7957
  4.8067   4.8512   4.8886   4.9359   5.0066   5.0103   5.0281   5.0418
  5.0451   5.0785   5.1257   5.1806   5.1894   5.1928   5.2025   5.2064
  5.2221   5.2307   5.2425   5.2526   5.2608   5.2654   5.2731   5.2747
  5.2908   5.2989   5.3051   5.3189   5.3334   5.3416   5.3466   5.3602
  5.3760   5.3869   5.4096   5.4285   5.4554   5.4691   5.4876   5.4978
  5.5148   5.5384   5.5433   5.5577   5.5729   5.6040   5.6056   5.6202
  5.6268   5.6452   5.6633   5.6768   5.6780   5.7186   5.7305   5.7661
  5.7750   5.7854   5.8127   5.8379   5.8865   5.9515   5.9696   6.0074
  6.0573   6.1057   6.1686   6.2211   6.2369   6.3287   6.5259   6.6404
  6.7425   6.7885   6.7959   6.7974   6.8209   6.8373   6.8692   6.8937
  6.9689   6.9845   7.0109   7.0226   7.0311   7.0574   7.0614   7.0725
  7.0925   7.1121   7.1496   7.1565   7.1800   7.2080   7.2459   7.2612
  7.2823   7.3014   7.3046   7.3226   7.3451   7.3522   7.3661   7.3818
  7.4116   7.4209   7.4476   7.4697   7.4976   7.5344   7.5877   7.6014
  7.6544   7.6872   7.7034   7.8041   7.8057   7.8350   7.8451   7.9044
  7.9719   8.1501   8.1517   8.2013  24.6273  24.7311  24.7588  24.8236
 25.0852  50.4931  50.5066  50.5127  50.5929  50.6056  50.6121  50.6284
 50.7488
 --------------------------------------------------------------
 
          Ground-State Mulliken Net Atomic Charges

     Atom                 Charge (a.u.)    Spin (a.u.)
  --------------------------------------------------------
      1 C                    -0.279305      -0.460534
      2 O                    -0.288280      -0.099934
      3 C                     0.381881      -0.034151
      4 O                    -0.506033      -0.156549
      5 C                    -0.429262      -0.011393
      6 C                    -0.221138       0.014136
      7 O                    -0.066201      -0.003568
      8 O                    -0.359145       0.004918
      9 C                    -0.149021      -0.001913
     10 O                    -0.396761      -0.000048
     11 O                    -0.462482      -0.000094
     12 H                     0.312181       0.010179
     13 H                     0.364958       0.001883
     14 H                     0.229528       0.000201
     15 H                     0.256243      -0.004708
     16 H                     0.312394      -0.004855
     17 H                     0.357902       0.000064
     18 H                     0.285818       0.000007
     19 H                     0.343813      -0.000002
     20 H                     0.347457       0.000006
     21 O                     0.035769       0.897214
     22 O                    -0.070317       0.849140
  --------------------------------------------------------
  Sum of atomic charges =     0.000000
  Sum of spin   charges =     1.000000

 -----------------------------------------------------------------
                    Cartesian Multipole Moments
 -----------------------------------------------------------------
    Charge (ESU x 10^10)
                 0.0000
    Dipole Moment (Debye)
         X      -0.5417      Y      -0.4229      Z      -4.2948
       Tot       4.3495
    Quadrupole Moments (Debye-Ang)
        XX     -88.4335     XY      -5.7520     YY     -70.2000
        XZ       3.4230     YZ      16.3826     ZZ     -77.2688
    Octopole Moments (Debye-Ang^2)
       XXX   -1044.7991    XXY    -107.6074    XYY    -305.8713
       YYY    -115.9134    XXZ      95.6756    XYZ      74.3413
       YYZ      52.9516    XZZ    -333.4815    YZZ     -69.7019
       ZZZ      75.8440
    Hexadecapole Moments (Debye-Ang^3)
      XXXX   -9854.9561   XXXY   -1438.8427   XXYY   -1797.5778
      XYYY    -806.9024   YYYY   -1196.0749   XXXZ     878.0617
      XXYZ     406.0799   XYYZ     338.1981   YYYZ      57.0065
      XXZZ   -1750.3492   XYZZ    -366.6847   YYZZ    -296.4450
      XZZZ     449.6588   YZZZ      12.9267   ZZZZ    -662.0963
 -----------------------------------------------------------------
 Calculating analytic gradient of the SCF energy
 Gradient of CDS energy
            1           2           3           4           5           6
    1  -0.0029121   0.0025213  -0.0010929   0.0009109  -0.0000061   0.0000139
    2  -0.0020760   0.0021031  -0.0007082   0.0005761   0.0001940   0.0000486
    3  -0.0005881   0.0001497   0.0020362  -0.0014232   0.0001314  -0.0000586
            7           8           9          10          11          12
    1   0.0000289  -0.0001921   0.0023719  -0.0003035  -0.0022634   0.0002608
    2  -0.0001089   0.0002991   0.0002730   0.0000700  -0.0002525   0.0000011
    3   0.0000112   0.0000708  -0.0002335  -0.0014674   0.0013601   0.0000856
           13          14          15          16          17          18
    1  -0.0002155   0.0000843   0.0000061   0.0000298   0.0002047  -0.0001133
    2  -0.0002800   0.0000147   0.0001429  -0.0001087  -0.0002552   0.0000911
    3  -0.0002660   0.0001215  -0.0001694   0.0000034  -0.0002716  -0.0000286
           19          20          21          22
    1   0.0001624   0.0004708   0.0001235  -0.0000904
    2   0.0001770  -0.0001260   0.0000051  -0.0000804
    3   0.0004575  -0.0000434  -0.0000136   0.0001360
 Gradient of SCF Energy
            1           2           3           4           5           6
    1  -0.0048793  -0.0050945   0.0058378  -0.0070611   0.0051079  -0.0049262
    2   0.0007817   0.0084358   0.0042660  -0.0057150  -0.0188262   0.0162634
    3   0.0151255   0.0357684  -0.0015373   0.0072624   0.0002551  -0.0006866
            7           8           9          10          11          12
    1  -0.0008655   0.0102100   0.0108914  -0.0087414  -0.0006528   0.0094662
    2   0.0039407   0.0231194  -0.0114148  -0.0207344   0.0161430   0.0040386
    3  -0.0008322  -0.0057782  -0.0006663  -0.0011998  -0.0058269  -0.0216888
           13          14          15          16          17          18
    1   0.0001524   0.0002554  -0.0051327   0.0054605  -0.0100675  -0.0064672
    2  -0.0118274   0.0038652   0.0097117  -0.0127705  -0.0208188   0.0090545
    3  -0.0307682   0.0048630  -0.0076739   0.0018149   0.0049799   0.0000643
           19          20          21          22
    1   0.0062961   0.0012023  -0.0199515   0.0189598
    2   0.0179106  -0.0148638   0.0016154  -0.0021750
    3   0.0045479   0.0016886   0.0152719  -0.0149837
 Max gradient component =       3.577E-02
 RMS gradient           =       1.156E-02
 Computing fast CPCM-SWIG gradient
 Updating gradient with PCM contributions...
 -- total gradient after adding PCM contribution --
---------------------------------------------------
  Atom         X              Y              Z     
---------------------------------------------------
   1       0.003791      -0.000919      -0.002304
   2      -0.004254      -0.000164       0.008094
   3       0.000659       0.001285       0.000480
   4      -0.002974      -0.002202       0.003895
   5       0.000133      -0.000584      -0.001499
   6       0.000278       0.000854       0.000677
   7      -0.004232       0.000966      -0.001305
   8       0.007348       0.005716      -0.000906
   9       0.005242      -0.001562       0.000979
  10      -0.004786      -0.008459      -0.000101
  11      -0.001487       0.008187      -0.001768
  12       0.001467       0.001277      -0.003263
  13       0.000593      -0.002251      -0.006095
  14       0.000206       0.000806       0.003312
  15      -0.000980       0.002560      -0.001627
  16       0.001233      -0.002381       0.001047
  17      -0.003595      -0.006283       0.001393
  18      -0.001333       0.002666      -0.001328
  19       0.002896       0.006296       0.000919
  20       0.000274      -0.007087      -0.000093
  21      -0.013408       0.000985       0.009102
  22       0.012930       0.000293      -0.009609
---------------------------------------------------
 Number of fixed atoms: 0
 Gradient time:  CPU 536.77 s  wall 47.49 s
 ----------------------------------------------------------------
             Standard Nuclear Orientation (Angstroms)
    I     Atom           X                Y                Z
 ----------------------------------------------------------------
    1      C       2.2061888022    -0.3902348327    -0.9996898453
    2      O       1.2227842394    -1.2870675761    -1.0007484292
    3      C       2.3741059148     0.3616610544     0.2339615395
    4      O       1.7635493558     0.0073435288     1.2489233895
    5      C       3.2655976025     1.5851460072     0.2408110739
    6      C       4.6860801315     1.3804075704    -0.2760325081
    7      O       4.5858386057     1.3134600082    -1.7024234273
    8      O       5.7529694518     0.6465461039    -2.2084783476
    9      C       5.5916538362     2.5364075632     0.1587985201
   10      O       5.8702245297     2.2937211428     1.5207790597
   11      O       6.7611938370     2.6331063103    -0.6171970359
   12      H       2.6711237542    -0.1069815985    -1.9367929098
   13      H       1.1622179601    -1.7029726113    -1.8794048844
[...]
   8       0.000015      -0.000028       0.000011
   9       0.000011      -0.000005      -0.000004
  10      -0.000009      -0.000001      -0.000002
  11       0.000006       0.000008       0.000023
  12       0.000011      -0.000009      -0.000005
  13       0.000010      -0.000006      -0.000003
  14      -0.000008       0.000009      -0.000006
  15       0.000008       0.000006      -0.000017
  16      -0.000006      -0.000000       0.000012
  17      -0.000003      -0.000021      -0.000003
  18      -0.000000       0.000002      -0.000008
  19      -0.000005       0.000009       0.000002
  20      -0.000000      -0.000009      -0.000006
  21       0.000037       0.000032      -0.000031
  22      -0.000042      -0.000021       0.000043
---------------------------------------------------
 Number of fixed atoms: 0
 Gradient time:  CPU 607.87 s  wall 51.02 s
 Geometry Optimization Parameters
   NAtoms,    NIC,     NZ,  NCons,   NDum,   NFix, NCnnct, MaxDiis
       22     138       0       0       0       0       0       0

 Cartesian Hessian Update
 Hessian updated using Powell/Murtagh-Sargent update
  Mixing factors:     0.998660 Powell                      0.001340 Murtagh-Sargent


** GEOMETRY OPTIMIZATION IN DELOCALIZED INTERNAL COORDINATES **
   Searching for a Transition State

   Optimization Cycle:  21

                       Coordinates (Angstroms)
     ATOM                X               Y               Z
      1  C         2.2089942242   -0.4055788715   -0.9799183919
      2  O         1.2235311874   -1.2871675181   -0.9798170188
      3  C         2.3997332066    0.3532745119    0.2433095938
      4  O         1.8182598656    0.0034118883    1.2713493467
      5  C         3.2829042230    1.5756507939    0.2242353393
      6  C         4.7037724403    1.3771251295   -0.2859680990
      7  O         4.6055668093    1.3190676785   -1.7099116547
      8  O         5.7442683760    0.6359511894   -2.2343427986
      9  C         5.5896060010    2.5404543564    0.1620333136
     10  O         5.8494582292    2.3157560008    1.5291530630
     11  O         6.7780392313    2.6428558577   -0.5831288693
     12  H         2.6674279664   -0.1244825723   -1.9161215723
     13  H         1.1405938728   -1.7013742189   -1.8498082613
     14  H         3.3211208759    1.9573661336    1.2416850282
     15  H         2.8029579757    2.3368496907   -0.3982047449
     16  H         5.1370725460    0.4435953461    0.0783320496
     17  H         5.4431435941   -0.2875165174   -2.2201551865
     18  H         5.0754206408    3.4922339807    0.0206913213
     19  H         6.1903934177    3.1326419146    1.9104956660
     20  H         7.1575267883    1.7615761445   -0.6915415766
     21  O         3.8152588438   -1.7746200534   -0.4143829648
     22  O         4.6898323844   -1.9701520648   -1.2477222827
   Point Group: c1    Number of degrees of freedom:    60


   Energy is   -797.536355434

 Hessian updated using Powell/Murtagh-Sargent update
  Mixing factors:     0.995694 Powell                      0.004306 Murtagh-Sargent

 60 Hessian modes will be used to form the next step
  Hessian Eigenvalues:
    -2.057497    0.001888    0.003608    0.004347    0.005717    0.006968
     0.007936    0.009885    0.013711    0.018060    0.024158    0.027011
     0.033041    0.038311    0.040693    0.044841    0.046767    0.055017
     0.058916    0.062687    0.078449    0.080364    0.084349    0.099418
     0.115984    0.118055    0.122888    0.163019    0.178899    0.179697
     0.186721    0.197882    0.206027    0.216705    0.233102    0.237111
     0.241720    0.281196    0.289485    0.296236    0.300105    0.322574
     0.326126    0.328002    0.337070    0.340162    0.359831    0.384535
     0.426332    0.442220    0.454182    0.466867    0.490904    0.496675
     0.500309    0.529804    0.683255    0.714715    0.772895    0.844632

 Transition state search - taking P-RFO step
 Searching for Lamda that Maximizes Along the Lowest mode
 Value Taken    Lamda =   0.00000000
 Searching for Lamda that Minimizes Along All other modes
 Value Taken    Lamda =  -0.00000030
 Step Taken.  Stepsize is  0.005554

                             Maximum     Tolerance    Cnvgd?
         Gradient           0.000104      0.000300     YES
         Displacement       0.001769      0.001200      NO
         Energy change     -0.000001      0.000001     YES

 Final energy is   -797.536355433972     


 ******************************
 **  OPTIMIZATION CONVERGED  **
 ******************************

                       Coordinates (Angstroms)
     ATOM                X               Y               Z
      1  C         2.2089942242   -0.4055788715   -0.9799183919
      2  O         1.2235311874   -1.2871675181   -0.9798170188
      3  C         2.3997332066    0.3532745119    0.2433095938
      4  O         1.8182598656    0.0034118883    1.2713493467
      5  C         3.2829042230    1.5756507939    0.2242353393
      6  C         4.7037724403    1.3771251295   -0.2859680990
      7  O         4.6055668093    1.3190676785   -1.7099116547
      8  O         5.7442683760    0.6359511894   -2.2343427986
      9  C         5.5896060010    2.5404543564    0.1620333136
     10  O         5.8494582292    2.3157560008    1.5291530630
     11  O         6.7780392313    2.6428558577   -0.5831288693
     12  H         2.6674279664   -0.1244825723   -1.9161215723
     13  H         1.1405938728   -1.7013742189   -1.8498082613
     14  H         3.3211208759    1.9573661336    1.2416850282
     15  H         2.8029579757    2.3368496907   -0.3982047449
     16  H         5.1370725460    0.4435953461    0.0783320496
     17  H         5.4431435941   -0.2875165174   -2.2201551865
     18  H         5.0754206408    3.4922339807    0.0206913213
     19  H         6.1903934177    3.1326419146    1.9104956660
     20  H         7.1575267883    1.7615761445   -0.6915415766
     21  O         3.8152588438   -1.7746200534   -0.4143829648
     22  O         4.6898323844   -1.9701520648   -1.2477222827

Z-matrix Print:
$molecule
0 2
O 
O  1 1.427697
H  2 0.971427 1 101.668701
C  1 1.428506 2 109.315422 3 88.666316 0
H  4 1.091761 1 108.974557 2 -37.221024 0
C  4 1.522691 1 105.970698 2 -157.578298 0
H  6 1.087369 4 109.056154 1 -161.068149 0
H  6 1.094168 4 108.023142 1 -44.321651 0
C  6 1.508164 4 116.423352 1 77.725903 0
O  9 1.231820 6 121.143393 4 126.224270 0
C  9 1.452077 6 119.329844 4 -55.179972 0
H  11 1.079654 9 122.590677 6 -0.717581 0
O  11 1.322247 9 116.504584 6 -166.376561 0
H  13 0.967125 11 110.450550 9 176.522582 0
C  4 1.529294 1 111.269079 2 82.788506 0
H  15 1.090985 4 110.651488 1 73.063884 0
O  15 1.406459 4 112.931361 1 -44.854316 0
H  17 0.965618 15 108.972409 4 -44.030785 0
O  15 1.409620 4 105.642564 1 -167.218638 0
H  19 0.963827 15 108.290295 4 -164.464160 0
O  3 2.084314 2 152.409061 1 -56.155051 0
O  21 1.223751 3 116.552097 2 40.169166 0
$end

 
 --------------------------------------------------------------
 
                    Orbital Energies (a.u.)
 --------------------------------------------------------------
 
 Alpha MOs
 -- Occupied --
-19.4801 -19.4535 -19.4049 -19.3958 -19.3944 -19.3462 -19.3442 -19.3331
-10.4460 -10.4445 -10.4374 -10.4083 -10.3539  -1.4007  -1.2719  -1.2295
 -1.2010  -1.1745  -1.1354  -1.0553  -0.9532  -0.9140  -0.8562  -0.8092
 -0.7427  -0.6932  -0.6867  -0.6748  -0.6530  -0.6512  -0.6391  -0.6373
 -0.6285  -0.5985  -0.5865  -0.5646  -0.5620  -0.5403  -0.5318  -0.5253
 -0.5070  -0.4917  -0.4812  -0.4604  -0.4518  -0.4312  -0.4199  -0.4082
 -0.3979  -0.3951  -0.3861  -0.3718
 -- Virtual --
 -0.0163   0.0285   0.0345   0.0390   0.0485   0.0577   0.0649   0.0687
  0.0726   0.0847   0.0925   0.1092   0.1135   0.1189   0.1267   0.1283
  0.1367   0.1408   0.1441   0.1518   0.1533   0.1596   0.1648   0.1670
  0.1722   0.1856   0.1883   0.1916   0.1963   0.2015   0.2139   0.2154
  0.2289   0.2351   0.2449   0.2576   0.2580   0.2618   0.2688   0.2751
  0.2796   0.2863   0.2950   0.3019   0.3053   0.3115   0.3130   0.3154
  0.3264   0.3289   0.3333   0.3383   0.3409   0.3440   0.3505   0.3560
  0.3593   0.3635   0.3672   0.3765   0.3796   0.3864   0.3893   0.3923
  0.3978   0.4010   0.4036   0.4150   0.4237   0.4300   0.4376   0.4499
  0.4511   0.4535   0.4642   0.4769   0.4835   0.4904   0.4975   0.5118
  0.5175   0.5448   0.5561   0.5773   0.5990   0.6060   0.6127   0.6153
  0.6262   0.6376   0.6549   0.6602   0.6645   0.6783   0.6855   0.6899
  0.7042   0.7126   0.7258   0.7309   0.7432   0.7540   0.7608   0.7707
  0.7776   0.7892   0.8031   0.8082   0.8251   0.8416   0.8457   0.8737
  0.8855   0.9000   0.9077   0.9100   0.9385   0.9565   0.9696   0.9779
  0.9903   1.0000   1.0161   1.0326   1.0469   1.0683   1.0837   1.0857
  1.1051   1.1132   1.1205   1.1391   1.1436   1.1448   1.1585   1.1639
  1.1749   1.1756   1.1814   1.1968   1.1992   1.2133   1.2157   1.2230
  1.2373   1.2426   1.2463   1.2563   1.2604   1.2728   1.2837   1.2921
  1.2965   1.3085   1.3224   1.3320   1.3341   1.3405   1.3608   1.3623
  1.3683   1.3881   1.4011   1.4064   1.4227   1.4354   1.4432   1.4489
  1.4707   1.4805   1.4874   1.4931   1.5070   1.5180   1.5301   1.5493
  1.5588   1.5680   1.5779   1.5957   1.5994   1.6162   1.6223   1.6291
  1.6497   1.6760   1.6851   1.6963   1.7010   1.7213   1.7338   1.7460
  1.7547   1.7723   1.7893   1.8144   1.8177   1.8436   1.8488   1.8581
  1.8837   1.8998   1.9161   1.9576   1.9725   1.9854   2.0164   2.0256
  2.0517   2.0690   2.0993   2.1213   2.1309   2.1716   2.1960   2.2077
  2.2560   2.3008   2.3046   2.3308   2.3329   2.3434   2.3549   2.3810
  2.3899   2.4110   2.4306   2.4476   2.4664   2.4718   2.4980   2.5264
  2.5677   2.6126   2.6740   2.6948   2.7229   2.7279   2.7342   2.7849
  2.7904   2.8057   2.8157   2.8508   2.8801   2.8857   2.9169   2.9328
  2.9770   2.9843   3.0130   3.0505   3.0665   3.0805   3.0957   3.1196
  3.1291   3.1690   3.1929   3.1984   3.2135   3.2322   3.2645   3.2792
  3.3116   3.3340   3.3423   3.3744   3.3920   3.4073   3.4296   3.4426
  3.4499   3.4720   3.4885   3.5082   3.5184   3.5401   3.5614   3.5803
  3.5877   3.6113   3.6380   3.6641   3.6775   3.6982   3.7105   3.7187
  3.7413   3.7566   3.7806   3.7943   3.7997   3.8133   3.8307   3.8462
  3.8669   3.8791   3.8856   3.8917   3.9159   3.9308   3.9544   3.9908
  3.9971   4.0025   4.0245   4.0318   4.0978   4.1258   4.1307   4.1528
  4.1621   4.2021   4.2220   4.2403   4.2725   4.2780   4.2845   4.2985
  4.3269   4.3418   4.3531   4.3583   4.3820   4.3992   4.4277   4.4567
  4.4997   4.5263   4.5298   4.5441   4.5821   4.6172   4.6271   4.6337
  4.6478   4.6762   4.6816   4.6866   4.7268   4.7797   4.7967   4.8087
  4.8537   4.9031   4.9447   4.9679   4.9732   5.0074   5.0116   5.0452
  5.0526   5.0794   5.1453   5.1619   5.1714   5.1857   5.2026   5.2083
  5.2108   5.2256   5.2307   5.2510   5.2575   5.2730   5.2763   5.2811
  5.2910   5.2950   5.3062   5.3174   5.3349   5.3418   5.3503   5.3652
  5.3906   5.4110   5.4323   5.4569   5.4820   5.4988   5.5085   5.5240
  5.5422   5.5543   5.5611   5.5935   5.6079   5.6201   5.6294   5.6433
  5.6665   5.6780   5.6846   5.6887   5.7318   5.7378   5.7444   5.7548
  5.7936   5.8230   5.8514   5.9018   5.9802   6.0009   6.0310   6.0922
  6.1190   6.1617   6.2550   6.2735   6.3568   6.5350   6.6460   6.7515
  6.7614   6.7720   6.7776   6.7789   6.8215   6.8554   6.8641   6.9165
  6.9393   6.9897   7.0081   7.0220   7.0398   7.0432   7.0597   7.0759
  7.0883   7.1312   7.1485   7.1855   7.1923   7.2697   7.2707   7.2965
  7.3195   7.3266   7.3375   7.3490   7.3559   7.3630   7.3875   7.4059
  7.4181   7.4355   7.4536   7.4837   7.5403   7.6021   7.6172   7.6614
  7.6969   7.7153   7.8100   7.8145   7.8450   7.8533   7.9041   7.9827
  8.1262   8.1559   8.1941  24.6446  24.7575  24.7847  24.8403  25.1101
 50.4892  50.5130  50.5143  50.5916  50.6099  50.6221  50.6338  50.7588
 
 Beta MOs
 -- Occupied --
-19.4530 -19.4289 -19.4049 -19.3991 -19.3943 -19.3462 -19.3442 -19.3370
-10.4460 -10.4446 -10.4440 -10.4083 -10.3538  -1.3521  -1.2717  -1.2369
 -1.2011  -1.1812  -1.1354  -1.0551  -0.9191  -0.8875  -0.8583  -0.8119
 -0.7428  -0.6948  -0.6867  -0.6759  -0.6411  -0.6323  -0.6225  -0.6002
 -0.5898  -0.5752  -0.5660  -0.5647  -0.5520  -0.5420  -0.5325  -0.5290
 -0.5120  -0.4993  -0.4874  -0.4605  -0.4591  -0.4313  -0.4187  -0.4081
 -0.3946  -0.3755  -0.2941
 -- Virtual --
 -0.0282  -0.0136   0.0287   0.0345   0.0394   0.0486   0.0580   0.0653
  0.0689   0.0733   0.0850   0.0928   0.1019   0.1101   0.1171   0.1201
  0.1275   0.1360   0.1421   0.1441   0.1508   0.1540   0.1601   0.1651
  0.1673   0.1726   0.1857   0.1888   0.1919   0.1961   0.2015   0.2147
  0.2167   0.2307   0.2364   0.2461   0.2573   0.2601   0.2631   0.2694
  0.2755   0.2805   0.2863   0.2949   0.3002   0.3060   0.3128   0.3153
  0.3184   0.3282   0.3293   0.3345   0.3398   0.3410   0.3432   0.3524
  0.3562   0.3602   0.3648   0.3662   0.3762   0.3803   0.3862   0.3904
  0.3922   0.4008   0.4024   0.4104   0.4169   0.4241   0.4295   0.4402
  0.4501   0.4526   0.4544   0.4638   0.4767   0.4824   0.4914   0.4969
  0.5120   0.5158   0.5411   0.5562   0.5761   0.5977   0.6050   0.6113
  0.6140   0.6261   0.6366   0.6548   0.6598   0.6641   0.6766   0.6839
  0.6894   0.7020   0.7105   0.7253   0.7309   0.7420   0.7531   0.7596
  0.7676   0.7756   0.7874   0.8009   0.8050   0.8244   0.8390   0.8451
  0.8725   0.8815   0.8977   0.9079   0.9097   0.9402   0.9569   0.9691
  0.9790   0.9913   1.0006   1.0164   1.0331   1.0486   1.0727   1.0847
  1.0881   1.1096   1.1148   1.1223   1.1421   1.1450   1.1510   1.1590
  1.1685   1.1771   1.1832   1.1881   1.1989   1.2008   1.2130   1.2153
  1.2236   1.2397   1.2425   1.2475   1.2588   1.2633   1.2799   1.2852
  1.2927   1.3067   1.3143   1.3266   1.3336   1.3348   1.3436   1.3599
  1.3633   1.3728   1.3909   1.4016   1.4119   1.4276   1.4351   1.4458
  1.4511   1.4720   1.4806   1.4886   1.5013   1.5082   1.5211   1.5337
  1.5517   1.5664   1.5718   1.5757   1.5956   1.6053   1.6178   1.6302
  1.6362   1.6532   1.6792   1.6871   1.6979   1.7088   1.7238   1.7382
  1.7505   1.7630   1.7820   1.7907   1.8172   1.8176   1.8447   1.8497
  1.8625   1.8842   1.9029   1.9219   1.9531   1.9727   1.9875   2.0177
  2.0257   2.0555   2.0703   2.1022   2.1237   2.1354   2.1679   2.1954
  2.2057   2.2553   2.2999   2.3139   2.3307   2.3441   2.3505   2.3660
  2.3895   2.3944   2.4173   2.4315   2.4473   2.4623   2.4718   2.5033
  2.5254   2.5665   2.6096   2.6770   2.6937   2.7171   2.7259   2.7304
  2.7819   2.7882   2.8036   2.8081   2.8382   2.8758   2.8829   2.9117
  2.9205   2.9672   2.9817   3.0061   3.0387   3.0569   3.0681   3.0871
  3.1138   3.1262   3.1582   3.1857   3.1877   3.2065   3.2278   3.2565
  3.2747   3.3037   3.3190   3.3381   3.3604   3.3778   3.3993   3.4232
  3.4346   3.4470   3.4627   3.4835   3.4997   3.5141   3.5346   3.5493
  3.5655   3.5856   3.6073   3.6273   3.6563   3.6740   3.6907   3.6992
  3.7081   3.7360   3.7525   3.7757   3.7904   3.7973   3.8084   3.8281
  3.8439   3.8612   3.8745   3.8804   3.8894   3.9148   3.9291   3.9506
  3.9822   3.9923   3.9998   4.0232   4.0295   4.0956   4.1240   4.1281
  4.1486   4.1604   4.2013   4.2192   4.2368   4.2685   4.2718   4.2804
  4.2886   4.3187   4.3393   4.3486   4.3541   4.3753   4.3985   4.4259
  4.4518   4.4959   4.5248   4.5299   4.5441   4.6049   4.6206   4.6438
  4.6542   4.6610   4.6795   4.6918   4.7208   4.7445   4.7731   4.7982
  4.8077   4.8512   4.8985   4.9446   5.0040   5.0204   5.0385   5.0413
  5.0469   5.0810   5.1248   5.1847   5.1938   5.1996   5.2066   5.2078
  5.2233   5.2333   5.2430   5.2488   5.2649   5.2685   5.2773   5.2795
  5.2941   5.2972   5.3015   5.3163   5.3381   5.3415   5.3573   5.3616
  5.3869   5.3933   5.4173   5.4320   5.4545   5.4817   5.4961   5.5059
  5.5218   5.5406   5.5476   5.5584   5.5843   5.6074   5.6200   5.6287
  5.6403   5.6609   5.6760   5.6815   5.6862   5.7289   5.7440   5.7810
  5.7912   5.7974   5.8227   5.8508   5.9013   5.9690   5.9891   6.0304
  6.0922   6.1191   6.1616   6.2535   6.2688   6.3462   6.5352   6.6492
  6.7538   6.8133   6.8250   6.8288   6.8528   6.8619   6.8787   6.8895
  6.9740   6.9950   7.0113   7.0261   7.0383   7.0585   7.0663   7.0734
  7.0936   7.1152   7.1410   7.1666   7.1912   7.2258   7.2699   7.2707
  7.2931   7.3256   7.3294   7.3360   7.3507   7.3552   7.3642   7.3855
  7.4075   7.4264   7.4591   7.4794   7.4912   7.5403   7.5978   7.6182
  7.6614   7.6953   7.7106   7.8065   7.8144   7.8377   7.8533   7.9041
  7.9829   8.1682   8.1794   8.1961  24.6446  24.7562  24.7819  24.8399
 25.1073  50.5087  50.5133  50.5342  50.5916  50.6098  50.6206  50.6337
 50.7560
 --------------------------------------------------------------
 
          Ground-State Mulliken Net Atomic Charges

     Atom                 Charge (a.u.)    Spin (a.u.)
  --------------------------------------------------------
      1 C                    -0.263928      -0.435968
      2 O                    -0.285706      -0.095805
      3 C                     0.400582      -0.031936
      4 O                    -0.505415      -0.145245
      5 C                    -0.445433      -0.012188
      6 C                    -0.177966       0.014535
      7 O                    -0.060974      -0.003348
      8 O                    -0.358074       0.003647
      9 C                    -0.187211      -0.001739
     10 O                    -0.399127      -0.000031
     11 O                    -0.460610      -0.000117
     12 H                     0.309904       0.009038
     13 H                     0.362979       0.001921
     14 H                     0.232995       0.000294
     15 H                     0.258069      -0.004185
     16 H                     0.308603      -0.004362
     17 H                     0.352117       0.000641
     18 H                     0.290576      -0.000033
     19 H                     0.341426       0.000007
     20 H                     0.346159      -0.000073
     21 O                     0.038138       0.871937
     22 O                    -0.097104       0.833010
  --------------------------------------------------------
  Sum of atomic charges =    -0.000000
  Sum of spin   charges =     1.000000

 -----------------------------------------------------------------
                    Cartesian Multipole Moments
 -----------------------------------------------------------------
    Charge (ESU x 10^10)
                -0.0000
    Dipole Moment (Debye)
         X      -0.8817      Y      -0.1351      Z      -4.1662
       Tot       4.2606
    Quadrupole Moments (Debye-Ang)
        XX     -89.5249     XY      -4.3520     YY     -70.3048
        XZ       4.2137     YZ      16.4193     ZZ     -77.4949
    Octopole Moments (Debye-Ang^2)
       XXX   -1044.3806    XXY    -102.0707    XYY    -307.8072
       YYY    -112.8445    XXZ      99.8719    XYZ      73.9422
       YYZ      54.5772    XZZ    -335.0704    YZZ     -68.3794
       ZZZ      76.5724
    Hexadecapole Moments (Debye-Ang^3)
      XXXX   -9786.0139   XXXY   -1423.6280   XXYY   -1812.7319
      XYYY    -801.3875   YYYY   -1200.9570   XXXZ     897.9428
      XXYZ     399.5117   XYYZ     344.4477   YYYZ      54.2591
      XXZZ   -1760.5644   XYZZ    -364.6396   YYZZ    -298.0417
      XZZZ     451.9575   YZZZ      10.5485   ZZZZ    -670.9383
 -----------------------------------------------------------------
 Total job time:  8444.37s(wall), 118873.70s(cpu) 
 Thu Jun 27 00:33:47 2024

        *************************************************************
        *                                                           *
        *  Thank you very much for using Q-Chem.  Have a nice day.  *
        *                                                           *
        *************************************************************


