
Running Job 1 of 1 Q_in.in
qchem Q_in.in_63659.0 /scratch/ari.fischer/qChem1519370.hpc-mn1/qchem63659/ 0
/usr/local/qchem-5.4.1/exe/qcprog.exe_s Q_in.in_63659.0 /scratch/ari.fischer/qChem1519370.hpc-mn1/qchem63659/
                  Welcome to Q-Chem
     A Quantum Leap Into The Future Of Chemistry


 Q-Chem 5.4, Q-Chem, Inc., Pleasanton, CA (2021)

 License issued to: Nanyang Technological University (site)

 E. Epifanovsky,  A. T. B. Gilbert,  Xintian Feng,  Joonho Lee,  Yuezhi Mao,  
 N. Mardirossian,  P. Pokhilko,  A. White,  M. Wormit,  M. P. Coons,  
 A. L. Dempwolff,  Zhengting Gan,  D. Hait,  P. R. Horn,  L. D. Jacobson,  
 I. Kaliman,  J. Kussmann,  A. W. Lange,  Ka Un Lao,  D. S. Levine,  Jie Liu,  
 S. C. McKenzie,  A. F. Morrison,  K. Nanda,  F. Plasser,  D. R. Rehn,  
 M. L. Vidal,  Zhi-Qiang You,  Ying Zhu,  B. Alam,  B. Albrecht,  
 A. Aldossary,  E. Alguire,  J. H. Andersen,  D. Barton,  K. Begam,  A. Behn,  
 Y. A. Bernard,  E. J. Berquist,  H. Burton,  A. Carreras,  K. Carter-Fenk,  
 R. Chakraborty,  A. D. Chien,  K. D. Closser,  V. Cofer-Shabica,  
 S. Dasgupta,  Jia Deng,  M. de Wergifosse,  M. Diedenhofen,  Hainam Do,  
 S. Ehlert,  Po-Tung Fang,  S. Fatehi,  Qingguo Feng,  T. Friedhoff,  
 J. Gayvert,  Qinghui Ge,  G. Gidofalvi,  M. Goldey,  J. Gomes,  
 C. Gonzalez-Espinoza,  S. Gulania,  A. Gunina,  M. W. D. Hanson-Heine,  
 P. H. P. Harbach,  A. W. Hauser,  M. F. Herbst,  M. Hernandez Vera,  
 M. Hodecker,  Z. C. Holden,  S. Houck,  Xunkun Huang,  Kerwin Hui,  
 B. C. Huynh,  M. Ivanov,  Hyunjun Ji,  Hanjie Jiang,  B. Kaduk,  S. Kaehler,  
 K. Khistyaev,  Jaehoon Kim,  P. Klunzinger,  Z. Koczor-Benda,  
 Joong Hoon Koh,  D. Kosenkov,  L. Koulias,  T. Kowalczyk,  C. M. Krauter,  
 K. Kue,  A. Kunitsa,  T. Kus,  A. Landau,  K. V. Lawler,  D. Lefrancois,  
 S. Lehtola,  Rain Li,  Yi-Pei Li,  Jiashu Liang,  M. Liebenthal,  
 Hung-Hsuan Lin,  You-Sheng Lin,  Fenglai Liu,  Kuan-Yu Liu,  
 M. Loipersberger,  A. Luenser,  A. Manjanath,  P. Manohar,  E. Mansoor,  
 S. F. Manzer,  Shan-Ping Mao,  A. V. Marenich,  T. Markovich,  S. Mason,  
 S. A. Maurer,  P. F. McLaughlin,  M. F. S. J. Menger,  J.-M. Mewes,  
 S. A. Mewes,  P. Morgante,  J. W. Mullinax,  K. J. Oosterbaan,  G. Paran,  
 Alexander C. Paul,  Suranjan K. Paul,  F. Pavosevic,  Zheng Pei,  S. Prager,  
 E. I. Proynov,  E. Ramos,  B. Rana,  A. E. Rask,  A. Rettig,  R. M. Richard,  
 F. Rob,  E. Rossomme,  T. Scheele,  M. Scheurer,  M. Schneider,  
 N. Sergueev,  S. M. Sharada,  W. Skomorowski,  D. W. Small,  C. J. Stein,  
 Yu-Chuan Su,  E. J. Sundstrom,  Zhen Tao,  J. Thirman,  T. Tsuchimochi,  
 N. M. Tubman,  S. P. Veccham,  O. Vydrov,  J. Wenzel,  J. Witte,  A. Yamada,  
 Kun Yao,  S. Yeganeh,  S. R. Yost,  A. Zech,  Igor Ying Zhang,  Xing Zhang,  
 Yu Zhang,  D. Zuev,  A. Aspuru-Guzik,  A. T. Bell,  N. A. Besley,  
 K. B. Bravaya,  B. R. Brooks,  D. Casanova,  Jeng-Da Chai,  S. Coriani,  
 C. J. Cramer,  A. E. DePrince, III,  R. A. DiStasio Jr.,  A. Dreuw,  
 B. D. Dunietz,  T. R. Furlani,  W. A. Goddard III,  S. Grimme,  
 S. Hammes-Schiffer,  T. Head-Gordon,  W. J. Hehre,  Chao-Ping Hsu,  
 T.-C. Jagau,  Yousung Jung,  A. Klamt,  Jing Kong,  D. S. Lambrecht,  
 WanZhen Liang,  N. J. Mayhall,  C. W. McCurdy,  J. B. Neaton,  
 C. Ochsenfeld,  J. A. Parkhill,  R. Peverati,  V. A. Rassolov,  Yihan Shao,  
 L. V. Slipchenko,  T. Stauch,  R. P. Steele,  J. E. Subotnik,  
 A. J. W. Thom,  A. Tkatchenko,  D. G. Truhlar,  T. Van Voorhis,  
 T. A. Wesolowski,  K. B. Whaley,  H. L. Woodcock III,  P. M. Zimmerman,  
 S. Faraji,  P. M. W. Gill,  M. Head-Gordon,  J. M. Herbert,  A. I. Krylov

 Additional authors for Version 5.4.1: 
 S. Kotaru,  Shaozhi Li,  Xiangyuan Li,  F. Matz,  A. Molle,  Haisheng Ren,  
 Yingli Su,  Hung-Yi Tsai,  C. Utku,  Fang Wang

 Contributors to earlier versions of Q-Chem not listed above: 
 R. D. Adamson,  B. Austin,  R. Baer,  J. Baker,  G. J. O. Beran,  
 K. Brandhorst,  S. T. Brown,  E. F. C. Byrd,  A. K. Chakraborty,  
 G. K. L. Chan,  Chun-Min Chang,  Yunqing Chen,  C.-L. Cheng,  
 Siu Hung Chien,  D. M. Chipman,  D. L. Crittenden,  H. Dachsel,  
 R. J. Doerksen,  A. D. Dutoi,  R. G. Edgar,  J. Fosso-Tande,  
 L. Fusti-Molnar,  D. Ghosh,  A. Ghysels,  A. Golubeva-Zadorozhnaya,  
 J. Gonthier,  M. S. Gordon,  S. R. Gwaltney,  G. Hawkins,  J. E. Herr,  
 A. Heyden,  S. Hirata,  E. G. Hohenstein,  G. Kedziora,  F. J. Keil,  
 C. Kelley,  Jihan Kim,  R. A. King,  R. Z. Khaliullin,  P. P. Korambath,  
 W. Kurlancheek,  A. Laurent,  A. M. Lee,  M. S. Lee,  S. V. Levchenko,  
 Ching Yeh Lin,  D. Liotard,  E. Livshits,  R. C. Lochan,  I. Lotan,  
 L. A. Martinez-Martinez,  P. E. Maslen,  N. Nair,  D. P. O'Neill,  
 D. Neuhauser,  E. Neuscamman,  C. M. Oana,  R. Olivares-Amaya,  R. Olson,  
 T. M. Perrine,  B. Peters,  P. A. Pieniazek,  A. Prociuk,  Y. M. Rhee,  
 J. Ritchie,  M. A. Rohrdanz,  E. Rosta,  N. J. Russ,  H. F. Schaefer III,  
 M. W. Schmidt,  N. E. Schultz,  S. Sharma,  N. Shenvi,  C. D. Sherrill,  
 A. C. Simmonett,  A. Sodt,  T. Stein,  D. Stuck,  K. S. Thanthiriwatte,  
 V. Vanovschi,  L. Vogt,  Tao Wang,  A. Warshel,  M. A. Watson,  
 C. F. Williams,  Q. Wu,  X. Xu,  Jun Yang,  W. Zhang,  Yan Zhao

 Please cite Q-Chem as follows:
 Y. Shao et al., Mol. Phys. 113, 184-215 (2015)
 DOI: 10.1080/00268976.2014.952696

 Q-Chem 5.4.1 for Intel X86 EM64T Linux

 Parts of Q-Chem use Armadillo 9.800.1 (Horizon Scraper).
 http://arma.sourceforge.net/

 Q-Chem begins on Sat Apr 29 12:03:51 2023  

 Host: 
0

     Scratch files written to /scratch/ari.fischer/qChem1519370.hpc-mn1/qchem63659//
 Aug1521 |scratch|qcdevops|jenkins|workspace|build_RNUM 8249   
 Processing $rem in /usr/local/qchem-5.4.1/config/preferences:
 Processing $rem in /home/ari.fischer/.qchemrc:
 Symmetry turned off for PCM/SM12/SMD calculation


!!********************************************.
!!******************Warning*******************.
!!Desired Analytical derivatives not available.
!!Finite difference job might take a long time.
!!********************************************.
!!********************************************.


 2-order derivative to be evaluated numerically with 1-order analytical derivatives

 Checking the input file for inconsistencies... 	...done.

--------------------------------------------------------------
User input:
--------------------------------------------------------------
$molecule
0 2
C        -0.8368119879    0.0051967102    0.1729488147
C        -2.2850972109    0.0469396244   -0.2172962650
O        -3.0505913588    0.3834723126    0.9425169537
C        -0.0930668034   -1.1191681530   -0.0205358659
C         1.2773557629   -1.1485043882    0.3410336861
C         1.8588051094    0.0111482931    0.9747236691
O         3.2463272586    0.2187303310    0.8036151352
C         1.0707160563    1.2379252135    0.9915453707
C        -0.2379790126    1.2090236029    0.6772957830
H        -2.5969420368   -0.9181453422   -0.6181845913
H        -2.4276937483    0.8068118744   -0.9895612029
H        -3.9281582676    0.6495597981    0.6497963493
H        -0.5344925573   -1.9894363781   -0.4871745468
H         1.9323347505   -1.8876192357   -0.0956356604
H         1.6944396438   -0.3551302111    2.1040956423
H         3.7180792552   -0.5062660680    1.2297149410
H         1.5577897818    2.1378289950    1.3422980372
H        -0.8457785126    2.0995543736    0.7611800528
O         1.4959839991   -1.5910877137    3.0024167333
O         1.2128854785   -2.3628509390    2.0369729640
$end

$rem
BASIS = 6-311++G(2df,2p)
GUI = 2
JOB_TYPE = Frequency
METHOD = wB97M-V
SOLVENT_METHOD = SMD
SCF_ALGORITHM = DIIS_GDM
MAX_SCF_CYCLES = 400
SCF_CONVERGENCE = 7
THRESH = 12
UNRESTRICTED = 1
SYMMETRY_IGNORE = 1
$end
--------------------------------------------------------------
 ----------------------------------------------------------------
             Standard Nuclear Orientation (Angstroms)
    I     Atom           X                Y                Z
 ----------------------------------------------------------------
    1      C      -0.8368119879     0.0051967102     0.1729488147
    2      C      -2.2850972109     0.0469396244    -0.2172962650
    3      O      -3.0505913588     0.3834723126     0.9425169537
    4      C      -0.0930668034    -1.1191681530    -0.0205358659
    5      C       1.2773557629    -1.1485043882     0.3410336861
    6      C       1.8588051094     0.0111482931     0.9747236691
    7      O       3.2463272586     0.2187303310     0.8036151352
    8      C       1.0707160563     1.2379252135     0.9915453707
    9      C      -0.2379790126     1.2090236029     0.6772957830
   10      H      -2.5969420368    -0.9181453422    -0.6181845913
   11      H      -2.4276937483     0.8068118744    -0.9895612029
   12      H      -3.9281582676     0.6495597981     0.6497963493
   13      H      -0.5344925573    -1.9894363781    -0.4871745468
   14      H       1.9323347505    -1.8876192357    -0.0956356604
   15      H       1.6944396438    -0.3551302111     2.1040956423
   16      H       3.7180792552    -0.5062660680     1.2297149410
   17      H       1.5577897818     2.1378289950     1.3422980372
   18      H      -0.8457785126     2.0995543736     0.7611800528
   19      O       1.4959839991    -1.5910877137     3.0024167333
   20      O       1.2128854785    -2.3628509390     2.0369729640
 ----------------------------------------------------------------
 Nuclear Repulsion Energy =         619.03389344 hartrees
 There are       42 alpha and       41 beta electrons
 Requested basis set is 6-311++G(2df,2p)
 There are 142 shells and 464 basis functions

 Total QAlloc Memory Limit 288000 MB
 Mega-Array Size       188 MB
 MEM_STATIC part       192 MB
 
 Citation of the SMD model:
 Marenich, A.V.; Cramer, C.J.; Truhlar, D.G.
 J. Phys. Chem. B 2009, 113, 6378-6396.
 iSolventCode=           1
 Solvent: water                                                           
 
 vradii
            1           2           3           4           5           6
    1   1.8500000   1.8500000   1.5200000   1.8500000   1.8500000   1.8500000
            7           8           9          10          11          12
    1   1.5200000   1.8500000   1.8500000   1.2000000   1.2000000   1.2000000
           13          14          15          16          17          18
    1   1.2000000   1.2000000   1.2000000   1.2000000   1.2000000   1.2000000
           19          20
    1   1.5200000   1.5200000
 Changing PCM_VDW_RADII to SMD_RADIUS
 Discretize the solute cavity surface with Lebedev spheres
	Using 110 Lebedev grid points for each H atom
	Using 194 Lebedev grid points for other atoms
	Atomic van der Waals radii will be scaled by 1.20
 Remove points where switching function is < 1.0e-08
 Keep 1525 surface tesserae and discard 1599 interior tesserae
 Molecular Surface Area = 174.731 Angst**2
 A cutoff of  1.0D-12 yielded   8760 shell pairs
 There are     93478 function pairs (    116221 Cartesian)
 Smallest overlap matrix eigenvalue = 8.02E-07
 Linear dependence detected in AO basis
 Tighter screening thresholds may be required for diffuse basis sets
 Use S2THRESH > 14 and THRESH = 14 in case of SCF convergence issues
 Number of orthogonalized atomic orbitals = 463
 Maximum deviation from orthogonality = 6.205E-11
 Guess from superposition of atomic densities
 Warning:  Energy on first SCF cycle will be non-variational
 SAD guess density has 83.000000 electrons

 -----------------------------------------------------------------------
  General SCF calculation program by
  Eric Jon Sundstrom, Paul Horn, Yuezhi Mao, Dmitri Zuev, Alec White,
  David Stuck, Shaama M.S., Shane Yost, Joonho Lee, David Small,
  Daniel Levine, Susi Lehtola, Hugh Burton, Evgeny Epifanovsky,
  Bang C. Huynh
 -----------------------------------------------------------------------
 Exchange:     0.1500 Hartree-Fock + 1.0000 wB97M-V + LR-HF
 Correlation:  1.0000 wB97M-V
 Using SG-2 standard quadrature grid
 Nonlocal Correlation:  VV10 with C = 0.0100 and b = 6.00 and scale = 1.00000
 Grid used for NLC:  SG-1 standard quadrature
 using 8 threads for integral computing
 -------------------------------------------------------
 OpenMP Integral computing Module                
 Release: version 1.0, May 2013, Q-Chem Inc. Pittsburgh 
 -------------------------------------------------------
 
 Citation of the SMD model:
 Marenich, A.V.; Cramer, C.J.; Truhlar, D.G.
 J. Phys. Chem. B 2009, 113, 6378-6396.
 iSolventCode=           1
 Solvent: water                                                           
 
 vradii
            1           2           3           4           5           6
    1   1.8500000   1.8500000   1.5200000   1.8500000   1.8500000   1.8500000
            7           8           9          10          11          12
    1   1.5200000   1.8500000   1.8500000   1.2000000   1.2000000   1.2000000
           13          14          15          16          17          18
    1   1.2000000   1.2000000   1.2000000   1.2000000   1.2000000   1.2000000
           19          20
    1   1.5200000   1.5200000
 -------------------------------------------------------
 OpenMP BLAS3 based DFT computing Module                
 Release: version 1.0, May 2013, Q-Chem Inc. Pittsburgh 
 -------------------------------------------------------
 A unrestricted SCF calculation will be
 performed using DIIS, GDM
 SCF converges when RMS gradient is below 1.0e-07
 ---------------------------------------
  Cycle       Energy         DIIS error
 ---------------------------------------
    1    -575.7037497783      1.17e-02  
    2    -572.7484989945      1.11e-03  Done DIIS. Switching to GDM
 ---------------------------------------
  Cycle       Energy        RMS Gradient
 ---------------------------------------
    1    -572.7484989945      5.10e-02   Descent step
    2    -572.8502453813      1.78e-02   Normal BFGS step
    3    -572.8649286084      1.23e-02   Normal BFGS step
    4    -572.8665717386      7.35e-03   Normal BFGS step
    5    -572.8668708201      3.93e-03   Normal BFGS step
    6    -572.8669632976      2.73e-03   Normal BFGS step
    7    -572.8670075122      2.07e-03   Normal BFGS step
    8    -572.8670323830      1.95e-03   Normal BFGS step
    9    -572.8670502374      8.75e-04   Normal BFGS step
   10    -572.8670555354      5.18e-04   Normal BFGS step
   11    -572.8670571010      3.21e-04   Normal BFGS step
   12    -572.8670575882      2.02e-04   Normal BFGS step
   13    -572.8670577669      1.31e-04   Normal BFGS step
   14    -572.8670578585      5.52e-05   Normal BFGS step
   15    -572.8670578840      4.04e-05   Normal BFGS step
   16    -572.8670578989      2.76e-05   Normal BFGS step
   17    -572.8670579063      1.56e-05   Normal BFGS step
   18    -572.8670579087      9.28e-06   Normal BFGS step
   19    -572.8670579098      4.65e-06   Normal BFGS step
   20    -572.8670579100      2.98e-06   Normal BFGS step
   21    -572.8670579101      1.72e-06   Normal BFGS step
   22    -572.8670579101      7.98e-07   Normal BFGS step
   23    -572.8670579101      2.60e-07   Normal BFGS step
   24    -572.8670579101      6.95e-08  Convergence criterion met
 ---------------------------------------
 SCF time:   CPU 3210.20s  wall 407.00s 
<S^2> =          0.767305060
(3)  G-ENP(liq) elect-nuc-pol free energy of system     -572.867057910 a.u.
(4)  G-CDS(liq) cavity-dispersion-solvent structure 
     free energy                                                3.2728 kcal/mol
(6)  G-S(liq) free energy of system                     -572.861842400 a.u.
 SCF   energy in the final basis set =     -572.8618423996
 Total energy in the final basis set =     -572.8618423996
 
 --------------------------------------------------------------
 
                    Orbital Energies (a.u.)
 --------------------------------------------------------------
 
 Alpha MOs
 -- Occupied --
-19.4189 -19.4140 -19.3497 -19.3401 -10.4062 -10.3947 -10.3904 -10.3738
-10.3631 -10.3512 -10.3484  -1.3274  -1.1719  -1.1574  -0.9972  -0.9263
 -0.9007  -0.8853  -0.8030  -0.7444  -0.7152  -0.6611  -0.6412  -0.6296
 -0.6105  -0.5982  -0.5903  -0.5839  -0.5672  -0.5409  -0.5319  -0.5277
 -0.4917  -0.4771  -0.4629  -0.4441  -0.4336  -0.4088  -0.3918  -0.3720
 -0.3508  -0.3242
 -- Virtual --
 -0.0061   0.0272   0.0339   0.0360   0.0497   0.0538   0.0569   0.0618
  0.0685   0.0801   0.0900   0.0996   0.1053   0.1224   0.1302   0.1343
  0.1393   0.1429   0.1515   0.1551   0.1589   0.1598   0.1649   0.1715
  0.1745   0.1784   0.1805   0.1895   0.1988   0.2030   0.2097   0.2133
  0.2252   0.2288   0.2315   0.2357   0.2459   0.2553   0.2631   0.2640
  0.2743   0.2789   0.2890   0.2955   0.3022   0.3089   0.3111   0.3202
  0.3264   0.3325   0.3345   0.3380   0.3450   0.3516   0.3555   0.3651
  0.3676   0.3800   0.3814   0.3893   0.3942   0.4058   0.4103   0.4161
  0.4197   0.4256   0.4426   0.4429   0.4495   0.4690   0.4724   0.4864
  0.5340   0.5447   0.5582   0.5709   0.5876   0.5968   0.6011   0.6019
  0.6120   0.6184   0.6254   0.6446   0.6474   0.6527   0.6722   0.6729
  0.6903   0.6980   0.7027   0.7150   0.7224   0.7262   0.7373   0.7429
  0.7465   0.7601   0.7701   0.7856   0.7919   0.7956   0.7998   0.8234
  0.8341   0.8435   0.8508   0.8670   0.8813   0.9059   0.9070   0.9265
  0.9363   0.9496   0.9687   0.9811   1.0004   1.0128   1.0299   1.0468
  1.0566   1.0699   1.0812   1.0910   1.1042   1.1135   1.1276   1.1377
  1.1513   1.1558   1.1686   1.1840   1.1926   1.1982   1.2083   1.2105
  1.2319   1.2411   1.2473   1.2541   1.2623   1.2822   1.2899   1.2979
  1.3144   1.3299   1.3303   1.3529   1.3626   1.3754   1.3892   1.3989
  1.4042   1.4102   1.4223   1.4327   1.4404   1.4558   1.4601   1.4793
  1.4895   1.5039   1.5103   1.5160   1.5330   1.5353   1.5522   1.5636
  1.5675   1.6003   1.6103   1.6154   1.6249   1.6593   1.6758   1.6770
  1.6897   1.7233   1.7388   1.7510   1.7592   1.7861   1.8030   1.8222
  1.8510   1.8659   1.9009   1.9170   1.9583   1.9698   2.0031   2.0514
  2.0635   2.0735   2.1106   2.1413   2.1786   2.2105   2.2345   2.2670
  2.3078   2.3308   2.3438   2.3641   2.4008   2.4097   2.4282   2.4784
  2.5895   2.6223   2.6392   2.6705   2.6901   2.7009   2.7284   2.7491
  2.7962   2.8016   2.8106   2.8280   2.8494   2.8543   2.8867   2.8967
  2.9179   2.9207   2.9265   2.9406   2.9444   2.9660   2.9822   3.0078
  3.0199   3.0360   3.0524   3.0629   3.0831   3.1210   3.1396   3.1535
  3.1616   3.1737   3.2031   3.2306   3.2386   3.2505   3.2591   3.2863
  3.2933   3.2983   3.3190   3.3288   3.3564   3.3633   3.3904   3.3960
  3.4116   3.4263   3.4438   3.4568   3.4675   3.4884   3.5145   3.5183
  3.5278   3.5392   3.5619   3.5747   3.5970   3.6071   3.6175   3.6288
  3.6619   3.6855   3.7223   3.7265   3.7574   3.7719   3.7823   3.7924
  3.8028   3.8189   3.8217   3.8388   3.8570   3.8684   3.8774   3.9004
  3.9091   3.9395   3.9506   3.9622   3.9739   4.0131   4.0292   4.0661
  4.0829   4.1005   4.1279   4.1560   4.1708   4.1822   4.2127   4.2390
  4.2669   4.2723   4.2867   4.3175   4.3503   4.3555   4.3614   4.3817
  4.3896   4.4022   4.4229   4.4337   4.4468   4.4802   4.5082   4.5170
  4.5321   4.5586   4.5788   4.5941   4.6078   4.6147   4.6485   4.6595
  4.6884   4.7122   4.7218   4.7518   4.7632   4.8073   4.8269   4.8397
  4.9112   4.9444   4.9858   5.0045   5.0706   5.0849   5.1015   5.1119
  5.1553   5.1680   5.1929   5.2072   5.2433   5.2582   5.2637   5.2895
  5.3016   5.3051   5.3137   5.3268   5.3317   5.3392   5.3727   5.3775
  5.3966   5.4231   5.4778   5.5261   5.5423   5.5798   5.6061   5.6576
  5.6771   5.6842   5.6946   5.7199   5.7275   5.7353   5.8057   5.8506
  5.8756   5.9233   5.9637   6.0186   6.1495   6.1756   6.4810   6.5925
  6.6204   6.6643   6.6802   6.8801   6.9720   7.0309   7.0685   7.1050
  7.1213   7.1309   7.1938   7.2657   7.3171   7.3266   7.3392   7.3443
  7.3598   7.3921   7.4282   7.5472   7.6496   7.6839   7.7973   7.8152
  8.1038   8.1224  24.2507  24.6994  24.7840  24.8143  24.9155  25.1264
 25.4253  50.5151  50.5465  50.5959  50.6242
 
 Beta MOs
 -- Occupied --
-19.4023 -19.3983 -19.3497 -19.3402 -10.4061 -10.3954 -10.3903 -10.3743
-10.3634 -10.3509 -10.3482  -1.2964  -1.1720  -1.1575  -0.9976  -0.9014
 -0.8983  -0.8693  -0.8028  -0.7443  -0.7154  -0.6589  -0.6374  -0.6293
 -0.6015  -0.5878  -0.5727  -0.5567  -0.5410  -0.5340  -0.5275  -0.5092
 -0.4916  -0.4748  -0.4615  -0.4441  -0.4331  -0.4041  -0.3902  -0.3476
 -0.3087
 -- Virtual --
 -0.0068   0.0006   0.0272   0.0341   0.0361   0.0498   0.0542   0.0572
  0.0618   0.0687   0.0803   0.0903   0.1005   0.1059   0.1226   0.1307
  0.1345   0.1398   0.1430   0.1523   0.1557   0.1594   0.1598   0.1652
  0.1722   0.1749   0.1793   0.1821   0.1900   0.1990   0.2031   0.2097
  0.2133   0.2261   0.2296   0.2317   0.2382   0.2462   0.2557   0.2638
  0.2647   0.2744   0.2817   0.2904   0.2957   0.3069   0.3099   0.3131
  0.3222   0.3275   0.3338   0.3349   0.3390   0.3450   0.3521   0.3563
  0.3664   0.3682   0.3811   0.3817   0.3899   0.3957   0.4070   0.4134
  0.4186   0.4202   0.4285   0.4428   0.4437   0.4499   0.4693   0.4739
  0.4872   0.5339   0.5448   0.5581   0.5707   0.5873   0.5967   0.6010
  0.6023   0.6121   0.6184   0.6257   0.6447   0.6471   0.6525   0.6724
  0.6731   0.6902   0.6983   0.7026   0.7152   0.7222   0.7261   0.7373
  0.7426   0.7466   0.7612   0.7701   0.7854   0.7917   0.7957   0.8003
  0.8233   0.8342   0.8435   0.8510   0.8674   0.8812   0.9060   0.9073
  0.9267   0.9371   0.9503   0.9687   0.9814   1.0007   1.0128   1.0335
  1.0471   1.0568   1.0726   1.0827   1.0941   1.1059   1.1161   1.1292
  1.1398   1.1539   1.1599   1.1750   1.1867   1.1968   1.2033   1.2110
  1.2134   1.2382   1.2418   1.2508   1.2624   1.2737   1.2885   1.2906
  1.3002   1.3168   1.3307   1.3365   1.3546   1.3663   1.3763   1.3893
  1.4013   1.4064   1.4118   1.4234   1.4343   1.4409   1.4557   1.4621
  1.4799   1.4941   1.5044   1.5123   1.5216   1.5341   1.5383   1.5520
  1.5643   1.5693   1.6014   1.6116   1.6180   1.6283   1.6694   1.6811
  1.6836   1.6925   1.7254   1.7470   1.7592   1.7638   1.7868   1.8075
  1.8250   1.8539   1.8703   1.9058   1.9251   1.9601   1.9730   2.0048
  2.0529   2.0666   2.0758   2.1148   2.1417   2.1788   2.2110   2.2348
  2.2820   2.3118   2.3375   2.3599   2.3743   2.4034   2.4108   2.4338
  2.4788   2.5893   2.6226   2.6395   2.6697   2.6911   2.7035   2.7315
  2.7485   2.7959   2.8015   2.8100   2.8271   2.8491   2.8538   2.8869
  2.8959   2.9169   2.9198   2.9260   2.9398   2.9437   2.9650   2.9808
  3.0064   3.0183   3.0351   3.0517   3.0623   3.0818   3.1194   3.1390
  3.1524   3.1608   3.1735   3.2021   3.2296   3.2383   3.2498   3.2585
  3.2853   3.2929   3.2977   3.3181   3.3283   3.3554   3.3629   3.3899
  3.3954   3.4105   3.4258   3.4430   3.4565   3.4669   3.4878   3.5141
  3.5176   3.5271   3.5385   3.5607   3.5743   3.5962   3.6063   3.6165
  3.6283   3.6603   3.6848   3.7214   3.7260   3.7571   3.7715   3.7816
  3.7919   3.8021   3.8187   3.8211   3.8383   3.8561   3.8680   3.8766
  3.8999   3.9086   3.9386   3.9499   3.9612   3.9733   4.0124   4.0288
  4.0654   4.0825   4.0997   4.1271   4.1554   4.1698   4.1817   4.2124
  4.2386   4.2664   4.2715   4.2862   4.3170   4.3497   4.3539   4.3609
  4.3812   4.3890   4.4008   4.4221   4.4324   4.4465   4.4796   4.5080
  4.5165   4.5319   4.5603   4.5938   4.6023   4.6136   4.6242   4.6478
  4.6605   4.6890   4.7137   4.7426   4.7537   4.7685   4.8093   4.8388
  4.8472   4.9121   4.9527   4.9864   5.0086   5.0769   5.1064   5.1454
  5.1595   5.1738   5.1895   5.1985   5.2484   5.2615   5.2742   5.2971
  5.3124   5.3168   5.3206   5.3283   5.3350   5.3394   5.3550   5.3795
  5.3819   5.4031   5.4348   5.4779   5.5262   5.5425   5.5795   5.6061
  5.6581   5.6841   5.6955   5.7052   5.7252   5.7349   5.7519   5.8047
  5.8502   5.8752   5.9232   5.9636   6.0184   6.1492   6.1750   6.4803
  6.5924   6.6716   6.6760   6.6866   6.9494   7.0384   7.0966   7.1069
  7.1172   7.1334   7.1741   7.2372   7.3051   7.3171   7.3267   7.3423
  7.3483   7.3601   7.4187   7.4557   7.5639   7.6496   7.6845   7.7972
  7.8151   8.1172   8.1473  24.2506  24.6992  24.7838  24.8143  24.9152
 25.1264  25.4251  50.5276  50.5587  50.5960  50.6243
 --------------------------------------------------------------
 
          Ground-State Mulliken Net Atomic Charges

     Atom                 Charge (a.u.)    Spin (a.u.)
  --------------------------------------------------------
      1 C                     0.514807      -0.034583
      2 C                    -0.651103      -0.001074
      3 O                    -0.407905      -0.000335
      4 C                    -0.691876       0.011726
      5 C                    -0.000323      -0.039383
      6 C                    -0.495498       0.005418
      7 O                    -0.426336       0.000205
      8 C                    -0.297784      -0.028546
      9 C                     0.123981       0.019323
     10 H                     0.229768       0.000374
     11 H                     0.188662      -0.001382
     12 H                     0.325916      -0.000433
     13 H                     0.276310      -0.001827
     14 H                     0.349024       0.001953
     15 H                     0.320305      -0.014831
     16 H                     0.353660      -0.000602
     17 H                     0.303158       0.000105
     18 H                     0.310495       0.000001
     19 O                    -0.239026       0.533748
     20 O                    -0.086233       0.550144
  --------------------------------------------------------
  Sum of atomic charges =    -0.000000
  Sum of spin   charges =     1.000000

 -----------------------------------------------------------------
                    Cartesian Multipole Moments
 -----------------------------------------------------------------
    Charge (ESU x 10^10)
                -0.0000
    Dipole Moment (Debye)
         X      -2.3514      Y       1.6401      Z      -5.0007
       Tot       5.7642
    Quadrupole Moments (Debye-Ang)
        XX     -53.5924     XY      -5.1542     YY     -66.4551
        XZ       5.5983     YZ      10.2637     ZZ     -79.1635
    Octopole Moments (Debye-Ang^2)
       XXX    -102.3609    XXY       7.5413    XYY     -26.0808
       YYY      73.2548    XXZ     -60.4096    XYZ       8.1043
       YYZ     -77.1269    XZZ     -20.8276    YZZ      43.8113
       ZZZ    -210.6667
    Hexadecapole Moments (Debye-Ang^3)
      XXXX   -1113.9305   XXXY     -33.2677   XXYY    -321.3458
      XYYY     130.5781   YYYY    -621.3457   XXXZ    -114.5399
      XXYZ      35.9599   XYYZ     -81.7244   YYYZ     186.0332
      XXZZ    -370.4196   XYZZ      69.4985   YYZZ    -271.2181
      XZZZ    -218.9706   YZZZ     193.8533   ZZZZ    -825.4394
 -----------------------------------------------------------------
 Calculating analytic gradient of the SCF energy
 Gradient of CDS energy
            1           2           3           4           5           6
    1  -0.0000624  -0.0006921   0.0003145  -0.0001231   0.0001629   0.0011762
    2   0.0000101  -0.0003895   0.0000307  -0.0001624  -0.0000655   0.0000752
    3   0.0001047  -0.0005183  -0.0000317  -0.0000820  -0.0000727  -0.0001075
            7           8           9          10          11          12
    1  -0.0011637   0.0002058  -0.0001930   0.0001873   0.0001393  -0.0004349
    2  -0.0000924   0.0002915   0.0002400  -0.0001595   0.0002465   0.0001961
    3   0.0000708   0.0000960   0.0000033   0.0000377   0.0000328   0.0002249
           13          14          15          16          17          18
    1  -0.0001318   0.0001371  -0.0000025   0.0005036   0.0001565  -0.0001517
    2  -0.0001187  -0.0001527  -0.0000737  -0.0000785   0.0001446   0.0001127
    3  -0.0000830  -0.0000025   0.0000534   0.0000972   0.0000624   0.0000149
           19          20
    1  -0.0000640   0.0000359
    2  -0.0000564   0.0000017
    3   0.0000242   0.0000754
 Gradient of SCF Energy
            1           2           3           4           5           6
    1  -0.0098327   0.0088422   0.0148569   0.0053929  -0.0009319  -0.0002288
    2   0.0051748   0.0018339  -0.0054954   0.0034299   0.0036971   0.0001842
    3  -0.0057074   0.0177835   0.0091490   0.0052027   0.0053995   0.0009735
            7           8           9          10          11          12
    1  -0.0023083  -0.0015091  -0.0015110  -0.0022142  -0.0022433  -0.0134282
    2   0.0134418  -0.0044368  -0.0071010  -0.0072917   0.0067059   0.0045246
    3  -0.0073210  -0.0007022  -0.0033819  -0.0050146  -0.0077865  -0.0080956
           13          14          15          16          17          18
    1  -0.0037828   0.0057934   0.0010446   0.0049613   0.0013169  -0.0025385
    2  -0.0067646  -0.0063232  -0.0000581  -0.0109788   0.0047308   0.0050540
    3  -0.0045695  -0.0039840   0.0008281   0.0051724   0.0016767  -0.0008530
           19          20
    1  -0.0015895  -0.0000901
    2  -0.0014924   0.0011651
    3  -0.0005630   0.0017932
 Max gradient component =       1.778E-02
 RMS gradient           =       6.056E-03
 Computing fast CPCM-SWIG gradient
 Updating gradient with PCM contributions...
 -- total gradient after adding PCM contribution --
---------------------------------------------------
  Atom         X              Y              Z     
---------------------------------------------------
   1       0.000003      -0.000044       0.000012
   2      -0.000014       0.000026      -0.000018
   3      -0.000011      -0.000079      -0.000024
   4      -0.000036       0.000054       0.000009
   5       0.000036      -0.000096       0.000063
   6       0.000240      -0.000034       0.000092
   7      -0.000248       0.000275       0.000011
   8       0.000021       0.000057      -0.000035
   9       0.000025       0.000027      -0.000004
  10       0.000023      -0.000023      -0.000002
  11      -0.000008      -0.000020      -0.000024
  12       0.000022       0.000070      -0.000002
  13      -0.000001      -0.000020       0.000029
  14       0.000007       0.000036      -0.000057
  15      -0.000342       0.000101      -0.000037
  16       0.000128      -0.000304      -0.000008
  17       0.000002       0.000008      -0.000025
  18       0.000007      -0.000000      -0.000025
  19       0.000138      -0.000017      -0.000001
  20       0.000007      -0.000016       0.000050
---------------------------------------------------
 Number of fixed atoms: 0
 Gradient time:  CPU 409.56 s  wall 58.92 s
 ######################################################
 ######################################################
 # Starting finite difference calculation for IDERIV  #
 Finite diff step size:  1.88973e-03 a.u.
 ----------------------------------------------------------------
             Standard Nuclear Orientation (Angstroms)
    I     Atom           X                Y                Z
 ----------------------------------------------------------------
    1      C      -0.8358119879     0.0051967102     0.1729488147
    2      C      -2.2850972109     0.0469396244    -0.2172962650
    3      O      -3.0505913588     0.3834723126     0.9425169537
    4      C      -0.0930668034    -1.1191681530    -0.0205358659
    5      C       1.2773557629    -1.1485043882     0.3410336861
    6      C       1.8588051094     0.0111482931     0.9747236691
    7      O       3.2463272586     0.2187303310     0.8036151352
    8      C       1.0707160563     1.2379252135     0.9915453707
    9      C      -0.2379790126     1.2090236029     0.6772957830
   10      H      -2.5969420368    -0.9181453422    -0.6181845913
   11      H      -2.4276937483     0.8068118744    -0.9895612029
   12      H      -3.9281582676     0.6495597981     0.6497963493
   13      H      -0.5344925573    -1.9894363781    -0.4871745468
   14      H       1.9323347505    -1.8876192357    -0.0956356604
   15      H       1.6944396438    -0.3551302111     2.1040956423
   16      H       3.7180792552    -0.5062660680     1.2297149410
   17      H       1.5577897818     2.1378289950     1.3422980372
   18      H      -0.8457785126     2.0995543736     0.7611800528
   19      O       1.4959839991    -1.5910877137     3.0024167333
   20      O       1.2128854785    -2.3628509390     2.0369729640
 ----------------------------------------------------------------
 Nuclear Repulsion Energy =         619.04171866 hartrees
 There are       42 alpha and       41 beta electrons
 Discretize the solute cavity surface with Lebedev spheres
	Using 110 Lebedev grid points for each H atom
	Using 194 Lebedev grid points for other atoms
	Atomic van der Waals radii will be scaled by 1.20
 Remove points where switching function is < 1.0e-08
 Keep 1525 surface tesserae and discard 1599 interior tesserae
 Molecular Surface Area = 174.732 Angst**2
 Requested basis set is 6-311++G(2df,2p)
 There are 142 shells and 464 basis functions
 A cutoff of  1.0D-12 yielded   8760 shell pairs
 There are     93478 function pairs (    116221 Cartesian)
 Smallest overlap matrix eigenvalue = 8.02E-07
 Linear dependence detected in AO basis
 Tighter screening thresholds may be required for diffuse basis sets
 Use S2THRESH > 14 and THRESH = 14 in case of SCF convergence issues
 Number of orthogonalized atomic orbitals = 463
 Maximum deviation from orthogonality = 9.341E-11
 Guess MOs from SCF MO coefficient file

 -----------------------------------------------------------------------
  General SCF calculation program by
  Eric Jon Sundstrom, Paul Horn, Yuezhi Mao, Dmitri Zuev, Alec White,
  David Stuck, Shaama M.S., Shane Yost, Joonho Lee, David Small,
  Daniel Levine, Susi Lehtola, Hugh Burton, Evgeny Epifanovsky,
  Bang C. Huynh
 -----------------------------------------------------------------------
 Exchange:     0.1500 Hartree-Fock + 1.0000 wB97M-V + LR-HF
 Correlation:  1.0000 wB97M-V
 Using SG-2 standard quadrature grid
 Nonlocal Correlation:  VV10 with C = 0.0100 and b = 6.00 and scale = 1.00000
 Grid used for NLC:  SG-1 standard quadrature
 
 Citation of the SMD model:
 Marenich, A.V.; Cramer, C.J.; Truhlar, D.G.
 J. Phys. Chem. B 2009, 113, 6378-6396.
 iSolventCode=           1
 Solvent: water                                                           
 
 vradii
            1           2           3           4           5           6
    1   1.8500000   1.8500000   1.5200000   1.8500000   1.8500000   1.8500000
            7           8           9          10          11          12
    1   1.5200000   1.8500000   1.8500000   1.2000000   1.2000000   1.2000000
           13          14          15          16          17          18
    1   1.2000000   1.2000000   1.2000000   1.2000000   1.2000000   1.2000000
           19          20
    1   1.5200000   1.5200000
 -------------------------------------------------------
 OpenMP BLAS3 based DFT computing Module                
 Release: version 1.0, May 2013, Q-Chem Inc. Pittsburgh 
 -------------------------------------------------------
 A unrestricted SCF calculation will be
 performed using Roothaan-Hall, DIIS, GDM
 SCF converges when RMS gradient is below 1.0e-07
 ---------------------------------------
  Cycle       Energy         DIIS error
 ---------------------------------------
    1    -572.8294654048      1.87e-04  Roothaan Step
 ---------------------------------------
  Cycle       Energy         DIIS error
 ---------------------------------------
    1    -572.8596378995      2.13e-04  
    2    -572.8644134552      1.81e-04  Done DIIS. Switching to GDM
 ---------------------------------------
  Cycle       Energy        RMS Gradient
 ---------------------------------------
    1    -572.8644134552      8.52e-03   Normal BFGS step
    2    -572.8642816916      1.53e-02  Line search: overstep
    3    -572.8668266278      3.39e-03   Normal BFGS step
    4    -572.8670042051      1.98e-03   Normal BFGS step
    5    -572.8670357618      2.12e-03   Normal BFGS step
    6    -572.8670530843      4.81e-04   Normal BFGS step
    7    -572.8670555938      3.16e-04   Normal BFGS step
    8    -572.8670562328      2.13e-04   Normal BFGS step
    9    -572.8670564640      1.24e-04   Normal BFGS step
   10    -572.8670565666      1.39e-04   Normal BFGS step
   11    -572.8670566226      8.87e-05   Normal BFGS step
   12    -572.8670566490      3.25e-05   Normal BFGS step
   13    -572.8670566541      1.66e-05   Normal BFGS step
   14    -572.8670566562      1.14e-05   Normal BFGS step
   15    -572.8670566570      4.33e-06   Normal BFGS step
   16    -572.8670566572      3.05e-06   Normal BFGS step
   17    -572.8670566573      2.18e-06   Normal BFGS step
   18    -572.8670566573      1.36e-06   Normal BFGS step
   19    -572.8670566573      1.29e-06   Normal BFGS step
   20    -572.8670566573      6.75e-07   Normal BFGS step
   21    -572.8670566574      4.47e-07   Normal BFGS step
   22    -572.8670566573      2.59e-07   Normal BFGS step
   23    -572.8670566573      7.30e-08  Convergence criterion met
 ---------------------------------------
 SCF time:   CPU 3649.69s  wall 466.00s 
<S^2> =          0.767280325
(3)  G-ENP(liq) elect-nuc-pol free energy of system     -572.867056657 a.u.
(4)  G-CDS(liq) cavity-dispersion-solvent structure 
     free energy                                                3.2727 kcal/mol
(6)  G-S(liq) free energy of system                     -572.861841264 a.u.
 SCF   energy in the final basis set =     -572.8618412636
 Total energy in the final basis set =     -572.8618412636
 
 --------------------------------------------------------------
 
                    Orbital Energies (a.u.)
 --------------------------------------------------------------
 
 Alpha MOs
 -- Occupied --
-19.4188 -19.4140 -19.3497 -19.3401 -10.4062 -10.3947 -10.3904 -10.3738
-10.3631 -10.3512 -10.3483  -1.3274  -1.1719  -1.1574  -0.9973  -0.9263
 -0.9006  -0.8854  -0.8029  -0.7444  -0.7152  -0.6611  -0.6412  -0.6296
 -0.6105  -0.5982  -0.5902  -0.5838  -0.5672  -0.5410  -0.5319  -0.5277
 -0.4917  -0.4771  -0.4629  -0.4440  -0.4336  -0.4088  -0.3918  -0.3720
 -0.3508  -0.3242
 -- Virtual --
 -0.0060   0.0272   0.0339   0.0360   0.0497   0.0538   0.0569   0.0618
  0.0685   0.0801   0.0901   0.0997   0.1052   0.1224   0.1302   0.1343
  0.1393   0.1429   0.1515   0.1551   0.1589   0.1598   0.1649   0.1715
  0.1746   0.1784   0.1805   0.1895   0.1988   0.2030   0.2097   0.2133
  0.2252   0.2288   0.2315   0.2357   0.2459   0.2553   0.2631   0.2639
  0.2743   0.2789   0.2890   0.2955   0.3022   0.3089   0.3111   0.3202
  0.3264   0.3325   0.3345   0.3380   0.3450   0.3516   0.3555   0.3651
  0.3676   0.3800   0.3814   0.3893   0.3942   0.4058   0.4103   0.4160
  0.4197   0.4255   0.4427   0.4429   0.4495   0.4690   0.4724   0.4864
  0.5339   0.5447   0.5583   0.5709   0.5876   0.5968   0.6011   0.6019
  0.6121   0.6184   0.6254   0.6446   0.6474   0.6528   0.6722   0.6729
  0.6903   0.6980   0.7027   0.7150   0.7224   0.7263   0.7373   0.7428
  0.7465   0.7602   0.7700   0.7856   0.7919   0.7957   0.7998   0.8234
  0.8341   0.8435   0.8508   0.8670   0.8814   0.9060   0.9070   0.9265
  0.9363   0.9496   0.9686   0.9811   1.0004   1.0128   1.0299   1.0468
  1.0565   1.0699   1.0812   1.0910   1.1042   1.1135   1.1276   1.1378
  1.1513   1.1558   1.1686   1.1840   1.1926   1.1982   1.2083   1.2106
  1.2319   1.2411   1.2473   1.2541   1.2623   1.2822   1.2899   1.2979
  1.3144   1.3300   1.3303   1.3529   1.3626   1.3755   1.3891   1.3989
  1.4042   1.4101   1.4223   1.4327   1.4403   1.4558   1.4602   1.4792
  1.4894   1.5040   1.5103   1.5160   1.5330   1.5353   1.5522   1.5636
  1.5675   1.6002   1.6103   1.6155   1.6249   1.6593   1.6757   1.6769
  1.6897   1.7233   1.7388   1.7510   1.7592   1.7862   1.8030   1.8222
  1.8509   1.8658   1.9009   1.9171   1.9583   1.9698   2.0031   2.0514
  2.0635   2.0737   2.1106   2.1412   2.1784   2.2105   2.2345   2.2670
  2.3077   2.3308   2.3436   2.3641   2.4008   2.4096   2.4282   2.4784
  2.5895   2.6222   2.6393   2.6706   2.6900   2.7010   2.7285   2.7491
  2.7961   2.8016   2.8105   2.8280   2.8493   2.8542   2.8867   2.8966
  2.9178   2.9207   2.9265   2.9405   2.9442   2.9659   2.9822   3.0080
  3.0198   3.0359   3.0524   3.0629   3.0831   3.1209   3.1397   3.1536
  3.1616   3.1737   3.2031   3.2306   3.2385   3.2506   3.2590   3.2863
  3.2933   3.2982   3.3192   3.3290   3.3565   3.3632   3.3905   3.3963
  3.4114   3.4263   3.4438   3.4568   3.4677   3.4885   3.5146   3.5183
  3.5278   3.5392   3.5619   3.5748   3.5970   3.6070   3.6175   3.6288
  3.6619   3.6855   3.7223   3.7264   3.7576   3.7718   3.7824   3.7924
  3.8029   3.8189   3.8218   3.8388   3.8570   3.8684   3.8774   3.9005
  3.9091   3.9395   3.9506   3.9622   3.9740   4.0131   4.0292   4.0660
  4.0828   4.1006   4.1279   4.1559   4.1709   4.1820   4.2127   4.2390
  4.2669   4.2723   4.2867   4.3175   4.3504   4.3554   4.3615   4.3817
  4.3896   4.4022   4.4227   4.4338   4.4466   4.4803   4.5082   4.5172
  4.5322   4.5587   4.5788   4.5941   4.6081   4.6149   4.6487   4.6592
  4.6884   4.7122   4.7219   4.7522   4.7632   4.8075   4.8270   4.8399
  4.9109   4.9445   4.9860   5.0046   5.0708   5.0848   5.1015   5.1120
  5.1552   5.1680   5.1934   5.2072   5.2435   5.2583   5.2638   5.2895
  5.3017   5.3051   5.3137   5.3268   5.3318   5.3393   5.3728   5.3774
  5.3966   5.4231   5.4779   5.5262   5.5424   5.5798   5.6060   5.6575
  5.6772   5.6842   5.6946   5.7198   5.7275   5.7353   5.8054   5.8507
  5.8757   5.9233   5.9639   6.0184   6.1497   6.1759   6.4818   6.5924
  6.6204   6.6643   6.6802   6.8801   6.9720   7.0309   7.0685   7.1050
  7.1213   7.1309   7.1938   7.2657   7.3170   7.3266   7.3392   7.3443
  7.3598   7.3921   7.4282   7.5472   7.6495   7.6839   7.7973   7.8152
  8.1038   8.1224  24.2503  24.6997  24.7836  24.8134  24.9159  25.1272
 25.4264  50.5151  50.5465  50.5959  50.6242
 
 Beta MOs
 -- Occupied --
-19.4023 -19.3983 -19.3497 -19.3402 -10.4061 -10.3954 -10.3904 -10.3743
-10.3634 -10.3508 -10.3482  -1.2964  -1.1720  -1.1575  -0.9976  -0.9013
 -0.8983  -0.8693  -0.8027  -0.7443  -0.7154  -0.6589  -0.6374  -0.6293
 -0.6015  -0.5878  -0.5727  -0.5567  -0.5411  -0.5340  -0.5275  -0.5092
 -0.4916  -0.4748  -0.4615  -0.4439  -0.4332  -0.4041  -0.3902  -0.3476
 -0.3087
 -- Virtual --
 -0.0067   0.0006   0.0272   0.0341   0.0361   0.0498   0.0542   0.0572
  0.0618   0.0687   0.0803   0.0903   0.1005   0.1058   0.1226   0.1307
  0.1345   0.1398   0.1430   0.1523   0.1557   0.1594   0.1598   0.1653
  0.1722   0.1749   0.1793   0.1821   0.1900   0.1990   0.2031   0.2097
  0.2133   0.2261   0.2296   0.2317   0.2382   0.2462   0.2557   0.2638
  0.2647   0.2744   0.2817   0.2904   0.2957   0.3069   0.3100   0.3131
  0.3222   0.3275   0.3338   0.3349   0.3390   0.3450   0.3521   0.3563
  0.3664   0.3682   0.3811   0.3817   0.3899   0.3957   0.4070   0.4134
  0.4185   0.4202   0.4285   0.4429   0.4437   0.4499   0.4693   0.4739
  0.4872   0.5338   0.5447   0.5582   0.5707   0.5873   0.5967   0.6010
  0.6023   0.6122   0.6184   0.6257   0.6447   0.6471   0.6526   0.6723
  0.6731   0.6902   0.6983   0.7027   0.7152   0.7221   0.7261   0.7373
  0.7426   0.7466   0.7613   0.7701   0.7853   0.7917   0.7957   0.8003
  0.8233   0.8342   0.8435   0.8510   0.8675   0.8813   0.9061   0.9074
  0.9267   0.9371   0.9503   0.9687   0.9814   1.0007   1.0128   1.0335
  1.0471   1.0568   1.0726   1.0827   1.0941   1.1059   1.1161   1.1292
  1.1398   1.1539   1.1599   1.1750   1.1867   1.1968   1.2033   1.2111
  1.2134   1.2382   1.2419   1.2508   1.2625   1.2737   1.2885   1.2906
  1.3002   1.3169   1.3307   1.3365   1.3546   1.3663   1.3763   1.3892
  1.4013   1.4064   1.4118   1.4234   1.4343   1.4409   1.4557   1.4622
  1.4798   1.4940   1.5045   1.5123   1.5216   1.5341   1.5383   1.5520
  1.5643   1.5693   1.6014   1.6116   1.6181   1.6283   1.6694   1.6811
  1.6836   1.6925   1.7254   1.7470   1.7592   1.7638   1.7868   1.8074
  1.8250   1.8538   1.8702   1.9058   1.9251   1.9601   1.9730   2.0048
  2.0529   2.0666   2.0760   2.1148   2.1417   2.1787   2.2110   2.2348
  2.2820   2.3116   2.3374   2.3598   2.3743   2.4033   2.4108   2.4338
  2.4788   2.5893   2.6225   2.6395   2.6698   2.6911   2.7036   2.7315
  2.7486   2.7959   2.8014   2.8099   2.8271   2.8491   2.8537   2.8869
  2.8958   2.9169   2.9198   2.9260   2.9397   2.9436   2.9649   2.9808
  3.0066   3.0183   3.0350   3.0517   3.0623   3.0818   3.1194   3.1391
  3.1524   3.1608   3.1735   3.2021   3.2296   3.2381   3.2498   3.2585
  3.2853   3.2930   3.2976   3.3182   3.3285   3.3555   3.3628   3.3900
  3.3957   3.4104   3.4258   3.4430   3.4565   3.4670   3.4879   3.5141
  3.5176   3.5271   3.5386   3.5607   3.5743   3.5962   3.6062   3.6165
  3.6283   3.6603   3.6848   3.7215   3.7259   3.7572   3.7715   3.7817
  3.7919   3.8021   3.8187   3.8212   3.8383   3.8561   3.8680   3.8766
  3.9000   3.9086   3.9387   3.9498   3.9612   3.9734   4.0124   4.0289
  4.0652   4.0824   4.0998   4.1271   4.1554   4.1699   4.1815   4.2124
  4.2386   4.2664   4.2715   4.2861   4.3171   4.3498   4.3538   4.3609
  4.3811   4.3890   4.4009   4.4219   4.4325   4.4463   4.4797   4.5080
  4.5166   4.5319   4.5604   4.5938   4.6025   4.6139   4.6242   4.6480
  4.6602   4.6890   4.7138   4.7426   4.7541   4.7686   4.8094   4.8390
  4.8472   4.9118   4.9529   4.9865   5.0087   5.0770   5.1063   5.1454
  5.1594   5.1738   5.1895   5.1991   5.2486   5.2615   5.2742   5.2972
  5.3124   5.3168   5.3206   5.3283   5.3350   5.3395   5.3551   5.3795
  5.3820   5.4030   5.4348   5.4780   5.5263   5.5425   5.5795   5.6060
  5.6580   5.6840   5.6955   5.7053   5.7251   5.7349   5.7519   5.8044
  5.8504   5.8753   5.9232   5.9637   6.0182   6.1494   6.1754   6.4812
  6.5923   6.6716   6.6760   6.6866   6.9494   7.0384   7.0966   7.1069
  7.1172   7.1334   7.1741   7.2372   7.3051   7.3170   7.3267   7.3423
  7.3483   7.3601   7.4187   7.4557   7.5639   7.6495   7.6845   7.7972
  7.8151   8.1172   8.1473  24.2502  24.6995  24.7835  24.8133  24.9155
 25.1271  25.4262  50.5276  50.5587  50.5960  50.6243
 --------------------------------------------------------------
 
          Ground-State Mulliken Net Atomic Charges

     Atom                 Charge (a.u.)    Spin (a.u.)
  --------------------------------------------------------
      1 C                     0.515388      -0.034473
      2 C                    -0.650798      -0.001067
      3 O                    -0.407927      -0.000333
      4 C                    -0.692382       0.011634
      5 C                    -0.000320      -0.039376
      6 C                    -0.495679       0.005423
      7 O                    -0.426329       0.000205
      8 C                    -0.297482      -0.028524
      9 C                     0.123495       0.019318
     10 H                     0.229753       0.000374
     11 H                     0.188679      -0.001375
     12 H                     0.325914      -0.000431
     13 H                     0.276333      -0.001826
     14 H                     0.348985       0.001951
     15 H                     0.320339      -0.014825
     16 H                     0.353654      -0.000602
     17 H                     0.303167       0.000104
     18 H                     0.310524       0.000001
     19 O                    -0.239056       0.533718
     20 O                    -0.086257       0.550104
  --------------------------------------------------------
  Sum of atomic charges =    -0.000000
  Sum of spin   charges =     1.000000

 -----------------------------------------------------------------
                    Cartesian Multipole Moments
 -----------------------------------------------------------------
    Charge (ESU x 10^10)
                -0.0000
    Dipole Moment (Debye)
         X      -2.3498      Y       1.6407      Z      -5.0005
       Tot       5.7636
    Quadrupole Moments (Debye-Ang)
        XX     -53.5981     XY      -5.1528     YY     -66.4521
        XZ       5.5960     YZ      10.2661     ZZ     -79.1639
    Octopole Moments (Debye-Ang^2)
       XXX    -102.3643    XXY       7.5424    XYY     -26.0888
       YYY      73.2588    XXZ     -60.4090    XYZ       8.1047
       YYZ     -77.1280    XZZ     -20.8331    YZZ      43.8145
       ZZZ    -210.6697
    Hexadecapole Moments (Debye-Ang^3)
      XXXX   -1113.9236   XXXY     -33.2621   XXYY    -321.3459
      XYYY     130.5824   YYYY    -621.3219   XXXZ    -114.5523
      XXYZ      35.9632   XYYZ     -81.7335   YYYZ     186.0472
      XXZZ    -370.4237   XYZZ      69.5043   YYZZ    -271.2214
      XZZZ    -218.9858   YZZZ     193.8682   ZZZZ    -825.4550
 -----------------------------------------------------------------
 Calculating analytic gradient of the SCF energy
 Gradient of CDS energy
            1           2           3           4           5           6
    1  -0.0000612  -0.0006931   0.0003144  -0.0001231   0.0001629   0.0011761
    2   0.0000098  -0.0003895   0.0000309  -0.0001620  -0.0000655   0.0000752
    3   0.0001051  -0.0005186  -0.0000318  -0.0000820  -0.0000727  -0.0001075
            7           8           9          10          11          12
    1  -0.0011637   0.0002057  -0.0001932   0.0001874   0.0001393  -0.0004349
    2  -0.0000924   0.0002916   0.0002397  -0.0001595   0.0002466   0.0001961
    3   0.0000708   0.0000960   0.0000031   0.0000377   0.0000329   0.0002249
           13          14          15          16          17          18
    1  -0.0001317   0.0001371  -0.0000025   0.0005036   0.0001565  -0.0001517
    2  -0.0001187  -0.0001527  -0.0000737  -0.0000785   0.0001446   0.0001127
    3  -0.0000830  -0.0000025   0.0000534   0.0000972   0.0000624   0.0000150
           19          20
    1  -0.0000640   0.0000359
    2  -0.0000564   0.0000017
    3   0.0000242   0.0000754
 Gradient of SCF Energy
            1           2           3           4           5           6
    1  -0.0086163   0.0084267   0.0147973   0.0050141  -0.0009856  -0.0002260
    2   0.0049869   0.0018245  -0.0054810   0.0037309   0.0037600   0.0001828
    3  -0.0055527   0.0176863   0.0091578   0.0052412   0.0054030   0.0009783
            7           8           9          10          11          12
    1  -0.0023089  -0.0015437  -0.0017805  -0.0022325  -0.0022534  -0.0134288
    2   0.0134412  -0.0044959  -0.0072312  -0.0072828   0.0067034   0.0045227
    3  -0.0073197  -0.0007313  -0.0034580  -0.0050234  -0.0077888  -0.0080910
           13          14          15          16          17          18
    1  -0.0037642   0.0057845   0.0010455   0.0049620   0.0013094  -0.0025191
    2  -0.0067904  -0.0063255  -0.0000579  -0.0109788   0.0047363   0.0050883
    3  -0.0045787  -0.0039892   0.0008282   0.0051720   0.0016719  -0.0008414
           19          20
    1  -0.0015918  -0.0000887
    2  -0.0014991   0.0011656
    3  -0.0005723   0.0018078
 Max gradient component =       1.769E-02
 RMS gradient           =       6.008E-03
 Computing fast CPCM-SWIG gradient
 Updating gradient with PCM contributions...
 -- total gradient after adding PCM contribution --
---------------------------------------------------
  Atom         X              Y              Z     
---------------------------------------------------
   1       0.001199      -0.000239       0.000160
   2      -0.000410       0.000018      -0.000099
   3      -0.000066      -0.000065      -0.000014
   4      -0.000422       0.000355       0.000041
   5      -0.000021      -0.000034       0.000060
   6       0.000241      -0.000035       0.000100
   7      -0.000249       0.000274       0.000012
   8      -0.000016       0.000000      -0.000066
   9      -0.000229      -0.000097      -0.000073
  10       0.000004      -0.000020      -0.000013
  11      -0.000018      -0.000018      -0.000032
  12       0.000019       0.000069       0.000001
  13       0.000018      -0.000041       0.000022
  14      -0.000002       0.000035      -0.000062
  15      -0.000340       0.000100      -0.000038
  16       0.000128      -0.000304      -0.000008
  17      -0.000006       0.000011      -0.000031
  18       0.000027       0.000028      -0.000015
  19       0.000135      -0.000023      -0.000012
  20       0.000009      -0.000015       0.000065
---------------------------------------------------
 Number of fixed atoms: 0
 Gradient time:  CPU 482.87 s  wall 70.39 s
 ----------------------------------------------------------------
             Standard Nuclear Orientation (Angstroms)
    I     Atom           X                Y                Z
 ----------------------------------------------------------------
    1      C      -0.8378119879     0.0051967102     0.1729488147
    2      C      -2.2850972109     0.0469396244    -0.2172962650
    3      O      -3.0505913588     0.3834723126     0.9425169537
    4      C      -0.0930668034    -1.1191681530    -0.0205358659
    5      C       1.2773557629    -1.1485043882     0.3410336861
    6      C       1.8588051094     0.0111482931     0.9747236691
    7      O       3.2463272586     0.2187303310     0.8036151352
    8      C       1.0707160563     1.2379252135     0.9915453707
    9      C      -0.2379790126     1.2090236029     0.6772957830
   10      H      -2.5969420368    -0.9181453422    -0.6181845913
   11      H      -2.4276937483     0.8068118744    -0.9895612029
   12      H      -3.9281582676     0.6495597981     0.6497963493
   13      H      -0.5344925573    -1.9894363781    -0.4871745468
   14      H       1.9323347505    -1.8876192357    -0.0956356604
   15      H       1.6944396438    -0.3551302111     2.1040956423
   16      H       3.7180792552    -0.5062660680     1.2297149410
   17      H       1.5577897818     2.1378289950     1.3422980372
   18      H      -0.8457785126     2.0995543736     0.7611800528
   19      O       1.4959839991    -1.5910877137     3.0024167333
   20      O       1.2128854785    -2.3628509390     2.0369729640
 ----------------------------------------------------------------
 Nuclear Repulsion Energy =         619.02608302 hartrees
 There are       42 alpha and       41 beta electrons
 Discretize the solute cavity surface with Lebedev spheres
	Using 110 Lebedev grid points for each H atom
	Using 194 Lebedev grid points for other atoms
	Atomic van der Waals radii will be scaled by 1.20
 Remove points where switching function is < 1.0e-08
 Keep 1525 surface tesserae and discard 1599 interior tesserae
 Molecular Surface Area = 174.731 Angst**2
 Requested basis set is 6-311++G(2df,2p)
 There are 142 shells and 464 basis functions
 A cutoff of  1.0D-12 yielded   8760 shell pairs
 There are     93478 function pairs (    116221 Cartesian)
 Smallest overlap matrix eigenvalue = 8.02E-07
 Linear dependence detected in AO basis
 Tighter screening thresholds may be required for diffuse basis sets
 Use S2THRESH > 14 and THRESH = 14 in case of SCF convergence issues
 Number of orthogonalized atomic orbitals = 463
 Maximum deviation from orthogonality = 1.489E-10
 Guess MOs from SCF MO coefficient file

 -----------------------------------------------------------------------
  General SCF calculation program by
  Eric Jon Sundstrom, Paul Horn, Yuezhi Mao, Dmitri Zuev, Alec White,
  David Stuck, Shaama M.S., Shane Yost, Joonho Lee, David Small,
  Daniel Levine, Susi Lehtola, Hugh Burton, Evgeny Epifanovsky,
  Bang C. Huynh
 -----------------------------------------------------------------------
 Exchange:     0.1500 Hartree-Fock + 1.0000 wB97M-V + LR-HF
 Correlation:  1.0000 wB97M-V
 Using SG-2 standard quadrature grid
 Nonlocal Correlation:  VV10 with C = 0.0100 and b = 6.00 and scale = 1.00000
 Grid used for NLC:  SG-1 standard quadrature
 
 Citation of the SMD model:
 Marenich, A.V.; Cramer, C.J.; Truhlar, D.G.
 J. Phys. Chem. B 2009, 113, 6378-6396.
 iSolventCode=           1
 Solvent: water                                                           
 
 vradii
            1           2           3           4           5           6
    1   1.8500000   1.8500000   1.5200000   1.8500000   1.8500000   1.8500000
            7           8           9          10          11          12
    1   1.5200000   1.8500000   1.8500000   1.2000000   1.2000000   1.2000000
           13          14          15          16          17          18
    1   1.2000000   1.2000000   1.2000000   1.2000000   1.2000000   1.2000000
           19          20
    1   1.5200000   1.5200000
 -------------------------------------------------------
 OpenMP BLAS3 based DFT computing Module                
 Release: version 1.0, May 2013, Q-Chem Inc. Pittsburgh 
 -------------------------------------------------------
 A unrestricted SCF calculation will be
 performed using Roothaan-Hall, DIIS, GDM
 SCF converges when RMS gradient is below 1.0e-07
 ---------------------------------------
  Cycle       Energy         DIIS error
 ---------------------------------------
    1    -572.8294605288      1.87e-04  Roothaan Step
 ---------------------------------------
  Cycle       Energy         DIIS error
 ---------------------------------------
    1    -572.8596281638      2.13e-04  
    2    -572.8644037040      1.82e-04  Done DIIS. Switching to GDM
 ---------------------------------------
  Cycle       Energy        RMS Gradient
 ---------------------------------------
    1    -572.8644037040      8.52e-03   Normal BFGS step
    2    -572.8642687093      1.53e-02  Line search: overstep
    3    -572.8668268607      3.40e-03   Normal BFGS step
    4    -572.8670042142      1.96e-03   Normal BFGS step
    5    -572.8670360107      2.10e-03   Normal BFGS step
    6    -572.8670533644      4.82e-04   Normal BFGS step
    7    -572.8670558623      3.11e-04   Normal BFGS step
    8    -572.8670564945      2.11e-04   Normal BFGS step
    9    -572.8670567182      1.19e-04   Normal BFGS step
   10    -572.8670568165      1.36e-04   Normal BFGS step
   11    -572.8670568700      8.76e-05   Normal BFGS step
   12    -572.8670568958      3.24e-05   Normal BFGS step
   13    -572.8670569009      1.66e-05   Normal BFGS step
   14    -572.8670569030      1.13e-05   Normal BFGS step
   15    -572.8670569038      4.28e-06   Normal BFGS step
   16    -572.8670569040      3.00e-06   Normal BFGS step
   17    -572.8670569041      2.13e-06   Normal BFGS step
   18    -572.8670569041      1.33e-06   Normal BFGS step
   19    -572.8670569041      1.28e-06   Normal BFGS step
   20    -572.8670569041      6.70e-07   Normal BFGS step
   21    -572.8670569041      4.40e-07   Normal BFGS step
   22    -572.8670569041      2.62e-07   Normal BFGS step
   23    -572.8670569041      7.35e-08  Convergence criterion met
 ---------------------------------------
 SCF time:   CPU 3760.49s  wall 574.00s 
<S^2> =          0.767329904
(3)  G-ENP(liq) elect-nuc-pol free energy of system     -572.867056904 a.u.
(4)  G-CDS(liq) cavity-dispersion-solvent structure 
     free energy                                                3.2729 kcal/mol
(6)  G-S(liq) free energy of system                     -572.861841274 a.u.
 SCF   energy in the final basis set =     -572.8618412745
 Total energy in the final basis set =     -572.8618412745
 
 --------------------------------------------------------------
 
                    Orbital Energies (a.u.)
 --------------------------------------------------------------
 
 Alpha MOs
 -- Occupied --
-19.4189 -19.4140 -19.3497 -19.3401 -10.4062 -10.3947 -10.3903 -10.3739
-10.3631 -10.3513 -10.3484  -1.3274  -1.1719  -1.1574  -0.9972  -0.9263
 -0.9007  -0.8853  -0.8030  -0.7443  -0.7151  -0.6611  -0.6411  -0.6296
 -0.6105  -0.5982  -0.5903  -0.5840  -0.5672  -0.5409  -0.5319  -0.5277
 -0.4917  -0.4770  -0.4628  -0.4442  -0.4335  -0.4088  -0.3918  -0.3720
 -0.3508  -0.3242
 -- Virtual --
 -0.0061   0.0272   0.0339   0.0360   0.0497   0.0538   0.0569   0.0618
  0.0685   0.0801   0.0900   0.0996   0.1053   0.1224   0.1302   0.1343
  0.1393   0.1429   0.1515   0.1551   0.1589   0.1598   0.1648   0.1715
  0.1745   0.1784   0.1805   0.1895   0.1988   0.2030   0.2097   0.2133
  0.2252   0.2288   0.2315   0.2357   0.2459   0.2553   0.2631   0.2640
  0.2743   0.2789   0.2891   0.2955   0.3022   0.3089   0.3112   0.3202
  0.3264   0.3325   0.3344   0.3379   0.3450   0.3516   0.3555   0.3651
  0.3676   0.3800   0.3814   0.3893   0.3942   0.4058   0.4103   0.4162
  0.4197   0.4256   0.4426   0.4429   0.4495   0.4690   0.4724   0.4864
  0.5340   0.5447   0.5582   0.5709   0.5875   0.5968   0.6011   0.6019
  0.6120   0.6184   0.6254   0.6446   0.6474   0.6527   0.6722   0.6729
  0.6903   0.6980   0.7027   0.7151   0.7224   0.7262   0.7372   0.7429
  0.7465   0.7601   0.7701   0.7856   0.7919   0.7956   0.7997   0.8234
  0.8340   0.8435   0.8509   0.8670   0.8812   0.9059   0.9070   0.9265
  0.9364   0.9496   0.9687   0.9811   1.0004   1.0128   1.0299   1.0468
  1.0566   1.0699   1.0812   1.0910   1.1042   1.1135   1.1276   1.1377
  1.1514   1.1558   1.1686   1.1839   1.1926   1.1983   1.2083   1.2104
  1.2319   1.2411   1.2473   1.2541   1.2622   1.2823   1.2899   1.2979
  1.3143   1.3299   1.3304   1.3528   1.3626   1.3754   1.3893   1.3989
  1.4042   1.4102   1.4223   1.4327   1.4404   1.4558   1.4601   1.4793
  1.4895   1.5038   1.5102   1.5160   1.5330   1.5353   1.5522   1.5635
  1.5675   1.6003   1.6103   1.6153   1.6249   1.6593   1.6758   1.6770
  1.6896   1.7233   1.7388   1.7510   1.7592   1.7861   1.8029   1.8222
  1.8510   1.8660   1.9009   1.9170   1.9583   1.9698   2.0031   2.0514
  2.0635   2.0734   2.1106   2.1414   2.1788   2.2106   2.2345   2.2670
  2.3080   2.3309   2.3439   2.3641   2.4009   2.4097   2.4282   2.4784
  2.5896   2.6224   2.6392   2.6705   2.6901   2.7008   2.7284   2.7491
  2.7963   2.8017   2.8107   2.8281   2.8495   2.8544   2.8868   2.8967
  2.9179   2.9207   2.9265   2.9406   2.9445   2.9660   2.9823   3.0077
  3.0199   3.0360   3.0524   3.0629   3.0831   3.1210   3.1396   3.1535
  3.1617   3.1738   3.2030   3.2307   3.2387   3.2505   3.2591   3.2863
  3.2932   3.2984   3.3189   3.3287   3.3562   3.3634   3.3903   3.3956
  3.4117   3.4263   3.4437   3.4568   3.4674   3.4884   3.5145   3.5183
  3.5277   3.5391   3.5618   3.5747   3.5970   3.6071   3.6176   3.6288
  3.6619   3.6855   3.7223   3.7266   3.7573   3.7719   3.7823   3.7924
  3.8028   3.8189   3.8216   3.8388   3.8570   3.8684   3.8775   3.9004
  3.9091   3.9394   3.9507   3.9622   3.9739   4.0131   4.0291   4.0663
  4.0829   4.1005   4.1279   4.1560   4.1706   4.1825   4.2127   4.2390
  4.2670   4.2722   4.2868   4.3174   4.3502   4.3555   4.3614   4.3818
  4.3895   4.4021   4.4231   4.4336   4.4469   4.4801   4.5081   4.5169
  4.5320   4.5586   4.5788   4.5941   4.6075   4.6144   4.6483   4.6598
  4.6883   4.7122   4.7218   4.7513   4.7632   4.8072   4.8269   4.8395
  4.9115   4.9442   4.9856   5.0045   5.0704   5.0849   5.1016   5.1119
  5.1554   5.1680   5.1924   5.2072   5.2431   5.2582   5.2636   5.2895
  5.3016   5.3050   5.3136   5.3268   5.3317   5.3390   5.3726   5.3775
  5.3966   5.4232   5.4778   5.5260   5.5422   5.5799   5.6062   5.6576
  5.6771   5.6843   5.6946   5.7200   5.7275   5.7353   5.8061   5.8504
  5.8754   5.9233   5.9636   6.0187   6.1493   6.1752   6.4802   6.5927
  6.6204   6.6643   6.6802   6.8801   6.9720   7.0309   7.0685   7.1050
  7.1213   7.1309   7.1938   7.2657   7.3172   7.3267   7.3392   7.3443
  7.3598   7.3921   7.4282   7.5472   7.6498   7.6839   7.7974   7.8152
  8.1038   8.1224  24.2511  24.6991  24.7843  24.8153  24.9151  25.1257
 25.4242  50.5151  50.5465  50.5960  50.6242
 
 Beta MOs
 -- Occupied --
-19.4023 -19.3983 -19.3497 -19.3402 -10.4061 -10.3954 -10.3903 -10.3744
-10.3634 -10.3509 -10.3482  -1.2964  -1.1720  -1.1575  -0.9975  -0.9015
 -0.8983  -0.8693  -0.8028  -0.7442  -0.7154  -0.6588  -0.6374  -0.6293
 -0.6016  -0.5879  -0.5728  -0.5567  -0.5409  -0.5340  -0.5275  -0.5092
 -0.4916  -0.4747  -0.4614  -0.4442  -0.4331  -0.4041  -0.3901  -0.3476
 -0.3087
 -- Virtual --
 -0.0068   0.0006   0.0272   0.0341   0.0361   0.0498   0.0542   0.0572
  0.0618   0.0687   0.0803   0.0903   0.1005   0.1059   0.1226   0.1307
  0.1345   0.1398   0.1430   0.1523   0.1557   0.1594   0.1598   0.1652
  0.1722   0.1749   0.1793   0.1821   0.1900   0.1990   0.2031   0.2097
  0.2132   0.2261   0.2297   0.2317   0.2382   0.2463   0.2557   0.2638
  0.2647   0.2744   0.2817   0.2904   0.2957   0.3069   0.3099   0.3131
  0.3222   0.3275   0.3338   0.3349   0.3390   0.3451   0.3521   0.3563
  0.3664   0.3682   0.3811   0.3816   0.3898   0.3957   0.4070   0.4134
  0.4187   0.4202   0.4285   0.4428   0.4437   0.4499   0.4693   0.4739
  0.4872   0.5340   0.5448   0.5581   0.5707   0.5872   0.5967   0.6010
  0.6023   0.6120   0.6184   0.6257   0.6446   0.6471   0.6525   0.6724
  0.6731   0.6902   0.6983   0.7026   0.7153   0.7222   0.7261   0.7373
  0.7426   0.7466   0.7612   0.7701   0.7854   0.7917   0.7957   0.8003
  0.8233   0.8341   0.8435   0.8510   0.8674   0.8811   0.9060   0.9073
  0.9267   0.9371   0.9503   0.9688   0.9814   1.0007   1.0128   1.0335
  1.0471   1.0568   1.0726   1.0827   1.0941   1.1059   1.1161   1.1292
  1.1398   1.1539   1.1598   1.1750   1.1867   1.1967   1.2033   1.2110
  1.2134   1.2381   1.2418   1.2508   1.2624   1.2737   1.2885   1.2906
  1.3002   1.3168   1.3306   1.3365   1.3546   1.3663   1.3762   1.3894
  1.4013   1.4064   1.4119   1.4234   1.4343   1.4410   1.4557   1.4621
  1.4800   1.4941   1.5043   1.5123   1.5215   1.5341   1.5383   1.5520
  1.5642   1.5693   1.6014   1.6117   1.6179   1.6283   1.6694   1.6812
  1.6836   1.6925   1.7253   1.7470   1.7592   1.7638   1.7868   1.8075
  1.8250   1.8539   1.8704   1.9059   1.9250   1.9601   1.9731   2.0048
  2.0529   2.0665   2.0757   2.1149   2.1418   2.1789   2.2110   2.2348
  2.2820   2.3120   2.3376   2.3599   2.3743   2.4034   2.4108   2.4338
  2.4788   2.5894   2.6227   2.6394   2.6697   2.6912   2.7034   2.7315
  2.7485   2.7960   2.8015   2.8101   2.8271   2.8492   2.8539   2.8870
  2.8959   2.9170   2.9198   2.9261   2.9398   2.9438   2.9651   2.9809
  3.0062   3.0183   3.0351   3.0516   3.0623   3.0818   3.1194   3.1390
  3.1524   3.1608   3.1736   3.2020   3.2297   3.2384   3.2497   3.2585
  3.2853   3.2929   3.2977   3.3180   3.3282   3.3553   3.3629   3.3898
  3.3950   3.4107   3.4258   3.4429   3.4565   3.4667   3.4878   3.5140
  3.5176   3.5270   3.5385   3.5607   3.5742   3.5962   3.6064   3.6165
  3.6283   3.6603   3.6848   3.7214   3.7261   3.7569   3.7715   3.7816
  3.7918   3.8020   3.8187   3.8210   3.8383   3.8561   3.8681   3.8767
  3.8999   3.9086   3.9386   3.9499   3.9612   3.9733   4.0124   4.0287
  4.0655   4.0825   4.0996   4.1271   4.1555   4.1696   4.1820   4.2124
  4.2386   4.2664   4.2714   4.2862   4.3170   4.3496   4.3540   4.3608
  4.3812   4.3889   4.4008   4.4223   4.4324   4.4467   4.4795   4.5079
  4.5163   4.5318   4.5603   4.5938   4.6021   4.6134   4.6241   4.6476
  4.6607   4.6889   4.7137   4.7425   4.7533   4.7685   4.8091   4.8386
  4.8471   4.9123   4.9525   4.9862   5.0086   5.0767   5.1064   5.1453
  5.1596   5.1738   5.1894   5.1980   5.2481   5.2614   5.2742   5.2971
  5.3124   5.3168   5.3206   5.3283   5.3350   5.3393   5.3549   5.3795
  5.3819   5.4031   5.4348   5.4779   5.5261   5.5424   5.5795   5.6062
  5.6581   5.6842   5.6955   5.7052   5.7252   5.7349   5.7519   5.8050
  5.8500   5.8751   5.9232   5.9634   6.0185   6.1490   6.1747   6.4795
  6.5926   6.6716   6.6760   6.6866   6.9494   7.0384   7.0966   7.1070
  7.1172   7.1334   7.1741   7.2372   7.3051   7.3171   7.3267   7.3423
  7.3483   7.3602   7.4187   7.4557   7.5639   7.6498   7.6845   7.7973
  7.8151   8.1172   8.1473  24.2510  24.6989  24.7842  24.8153  24.9148
 25.1256  25.4241  50.5276  50.5587  50.5961  50.6243
 --------------------------------------------------------------
 
          Ground-State Mulliken Net Atomic Charges

     Atom                 Charge (a.u.)    Spin (a.u.)
  --------------------------------------------------------
      1 C                     0.514223      -0.034693
      2 C                    -0.651407      -0.001080
      3 O                    -0.407883      -0.000337
      4 C                    -0.691365       0.011819
      5 C                    -0.000328      -0.039391
      6 C                    -0.495317       0.005413
      7 O                    -0.426343       0.000205
      8 C                    -0.298087      -0.028569
      9 C                     0.124464       0.019328
     10 H                     0.229783       0.000374
     11 H                     0.188645      -0.001389
     12 H                     0.325918      -0.000435
     13 H                     0.276287      -0.001828
     14 H                     0.349062       0.001954
     15 H                     0.320271      -0.014837
     16 H                     0.353666      -0.000602
     17 H                     0.303148       0.000106
     18 H                     0.310465       0.000001
     19 O                    -0.238997       0.533777
     20 O                    -0.086208       0.550184
  --------------------------------------------------------
  Sum of atomic charges =    -0.000000
  Sum of spin   charges =     1.000000

 -----------------------------------------------------------------
                    Cartesian Multipole Moments
 -----------------------------------------------------------------
    Charge (ESU x 10^10)
                -0.0000
    Dipole Moment (Debye)
         X      -2.3530      Y       1.6395      Z      -5.0008
       Tot       5.7648
    Quadrupole Moments (Debye-Ang)
        XX     -53.5866     XY      -5.1555     YY     -66.4580
        XZ       5.6007     YZ      10.2613     ZZ     -79.1630
    Octopole Moments (Debye-Ang^2)
       XXX    -102.3574    XXY       7.5402    XYY     -26.0727
       YYY      73.2507    XXZ     -60.4103    XYZ       8.1040
       YYZ     -77.1258    XZZ     -20.8221    YZZ      43.8081
       ZZZ    -210.6638
    Hexadecapole Moments (Debye-Ang^3)
      XXXX   -1113.9374   XXXY     -33.2734   XXYY    -321.3457
      XYYY     130.5737   YYYY    -621.3695   XXXZ    -114.5276
      XXYZ      35.9566   XYYZ     -81.7153   YYYZ     186.0191
      XXZZ    -370.4156   XYZZ      69.4927   YYZZ    -271.2149
      XZZZ    -218.9554   YZZZ     193.8383   ZZZZ    -825.4239
 -----------------------------------------------------------------
 Calculating analytic gradient of the SCF energy
 Gradient of CDS energy
            1           2           3           4           5           6
    1  -0.0000637  -0.0006911   0.0003146  -0.0001231   0.0001630   0.0011762
    2   0.0000104  -0.0003894   0.0000306  -0.0001628  -0.0000655   0.0000753
    3   0.0001044  -0.0005180  -0.0000317  -0.0000820  -0.0000726  -0.0001075
            7           8           9          10          11          12
    1  -0.0011637   0.0002058  -0.0001928   0.0001872   0.0001393  -0.0004349
    2  -0.0000924   0.0002915   0.0002404  -0.0001595   0.0002465   0.0001961
    3   0.0000708   0.0000960   0.0000035   0.0000376   0.0000327   0.0002248
           13          14          15          16          17          18
    1  -0.0001318   0.0001371  -0.0000025   0.0005036   0.0001565  -0.0001517
    2  -0.0001186  -0.0001527  -0.0000737  -0.0000785   0.0001446   0.0001126
    3  -0.0000830  -0.0000025   0.0000534   0.0000972   0.0000624   0.0000149
           19          20
    1  -0.0000640   0.0000360
    2  -0.0000564   0.0000017
    3   0.0000242   0.0000754
 Gradient of SCF Energy
            1           2           3           4           5           6
    1  -0.0110512   0.0092603   0.0149166   0.0057713  -0.0008782  -0.0002318
    2   0.0053618   0.0018433  -0.0055099   0.0031301   0.0036342   0.0001856
    3  -0.0058629   0.0178815   0.0091401   0.0051644   0.0053961   0.0009688
            7           8           9          10          11          12
    1  -0.0023076  -0.0014744  -0.0012414  -0.0021959  -0.0022333  -0.0134274
    2   0.0134423  -0.0043777  -0.0069711  -0.0073006   0.0067084   0.0045265
    3  -0.0073222  -0.0006730  -0.0033060  -0.0050058  -0.0077841  -0.0081001
           13          14          15          16          17          18
    1  -0.0038014   0.0058023   0.0010437   0.0049605   0.0013245  -0.0025580
    2  -0.0067389  -0.0063209  -0.0000582  -0.0109787   0.0047252   0.0050196
    3  -0.0045603  -0.0039789   0.0008280   0.0051728   0.0016815  -0.0008646
           19          20
    1  -0.0015872  -0.0000916
    2  -0.0014857   0.0011646
    3  -0.0005537   0.0017786
 Max gradient component =       1.788E-02
 RMS gradient           =       6.110E-03
 Computing fast CPCM-SWIG gradient
 Updating gradient with PCM contributions...
 -- total gradient after adding PCM contribution --
---------------------------------------------------
  Atom         X              Y              Z     
---------------------------------------------------
   1      -0.001194       0.000149      -0.000136
   2       0.000385       0.000034       0.000064
   3       0.000045      -0.000093      -0.000035
   4       0.000349      -0.000246      -0.000023
   5       0.000094      -0.000158       0.000065
   6       0.000238      -0.000032       0.000083
   7      -0.000248       0.000275       0.000010
   8       0.000059       0.000115      -0.000005
   9       0.000278       0.000150       0.000064
  10       0.000043      -0.000027       0.000008
  11       0.000001      -0.000022      -0.000017
  12       0.000026       0.000071      -0.000005
  13      -0.000019       0.000000       0.000036
  14       0.000016       0.000037      -0.000053
  15      -0.000344       0.000101      -0.000036
  16       0.000127      -0.000304      -0.000007
  17       0.000010       0.000006      -0.000020
  18      -0.000013      -0.000029      -0.000036
  19       0.000140      -0.000010       0.000009
  20       0.000006      -0.000017       0.000035
---------------------------------------------------
 Number of fixed atoms: 0
 Gradient time:  CPU 481.51 s  wall 69.97 s
 ----------------------------------------------------------------
             Standard Nuclear Orientation (Angstroms)
    I     Atom           X                Y                Z
 ----------------------------------------------------------------
    1      C      -0.8368119879     0.0061967102     0.1729488147
    2      C      -2.2850972109     0.0469396244    -0.2172962650
    3      O      -3.0505913588     0.3834723126     0.9425169537
    4      C      -0.0930668034    -1.1191681530    -0.0205358659
    5      C       1.2773557629    -1.1485043882     0.3410336861
    6      C       1.8588051094     0.0111482931     0.9747236691
    7      O       3.2463272586     0.2187303310     0.8036151352
    8      C       1.0707160563     1.2379252135     0.9915453707
    9      C      -0.2379790126     1.2090236029     0.6772957830
   10      H      -2.5969420368    -0.9181453422    -0.6181845913
   11      H      -2.4276937483     0.8068118744    -0.9895612029
   12      H      -3.9281582676     0.6495597981     0.6497963493
   13      H      -0.5344925573    -1.9894363781    -0.4871745468
   14      H       1.9323347505    -1.8876192357    -0.0956356604
   15      H       1.6944396438    -0.3551302111     2.1040956423
   16      H       3.7180792552    -0.5062660680     1.2297149410
   17      H       1.5577897818     2.1378289950     1.3422980372
   18      H      -0.8457785126     2.0995543736     0.7611800528
   19      O       1.4959839991    -1.5910877137     3.0024167333
   20      O       1.2128854785    -2.3628509390     2.0369729640
 ----------------------------------------------------------------
 Nuclear Repulsion Energy =         619.03240130 hartrees
 There are       42 alpha and       41 beta electrons
 Discretize the solute cavity surface with Lebedev spheres
	Using 110 Lebedev grid points for each H atom
	Using 194 Lebedev grid points for other atoms
	Atomic van der Waals radii will be scaled by 1.20
 Remove points where switching function is < 1.0e-08
 Keep 1525 surface tesserae and discard 1599 interior tesserae
 Molecular Surface Area = 174.731 Angst**2
 Requested basis set is 6-311++G(2df,2p)
 There are 142 shells and 464 basis functions
 A cutoff of  1.0D-12 yielded   8760 shell pairs
 There are     93478 function pairs (    116221 Cartesian)
 Smallest overlap matrix eigenvalue = 8.02E-07
 Linear dependence detected in AO basis
 Tighter screening thresholds may be required for diffuse basis sets
 Use S2THRESH > 14 and THRESH = 14 in case of SCF convergence issues
 Number of orthogonalized atomic orbitals = 463
 Maximum deviation from orthogonality = 2.087E-10
 Guess MOs from SCF MO coefficient file

 -----------------------------------------------------------------------
  General SCF calculation program by
  Eric Jon Sundstrom, Paul Horn, Yuezhi Mao, Dmitri Zuev, Alec White,
  David Stuck, Shaama M.S., Shane Yost, Joonho Lee, David Small,
  Daniel Levine, Susi Lehtola, Hugh Burton, Evgeny Epifanovsky,
  Bang C. Huynh
 -----------------------------------------------------------------------
 Exchange:     0.1500 Hartree-Fock + 1.0000 wB97M-V + LR-HF
 Correlation:  1.0000 wB97M-V
 Using SG-2 standard quadrature grid
 Nonlocal Correlation:  VV10 with C = 0.0100 and b = 6.00 and scale = 1.00000
 Grid used for NLC:  SG-1 standard quadrature
 
 Citation of the SMD model:
 Marenich, A.V.; Cramer, C.J.; Truhlar, D.G.
 J. Phys. Chem. B 2009, 113, 6378-6396.
 iSolventCode=           1
 Solvent: water                                                           
 
 vradii
            1           2           3           4           5           6
    1   1.8500000   1.8500000   1.5200000   1.8500000   1.8500000   1.8500000
            7           8           9          10          11          12
    1   1.5200000   1.8500000   1.8500000   1.2000000   1.2000000   1.2000000
           13          14          15          16          17          18
    1   1.2000000   1.2000000   1.2000000   1.2000000   1.2000000   1.2000000
           19          20
    1   1.5200000   1.5200000
 -------------------------------------------------------
 OpenMP BLAS3 based DFT computing Module                
 Release: version 1.0, May 2013, Q-Chem Inc. Pittsburgh 
 -------------------------------------------------------
 A unrestricted SCF calculation will be
 performed using Roothaan-Hall, DIIS, GDM
 SCF converges when RMS gradient is below 1.0e-07
 ---------------------------------------
  Cycle       Energy         DIIS error
 ---------------------------------------
    1    -572.8294634336      1.87e-04  Roothaan Step
 ---------------------------------------
  Cycle       Energy         DIIS error
 ---------------------------------------
    1    -572.8596367269      2.13e-04  
    2    -572.8644140968      1.81e-04  Done DIIS. Switching to GDM
 ---------------------------------------
  Cycle       Energy        RMS Gradient
 ---------------------------------------
    1    -572.8644140968      8.51e-03   Normal BFGS step
    2    -572.8642829824      1.53e-02  Line search: overstep
    3    -572.8668264191      3.36e-03   Normal BFGS step
    4    -572.8670041729      1.97e-03   Normal BFGS step
    5    -572.8670358848      2.11e-03   Normal BFGS step
    6    -572.8670532616      4.89e-04   Normal BFGS step
    7    -572.8670557837      3.17e-04   Normal BFGS step
    8    -572.8670564275      2.16e-04   Normal BFGS step
    9    -572.8670566601      1.24e-04   Normal BFGS step
   10    -572.8670567621      1.39e-04   Normal BFGS step
   11    -572.8670568181      8.92e-05   Normal BFGS step
   12    -572.8670568447      3.24e-05   Normal BFGS step
   13    -572.8670568499      1.70e-05   Normal BFGS step
   14    -572.8670568521      1.16e-05   Normal BFGS step
[...]
 Force Cnst:      1.2975                 1.0465                 1.2060
 Red. Mass:       1.5430                 1.2249                 1.3450
 IR Active:          YES                    YES                    YES
 IR Intens:      193.635                139.430                 15.277
 Raman Active:       YES                    YES                    YES
               X      Y      Z        X      Y      Z        X      Y      Z
 C          0.154  0.032  0.022    0.081  0.028  0.008   -0.104 -0.024 -0.083
 C         -0.067 -0.023  0.016   -0.031 -0.015  0.012    0.052  0.029  0.031
 O         -0.011  0.000 -0.049   -0.011 -0.000 -0.030   -0.023 -0.022 -0.004
 C          0.048 -0.009  0.003    0.015 -0.016  0.004   -0.043  0.025  0.011
 C         -0.062 -0.006  0.003   -0.038  0.022  0.013    0.048 -0.008 -0.001
 C         -0.025  0.046  0.022    0.020 -0.045 -0.031    0.003 -0.008 -0.002
 O          0.021  0.026 -0.008   -0.009 -0.027  0.012   -0.010  0.000  0.001
 C         -0.005 -0.042 -0.042   -0.023 -0.007  0.016    0.006  0.031  0.009
 C          0.008 -0.008  0.009    0.009  0.000 -0.001   -0.007  0.000  0.006
 H         -0.111  0.025 -0.072   -0.038  0.008 -0.041    0.023 -0.018  0.194
 H          0.158  0.001 -0.009    0.188 -0.014 -0.031    0.719 -0.173 -0.301
 H         -0.172  0.081  0.529   -0.130  0.063  0.399   -0.135  0.069  0.426
 H         -0.172  0.100  0.019   -0.044  0.030 -0.020    0.102 -0.017 -0.053
 H         -0.183 -0.016 -0.157    0.091  0.140  0.015    0.050 -0.040  0.052
 H          0.403 -0.275  0.049   -0.446  0.140 -0.039    0.106  0.008 -0.023
 H         -0.405 -0.176  0.132    0.513  0.218 -0.162   -0.064 -0.025  0.018
 H         -0.141 -0.008  0.046   -0.326  0.207 -0.123    0.192 -0.068  0.018
 H         -0.099 -0.079 -0.065    0.081  0.043  0.034    0.077  0.061  0.028
 O         -0.007 -0.000  0.008    0.012  0.010  0.017   -0.003 -0.003 -0.010
 O          0.004  0.004 -0.005   -0.009 -0.009 -0.018    0.003  0.001  0.011
 TransDip  -0.332 -0.029  0.296    0.070  0.369 -0.048   -0.036 -0.061  0.103

 Mode:                34                     35                     36
 Frequency:      1277.68                1289.57                1312.67
 Force Cnst:      1.1055                 1.9031                 2.6157
 Red. Mass:       1.1494                 1.9423                 2.5764
 IR Active:          YES                    YES                    YES
 IR Intens:       38.883                 92.765                 99.470
 Raman Active:       YES                    YES                    YES
               X      Y      Z        X      Y      Z        X      Y      Z
 C         -0.051  0.042 -0.003    0.030 -0.011  0.007   -0.013 -0.040 -0.011
 C          0.012 -0.048  0.027   -0.005  0.002 -0.003    0.018 -0.008  0.014
 O         -0.007  0.040 -0.022    0.001 -0.003 -0.003   -0.005  0.012 -0.013
 C         -0.025 -0.011 -0.005   -0.020  0.003  0.002   -0.067 -0.048 -0.052
 C          0.010 -0.017 -0.009    0.001  0.065  0.000    0.142  0.035  0.065
 C         -0.008 -0.014 -0.003    0.140 -0.057 -0.072    0.203  0.112  0.021
 O          0.003  0.003  0.000   -0.133 -0.034  0.052   -0.128 -0.033  0.006
 C          0.003  0.009  0.003   -0.004 -0.013  0.013    0.011 -0.022 -0.007
 C          0.000 -0.012 -0.004    0.009  0.034  0.008   -0.033  0.033  0.000
 H          0.655 -0.101 -0.373   -0.086  0.016  0.026    0.225 -0.034 -0.099
 H         -0.176  0.144  0.262   -0.053 -0.005 -0.003   -0.111  0.034  0.085
 H         -0.119  0.061  0.348    0.003 -0.004 -0.010   -0.053  0.026  0.153
 H          0.299 -0.183 -0.001   -0.064  0.049 -0.039   -0.413  0.123 -0.071
 H          0.099  0.024  0.049    0.066  0.014  0.195   -0.491 -0.311 -0.318
 H          0.076  0.041  0.008    0.747  0.414 -0.056   -0.231 -0.203 -0.055
 H         -0.035 -0.016  0.012    0.137  0.089 -0.062    0.010  0.044 -0.032
 H          0.015  0.003  0.004   -0.150  0.093 -0.055    0.127 -0.095  0.036
 H         -0.049 -0.043 -0.027   -0.218 -0.108 -0.101   -0.062  0.021 -0.024
 O         -0.004 -0.009 -0.013   -0.027 -0.039 -0.079    0.024  0.055  0.074
 O          0.004  0.008  0.013    0.022  0.025  0.072   -0.024 -0.056 -0.069
 TransDip  -0.006 -0.064  0.189    0.308 -0.008 -0.017    0.290  0.073 -0.114

 Mode:                37                     38                     39
 Frequency:      1334.62                1363.03                1405.45
 Force Cnst:      2.0657                 2.1261                 3.0737
 Red. Mass:       1.9683                 1.9423                 2.6411
 IR Active:          YES                    YES                    YES
 IR Intens:      343.344                336.164                105.106
 Raman Active:       YES                    YES                    YES
               X      Y      Z        X      Y      Z        X      Y      Z
 C          0.020 -0.084 -0.018   -0.003 -0.032 -0.009   -0.007  0.172  0.047
 C          0.018  0.007  0.012   -0.011  0.010  0.001   -0.039 -0.019 -0.011
 O         -0.006  0.008 -0.020   -0.001  0.005  0.003    0.011 -0.006  0.020
 C          0.042 -0.005  0.002    0.077  0.012  0.027   -0.010 -0.052 -0.021
 C          0.021  0.035  0.020   -0.070 -0.013 -0.029   -0.017 -0.117 -0.034
 C         -0.078  0.042 -0.014   -0.056  0.028 -0.011   -0.003  0.261  0.023
 O          0.029 -0.021  0.007   -0.006 -0.029  0.035   -0.038 -0.058  0.026
 C         -0.054  0.037 -0.006   -0.039  0.040 -0.002    0.050 -0.073 -0.012
 C         -0.019 -0.032 -0.012   -0.025 -0.049 -0.021   -0.042 -0.040 -0.019
 H          0.126 -0.014 -0.038    0.166 -0.035 -0.034   -0.122  0.014 -0.011
 H         -0.203  0.026  0.079   -0.049  0.020  0.022    0.286 -0.021 -0.085
 H         -0.057  0.027  0.163    0.000 -0.002 -0.009    0.066 -0.025 -0.172
 H         -0.399  0.232 -0.019   -0.127  0.126  0.025    0.325 -0.265  0.035
 H         -0.264 -0.123 -0.124    0.096  0.065  0.105    0.045 -0.014 -0.155
 H         -0.013 -0.102  0.070    0.638  0.137 -0.075    0.161 -0.239  0.066
 H          0.319  0.116 -0.091    0.350  0.128 -0.110    0.541  0.219 -0.176
 H          0.293 -0.174  0.050    0.284 -0.152  0.043    0.099 -0.132  0.063
 H          0.414  0.244  0.173    0.326  0.172  0.129   -0.102 -0.079 -0.077
 O         -0.034 -0.096 -0.102    0.025  0.097  0.098   -0.015 -0.040 -0.029
 O          0.034  0.095  0.111   -0.029 -0.099 -0.108    0.011  0.040  0.036
 TransDip   0.170 -0.337  0.458   -0.102  0.396 -0.422    0.298  0.005  0.138

 Mode:                40                     41                     42
 Frequency:      1445.64                1466.33                1496.46
 Force Cnst:      2.1494                 3.4373                 1.4533
 Red. Mass:       1.7456                 2.7133                 1.1015
 IR Active:          YES                    YES                    YES
 IR Intens:       40.581                 75.021                  8.429
 Raman Active:       YES                    YES                    YES
               X      Y      Z        X      Y      Z        X      Y      Z
 C         -0.032 -0.028 -0.028   -0.096 -0.025 -0.026    0.016  0.010  0.005
 C         -0.130  0.034  0.010    0.161 -0.007  0.005   -0.038 -0.014 -0.076
 O          0.020  0.003  0.044   -0.021 -0.001 -0.045    0.002 -0.003 -0.009
 C          0.125 -0.045  0.018    0.115 -0.003  0.031   -0.006 -0.002 -0.003
 C         -0.089 -0.009 -0.009   -0.155 -0.087 -0.055    0.002  0.004  0.002
 C          0.056 -0.009  0.002    0.140  0.039  0.025    0.012 -0.009  0.000
 O         -0.014  0.011 -0.004   -0.045  0.009 -0.003   -0.003  0.001 -0.001
 C          0.082 -0.010  0.013    0.137  0.010  0.026   -0.010  0.010 -0.001
 C         -0.059  0.030 -0.005   -0.143  0.001 -0.034   -0.004 -0.011 -0.003
 H          0.591 -0.138 -0.175   -0.358  0.093  0.206    0.110 -0.326  0.619
 H          0.407 -0.050 -0.182   -0.416  0.074  0.209    0.214  0.513  0.421
 H          0.119 -0.052 -0.332   -0.129  0.061  0.366    0.003 -0.001 -0.008
 H         -0.316  0.183  0.007   -0.074  0.080  0.067    0.007 -0.013  0.002
 H          0.042  0.113 -0.009    0.307  0.239  0.075   -0.001  0.002  0.001
 H         -0.117 -0.049  0.030   -0.157 -0.153  0.027   -0.013 -0.011 -0.007
 H         -0.110 -0.032  0.034   -0.149 -0.034  0.039   -0.021 -0.007  0.006
 H         -0.108  0.108  0.005    0.026  0.084  0.058    0.030 -0.012  0.002
 H         -0.051  0.050 -0.000    0.070  0.157  0.061    0.030  0.011  0.012
 O         -0.005 -0.019 -0.017   -0.003 -0.013 -0.005   -0.001 -0.002 -0.002
 O          0.006  0.023  0.014    0.005  0.021  0.005    0.001  0.002  0.002
 TransDip  -0.127  0.160  0.010    0.204  0.079  0.170    0.085  0.017  0.035

 Mode:                43                     44                     45
 Frequency:      1506.24                1567.61                1690.19
 Force Cnst:      3.6312                 4.5491                 8.1078
 Red. Mass:       2.7165                 3.1419                 4.8170
 IR Active:          YES                    YES                    YES
 IR Intens:       34.074                 62.759                185.232
 Raman Active:       YES                    YES                    YES
               X      Y      Z        X      Y      Z        X      Y      Z
 C          0.128  0.121  0.071   -0.088  0.208  0.044    0.224 -0.211 -0.009
 C         -0.064 -0.009 -0.001    0.041 -0.025 -0.001   -0.057  0.026 -0.001
 O          0.008 -0.001  0.016    0.001 -0.002 -0.004   -0.000  0.002  0.005
 C         -0.056 -0.010 -0.019    0.061 -0.167 -0.047   -0.229  0.194  0.008
 C         -0.019  0.003  0.008    0.106  0.089  0.066    0.072 -0.032 -0.014
 C          0.174 -0.104  0.009   -0.107 -0.108 -0.063   -0.071  0.045 -0.027
 O         -0.045  0.016 -0.007    0.031  0.016 -0.005    0.006  0.001 -0.003
 C         -0.099  0.142 -0.002    0.145  0.030  0.036    0.259 -0.052  0.049
 C         -0.097 -0.146 -0.066   -0.140 -0.073 -0.054   -0.258  0.000 -0.063
 H         -0.063  0.056 -0.171   -0.186  0.047  0.027    0.157 -0.044 -0.029
 H          0.106 -0.104 -0.138    0.046  0.012  0.031   -0.013 -0.010 -0.037
 H          0.048 -0.021 -0.132   -0.006  0.009  0.033    0.012 -0.006 -0.042
 H          0.228 -0.161 -0.003   -0.269 -0.021 -0.057    0.321 -0.077  0.046
 H          0.129  0.099  0.049   -0.310 -0.136 -0.161    0.069 -0.067  0.014
 H         -0.137 -0.138 -0.035    0.198  0.369  0.563    0.084  0.197  0.506
 H         -0.279 -0.092  0.075   -0.035 -0.015  0.024    0.033  0.019 -0.006
 H          0.426 -0.155  0.077   -0.102  0.191  0.006   -0.157  0.218  0.019
 H          0.473  0.208  0.179    0.049  0.061  0.028    0.157  0.300  0.110
 O         -0.003 -0.010 -0.013    0.002 -0.000  0.017    0.001 -0.001  0.013
 O          0.005  0.018  0.011   -0.009 -0.012 -0.025   -0.004 -0.013 -0.009
 TransDip   0.175  0.066  0.006    0.010  0.149  0.205    0.290 -0.195  0.260

 Mode:                46                     47                     48
 Frequency:      1860.54                3046.22                3094.18
 Force Cnst:      2.5916                 5.7872                 6.2395
 Red. Mass:       1.2707                 1.0585                 1.1061
 IR Active:          YES                    YES                    YES
 IR Intens:      849.065                 55.136                 43.331
 Raman Active:       YES                    YES                    YES
               X      Y      Z        X      Y      Z        X      Y      Z
 C         -0.011 -0.026 -0.011   -0.001 -0.000 -0.000    0.001 -0.002  0.000
 C         -0.001  0.001  0.001    0.025 -0.010  0.062   -0.016 -0.093  0.006
 O          0.001 -0.000 -0.000   -0.002  0.000  0.001    0.000  0.000 -0.001
 C          0.004  0.010  0.004   -0.000 -0.000 -0.000    0.000  0.001  0.001
 C         -0.032 -0.039 -0.022    0.000 -0.000 -0.000    0.000  0.000  0.000
 C          0.053  0.021 -0.051   -0.000  0.000 -0.000    0.000  0.000 -0.000
 O         -0.007 -0.001 -0.002    0.000  0.000 -0.000   -0.000 -0.000  0.000
 C         -0.078  0.024 -0.020    0.000  0.000  0.000    0.000 -0.000  0.000
 C          0.071  0.021  0.023   -0.000 -0.000 -0.000    0.000  0.000 -0.000
 H          0.011 -0.006  0.002   -0.152 -0.480 -0.178    0.256  0.748  0.301
 H          0.009 -0.000 -0.002   -0.115  0.598 -0.583   -0.081  0.362 -0.370
 H          0.002  0.001 -0.002   -0.001  0.003  0.005    0.004  0.002  0.001
 H          0.012  0.004  0.005    0.004  0.005  0.002   -0.007 -0.010 -0.005
 H          0.057  0.019 -0.012    0.000  0.000  0.000   -0.001  0.001  0.000
 H         -0.048  0.030  0.982   -0.000 -0.000 -0.000   -0.000 -0.000  0.002
 H         -0.007  0.004  0.002    0.000 -0.000  0.000   -0.000  0.000 -0.000
 H          0.030 -0.052  0.011    0.000  0.000  0.000    0.000  0.001  0.000
 H         -0.009 -0.037 -0.016    0.002 -0.002  0.001    0.001  0.001  0.001
 O          0.002 -0.005  0.014    0.000  0.000  0.000    0.000 -0.000 -0.000
 O         -0.003 -0.001 -0.016   -0.000 -0.000 -0.000   -0.000  0.000  0.000
 TransDip   0.450 -0.361  0.734    0.033 -0.001  0.236   -0.056 -0.198 -0.044

 Mode:                49                     50                     51
 Frequency:      3199.61                3200.32                3215.52
 Force Cnst:      6.5581                 6.5832                 6.6888
 Red. Mass:       1.0873                 1.0909                 1.0980
 IR Active:          YES                    YES                    YES
 IR Intens:        3.787                  7.163                  8.236
 Raman Active:       YES                    YES                    YES
               X      Y      Z        X      Y      Z        X      Y      Z
 C          0.001  0.001  0.001   -0.003  0.003  0.000    0.001  0.002  0.001
 C          0.000 -0.000 -0.000   -0.000 -0.001 -0.000    0.000 -0.000 -0.000
 O          0.000  0.000  0.000    0.000  0.000 -0.000   -0.000  0.000  0.000
 C         -0.000 -0.000 -0.000   -0.032 -0.069 -0.036   -0.000  0.000 -0.000
 C         -0.001 -0.000 -0.000   -0.011  0.015  0.009    0.008 -0.008 -0.005
 C          0.001 -0.000  0.000   -0.000  0.000 -0.000   -0.002  0.002 -0.000
 O         -0.000  0.000 -0.000    0.000 -0.000  0.000    0.000 -0.000  0.000
 C          0.022  0.045  0.017   -0.001 -0.002 -0.001   -0.035 -0.056 -0.022
 C          0.036 -0.055 -0.005    0.001 -0.001  0.000    0.035 -0.044 -0.003
 H         -0.001 -0.000 -0.001    0.006  0.012  0.005   -0.002 -0.001 -0.001
 H         -0.001  0.001 -0.002    0.001  0.002 -0.001   -0.001  0.000 -0.001
 H          0.000 -0.000  0.000    0.000  0.000 -0.000   -0.000 -0.000  0.000
 H          0.003  0.004  0.002    0.392  0.775  0.416    0.001  0.001  0.001
 H          0.003 -0.003 -0.002    0.150 -0.176 -0.102   -0.085  0.097  0.056
 H         -0.001 -0.000  0.001   -0.000 -0.000  0.000   -0.000  0.001 -0.000
 H         -0.001 -0.000 -0.000    0.000  0.001 -0.000    0.002 -0.000  0.000
 H         -0.278 -0.521 -0.201    0.014  0.025  0.010    0.346  0.641  0.248
 H         -0.435  0.641  0.062   -0.010  0.013  0.001   -0.348  0.507  0.048
 O          0.000  0.000  0.000   -0.000 -0.000 -0.000    0.000  0.000  0.000
 O          0.000  0.000 -0.000    0.000 -0.000  0.000   -0.000 -0.000 -0.000
 TransDip   0.044 -0.043  0.009   -0.059 -0.034 -0.052    0.007 -0.092 -0.002

 Mode:                52                     53                     54
 Frequency:      3221.88                3816.02                3839.78
 Force Cnst:      6.6907                 9.1555                 9.2663
 Red. Mass:       1.0940                 1.0671                 1.0667
 IR Active:          YES                    YES                    YES
 IR Intens:        3.519                146.882                132.947
 Raman Active:       YES                    YES                    YES
               X      Y      Z        X      Y      Z        X      Y      Z
 C         -0.001  0.001 -0.000   -0.000  0.000  0.000    0.000 -0.000 -0.000
 C         -0.000 -0.000 -0.000    0.000  0.000  0.000   -0.000  0.000 -0.001
 O          0.000 -0.000 -0.000    0.000 -0.000  0.000   -0.058  0.018 -0.017
 C         -0.011 -0.018 -0.010    0.000 -0.000 -0.000    0.000 -0.000  0.000
 C          0.051 -0.058 -0.033   -0.000  0.000  0.000   -0.000  0.000 -0.000
 C          0.002  0.002  0.001   -0.001 -0.001  0.000   -0.000 -0.000  0.000
 O         -0.001 -0.000  0.000    0.033 -0.046  0.027    0.000 -0.000  0.000
 C          0.005  0.008  0.003   -0.000 -0.000  0.000   -0.000  0.000  0.000
 C         -0.005  0.006  0.000   -0.000 -0.000 -0.000    0.000  0.000  0.000
 H          0.002  0.003  0.001   -0.000 -0.000 -0.000    0.000 -0.002 -0.003
 H          0.001 -0.000  0.000   -0.000  0.000  0.000    0.003 -0.003 -0.001
 H          0.000 -0.000 -0.000   -0.001  0.000 -0.000    0.912 -0.280  0.294
 H          0.105  0.202  0.110   -0.001 -0.000 -0.000   -0.000 -0.000 -0.000
 H         -0.575  0.661  0.377    0.001 -0.001  0.000    0.000 -0.000 -0.000
 H         -0.002 -0.002  0.009   -0.004  0.000 -0.001    0.000  0.000 -0.000
 H         -0.002 -0.000 -0.001   -0.500  0.744 -0.439   -0.001  0.001 -0.001
 H         -0.048 -0.089 -0.034    0.000  0.001  0.000    0.000  0.000 -0.000
 H          0.046 -0.068 -0.006   -0.000  0.000  0.000    0.000 -0.000 -0.000
 O          0.000  0.000  0.000    0.000  0.000  0.000   -0.000  0.000  0.000
 O         -0.000  0.000  0.000    0.000 -0.000  0.000   -0.000 -0.000  0.000
 TransDip   0.053 -0.029 -0.006   -0.287  0.219 -0.142    0.349 -0.115  0.036

 STANDARD THERMODYNAMIC QUANTITIES AT   298.15 K  AND     1.00 ATM

   This Molecule has  1 Imaginary Frequencies
   Zero point vibrational energy:       95.194 kcal/mol

   Atom    1 Element C  Has Mass   12.00000
   Atom    2 Element C  Has Mass   12.00000
   Atom    3 Element O  Has Mass   15.99491
   Atom    4 Element C  Has Mass   12.00000
   Atom    5 Element C  Has Mass   12.00000
   Atom    6 Element C  Has Mass   12.00000
   Atom    7 Element O  Has Mass   15.99491
   Atom    8 Element C  Has Mass   12.00000
   Atom    9 Element C  Has Mass   12.00000
   Atom   10 Element H  Has Mass    1.00783
   Atom   11 Element H  Has Mass    1.00783
   Atom   12 Element H  Has Mass    1.00783
   Atom   13 Element H  Has Mass    1.00783
   Atom   14 Element H  Has Mass    1.00783
   Atom   15 Element H  Has Mass    1.00783
   Atom   16 Element H  Has Mass    1.00783
   Atom   17 Element H  Has Mass    1.00783
   Atom   18 Element H  Has Mass    1.00783
   Atom   19 Element O  Has Mass   15.99491
   Atom   20 Element O  Has Mass   15.99491
   Molecular Mass:   157.050110 amu
   Principal axes and moments of inertia in amu*Bohr^2:
                             1           2           3
    Eigenvalues --     1031.44742  2477.37203  2900.98159
          X               0.93657     0.32835    -0.12260
          Y              -0.24036     0.85629     0.45716
          Z               0.25509    -0.39869     0.88089
   Rotational Symmetry Number is   1
   The Molecule is an Asymmetric Top
   Translational Enthalpy:        0.889 kcal/mol
   Rotational Enthalpy:           0.889 kcal/mol
   Vibrational Enthalpy:        100.317 kcal/mol
   gas constant (RT):             0.592 kcal/mol
   Translational Entropy:        41.063  cal/mol.K
   Rotational Entropy:           30.384  cal/mol.K
   Vibrational Entropy:          31.937  cal/mol.K

   Total Enthalpy:              102.687 kcal/mol
   Total Entropy:               103.384  cal/mol.K
 Total job time:  68915.04s(wall), 498459.00s(cpu) 
 Sun Apr 30 07:12:26 2023

        *************************************************************
        *                                                           *
        *  Thank you very much for using Q-Chem.  Have a nice day.  *
        *                                                           *
        *************************************************************


