
Running Job 1 of 2 Q_in.in
qchem Q_in.in_395520.0 /scratch/ari.fischer/qChem2104981.hpc-mn1/qchem395520/ 0
/usr/local/qchem-5.4.1/exe/qcprog.exe_s Q_in.in_395520.0 /scratch/ari.fischer/qChem2104981.hpc-mn1/qchem395520/
                  Welcome to Q-Chem
     A Quantum Leap Into The Future Of Chemistry


 Q-Chem 5.4, Q-Chem, Inc., Pleasanton, CA (2021)

 License issued to: Nanyang Technological University (site)

 E. Epifanovsky,  A. T. B. Gilbert,  Xintian Feng,  Joonho Lee,  Yuezhi Mao,  
 N. Mardirossian,  P. Pokhilko,  A. White,  M. Wormit,  M. P. Coons,  
 A. L. Dempwolff,  Zhengting Gan,  D. Hait,  P. R. Horn,  L. D. Jacobson,  
 I. Kaliman,  J. Kussmann,  A. W. Lange,  Ka Un Lao,  D. S. Levine,  Jie Liu,  
 S. C. McKenzie,  A. F. Morrison,  K. Nanda,  F. Plasser,  D. R. Rehn,  
 M. L. Vidal,  Zhi-Qiang You,  Ying Zhu,  B. Alam,  B. Albrecht,  
 A. Aldossary,  E. Alguire,  J. H. Andersen,  D. Barton,  K. Begam,  A. Behn,  
 Y. A. Bernard,  E. J. Berquist,  H. Burton,  A. Carreras,  K. Carter-Fenk,  
 R. Chakraborty,  A. D. Chien,  K. D. Closser,  V. Cofer-Shabica,  
 S. Dasgupta,  Jia Deng,  M. de Wergifosse,  M. Diedenhofen,  Hainam Do,  
 S. Ehlert,  Po-Tung Fang,  S. Fatehi,  Qingguo Feng,  T. Friedhoff,  
 J. Gayvert,  Qinghui Ge,  G. Gidofalvi,  M. Goldey,  J. Gomes,  
 C. Gonzalez-Espinoza,  S. Gulania,  A. Gunina,  M. W. D. Hanson-Heine,  
 P. H. P. Harbach,  A. W. Hauser,  M. F. Herbst,  M. Hernandez Vera,  
 M. Hodecker,  Z. C. Holden,  S. Houck,  Xunkun Huang,  Kerwin Hui,  
 B. C. Huynh,  M. Ivanov,  Hyunjun Ji,  Hanjie Jiang,  B. Kaduk,  S. Kaehler,  
 K. Khistyaev,  Jaehoon Kim,  P. Klunzinger,  Z. Koczor-Benda,  
 Joong Hoon Koh,  D. Kosenkov,  L. Koulias,  T. Kowalczyk,  C. M. Krauter,  
 K. Kue,  A. Kunitsa,  T. Kus,  A. Landau,  K. V. Lawler,  D. Lefrancois,  
 S. Lehtola,  Rain Li,  Yi-Pei Li,  Jiashu Liang,  M. Liebenthal,  
 Hung-Hsuan Lin,  You-Sheng Lin,  Fenglai Liu,  Kuan-Yu Liu,  
 M. Loipersberger,  A. Luenser,  A. Manjanath,  P. Manohar,  E. Mansoor,  
 S. F. Manzer,  Shan-Ping Mao,  A. V. Marenich,  T. Markovich,  S. Mason,  
 S. A. Maurer,  P. F. McLaughlin,  M. F. S. J. Menger,  J.-M. Mewes,  
 S. A. Mewes,  P. Morgante,  J. W. Mullinax,  K. J. Oosterbaan,  G. Paran,  
 Alexander C. Paul,  Suranjan K. Paul,  F. Pavosevic,  Zheng Pei,  S. Prager,  
 E. I. Proynov,  E. Ramos,  B. Rana,  A. E. Rask,  A. Rettig,  R. M. Richard,  
 F. Rob,  E. Rossomme,  T. Scheele,  M. Scheurer,  M. Schneider,  
 N. Sergueev,  S. M. Sharada,  W. Skomorowski,  D. W. Small,  C. J. Stein,  
 Yu-Chuan Su,  E. J. Sundstrom,  Zhen Tao,  J. Thirman,  T. Tsuchimochi,  
 N. M. Tubman,  S. P. Veccham,  O. Vydrov,  J. Wenzel,  J. Witte,  A. Yamada,  
 Kun Yao,  S. Yeganeh,  S. R. Yost,  A. Zech,  Igor Ying Zhang,  Xing Zhang,  
 Yu Zhang,  D. Zuev,  A. Aspuru-Guzik,  A. T. Bell,  N. A. Besley,  
 K. B. Bravaya,  B. R. Brooks,  D. Casanova,  Jeng-Da Chai,  S. Coriani,  
 C. J. Cramer,  A. E. DePrince, III,  R. A. DiStasio Jr.,  A. Dreuw,  
 B. D. Dunietz,  T. R. Furlani,  W. A. Goddard III,  S. Grimme,  
 S. Hammes-Schiffer,  T. Head-Gordon,  W. J. Hehre,  Chao-Ping Hsu,  
 T.-C. Jagau,  Yousung Jung,  A. Klamt,  Jing Kong,  D. S. Lambrecht,  
 WanZhen Liang,  N. J. Mayhall,  C. W. McCurdy,  J. B. Neaton,  
 C. Ochsenfeld,  J. A. Parkhill,  R. Peverati,  V. A. Rassolov,  Yihan Shao,  
 L. V. Slipchenko,  T. Stauch,  R. P. Steele,  J. E. Subotnik,  
 A. J. W. Thom,  A. Tkatchenko,  D. G. Truhlar,  T. Van Voorhis,  
 T. A. Wesolowski,  K. B. Whaley,  H. L. Woodcock III,  P. M. Zimmerman,  
 S. Faraji,  P. M. W. Gill,  M. Head-Gordon,  J. M. Herbert,  A. I. Krylov

 Additional authors for Version 5.4.1: 
 S. Kotaru,  Shaozhi Li,  Xiangyuan Li,  F. Matz,  A. Molle,  Haisheng Ren,  
 Yingli Su,  Hung-Yi Tsai,  C. Utku,  Fang Wang

 Contributors to earlier versions of Q-Chem not listed above: 
 R. D. Adamson,  B. Austin,  R. Baer,  J. Baker,  G. J. O. Beran,  
 K. Brandhorst,  S. T. Brown,  E. F. C. Byrd,  A. K. Chakraborty,  
 G. K. L. Chan,  Chun-Min Chang,  Yunqing Chen,  C.-L. Cheng,  
 Siu Hung Chien,  D. M. Chipman,  D. L. Crittenden,  H. Dachsel,  
 R. J. Doerksen,  A. D. Dutoi,  R. G. Edgar,  J. Fosso-Tande,  
 L. Fusti-Molnar,  D. Ghosh,  A. Ghysels,  A. Golubeva-Zadorozhnaya,  
 J. Gonthier,  M. S. Gordon,  S. R. Gwaltney,  G. Hawkins,  J. E. Herr,  
 A. Heyden,  S. Hirata,  E. G. Hohenstein,  G. Kedziora,  F. J. Keil,  
 C. Kelley,  Jihan Kim,  R. A. King,  R. Z. Khaliullin,  P. P. Korambath,  
 W. Kurlancheek,  A. Laurent,  A. M. Lee,  M. S. Lee,  S. V. Levchenko,  
 Ching Yeh Lin,  D. Liotard,  E. Livshits,  R. C. Lochan,  I. Lotan,  
 L. A. Martinez-Martinez,  P. E. Maslen,  N. Nair,  D. P. O'Neill,  
 D. Neuhauser,  E. Neuscamman,  C. M. Oana,  R. Olivares-Amaya,  R. Olson,  
 T. M. Perrine,  B. Peters,  P. A. Pieniazek,  A. Prociuk,  Y. M. Rhee,  
 J. Ritchie,  M. A. Rohrdanz,  E. Rosta,  N. J. Russ,  H. F. Schaefer III,  
 M. W. Schmidt,  N. E. Schultz,  S. Sharma,  N. Shenvi,  C. D. Sherrill,  
 A. C. Simmonett,  A. Sodt,  T. Stein,  D. Stuck,  K. S. Thanthiriwatte,  
 V. Vanovschi,  L. Vogt,  Tao Wang,  A. Warshel,  M. A. Watson,  
 C. F. Williams,  Q. Wu,  X. Xu,  Jun Yang,  W. Zhang,  Yan Zhao

 Please cite Q-Chem as follows:
 Y. Shao et al., Mol. Phys. 113, 184-215 (2015)
 DOI: 10.1080/00268976.2014.952696

 Q-Chem 5.4.1 for Intel X86 EM64T Linux

 Parts of Q-Chem use Armadillo 9.800.1 (Horizon Scraper).
 http://arma.sourceforge.net/

 Q-Chem begins on Thu May 16 12:04:36 2024  

 Host: 
0

     Scratch files written to /scratch/ari.fischer/qChem2104981.hpc-mn1/qchem395520//
 Aug1521 |scratch|qcdevops|jenkins|workspace|build_RNUM 8249   
 Processing $rem in /usr/local/qchem-5.4.1/config/preferences:
 Processing $rem in /home/ari.fischer/.qchemrc:
 Symmetry turned off for PCM/SM12/SMD calculation


!!********************************************.
!!******************Warning*******************.
!!Desired Analytical derivatives not available.
!!Finite difference job might take a long time.
!!********************************************.
!!********************************************.


 2-order derivative to be evaluated numerically with 1-order analytical derivatives

 Checking the input file for inconsistencies... 	...done.

--------------------------------------------------------------
User input:
--------------------------------------------------------------
$molecule
0 2
O         5.1619664911   -0.4144549872    1.0691415111
C         3.7553238837   -0.2800476420    0.9823792433
C         3.2415362974    0.9618023148    1.6769045710
O         2.1205047414    0.9784005979    2.1652095156
C         4.1172192553    2.1411143729    1.6687841701
C         4.1271488644    3.1519010952    2.6065366874
C         3.1441990192    3.2625505587    3.7452245862
O         3.1949445100    2.1226895480    4.5799878780
O         3.4930679179    4.4204055191    4.4674492792
H         5.3789559193   -0.4223476552    2.0131322234
H         3.2328453201   -1.1410810551    1.4024124490
H         3.4937054939   -0.2044949863   -0.0747289617
H         4.8336899184    2.1951010603    0.8600395922
H         4.5369158559    4.1012508123    2.2904692908
H         2.1361923686    3.3656827374    3.3415637307
H         2.2952873607    1.8781322163    4.8233222954
H         2.7624865958    4.6364974039    5.0579955648
O         5.7685934645    2.8960070476    3.6013760422
O         6.4934108343    1.7539773805    3.3846668003
C         6.1234731221    0.7504263762    4.3292194498
O         4.9577423816    0.0823955189    3.9477300454
H         6.9499737900    0.0453050675    4.3035850585
H         6.0197268655    1.2204641105    5.3059265618
H         4.2065745750    0.6616481937    4.1788042736
$end

$rem
BASIS = 6-311++G(2df,2p)
GUI = 2
JOB_TYPE = Frequency
METHOD = wB97M-V
SOLVENT_METHOD = SMD
SCF_ALGORITHM = DIIS_GDM
MAX_SCF_CYCLES = 400
SCF_CONVERGENCE = 7
THRESH = 12
$end

--------------------------------------------------------------
 ----------------------------------------------------------------
             Standard Nuclear Orientation (Angstroms)
    I     Atom           X                Y                Z
 ----------------------------------------------------------------
    1      O       5.1619664911    -0.4144549872     1.0691415111
    2      C       3.7553238837    -0.2800476420     0.9823792433
    3      C       3.2415362974     0.9618023148     1.6769045710
    4      O       2.1205047414     0.9784005979     2.1652095156
    5      C       4.1172192553     2.1411143729     1.6687841701
    6      C       4.1271488644     3.1519010952     2.6065366874
    7      C       3.1441990192     3.2625505587     3.7452245862
    8      O       3.1949445100     2.1226895480     4.5799878780
    9      O       3.4930679179     4.4204055191     4.4674492792
   10      H       5.3789559193    -0.4223476552     2.0131322234
   11      H       3.2328453201    -1.1410810551     1.4024124490
   12      H       3.4937054939    -0.2044949863    -0.0747289617
   13      H       4.8336899184     2.1951010603     0.8600395922
   14      H       4.5369158559     4.1012508123     2.2904692908
   15      H       2.1361923686     3.3656827374     3.3415637307
   16      H       2.2952873607     1.8781322163     4.8233222954
   17      H       2.7624865958     4.6364974039     5.0579955648
   18      O       5.7685934645     2.8960070476     3.6013760422
   19      O       6.4934108343     1.7539773805     3.3846668003
   20      C       6.1234731221     0.7504263762     4.3292194498
   21      O       4.9577423816     0.0823955189     3.9477300454
   22      H       6.9499737900     0.0453050675     4.3035850585
   23      H       6.0197268655     1.2204641105     5.3059265618
   24      H       4.2065745750     0.6616481937     4.1788042736
 ----------------------------------------------------------------
 Nuclear Repulsion Energy =         930.90815255 hartrees
 There are       52 alpha and       51 beta electrons
 Requested basis set is 6-311++G(2df,2p)
 There are 170 shells and 552 basis functions

 Total QAlloc Memory Limit 288000 MB
 Mega-Array Size       188 MB
 MEM_STATIC part       192 MB
 
 Citation of the SMD model:
 Marenich, A.V.; Cramer, C.J.; Truhlar, D.G.
 J. Phys. Chem. B 2009, 113, 6378-6396.
 iSolventCode=           1
 Solvent: water                                                           
 
 vradii
            1           2           3           4           5           6
    1   1.5200000   1.8500000   1.8500000   1.5200000   1.8500000   1.8500000
            7           8           9          10          11          12
    1   1.8500000   1.5200000   1.5200000   1.2000000   1.2000000   1.2000000
           13          14          15          16          17          18
    1   1.2000000   1.2000000   1.2000000   1.2000000   1.2000000   1.5200000
           19          20          21          22          23          24
    1   1.5200000   1.8500000   1.5200000   1.2000000   1.2000000   1.2000000
 Changing PCM_VDW_RADII to SMD_RADIUS
 Discretize the solute cavity surface with Lebedev spheres
	Using 110 Lebedev grid points for each H atom
	Using 194 Lebedev grid points for other atoms
	Atomic van der Waals radii will be scaled by 1.20
 Remove points where switching function is < 1.0e-08
 Keep 1842 surface tesserae and discard 1890 interior tesserae
 Molecular Surface Area = 196.609 Angst**2
 A cutoff of  1.0D-12 yielded  12420 shell pairs
 There are    130475 function pairs (    161887 Cartesian)
 Smallest overlap matrix eigenvalue = 2.68E-06
 Guess from superposition of atomic densities
 Warning:  Energy on first SCF cycle will be non-variational
 SAD guess density has 103.000000 electrons

 -----------------------------------------------------------------------
  General SCF calculation program by
  Eric Jon Sundstrom, Paul Horn, Yuezhi Mao, Dmitri Zuev, Alec White,
  David Stuck, Shaama M.S., Shane Yost, Joonho Lee, David Small,
  Daniel Levine, Susi Lehtola, Hugh Burton, Evgeny Epifanovsky,
  Bang C. Huynh
 -----------------------------------------------------------------------
 Exchange:     0.1500 Hartree-Fock + 1.0000 wB97M-V + LR-HF
 Correlation:  1.0000 wB97M-V
 Using SG-2 standard quadrature grid
 Nonlocal Correlation:  VV10 with C = 0.0100 and b = 6.00 and scale = 1.00000
 Grid used for NLC:  SG-1 standard quadrature
 using 16 threads for integral computing
 -------------------------------------------------------
 OpenMP Integral computing Module                
 Release: version 1.0, May 2013, Q-Chem Inc. Pittsburgh 
 -------------------------------------------------------
 
 Citation of the SMD model:
 Marenich, A.V.; Cramer, C.J.; Truhlar, D.G.
 J. Phys. Chem. B 2009, 113, 6378-6396.
 iSolventCode=           1
 Solvent: water                                                           
 
 vradii
            1           2           3           4           5           6
    1   1.5200000   1.8500000   1.8500000   1.5200000   1.8500000   1.8500000
            7           8           9          10          11          12
    1   1.8500000   1.5200000   1.5200000   1.2000000   1.2000000   1.2000000
           13          14          15          16          17          18
    1   1.2000000   1.2000000   1.2000000   1.2000000   1.2000000   1.5200000
           19          20          21          22          23          24
    1   1.5200000   1.8500000   1.5200000   1.2000000   1.2000000   1.2000000
 -------------------------------------------------------
 OpenMP BLAS3 based DFT computing Module                
 Release: version 1.0, May 2013, Q-Chem Inc. Pittsburgh 
 -------------------------------------------------------
 A unrestricted SCF calculation will be
 performed using DIIS, GDM
 SCF converges when RMS gradient is below 1.0e-07
 ---------------------------------------
  Cycle       Energy         DIIS error
 ---------------------------------------
    1    -764.2388940783      1.04e-02  
    2    -761.4646832077      1.35e-03  Done DIIS. Switching to GDM
 ---------------------------------------
  Cycle       Energy        RMS Gradient
 ---------------------------------------
    1    -761.4646832077      9.60e-02   Descent step
    2    -761.6507408796      2.25e-02   Normal BFGS step
    3    -761.6859043233      1.45e-02   Normal BFGS step
    4    -761.6885408575      1.17e-02   Normal BFGS step
    5    -761.6903527872      3.97e-03   Normal BFGS step
    6    -761.6906245919      2.09e-03   Normal BFGS step
    7    -761.6907167712      1.64e-03   Normal BFGS step
    8    -761.6907327987      7.76e-04   Normal BFGS step
    9    -761.6907399162      7.97e-04   Normal BFGS step
   10    -761.6907419407      7.08e-04   Normal BFGS step
   11    -761.6907432739      2.96e-04   Normal BFGS step
   12    -761.6907437933      1.60e-04   Normal BFGS step
   13    -761.6907439744      1.19e-04   Normal BFGS step
   14    -761.6907440353      5.72e-05   Normal BFGS step
   15    -761.6907440501      1.05e-05   Normal BFGS step
   16    -761.6907440542      6.94e-06   Normal BFGS step
   17    -761.6907440552      2.83e-06   Normal BFGS step
   18    -761.6907440555      1.72e-06   Normal BFGS step
   19    -761.6907440556      8.08e-07   Normal BFGS step
   20    -761.6907440556      4.39e-07   Normal BFGS step
   21    -761.6907440556      3.07e-07   Normal BFGS step
   22    -761.6907440556      2.43e-07   Normal BFGS step
  GDM::WARNING energy changes are now smaller than effective accuracy.
  GDM::        calculation will continue, but THRESH should be increased
  GDM::        or SCF_CONVERGENCE decreased. 
  GDM::        effective_thresh = 5.16e-09
   23    -761.6907440555      1.58e-07   Normal BFGS step
   24    -761.6907440555      9.58e-08  Convergence criterion met
 ---------------------------------------
 SCF time:   CPU 6352.55s  wall 445.00s 
<S^2> =          0.803525799
(3)  G-ENP(liq) elect-nuc-pol free energy of system     -761.690744055 a.u.
(4)  G-CDS(liq) cavity-dispersion-solvent structure 
     free energy                                                4.7659 kcal/mol
(6)  G-S(liq) free energy of system                     -761.683149057 a.u.
 SCF   energy in the final basis set =     -761.6831490570
 Total energy in the final basis set =     -761.6831490570
 
 --------------------------------------------------------------
 
                    Orbital Energies (a.u.)
 --------------------------------------------------------------
 
 Alpha MOs
 -- Occupied --
-19.4168 -19.4111 -19.3553 -19.3489 -19.3473 -19.3423 -19.3407 -10.4582
-10.4470 -10.4387 -10.3951 -10.3919 -10.3758  -1.2920  -1.2084  -1.1931
 -1.1737  -1.1600  -1.1413  -1.0140  -0.9389  -0.8618  -0.8152  -0.7852
 -0.7378  -0.6788  -0.6702  -0.6596  -0.6480  -0.6281  -0.6217  -0.6126
 -0.5907  -0.5856  -0.5724  -0.5580  -0.5372  -0.5303  -0.5208  -0.5147
 -0.5003  -0.4827  -0.4693  -0.4553  -0.4389  -0.4340  -0.4139  -0.4107
 -0.4000  -0.3969  -0.3664  -0.3455
 -- Virtual --
  0.0186   0.0253   0.0358   0.0401   0.0429   0.0551   0.0581   0.0584
  0.0631   0.0822   0.0845   0.0891   0.1018   0.1052   0.1122   0.1182
  0.1263   0.1372   0.1402   0.1451   0.1497   0.1537   0.1587   0.1627
  0.1680   0.1696   0.1716   0.1734   0.1794   0.1860   0.1918   0.1949
  0.2028   0.2120   0.2185   0.2255   0.2333   0.2377   0.2475   0.2530
  0.2613   0.2683   0.2724   0.2812   0.2923   0.2960   0.3026   0.3067
  0.3100   0.3139   0.3191   0.3231   0.3265   0.3317   0.3336   0.3403
  0.3439   0.3513   0.3565   0.3583   0.3672   0.3681   0.3700   0.3818
  0.3846   0.3877   0.3886   0.3902   0.3965   0.4016   0.4056   0.4149
  0.4176   0.4220   0.4276   0.4299   0.4354   0.4498   0.4688   0.4723
  0.4785   0.4927   0.5036   0.5060   0.5265   0.5402   0.5422   0.5884
  0.5916   0.6003   0.6145   0.6176   0.6247   0.6288   0.6402   0.6567
  0.6631   0.6681   0.6777   0.6792   0.6933   0.6958   0.6992   0.7006
  0.7084   0.7188   0.7232   0.7400   0.7457   0.7480   0.7578   0.7660
  0.7677   0.7736   0.8016   0.8049   0.8137   0.8256   0.8378   0.8512
  0.8641   0.8809   0.8896   0.9129   0.9225   0.9363   0.9519   0.9545
  0.9865   1.0012   1.0127   1.0303   1.0419   1.0435   1.0588   1.0646
  1.0756   1.0810   1.0992   1.1067   1.1122   1.1240   1.1384   1.1425
  1.1520   1.1680   1.1704   1.1729   1.1862   1.1953   1.2128   1.2222
  1.2241   1.2327   1.2360   1.2488   1.2582   1.2635   1.2686   1.2827
  1.2848   1.2924   1.3053   1.3230   1.3247   1.3377   1.3447   1.3526
  1.3549   1.3623   1.3788   1.3853   1.3896   1.3988   1.4052   1.4122
  1.4331   1.4477   1.4491   1.4584   1.4676   1.4797   1.4842   1.4930
  1.4955   1.5064   1.5131   1.5350   1.5492   1.5700   1.5754   1.5930
  1.5976   1.6110   1.6187   1.6314   1.6396   1.6502   1.6597   1.6639
  1.6740   1.6978   1.7026   1.7307   1.7416   1.7494   1.7954   1.8076
  1.8427   1.8478   1.8547   1.8855   1.9096   1.9146   1.9312   1.9540
  1.9615   1.9705   2.0112   2.0430   2.0516   2.0723   2.0962   2.1081
  2.1280   2.1452   2.1708   2.1900   2.2088   2.2433   2.2663   2.2855
  2.3021   2.3105   2.3455   2.3613   2.3773   2.4033   2.4104   2.4351
  2.4530   2.4641   2.4938   2.5151   2.5161   2.5654   2.5987   2.6257
  2.6829   2.7037   2.7322   2.7374   2.7603   2.7713   2.8045   2.8200
  2.8286   2.8501   2.8702   2.9014   2.9223   2.9300   2.9615   2.9689
  2.9993   3.0278   3.0329   3.0406   3.0627   3.0915   3.1208   3.1380
  3.1567   3.1603   3.1933   3.2042   3.2148   3.2283   3.2386   3.2529
  3.2561   3.2850   3.2991   3.3113   3.3173   3.3359   3.3578   3.3692
  3.3793   3.3898   3.3920   3.4099   3.4194   3.4464   3.4566   3.4748
  3.4907   3.5058   3.5100   3.5234   3.5357   3.5591   3.5639   3.5736
  3.5852   3.6068   3.6099   3.6372   3.6493   3.6673   3.6698   3.7062
  3.7267   3.7346   3.7451   3.7551   3.7690   3.7813   3.8149   3.8375
  3.8411   3.8458   3.8847   3.8945   3.9061   3.9163   3.9200   3.9266
  3.9475   3.9648   3.9750   3.9851   4.0098   4.0422   4.0565   4.0757
  4.0808   4.1376   4.1625   4.1768   4.1864   4.1932   4.2026   4.2180
  4.2345   4.2708   4.2871   4.3034   4.3220   4.3281   4.3513   4.3612
  4.3636   4.3895   4.3936   4.4231   4.4267   4.4320   4.4811   4.4890
  4.5123   4.5252   4.5378   4.5578   4.5750   4.6046   4.6319   4.6878
  4.6957   4.7529   4.7715   4.8045   4.8406   4.8602   4.9011   4.9703
  5.0511   5.0628   5.1334   5.1720   5.1832   5.1976   5.2012   5.2262
  5.2400   5.2511   5.2670   5.2702   5.2773   5.2814   5.2923   5.3068
  5.3259   5.3288   5.3435   5.3561   5.3633   5.3684   5.3833   5.3922
  5.3990   5.4100   5.4122   5.4460   5.4577   5.4755   5.5072   5.5171
  5.5198   5.5407   5.5597   5.5715   5.5972   5.6028   5.6134   5.6275
  5.6366   5.6492   5.6620   5.6694   5.6717   5.6879   5.7133   5.7295
  5.7487   5.7657   5.7941   5.8337   5.8575   5.9327   5.9947   6.0364
  6.0524   6.0656   6.1003   6.1242   6.1569   6.3009   6.3834   6.4026
  6.5037   6.5924   6.6217   6.7239   6.7513   6.8395   6.9852   7.0132
  7.0283   7.0378   7.0726   7.0855   7.1174   7.1333   7.1705   7.1966
  7.2102   7.2215   7.2691   7.2826   7.2919   7.3028   7.3387   7.3454
  7.3639   7.3755   7.3905   7.4050   7.4292   7.4417   7.4521   7.4681
  7.5391   7.6067   7.6174   7.6608   7.6763   7.7099   7.7281   7.7857
  7.8062   7.8168   7.8260   7.8864   7.9177   8.0135   8.1885  24.4633
 24.7471  24.7793  24.8066  24.9672  25.1447  50.5066  50.5388  50.5957
 50.6192  50.6362  50.6563  50.7589
 
 Beta MOs
 -- Occupied --
-19.4142 -19.3963 -19.3554 -19.3484 -19.3473 -19.3405 -19.3393 -10.4581
-10.4478 -10.4389 -10.3982 -10.3919 -10.3684  -1.2781  -1.2084  -1.1888
 -1.1713  -1.1591  -1.1414  -0.9946  -0.9298  -0.8600  -0.8112  -0.7814
 -0.7355  -0.6771  -0.6692  -0.6575  -0.6463  -0.6243  -0.6158  -0.6037
 -0.5881  -0.5822  -0.5649  -0.5434  -0.5336  -0.5256  -0.5144  -0.5016
 -0.4902  -0.4799  -0.4665  -0.4523  -0.4360  -0.4306  -0.4113  -0.4090
 -0.3851  -0.3657  -0.3558
 -- Virtual --
 -0.0700   0.0237   0.0294   0.0360   0.0410   0.0496   0.0553   0.0582
  0.0600   0.0636   0.0827   0.0845   0.0893   0.1020   0.1108   0.1142
  0.1185   0.1270   0.1399   0.1405   0.1457   0.1507   0.1555   0.1595
  0.1636   0.1685   0.1699   0.1734   0.1752   0.1801   0.1872   0.1918
  0.1976   0.2047   0.2121   0.2186   0.2253   0.2348   0.2378   0.2478
  0.2536   0.2618   0.2694   0.2731   0.2812   0.2932   0.2962   0.3028
  0.3068   0.3105   0.3146   0.3196   0.3238   0.3267   0.3323   0.3339
  0.3411   0.3457   0.3523   0.3573   0.3598   0.3678   0.3693   0.3715
  0.3819   0.3849   0.3888   0.3891   0.3917   0.3976   0.4017   0.4059
  0.4156   0.4196   0.4240   0.4285   0.4307   0.4370   0.4503   0.4686
  0.4728   0.4793   0.4932   0.5046   0.5083   0.5275   0.5419   0.5427
  0.5892   0.5936   0.6005   0.6146   0.6176   0.6251   0.6303   0.6414
  0.6571   0.6646   0.6684   0.6777   0.6804   0.6941   0.6963   0.7002
  0.7020   0.7091   0.7199   0.7255   0.7420   0.7477   0.7498   0.7590
  0.7688   0.7697   0.7762   0.8020   0.8072   0.8152   0.8271   0.8401
  0.8518   0.8651   0.8819   0.8932   0.9135   0.9233   0.9369   0.9539
  0.9561   0.9870   1.0031   1.0137   1.0307   1.0425   1.0440   1.0601
  1.0647   1.0779   1.0824   1.0993   1.1079   1.1137   1.1249   1.1388
  1.1439   1.1539   1.1692   1.1734   1.1747   1.1883   1.1964   1.2137
  1.2234   1.2262   1.2343   1.2380   1.2510   1.2590   1.2662   1.2695
  1.2843   1.2866   1.2943   1.3079   1.3255   1.3265   1.3420   1.3476
  1.3566   1.3571   1.3670   1.3806   1.3892   1.3903   1.4011   1.4070
  1.4134   1.4346   1.4507   1.4522   1.4615   1.4697   1.4805   1.4876
  1.4959   1.4973   1.5080   1.5147   1.5371   1.5515   1.5722   1.5773
  1.5936   1.5993   1.6135   1.6202   1.6328   1.6417   1.6512   1.6623
  1.6677   1.6783   1.7013   1.7072   1.7344   1.7446   1.7523   1.7983
  1.8101   1.8477   1.8530   1.8590   1.8874   1.9128   1.9181   1.9337
  1.9591   1.9663   1.9738   2.0128   2.0452   2.0535   2.0745   2.1011
  2.1116   2.1301   2.1494   2.1755   2.1932   2.2118   2.2447   2.2671
  2.2869   2.3057   2.3136   2.3507   2.3642   2.3779   2.4044   2.4121
  2.4365   2.4538   2.4668   2.4961   2.5155   2.5170   2.5674   2.6002
  2.6292   2.6850   2.7082   2.7331   2.7431   2.7632   2.7774   2.8087
  2.8236   2.8336   2.8520   2.8735   2.9100   2.9263   2.9356   2.9655
  2.9748   3.0032   3.0342   3.0391   3.0507   3.0700   3.0897   3.1280
  3.1384   3.1571   3.1681   3.1999   3.2083   3.2171   3.2313   3.2411
  3.2540   3.2647   3.2872   3.3004   3.3141   3.3186   3.3376   3.3577
  3.3688   3.3822   3.3915   3.3942   3.4105   3.4245   3.4469   3.4629
  3.4780   3.4944   3.5100   3.5137   3.5354   3.5390   3.5630   3.5719
  3.5764   3.5840   3.6070   3.6193   3.6407   3.6508   3.6655   3.6782
  3.7062   3.7291   3.7397   3.7487   3.7556   3.7722   3.7822   3.8166
  3.8401   3.8408   3.8503   3.8856   3.8983   3.9065   3.9178   3.9225
  3.9288   3.9500   3.9648   3.9769   3.9882   4.0141   4.0452   4.0599
  4.0791   4.0839   4.1391   4.1640   4.1798   4.1870   4.1976   4.2036
  4.2198   4.2367   4.2728   4.2900   4.3040   4.3233   4.3285   4.3528
  4.3625   4.3712   4.3912   4.3948   4.4262   4.4292   4.4327   4.4825
  4.4934   4.5162   4.5252   4.5431   4.5613   4.5775   4.6075   4.6421
  4.6953   4.7003   4.7647   4.7785   4.8153   4.8445   4.8651   4.9061
  4.9851   5.0650   5.0753   5.1366   5.1885   5.2026   5.2157   5.2279
  5.2331   5.2463   5.2586   5.2715   5.2781   5.2836   5.2884   5.3020
  5.3134   5.3284   5.3311   5.3528   5.3625   5.3728   5.3784   5.3899
  5.3990   5.4083   5.4148   5.4401   5.4531   5.4638   5.4778   5.5145
  5.5210   5.5250   5.5494   5.5685   5.5727   5.5980   5.6078   5.6187
  5.6315   5.6404   5.6543   5.6663   5.6710   5.6733   5.6903   5.7163
  5.7337   5.7542   5.7664   5.8063   5.8372   5.8600   5.9336   6.0019
  6.0372   6.0530   6.0661   6.1021   6.1278   6.1567   6.3243   6.3903
  6.4084   6.5063   6.5925   6.6226   6.7264   6.7519   6.8434   7.0300
  7.0326   7.0510   7.0689   7.0864   7.0890   7.1224   7.1371   7.1763
  7.2072   7.2136   7.2347   7.2708   7.2839   7.2978   7.3254   7.3458
  7.3488   7.3657   7.3801   7.3941   7.4078   7.4304   7.4465   7.4598
  7.4793   7.5399   7.6201   7.6332   7.6620   7.6826   7.7140   7.7390
  7.7904   7.8068   7.8201   7.8302   7.8883   7.9180   8.0300   8.1942
 24.4650  24.7471  24.7793  24.8071  24.9675  25.1467  50.5139  50.5434
 50.5959  50.6194  50.6369  50.6570  50.7610
 --------------------------------------------------------------
 
          Ground-State Mulliken Net Atomic Charges

     Atom                 Charge (a.u.)    Spin (a.u.)
  --------------------------------------------------------
      1 O                    -0.416040       0.005212
      2 C                    -0.494495       0.001944
      3 C                     0.342552      -0.021119
      4 O                    -0.436135       0.108357
      5 C                    -0.337027       0.494693
      6 C                     0.252475      -0.171864
      7 C                    -0.444501       0.003057
      8 O                    -0.422715      -0.002626
      9 O                    -0.442007      -0.000617
     10 H                     0.341873       0.000544
     11 H                     0.242574      -0.000492
     12 H                     0.219249      -0.000313
     13 H                     0.312823      -0.007176
     14 H                     0.372486       0.019027
     15 H                     0.280380      -0.007271
     16 H                     0.342714       0.000593
     17 H                     0.336077       0.000275
     18 O                    -0.221226       0.478078
     19 O                    -0.046295       0.094133
     20 C                    -0.257842       0.001465
     21 O                    -0.358396       0.003231
     22 H                     0.224671       0.000675
     23 H                     0.254367      -0.000160
     24 H                     0.354441       0.000353
  --------------------------------------------------------
  Sum of atomic charges =    -0.000000
  Sum of spin   charges =     1.000000

 -----------------------------------------------------------------
                    Cartesian Multipole Moments
 -----------------------------------------------------------------
    Charge (ESU x 10^10)
                -0.0000
    Dipole Moment (Debye)
         X      -4.0186      Y       0.9972      Z       1.6361
       Tot       4.4520
    Quadrupole Moments (Debye-Ang)
        XX    -111.3198     XY     -12.3756     YY     -76.3414
        XZ      -8.1217     YZ       1.7767     ZZ     -59.8237
    Octopole Moments (Debye-Ang^2)
       XXX   -1212.8806    XXY    -241.1124    XYY    -395.1455
       YYY    -380.8174    XXZ    -287.7386    XYZ     -76.6235
       YYZ    -228.6476    XZZ    -333.8432    YZZ    -102.6959
       ZZZ    -565.3460
    Hexadecapole Moments (Debye-Ang^3)
      XXXX  -10651.6906   XXXY   -2347.1377   XXYY   -2446.9064
      XYYY   -1795.5090   YYYY   -2375.6534   XXXZ   -3240.3805
      XXYZ   -1042.6348   XYYZ   -1326.5505   YYYZ   -1346.2849
      XXZZ   -2444.3113   XYZZ    -808.9542   YYZZ   -1158.4145
      XZZZ   -2876.3823   YZZZ   -1128.9609   ZZZZ   -4182.2252
 -----------------------------------------------------------------
 Calculating analytic gradient of the SCF energy
 Gradient of CDS energy
            1           2           3           4           5           6
    1  -0.0005132   0.0004801  -0.0016494   0.0011270   0.0000570   0.0000485
    2   0.0004302  -0.0010525   0.0000784  -0.0000663   0.0001411   0.0000043
    3  -0.0000078  -0.0005390   0.0007238  -0.0007200  -0.0001275  -0.0000121
            7           8           9          10          11          12
    1   0.0003227   0.0001420  -0.0002490   0.0001579  -0.0001476   0.0000409
    2   0.0016094   0.0005353  -0.0018453  -0.0002603   0.0000694   0.0001564
    3   0.0011715  -0.0005338  -0.0010421  -0.0000281   0.0001296  -0.0001145
           13          14          15          16          17          18
    1   0.0001832   0.0001378  -0.0000539  -0.0001725  -0.0001294  -0.0000095
    2  -0.0000363   0.0001895  -0.0001354  -0.0002203   0.0003750  -0.0000177
    3  -0.0000738   0.0000424  -0.0000599   0.0004400   0.0003342   0.0000231
           19          20          21          22          23          24
    1  -0.0003135  -0.0014206   0.0024576   0.0000254  -0.0003560  -0.0001656
    2   0.0001135  -0.0020781   0.0017432   0.0000229   0.0004178  -0.0001742
    3  -0.0001755   0.0004996   0.0003401  -0.0002876  -0.0002070   0.0002243
 Gradient of SCF Energy
            1           2           3           4           5           6
    1   0.0045768   0.0043799  -0.0016129  -0.0050566   0.0010269  -0.0057812
    2  -0.0012284   0.0015318   0.0020594  -0.0024355  -0.0036553   0.0000958
    3  -0.0044435   0.0071278   0.0008566  -0.0012916  -0.0029560   0.0070977
            7           8           9          10          11          12
    1   0.0135890   0.0185590   0.0188527  -0.0009082  -0.0016165  -0.0027593
    2  -0.0057447   0.0096852  -0.0020519  -0.0003540  -0.0022390   0.0009791
    3   0.0010701  -0.0046866  -0.0073725   0.0032611   0.0006992  -0.0053122
           13          14          15          16          17          18
    1   0.0020729  -0.0007392  -0.0117919  -0.0177099  -0.0159694   0.0002251
    2   0.0014575   0.0031930   0.0025260  -0.0037181   0.0023406   0.0023599
    3  -0.0051734  -0.0042793  -0.0019960   0.0056671   0.0085841   0.0020712
           19          20          21          22          23          24
    1   0.0018633  -0.0050413   0.0038365   0.0043738  -0.0002476  -0.0041220
    2  -0.0005641   0.0039120  -0.0049050  -0.0042370  -0.0004770   0.0014699
    3  -0.0006048  -0.0050947   0.0010583   0.0004422   0.0042585   0.0010167
 Max gradient component =       1.885E-02
 RMS gradient           =       5.909E-03
 Computing fast CPCM-SWIG gradient
 Updating gradient with PCM contributions...
 -- total gradient after adding PCM contribution --
---------------------------------------------------
  Atom         X              Y              Z     
---------------------------------------------------
   1       0.000002       0.000022       0.000014
   2      -0.000019      -0.000012      -0.000006
   3       0.000002      -0.000008      -0.000001
   4       0.000020       0.000015      -0.000020
   5       0.000002      -0.000030      -0.000054
   6       0.000038       0.000050       0.000062
   7       0.000004      -0.000002      -0.000010
   8      -0.000005      -0.000018      -0.000018
   9      -0.000002       0.000019       0.000005
  10       0.000009      -0.000006       0.000002
  11      -0.000008       0.000019      -0.000024
  12       0.000013       0.000012       0.000001
  13       0.000012      -0.000001       0.000008
  14       0.000025       0.000006       0.000021
  15       0.000006       0.000003      -0.000008
  16      -0.000005       0.000002      -0.000013
  17       0.000004       0.000002      -0.000003
  18      -0.000015      -0.000042       0.000019
  19       0.000038      -0.000048      -0.000006
  20      -0.000053       0.000067       0.000014
  21      -0.000015      -0.000017      -0.000032
  22      -0.000032      -0.000006      -0.000006
  23      -0.000008      -0.000016       0.000052
  24      -0.000014      -0.000010       0.000002
---------------------------------------------------
 Number of fixed atoms: 0
 Gradient time:  CPU 780.46 s  wall 65.15 s
 ######################################################
 ######################################################
 # Starting finite difference calculation for IDERIV  #
 Finite diff step size:  1.88973e-03 a.u.
 ----------------------------------------------------------------
             Standard Nuclear Orientation (Angstroms)
    I     Atom           X                Y                Z
 ----------------------------------------------------------------
    1      O       5.1629664911    -0.4144549872     1.0691415111
    2      C       3.7553238837    -0.2800476420     0.9823792433
    3      C       3.2415362974     0.9618023148     1.6769045710
    4      O       2.1205047414     0.9784005979     2.1652095156
    5      C       4.1172192553     2.1411143729     1.6687841701
    6      C       4.1271488644     3.1519010952     2.6065366874
    7      C       3.1441990192     3.2625505587     3.7452245862
    8      O       3.1949445100     2.1226895480     4.5799878780
    9      O       3.4930679179     4.4204055191     4.4674492792
   10      H       5.3789559193    -0.4223476552     2.0131322234
   11      H       3.2328453201    -1.1410810551     1.4024124490
   12      H       3.4937054939    -0.2044949863    -0.0747289617
   13      H       4.8336899184     2.1951010603     0.8600395922
   14      H       4.5369158559     4.1012508123     2.2904692908
   15      H       2.1361923686     3.3656827374     3.3415637307
   16      H       2.2952873607     1.8781322163     4.8233222954
   17      H       2.7624865958     4.6364974039     5.0579955648
   18      O       5.7685934645     2.8960070476     3.6013760422
   19      O       6.4934108343     1.7539773805     3.3846668003
   20      C       6.1234731221     0.7504263762     4.3292194498
   21      O       4.9577423816     0.0823955189     3.9477300454
   22      H       6.9499737900     0.0453050675     4.3035850585
   23      H       6.0197268655     1.2204641105     5.3059265618
   24      H       4.2065745750     0.6616481937     4.1788042736
 ----------------------------------------------------------------
 Nuclear Repulsion Energy =         930.88767568 hartrees
 There are       52 alpha and       51 beta electrons
 Discretize the solute cavity surface with Lebedev spheres
	Using 110 Lebedev grid points for each H atom
	Using 194 Lebedev grid points for other atoms
	Atomic van der Waals radii will be scaled by 1.20
 Remove points where switching function is < 1.0e-08
 Keep 1842 surface tesserae and discard 1890 interior tesserae
 Molecular Surface Area = 196.616 Angst**2
 Requested basis set is 6-311++G(2df,2p)
 There are 170 shells and 552 basis functions
 A cutoff of  1.0D-12 yielded  12420 shell pairs
 There are    130475 function pairs (    161887 Cartesian)
 Smallest overlap matrix eigenvalue = 2.68E-06
 Guess MOs from SCF MO coefficient file

 -----------------------------------------------------------------------
  General SCF calculation program by
  Eric Jon Sundstrom, Paul Horn, Yuezhi Mao, Dmitri Zuev, Alec White,
  David Stuck, Shaama M.S., Shane Yost, Joonho Lee, David Small,
  Daniel Levine, Susi Lehtola, Hugh Burton, Evgeny Epifanovsky,
  Bang C. Huynh
 -----------------------------------------------------------------------
 Exchange:     0.1500 Hartree-Fock + 1.0000 wB97M-V + LR-HF
 Correlation:  1.0000 wB97M-V
 Using SG-2 standard quadrature grid
 Nonlocal Correlation:  VV10 with C = 0.0100 and b = 6.00 and scale = 1.00000
 Grid used for NLC:  SG-1 standard quadrature
 
 Citation of the SMD model:
 Marenich, A.V.; Cramer, C.J.; Truhlar, D.G.
 J. Phys. Chem. B 2009, 113, 6378-6396.
 iSolventCode=           1
 Solvent: water                                                           
 
 vradii
            1           2           3           4           5           6
    1   1.5200000   1.8500000   1.8500000   1.5200000   1.8500000   1.8500000
            7           8           9          10          11          12
    1   1.8500000   1.5200000   1.5200000   1.2000000   1.2000000   1.2000000
           13          14          15          16          17          18
    1   1.2000000   1.2000000   1.2000000   1.2000000   1.2000000   1.5200000
           19          20          21          22          23          24
    1   1.5200000   1.8500000   1.5200000   1.2000000   1.2000000   1.2000000
 -------------------------------------------------------
 OpenMP BLAS3 based DFT computing Module                
 Release: version 1.0, May 2013, Q-Chem Inc. Pittsburgh 
 -------------------------------------------------------
 A unrestricted SCF calculation will be
 performed using Roothaan-Hall, DIIS, GDM
 SCF converges when RMS gradient is below 1.0e-07
 ---------------------------------------
  Cycle       Energy         DIIS error
 ---------------------------------------
    1    -761.6394127791      1.75e-04  Roothaan Step
 ---------------------------------------
  Cycle       Energy         DIIS error
 ---------------------------------------
    1    -761.6815685032      2.06e-04  
    2    -761.6865660765      1.95e-04  Done DIIS. Switching to GDM
 ---------------------------------------
  Cycle       Energy        RMS Gradient
 ---------------------------------------
    1    -761.6865660765      1.55e-02   Normal BFGS step
    2    -761.6851450056      2.19e-02  Line search: overstep
    3    -761.6905007416      2.48e-03   Normal BFGS step
    4    -761.6906750342      2.73e-03   Normal BFGS step
    5    -761.6907232721      8.92e-04   Normal BFGS step
    6    -761.6907349062      1.09e-03   Normal BFGS step
    7    -761.6907378617      1.00e-03   Normal BFGS step
    8    -761.6907405978      5.65e-04   Normal BFGS step
    9    -761.6907420223      1.26e-04   Normal BFGS step
   10    -761.6907422830      6.99e-05   Normal BFGS step
   11    -761.6907423671      3.80e-05   Normal BFGS step
   12    -761.6907423863      2.01e-05   Normal BFGS step
   13    -761.6907423924      1.12e-05   Normal BFGS step
   14    -761.6907423941      5.13e-06   Normal BFGS step
   15    -761.6907423945      2.27e-06   Normal BFGS step
   16    -761.6907423945      9.38e-07   Normal BFGS step
   17    -761.6907423945      4.22e-07   Normal BFGS step
   18    -761.6907423945      2.16e-07   Normal BFGS step
   19    -761.6907423946      1.62e-07   Normal BFGS step
   20    -761.6907423946      1.16e-07   Normal BFGS step
  GDM::WARNING energy changes are now smaller than effective accuracy.
  GDM::        calculation will continue, but THRESH should be increased
  GDM::        or SCF_CONVERGENCE decreased. 
  GDM::        effective_thresh = 5.16e-09
   21    -761.6907423946      7.90e-08  Convergence criterion met
 ---------------------------------------
 SCF time:   CPU 5838.55s  wall 408.00s 
<S^2> =          0.803528590
(3)  G-ENP(liq) elect-nuc-pol free energy of system     -761.690742395 a.u.
(4)  G-CDS(liq) cavity-dispersion-solvent structure 
     free energy                                                4.7654 kcal/mol
(6)  G-S(liq) free energy of system                     -761.683148230 a.u.
 SCF   energy in the final basis set =     -761.6831482301
 Total energy in the final basis set =     -761.6831482301
 
 --------------------------------------------------------------
 
                    Orbital Energies (a.u.)
 --------------------------------------------------------------
 
 Alpha MOs
 -- Occupied --
-19.4168 -19.4111 -19.3553 -19.3489 -19.3473 -19.3423 -19.3407 -10.4582
-10.4471 -10.4387 -10.3951 -10.3920 -10.3758  -1.2920  -1.2084  -1.1931
 -1.1737  -1.1598  -1.1413  -1.0140  -0.9390  -0.8619  -0.8152  -0.7852
 -0.7378  -0.6788  -0.6702  -0.6596  -0.6479  -0.6280  -0.6217  -0.6126
 -0.5907  -0.5856  -0.5724  -0.5580  -0.5372  -0.5303  -0.5208  -0.5147
 -0.5003  -0.4827  -0.4694  -0.4553  -0.4389  -0.4340  -0.4140  -0.4108
 -0.4000  -0.3969  -0.3665  -0.3455
 -- Virtual --
  0.0186   0.0253   0.0358   0.0401   0.0429   0.0551   0.0581   0.0584
  0.0631   0.0822   0.0845   0.0891   0.1018   0.1052   0.1122   0.1182
  0.1263   0.1372   0.1402   0.1451   0.1497   0.1537   0.1587   0.1627
  0.1680   0.1696   0.1716   0.1734   0.1794   0.1860   0.1918   0.1949
  0.2028   0.2120   0.2185   0.2255   0.2333   0.2377   0.2475   0.2530
  0.2613   0.2683   0.2724   0.2812   0.2923   0.2960   0.3026   0.3067
  0.3100   0.3139   0.3191   0.3231   0.3265   0.3317   0.3336   0.3403
  0.3438   0.3512   0.3565   0.3583   0.3672   0.3681   0.3699   0.3818
  0.3846   0.3877   0.3886   0.3902   0.3965   0.4015   0.4056   0.4149
  0.4175   0.4220   0.4276   0.4299   0.4354   0.4498   0.4688   0.4723
  0.4785   0.4927   0.5036   0.5060   0.5265   0.5402   0.5422   0.5883
  0.5916   0.6003   0.6145   0.6176   0.6247   0.6287   0.6402   0.6566
  0.6631   0.6681   0.6777   0.6792   0.6933   0.6957   0.6992   0.7005
  0.7084   0.7187   0.7232   0.7400   0.7457   0.7480   0.7578   0.7660
  0.7677   0.7736   0.8016   0.8048   0.8137   0.8256   0.8378   0.8512
  0.8641   0.8809   0.8896   0.9129   0.9225   0.9363   0.9519   0.9545
  0.9865   1.0012   1.0128   1.0303   1.0419   1.0435   1.0588   1.0646
  1.0756   1.0810   1.0991   1.1067   1.1122   1.1240   1.1384   1.1425
  1.1520   1.1680   1.1704   1.1729   1.1862   1.1953   1.2127   1.2222
  1.2241   1.2327   1.2360   1.2488   1.2581   1.2635   1.2686   1.2827
  1.2848   1.2924   1.3053   1.3230   1.3247   1.3377   1.3446   1.3526
  1.3549   1.3622   1.3787   1.3852   1.3896   1.3988   1.4052   1.4121
  1.4331   1.4477   1.4491   1.4584   1.4675   1.4797   1.4842   1.4930
  1.4955   1.5063   1.5131   1.5350   1.5492   1.5700   1.5753   1.5930
  1.5976   1.6110   1.6187   1.6314   1.6396   1.6502   1.6597   1.6639
  1.6740   1.6978   1.7026   1.7307   1.7416   1.7494   1.7954   1.8076
  1.8427   1.8478   1.8547   1.8855   1.9096   1.9146   1.9312   1.9540
  1.9615   1.9706   2.0112   2.0429   2.0516   2.0721   2.0962   2.1080
  2.1280   2.1452   2.1708   2.1898   2.2088   2.2431   2.2663   2.2855
  2.3020   2.3104   2.3454   2.3611   2.3771   2.4030   2.4104   2.4352
  2.4530   2.4641   2.4937   2.5151   2.5161   2.5654   2.5987   2.6257
  2.6829   2.7036   2.7322   2.7374   2.7603   2.7713   2.8044   2.8200
  2.8285   2.8500   2.8701   2.9014   2.9222   2.9300   2.9614   2.9689
  2.9993   3.0277   3.0327   3.0406   3.0626   3.0915   3.1208   3.1379
  3.1567   3.1603   3.1932   3.2042   3.2148   3.2283   3.2386   3.2527
  3.2561   3.2849   3.2990   3.3112   3.3172   3.3358   3.3578   3.3692
  3.3791   3.3898   3.3920   3.4097   3.4194   3.4462   3.4565   3.4748
  3.4907   3.5058   3.5100   3.5234   3.5357   3.5590   3.5638   3.5736
  3.5851   3.6068   3.6099   3.6372   3.6493   3.6672   3.6697   3.7062
  3.7268   3.7346   3.7450   3.7551   3.7689   3.7813   3.8149   3.8374
  3.8410   3.8458   3.8847   3.8944   3.9061   3.9162   3.9200   3.9266
  3.9475   3.9648   3.9750   3.9851   4.0098   4.0421   4.0564   4.0756
  4.0807   4.1375   4.1625   4.1766   4.1863   4.1931   4.2026   4.2178
  4.2345   4.2709   4.2871   4.3034   4.3220   4.3281   4.3513   4.3611
  4.3635   4.3895   4.3937   4.4230   4.4266   4.4319   4.4811   4.4890
  4.5123   4.5252   4.5378   4.5577   4.5751   4.6046   4.6319   4.6878
  4.6957   4.7529   4.7715   4.8045   4.8406   4.8602   4.9011   4.9703
  5.0511   5.0628   5.1334   5.1720   5.1832   5.1976   5.2012   5.2262
  5.2400   5.2510   5.2670   5.2702   5.2773   5.2814   5.2923   5.3067
  5.3259   5.3289   5.3434   5.3561   5.3633   5.3684   5.3832   5.3922
  5.3990   5.4099   5.4122   5.4460   5.4577   5.4752   5.5072   5.5170
  5.5198   5.5407   5.5597   5.5714   5.5971   5.6027   5.6134   5.6274
  5.6366   5.6492   5.6620   5.6694   5.6717   5.6880   5.7133   5.7293
  5.7487   5.7657   5.7941   5.8337   5.8575   5.9308   5.9946   6.0364
  6.0512   6.0652   6.1002   6.1242   6.1569   6.3009   6.3833   6.4026
  6.5036   6.5924   6.6190   6.7238   6.7512   6.8392   6.9851   7.0132
  7.0283   7.0378   7.0725   7.0855   7.1174   7.1332   7.1705   7.1965
  7.2101   7.2216   7.2691   7.2826   7.2919   7.3028   7.3387   7.3453
  7.3642   7.3754   7.3902   7.4051   7.4295   7.4417   7.4521   7.4681
  7.5390   7.6067   7.6172   7.6599   7.6763   7.7098   7.7281   7.7857
  7.8061   7.8168   7.8260   7.8864   7.9177   8.0135   8.1885  24.4633
 24.7454  24.7793  24.8066  24.9672  25.1447  50.5066  50.5388  50.5954
 50.6192  50.6362  50.6563  50.7589
 
 Beta MOs
 -- Occupied --
-19.4142 -19.3963 -19.3554 -19.3484 -19.3473 -19.3405 -19.3394 -10.4581
-10.4479 -10.4389 -10.3982 -10.3920 -10.3684  -1.2781  -1.2084  -1.1888
 -1.1713  -1.1590  -1.1414  -0.9946  -0.9298  -0.8601  -0.8112  -0.7814
 -0.7355  -0.6771  -0.6691  -0.6575  -0.6462  -0.6243  -0.6158  -0.6037
 -0.5881  -0.5822  -0.5648  -0.5434  -0.5336  -0.5256  -0.5144  -0.5016
 -0.4902  -0.4799  -0.4666  -0.4523  -0.4360  -0.4306  -0.4114  -0.4091
 -0.3851  -0.3658  -0.3558
 -- Virtual --
 -0.0700   0.0237   0.0294   0.0360   0.0410   0.0495   0.0553   0.0582
  0.0600   0.0636   0.0827   0.0845   0.0893   0.1020   0.1108   0.1142
  0.1185   0.1270   0.1399   0.1405   0.1457   0.1507   0.1555   0.1595
  0.1636   0.1685   0.1699   0.1734   0.1752   0.1801   0.1872   0.1918
  0.1976   0.2047   0.2120   0.2186   0.2253   0.2348   0.2378   0.2478
  0.2535   0.2617   0.2694   0.2730   0.2812   0.2932   0.2962   0.3027
  0.3068   0.3105   0.3146   0.3196   0.3237   0.3267   0.3323   0.3339
  0.3411   0.3457   0.3523   0.3573   0.3598   0.3678   0.3692   0.3715
  0.3819   0.3849   0.3888   0.3891   0.3917   0.3976   0.4017   0.4058
  0.4155   0.4196   0.4240   0.4285   0.4307   0.4370   0.4503   0.4686
  0.4728   0.4793   0.4932   0.5046   0.5083   0.5275   0.5419   0.5427
  0.5892   0.5936   0.6005   0.6146   0.6176   0.6251   0.6303   0.6414
  0.6571   0.6646   0.6684   0.6777   0.6804   0.6941   0.6963   0.7002
  0.7019   0.7091   0.7198   0.7255   0.7420   0.7477   0.7498   0.7590
  0.7688   0.7697   0.7762   0.8020   0.8072   0.8152   0.8271   0.8401
  0.8518   0.8651   0.8819   0.8932   0.9135   0.9233   0.9369   0.9539
  0.9562   0.9870   1.0031   1.0137   1.0308   1.0425   1.0440   1.0601
  1.0647   1.0779   1.0824   1.0992   1.1079   1.1137   1.1249   1.1389
  1.1439   1.1539   1.1692   1.1734   1.1747   1.1883   1.1964   1.2136
  1.2234   1.2261   1.2343   1.2380   1.2510   1.2588   1.2662   1.2694
  1.2843   1.2866   1.2943   1.3079   1.3255   1.3265   1.3420   1.3475
  1.3566   1.3571   1.3670   1.3805   1.3891   1.3903   1.4011   1.4069
  1.4134   1.4346   1.4506   1.4522   1.4615   1.4697   1.4805   1.4876
  1.4959   1.4973   1.5079   1.5147   1.5371   1.5515   1.5722   1.5772
  1.5937   1.5993   1.6135   1.6202   1.6328   1.6417   1.6512   1.6622
  1.6676   1.6783   1.7013   1.7072   1.7344   1.7446   1.7523   1.7983
  1.8101   1.8476   1.8530   1.8591   1.8874   1.9128   1.9181   1.9336
  1.9591   1.9663   1.9739   2.0128   2.0451   2.0535   2.0742   2.1011
  2.1116   2.1301   2.1494   2.1754   2.1930   2.2118   2.2446   2.2671
  2.2869   2.3057   2.3135   2.3507   2.3640   2.3778   2.4041   2.4121
  2.4365   2.4538   2.4668   2.4960   2.5155   2.5170   2.5673   2.6002
  2.6291   2.6850   2.7081   2.7331   2.7431   2.7632   2.7774   2.8086
  2.8236   2.8335   2.8519   2.8735   2.9100   2.9262   2.9356   2.9654
  2.9748   3.0031   3.0341   3.0391   3.0506   3.0699   3.0897   3.1280
  3.1383   3.1571   3.1680   3.1998   3.2082   3.2171   3.2312   3.2410
  3.2538   3.2646   3.2870   3.3004   3.3140   3.3185   3.3375   3.3577
  3.3687   3.3820   3.3915   3.3942   3.4103   3.4244   3.4467   3.4628
  3.4779   3.4944   3.5099   3.5137   3.5353   3.5390   3.5630   3.5719
  3.5764   3.5840   3.6069   3.6192   3.6407   3.6508   3.6654   3.6781
  3.7062   3.7292   3.7396   3.7486   3.7556   3.7722   3.7822   3.8166
  3.8401   3.8408   3.8503   3.8856   3.8982   3.9065   3.9178   3.9225
  3.9287   3.9500   3.9648   3.9769   3.9882   4.0140   4.0452   4.0598
  4.0791   4.0838   4.1391   4.1640   4.1796   4.1870   4.1976   4.2036
  4.2197   4.2367   4.2729   4.2900   4.3039   4.3234   4.3285   4.3528
  4.3625   4.3711   4.3912   4.3948   4.4262   4.4292   4.4326   4.4825
  4.4934   4.5161   4.5252   4.5431   4.5612   4.5775   4.6075   4.6421
  4.6953   4.7003   4.7647   4.7785   4.8153   4.8445   4.8651   4.9060
  4.9851   5.0650   5.0753   5.1366   5.1884   5.2026   5.2157   5.2279
  5.2331   5.2462   5.2585   5.2715   5.2780   5.2836   5.2884   5.3019
  5.3134   5.3284   5.3311   5.3527   5.3625   5.3728   5.3784   5.3899
  5.3989   5.4084   5.4148   5.4401   5.4531   5.4638   5.4775   5.5144
  5.5210   5.5250   5.5494   5.5684   5.5727   5.5980   5.6078   5.6187
  5.6314   5.6403   5.6542   5.6662   5.6710   5.6733   5.6903   5.7163
  5.7335   5.7542   5.7664   5.8062   5.8372   5.8600   5.9317   6.0018
  6.0372   6.0518   6.0657   6.1020   6.1278   6.1567   6.3243   6.3902
  6.4084   6.5062   6.5924   6.6199   6.7264   6.7519   6.8431   7.0299
  7.0326   7.0510   7.0689   7.0863   7.0890   7.1224   7.1371   7.1764
  7.2071   7.2135   7.2347   7.2708   7.2839   7.2978   7.3254   7.3458
  7.3487   7.3660   7.3799   7.3939   7.4079   7.4307   7.4465   7.4598
  7.4793   7.5399   7.6199   7.6332   7.6612   7.6826   7.7140   7.7390
  7.7904   7.8066   7.8200   7.8301   7.8883   7.9180   8.0300   8.1942
 24.4650  24.7455  24.7792  24.8071  24.9675  25.1467  50.5139  50.5434
 50.5957  50.6194  50.6369  50.6570  50.7610
 --------------------------------------------------------------
 
          Ground-State Mulliken Net Atomic Charges

     Atom                 Charge (a.u.)    Spin (a.u.)
  --------------------------------------------------------
      1 O                    -0.416384       0.005217
      2 C                    -0.494406       0.001941
      3 C                     0.342545      -0.021101
      4 O                    -0.436067       0.108363
      5 C                    -0.336945       0.494653
      6 C                     0.252450      -0.171866
      7 C                    -0.444525       0.003054
      8 O                    -0.422712      -0.002626
      9 O                    -0.442005      -0.000617
     10 H                     0.341789       0.000543
     11 H                     0.242698      -0.000492
     12 H                     0.219339      -0.000311
     13 H                     0.312824      -0.007175
     14 H                     0.372490       0.019029
     15 H                     0.280379      -0.007272
     16 H                     0.342715       0.000593
     17 H                     0.336077       0.000275
     18 O                    -0.221210       0.478087
     19 O                    -0.046303       0.094142
     20 C                    -0.257865       0.001465
     21 O                    -0.358346       0.003232
     22 H                     0.224684       0.000676
     23 H                     0.254363      -0.000160
     24 H                     0.354415       0.000352
  --------------------------------------------------------
  Sum of atomic charges =    -0.000000
  Sum of spin   charges =     1.000000

 -----------------------------------------------------------------
                    Cartesian Multipole Moments
 -----------------------------------------------------------------
    Charge (ESU x 10^10)
                -0.0000
    Dipole Moment (Debye)
         X      -4.0243      Y       0.9979      Z       1.6360
       Tot       4.4572
    Quadrupole Moments (Debye-Ang)
        XX    -111.3705     XY     -12.3703     YY     -76.3402
        XZ      -8.1294     YZ       1.7789     ZZ     -59.8228
    Octopole Moments (Debye-Ang^2)
       XXX   -1213.2556    XXY    -241.0758    XYY    -395.1508
       YYY    -380.8100    XXZ    -287.8019    XYZ     -76.6117
       YYZ    -228.6423    XZZ    -333.8566    YZZ    -102.6884
       ZZZ    -565.3400
    Hexadecapole Moments (Debye-Ang^3)
      XXXX  -10654.3721   XXXY   -2346.8944   XXYY   -2446.9782
      XYYY   -1795.4642   YYYY   -2375.6289   XXXZ   -3240.8221
      XXYZ   -1042.5630   XYYZ   -1326.5397   YYYZ   -1346.2638
      XXZZ   -2444.4428   XYZZ    -808.9160   YYZZ   -1158.3935
      XZZZ   -2876.3957   YZZZ   -1128.9326   ZZZZ   -4182.1917
 -----------------------------------------------------------------
 Calculating analytic gradient of the SCF energy
 Gradient of CDS energy
            1           2           3           4           5           6
    1  -0.0003741   0.0003413  -0.0016494   0.0011270   0.0000570   0.0000485
    2   0.0004169  -0.0010391   0.0000785  -0.0000663   0.0001411   0.0000043
    3   0.0000008  -0.0005478   0.0007238  -0.0007200  -0.0001275  -0.0000121
            7           8           9          10          11          12
    1   0.0003227   0.0001420  -0.0002490   0.0001579  -0.0001476   0.0000407
    2   0.0016094   0.0005353  -0.0018453  -0.0002603   0.0000694   0.0001564
    3   0.0011715  -0.0005338  -0.0010421  -0.0000279   0.0001296  -0.0001144
           13          14          15          16          17          18
    1   0.0001833   0.0001378  -0.0000539  -0.0001725  -0.0001294  -0.0000095
    2  -0.0000363   0.0001895  -0.0001354  -0.0002203   0.0003750  -0.0000177
    3  -0.0000738   0.0000424  -0.0000599   0.0004400   0.0003342   0.0000231
           19          20          21          22          23          24
    1  -0.0003135  -0.0014206   0.0024576   0.0000254  -0.0003560  -0.0001656
    2   0.0001134  -0.0020781   0.0017432   0.0000229   0.0004178  -0.0001742
    3  -0.0001756   0.0004996   0.0003401  -0.0002876  -0.0002070   0.0002243
 Gradient of SCF Energy
            1           2           3           4           5           6
    1   0.0054532   0.0038130  -0.0016716  -0.0050745   0.0010372  -0.0057828
    2  -0.0012968   0.0015777   0.0020532  -0.0024157  -0.0036580   0.0000997
    3  -0.0042300   0.0071425   0.0008420  -0.0012717  -0.0029557   0.0070984
            7           8           9          10          11          12
    1   0.0135950   0.0185635   0.0188539  -0.0010331  -0.0016918  -0.0028026
    2  -0.0057460   0.0096872  -0.0020522  -0.0003473  -0.0022420   0.0009839
    3   0.0010706  -0.0046866  -0.0073728   0.0030430   0.0007003  -0.0053269
           13          14          15          16          17          18
    1   0.0020697  -0.0007404  -0.0117955  -0.0177136  -0.0159706   0.0002238
    2   0.0014588   0.0031942   0.0025255  -0.0037197   0.0023409   0.0023615
    3  -0.0051728  -0.0042792  -0.0019978   0.0056668   0.0085848   0.0020711
           19          20          21          22          23          24
    1   0.0018636  -0.0050359   0.0038431   0.0043690  -0.0002480  -0.0041245
    2  -0.0005695   0.0039108  -0.0049066  -0.0042325  -0.0004779   0.0014706
    3  -0.0006065  -0.0050903   0.0010542   0.0004441   0.0042561   0.0010164
 Max gradient component =       1.885E-02
 RMS gradient           =       5.912E-03
 Computing fast CPCM-SWIG gradient
 Updating gradient with PCM contributions...
 -- total gradient after adding PCM contribution --
---------------------------------------------------
  Atom         X              Y              Z     
---------------------------------------------------
   1       0.000868      -0.000047       0.000212
   2      -0.000602       0.000029       0.000007
   3      -0.000054      -0.000014      -0.000012
   4       0.000006       0.000033      -0.000005
   5       0.000006      -0.000031      -0.000049
   6       0.000041       0.000051       0.000062
   7       0.000004      -0.000003      -0.000010
   8      -0.000005      -0.000018      -0.000017
   9      -0.000002       0.000019       0.000006
  10      -0.000107       0.000001      -0.000206
  11      -0.000075       0.000023      -0.000025
  12      -0.000025       0.000016      -0.000007
  13       0.000012      -0.000001       0.000007
  14       0.000024       0.000007       0.000021
  15       0.000006       0.000003      -0.000008
  16      -0.000004       0.000002      -0.000013
  17       0.000004       0.000002      -0.000003
  18      -0.000017      -0.000039       0.000019
  19       0.000039      -0.000052      -0.000007
  20      -0.000052       0.000069       0.000014
  21      -0.000013      -0.000018      -0.000032
  22      -0.000033      -0.000007      -0.000006
  23      -0.000008      -0.000016       0.000052
  24      -0.000014      -0.000009       0.000001
---------------------------------------------------
 Number of fixed atoms: 0
 Gradient time:  CPU 779.26 s  wall 66.78 s
 ----------------------------------------------------------------
             Standard Nuclear Orientation (Angstroms)
    I     Atom           X                Y                Z
 ----------------------------------------------------------------
    1      O       5.1609664911    -0.4144549872     1.0691415111
    2      C       3.7553238837    -0.2800476420     0.9823792433
    3      C       3.2415362974     0.9618023148     1.6769045710
    4      O       2.1205047414     0.9784005979     2.1652095156
    5      C       4.1172192553     2.1411143729     1.6687841701
    6      C       4.1271488644     3.1519010952     2.6065366874
    7      C       3.1441990192     3.2625505587     3.7452245862
    8      O       3.1949445100     2.1226895480     4.5799878780
    9      O       3.4930679179     4.4204055191     4.4674492792
   10      H       5.3789559193    -0.4223476552     2.0131322234
   11      H       3.2328453201    -1.1410810551     1.4024124490
   12      H       3.4937054939    -0.2044949863    -0.0747289617
   13      H       4.8336899184     2.1951010603     0.8600395922
   14      H       4.5369158559     4.1012508123     2.2904692908
   15      H       2.1361923686     3.3656827374     3.3415637307
   16      H       2.2952873607     1.8781322163     4.8233222954
   17      H       2.7624865958     4.6364974039     5.0579955648
   18      O       5.7685934645     2.8960070476     3.6013760422
   19      O       6.4934108343     1.7539773805     3.3846668003
   20      C       6.1234731221     0.7504263762     4.3292194498
   21      O       4.9577423816     0.0823955189     3.9477300454
   22      H       6.9499737900     0.0453050675     4.3035850585
   23      H       6.0197268655     1.2204641105     5.3059265618
   24      H       4.2065745750     0.6616481937     4.1788042736
 ----------------------------------------------------------------
 Nuclear Repulsion Energy =         930.92864232 hartrees
 There are       52 alpha and       51 beta electrons
 Discretize the solute cavity surface with Lebedev spheres
	Using 110 Lebedev grid points for each H atom
	Using 194 Lebedev grid points for other atoms
	Atomic van der Waals radii will be scaled by 1.20
 Remove points where switching function is < 1.0e-08
 Keep 1843 surface tesserae and discard 1889 interior tesserae
 Molecular Surface Area = 196.602 Angst**2
 Requested basis set is 6-311++G(2df,2p)
 There are 170 shells and 552 basis functions
 A cutoff of  1.0D-12 yielded  12420 shell pairs
 There are    130475 function pairs (    161887 Cartesian)
 Smallest overlap matrix eigenvalue = 2.68E-06
 Guess MOs from SCF MO coefficient file

 -----------------------------------------------------------------------
  General SCF calculation program by
  Eric Jon Sundstrom, Paul Horn, Yuezhi Mao, Dmitri Zuev, Alec White,
  David Stuck, Shaama M.S., Shane Yost, Joonho Lee, David Small,
  Daniel Levine, Susi Lehtola, Hugh Burton, Evgeny Epifanovsky,
  Bang C. Huynh
 -----------------------------------------------------------------------
 Exchange:     0.1500 Hartree-Fock + 1.0000 wB97M-V + LR-HF
 Correlation:  1.0000 wB97M-V
 Using SG-2 standard quadrature grid
 Nonlocal Correlation:  VV10 with C = 0.0100 and b = 6.00 and scale = 1.00000
 Grid used for NLC:  SG-1 standard quadrature
 
 Citation of the SMD model:
 Marenich, A.V.; Cramer, C.J.; Truhlar, D.G.
 J. Phys. Chem. B 2009, 113, 6378-6396.
 iSolventCode=           1
 Solvent: water                                                           
 
 vradii
            1           2           3           4           5           6
    1   1.5200000   1.8500000   1.8500000   1.5200000   1.8500000   1.8500000
            7           8           9          10          11          12
    1   1.8500000   1.5200000   1.5200000   1.2000000   1.2000000   1.2000000
           13          14          15          16          17          18
    1   1.2000000   1.2000000   1.2000000   1.2000000   1.2000000   1.5200000
           19          20          21          22          23          24
    1   1.5200000   1.8500000   1.5200000   1.2000000   1.2000000   1.2000000
 -------------------------------------------------------
 OpenMP BLAS3 based DFT computing Module                
 Release: version 1.0, May 2013, Q-Chem Inc. Pittsburgh 
 -------------------------------------------------------
 A unrestricted SCF calculation will be
 performed using Roothaan-Hall, DIIS, GDM
 SCF converges when RMS gradient is below 1.0e-07
 ---------------------------------------
  Cycle       Energy         DIIS error
 ---------------------------------------
    1    -761.6394247651      1.75e-04  Roothaan Step
 ---------------------------------------
  Cycle       Energy         DIIS error
 ---------------------------------------
    1    -761.6815794474      2.06e-04  
    2    -761.6865745911      1.95e-04  Done DIIS. Switching to GDM
 ---------------------------------------
  Cycle       Energy        RMS Gradient
 ---------------------------------------
    1    -761.6865745911      1.54e-02   Normal BFGS step
    2    -761.6851562926      2.19e-02  Line search: overstep
    3    -761.6905028537      2.48e-03   Normal BFGS step
    4    -761.6906769897      2.72e-03   Normal BFGS step
    5    -761.6907252054      8.91e-04   Normal BFGS step
    6    -761.6907368369      1.09e-03   Normal BFGS step
    7    -761.6907397968      9.99e-04   Normal BFGS step
    8    -761.6907425403      5.63e-04   Normal BFGS step
    9    -761.6907439653      1.26e-04   Normal BFGS step
   10    -761.6907442259      6.98e-05   Normal BFGS step
   11    -761.6907443099      3.81e-05   Normal BFGS step
   12    -761.6907443291      2.02e-05   Normal BFGS step
   13    -761.6907443351      1.12e-05   Normal BFGS step
   14    -761.6907443368      5.12e-06   Normal BFGS step
   15    -761.6907443372      2.27e-06   Normal BFGS step
   16    -761.6907443373      9.37e-07   Normal BFGS step
   17    -761.6907443373      4.16e-07   Normal BFGS step
   18    -761.6907443373      2.12e-07   Normal BFGS step
   19    -761.6907443373      1.62e-07   Normal BFGS step
   20    -761.6907443374      1.16e-07   Normal BFGS step
  GDM::WARNING energy changes are now smaller than effective accuracy.
  GDM::        calculation will continue, but THRESH should be increased
  GDM::        or SCF_CONVERGENCE decreased. 
  GDM::        effective_thresh = 6.77e-09
   21    -761.6907443373      7.92e-08  Convergence criterion met
 ---------------------------------------
 SCF time:   CPU 5871.05s  wall 412.00s 
<S^2> =          0.803522941
(3)  G-ENP(liq) elect-nuc-pol free energy of system     -761.690744337 a.u.
(4)  G-CDS(liq) cavity-dispersion-solvent structure 
     free energy                                                4.7666 kcal/mol
(6)  G-S(liq) free energy of system                     -761.683148216 a.u.
 SCF   energy in the final basis set =     -761.6831482160
 Total energy in the final basis set =     -761.6831482160
 
 --------------------------------------------------------------
 
                    Orbital Energies (a.u.)
 --------------------------------------------------------------
 
 Alpha MOs
 -- Occupied --
-19.4168 -19.4111 -19.3553 -19.3489 -19.3473 -19.3423 -19.3407 -10.4582
-10.4470 -10.4387 -10.3951 -10.3919 -10.3758  -1.2920  -1.2084  -1.1931
 -1.1737  -1.1601  -1.1413  -1.0140  -0.9389  -0.8618  -0.8152  -0.7852
 -0.7378  -0.6789  -0.6703  -0.6596  -0.6480  -0.6281  -0.6217  -0.6126
 -0.5907  -0.5856  -0.5725  -0.5581  -0.5373  -0.5303  -0.5208  -0.5147
 -0.5004  -0.4827  -0.4693  -0.4553  -0.4389  -0.4340  -0.4139  -0.4107
 -0.4000  -0.3969  -0.3664  -0.3455
 -- Virtual --
  0.0186   0.0253   0.0358   0.0401   0.0429   0.0551   0.0581   0.0584
  0.0631   0.0822   0.0845   0.0891   0.1018   0.1052   0.1122   0.1182
  0.1263   0.1372   0.1402   0.1451   0.1497   0.1537   0.1587   0.1627
  0.1680   0.1696   0.1716   0.1734   0.1794   0.1860   0.1918   0.1948
  0.2028   0.2120   0.2185   0.2255   0.2334   0.2377   0.2475   0.2530
  0.2614   0.2683   0.2724   0.2812   0.2923   0.2961   0.3027   0.3067
  0.3101   0.3139   0.3191   0.3231   0.3265   0.3318   0.3336   0.3403
  0.3439   0.3513   0.3565   0.3583   0.3673   0.3681   0.3700   0.3818
  0.3846   0.3877   0.3886   0.3902   0.3965   0.4016   0.4056   0.4149
  0.4176   0.4220   0.4276   0.4299   0.4355   0.4498   0.4688   0.4723
  0.4785   0.4927   0.5036   0.5060   0.5265   0.5402   0.5422   0.5884
  0.5916   0.6003   0.6145   0.6176   0.6247   0.6288   0.6403   0.6567
  0.6632   0.6681   0.6777   0.6793   0.6933   0.6958   0.6993   0.7006
  0.7084   0.7188   0.7232   0.7400   0.7457   0.7480   0.7578   0.7660
  0.7677   0.7736   0.8017   0.8049   0.8137   0.8256   0.8379   0.8512
  0.8641   0.8809   0.8896   0.9129   0.9225   0.9363   0.9519   0.9545
  0.9865   1.0012   1.0127   1.0302   1.0419   1.0435   1.0589   1.0647
  1.0756   1.0810   1.0992   1.1068   1.1122   1.1239   1.1384   1.1425
  1.1520   1.1680   1.1704   1.1729   1.1862   1.1953   1.2128   1.2222
  1.2242   1.2327   1.2360   1.2488   1.2583   1.2635   1.2686   1.2827
  1.2848   1.2924   1.3053   1.3230   1.3248   1.3377   1.3447   1.3526
  1.3549   1.3623   1.3788   1.3853   1.3896   1.3988   1.4052   1.4122
  1.4331   1.4478   1.4491   1.4584   1.4676   1.4797   1.4842   1.4931
  1.4955   1.5064   1.5131   1.5350   1.5492   1.5700   1.5754   1.5930
  1.5976   1.6110   1.6187   1.6314   1.6396   1.6502   1.6597   1.6639
  1.6740   1.6978   1.7027   1.7307   1.7417   1.7494   1.7954   1.8076
  1.8427   1.8478   1.8546   1.8855   1.9097   1.9146   1.9313   1.9540
  1.9615   1.9705   2.0112   2.0431   2.0516   2.0726   2.0962   2.1081
  2.1280   2.1452   2.1709   2.1902   2.2089   2.2434   2.2664   2.2856
  2.3021   2.3106   2.3455   2.3614   2.3775   2.4035   2.4104   2.4351
  2.4530   2.4641   2.4938   2.5151   2.5161   2.5655   2.5988   2.6257
  2.6829   2.7037   2.7322   2.7374   2.7604   2.7713   2.8045   2.8200
  2.8286   2.8501   2.8702   2.9015   2.9223   2.9301   2.9616   2.9689
  2.9993   3.0278   3.0330   3.0407   3.0628   3.0916   3.1208   3.1382
  3.1567   3.1603   3.1934   3.2042   3.2148   3.2284   3.2387   3.2530
  3.2562   3.2852   3.2991   3.3114   3.3174   3.3360   3.3578   3.3692
  3.3795   3.3898   3.3920   3.4101   3.4194   3.4465   3.4568   3.4749
  3.4908   3.5059   3.5100   3.5234   3.5357   3.5591   3.5639   3.5736
  3.5853   3.6069   3.6099   3.6373   3.6493   3.6674   3.6699   3.7062
  3.7267   3.7346   3.7452   3.7552   3.7690   3.7813   3.8149   3.8375
  3.8411   3.8458   3.8847   3.8946   3.9061   3.9163   3.9200   3.9266
  3.9475   3.9649   3.9750   3.9851   4.0099   4.0422   4.0566   4.0758
  4.0809   4.1376   4.1625   4.1769   4.1864   4.1932   4.2025   4.2181
  4.2345   4.2707   4.2870   4.3035   4.3219   4.3281   4.3512   4.3612
  4.3637   4.3896   4.3936   4.4231   4.4267   4.4321   4.4811   4.4890
  4.5123   4.5252   4.5378   4.5580   4.5750   4.6046   4.6319   4.6878
  4.6957   4.7529   4.7715   4.8045   4.8406   4.8602   4.9011   4.9703
  5.0511   5.0628   5.1334   5.1720   5.1832   5.1976   5.2012   5.2262
  5.2401   5.2512   5.2670   5.2702   5.2773   5.2815   5.2923   5.3069
  5.3259   5.3288   5.3435   5.3561   5.3633   5.3684   5.3833   5.3923
  5.3991   5.4100   5.4123   5.4461   5.4578   5.4758   5.5072   5.5171
  5.5198   5.5407   5.5597   5.5715   5.5972   5.6028   5.6134   5.6276
  5.6367   5.6493   5.6621   5.6695   5.6716   5.6879   5.7133   5.7296
  5.7487   5.7657   5.7941   5.8337   5.8576   5.9346   5.9948   6.0364
  6.0535   6.0661   6.1005   6.1242   6.1569   6.3009   6.3835   6.4026
  6.5037   6.5925   6.6244   6.7239   6.7513   6.8397   6.9852   7.0132
  7.0284   7.0378   7.0726   7.0855   7.1174   7.1333   7.1704   7.1966
  7.2103   7.2214   7.2691   7.2826   7.2919   7.3028   7.3387   7.3454
  7.3636   7.3756   7.3909   7.4049   7.4289   7.4417   7.4521   7.4680
  7.5391   7.6067   7.6176   7.6617   7.6763   7.7099   7.7281   7.7858
  7.8063   7.8168   7.8260   7.8864   7.9177   8.0135   8.1885  24.4633
 24.7488  24.7793  24.8066  24.9672  25.1448  50.5066  50.5388  50.5959
 50.6192  50.6362  50.6563  50.7589
 
 Beta MOs
 -- Occupied --
-19.4142 -19.3963 -19.3554 -19.3484 -19.3473 -19.3404 -19.3393 -10.4581
-10.4478 -10.4389 -10.3982 -10.3919 -10.3684  -1.2781  -1.2084  -1.1888
 -1.1713  -1.1593  -1.1414  -0.9946  -0.9298  -0.8600  -0.8111  -0.7814
 -0.7355  -0.6771  -0.6692  -0.6575  -0.6463  -0.6243  -0.6158  -0.6037
 -0.5881  -0.5822  -0.5650  -0.5434  -0.5336  -0.5256  -0.5144  -0.5016
 -0.4902  -0.4799  -0.4665  -0.4523  -0.4359  -0.4306  -0.4113  -0.4090
 -0.3851  -0.3657  -0.3558
 -- Virtual --
 -0.0700   0.0237   0.0294   0.0360   0.0410   0.0496   0.0553   0.0582
  0.0600   0.0636   0.0827   0.0845   0.0893   0.1019   0.1108   0.1142
  0.1185   0.1270   0.1399   0.1405   0.1457   0.1507   0.1555   0.1595
  0.1636   0.1685   0.1699   0.1734   0.1752   0.1800   0.1872   0.1918
  0.1976   0.2047   0.2121   0.2186   0.2253   0.2348   0.2378   0.2478
  0.2536   0.2618   0.2694   0.2731   0.2812   0.2932   0.2963   0.3028
  0.3068   0.3105   0.3146   0.3196   0.3238   0.3267   0.3324   0.3339
  0.3411   0.3457   0.3523   0.3573   0.3598   0.3678   0.3693   0.3715
  0.3819   0.3850   0.3888   0.3891   0.3918   0.3976   0.4017   0.4059
  0.4156   0.4197   0.4240   0.4285   0.4307   0.4370   0.4503   0.4686
  0.4728   0.4793   0.4932   0.5046   0.5083   0.5275   0.5419   0.5427
  0.5893   0.5936   0.6005   0.6146   0.6176   0.6251   0.6303   0.6415
  0.6571   0.6647   0.6684   0.6777   0.6804   0.6941   0.6963   0.7002
  0.7020   0.7091   0.7199   0.7255   0.7420   0.7477   0.7499   0.7590
  0.7688   0.7697   0.7762   0.8020   0.8072   0.8152   0.8271   0.8401
  0.8518   0.8651   0.8819   0.8932   0.9135   0.9233   0.9369   0.9540
  0.9561   0.9870   1.0031   1.0137   1.0307   1.0425   1.0440   1.0601
  1.0648   1.0779   1.0824   1.0993   1.1079   1.1137   1.1248   1.1388
  1.1438   1.1539   1.1692   1.1734   1.1747   1.1883   1.1964   1.2137
  1.2235   1.2262   1.2343   1.2380   1.2511   1.2591   1.2662   1.2695
  1.2843   1.2866   1.2944   1.3079   1.3255   1.3265   1.3420   1.3476
  1.3566   1.3571   1.3670   1.3806   1.3892   1.3903   1.4011   1.4070
  1.4134   1.4346   1.4507   1.4522   1.4616   1.4697   1.4805   1.4877
  1.4959   1.4974   1.5080   1.5148   1.5371   1.5515   1.5722   1.5773
  1.5936   1.5993   1.6135   1.6202   1.6328   1.6418   1.6512   1.6623
  1.6677   1.6783   1.7013   1.7073   1.7344   1.7447   1.7524   1.7983
  1.8102   1.8477   1.8531   1.8590   1.8874   1.9129   1.9180   1.9337
  1.9591   1.9663   1.9738   2.0127   2.0453   2.0535   2.0748   2.1011
  2.1116   2.1301   2.1494   2.1755   2.1934   2.2119   2.2448   2.2671
  2.2870   2.3058   2.3137   2.3507   2.3644   2.3781   2.4047   2.4121
  2.4365   2.4538   2.4668   2.4962   2.5155   2.5170   2.5674   2.6003
  2.6292   2.6850   2.7082   2.7331   2.7431   2.7632   2.7774   2.8087
  2.8236   2.8336   2.8520   2.8735   2.9101   2.9263   2.9357   2.9656
  2.9749   3.0032   3.0344   3.0391   3.0507   3.0701   3.0898   3.1280
  3.1386   3.1571   3.1681   3.1999   3.2083   3.2171   3.2313   3.2411
  3.2541   3.2647   3.2874   3.3005   3.3142   3.3186   3.3377   3.3577
  3.3688   3.3824   3.3915   3.3942   3.4107   3.4245   3.4471   3.4630
  3.4780   3.4945   3.5100   3.5137   3.5354   3.5390   3.5630   3.5720
  3.5764   3.5841   3.6071   3.6193   3.6407   3.6508   3.6656   3.6783
  3.7062   3.7290   3.7397   3.7489   3.7556   3.7723   3.7823   3.8166
  3.8401   3.8409   3.8503   3.8856   3.8984   3.9065   3.9178   3.9225
  3.9288   3.9501   3.9648   3.9769   3.9882   4.0141   4.0452   4.0601
  4.0792   4.0839   4.1391   4.1640   4.1799   4.1870   4.1976   4.2035
  4.2200   4.2367   4.2727   4.2899   4.3040   4.3233   4.3285   4.3528
  4.3626   4.3713   4.3913   4.3947   4.4263   4.4293   4.4328   4.4825
  4.4934   4.5162   4.5252   4.5431   4.5615   4.5774   4.6075   4.6421
  4.6953   4.7003   4.7647   4.7785   4.8153   4.8445   4.8651   4.9061
  4.9851   5.0650   5.0753   5.1366   5.1885   5.2026   5.2157   5.2280
  5.2331   5.2464   5.2586   5.2715   5.2781   5.2836   5.2884   5.3020
  5.3135   5.3283   5.3311   5.3528   5.3625   5.3728   5.3784   5.3899
  5.3991   5.4083   5.4149   5.4401   5.4531   5.4639   5.4781   5.5145
  5.5210   5.5250   5.5494   5.5685   5.5728   5.5980   5.6079   5.6188
  5.6316   5.6404   5.6543   5.6664   5.6711   5.6732   5.6902   5.7163
  5.7339   5.7542   5.7664   5.8063   5.8373   5.8601   5.9355   6.0019
  6.0372   6.0541   6.0666   6.1022   6.1278   6.1567   6.3243   6.3904
  6.4084   6.5063   6.5925   6.6252   6.7264   6.7519   6.8436   7.0300
  7.0326   7.0510   7.0689   7.0864   7.0890   7.1225   7.1371   7.1762
  7.2072   7.2137   7.2346   7.2708   7.2839   7.2978   7.3254   7.3457
  7.3488   7.3654   7.3803   7.3943   7.4077   7.4301   7.4465   7.4598
  7.4793   7.5399   7.6203   7.6333   7.6629   7.6826   7.7141   7.7390
  7.7905   7.8069   7.8201   7.8302   7.8883   7.9180   8.0300   8.1941
 24.4651  24.7488  24.7793  24.8071  24.9676  25.1468  50.5139  50.5434
 50.5962  50.6194  50.6369  50.6570  50.7610
 --------------------------------------------------------------
 
          Ground-State Mulliken Net Atomic Charges

     Atom                 Charge (a.u.)    Spin (a.u.)
  --------------------------------------------------------
      1 O                    -0.415696       0.005208
      2 C                    -0.494585       0.001947
      3 C                     0.342559      -0.021138
      4 O                    -0.436204       0.108353
      5 C                    -0.337108       0.494732
      6 C                     0.252499      -0.171862
      7 C                    -0.444477       0.003059
      8 O                    -0.422719      -0.002625
      9 O                    -0.442010      -0.000617
     10 H                     0.341957       0.000545
     11 H                     0.242448      -0.000491
     12 H                     0.219160      -0.000314
     13 H                     0.312822      -0.007177
     14 H                     0.372482       0.019026
     15 H                     0.280381      -0.007271
     16 H                     0.342713       0.000593
     17 H                     0.336077       0.000275
     18 O                    -0.221241       0.478069
     19 O                    -0.046287       0.094124
     20 C                    -0.257820       0.001466
     21 O                    -0.358446       0.003229
     22 H                     0.224657       0.000675
     23 H                     0.254371      -0.000160
     24 H                     0.354467       0.000354
  --------------------------------------------------------
  Sum of atomic charges =    -0.000000
  Sum of spin   charges =     1.000000

 -----------------------------------------------------------------
                    Cartesian Multipole Moments
 -----------------------------------------------------------------
    Charge (ESU x 10^10)
                -0.0000
    Dipole Moment (Debye)
         X      -4.0128      Y       0.9965      Z       1.6363
       Tot       4.4467
    Quadrupole Moments (Debye-Ang)
        XX    -111.2690     XY     -12.3810     YY     -76.3427
        XZ      -8.1139     YZ       1.7746     ZZ     -59.8247
    Octopole Moments (Debye-Ang^2)
       XXX   -1212.5054    XXY    -241.1490    XYY    -395.1402
       YYY    -380.8248    XXZ    -287.6753    XYZ     -76.6354
       YYZ    -228.6530    XZZ    -333.8297    YZZ    -102.7033
       ZZZ    -565.3520
    Hexadecapole Moments (Debye-Ang^3)
      XXXX  -10649.0080   XXXY   -2347.3811   XXYY   -2446.8346
      XYYY   -1795.5538   YYYY   -2375.6780   XXXZ   -3239.9385
      XXYZ   -1042.7067   XYYZ   -1326.5614   YYYZ   -1346.3061
      XXZZ   -2444.1796   XYZZ    -808.9924   YYZZ   -1158.4355
      XZZZ   -2876.3689   YZZZ   -1128.9892   ZZZZ   -4182.2585
 -----------------------------------------------------------------
 Calculating analytic gradient of the SCF energy
 Gradient of CDS energy
            1           2           3           4           5           6
    1  -0.0006795   0.0006464  -0.0016493   0.0011270   0.0000570   0.0000485
    2   0.0004460  -0.0010685   0.0000784  -0.0000663   0.0001411   0.0000043
    3  -0.0000181  -0.0005285   0.0007237  -0.0007200  -0.0001275  -0.0000121
            7           8           9          10          11          12
    1   0.0003227   0.0001420  -0.0002490   0.0001579  -0.0001476   0.0000410
    2   0.0016094   0.0005353  -0.0018453  -0.0002602   0.0000694   0.0001564
    3   0.0011715  -0.0005338  -0.0010421  -0.0000283   0.0001296  -0.0001145
           13          14          15          16          17          18
    1   0.0001832   0.0001378  -0.0000539  -0.0001725  -0.0001294  -0.0000095
    2  -0.0000363   0.0001895  -0.0001354  -0.0002203   0.0003750  -0.0000177
    3  -0.0000738   0.0000424  -0.0000599   0.0004400   0.0003342   0.0000231
           19          20          21          22          23          24
    1  -0.0003135  -0.0014206   0.0024576   0.0000254  -0.0003560  -0.0001656
    2   0.0001136  -0.0020781   0.0017432   0.0000229   0.0004178  -0.0001742
    3  -0.0001753   0.0004996   0.0003401  -0.0002876  -0.0002070   0.0002243
 Gradient of SCF Energy
            1           2           3           4           5           6
    1   0.0036689   0.0049774  -0.0015540  -0.0050387   0.0010166  -0.0057795
    2  -0.0011570   0.0014829   0.0020655  -0.0024554  -0.0036527   0.0000919
    3  -0.0046592   0.0071151   0.0008711  -0.0013116  -0.0029563   0.0070971
            7           8           9          10          11          12
    1   0.0135829   0.0185544   0.0188515  -0.0007828  -0.0015410  -0.0027159
[...]
  3.9450   3.9635   3.9712   3.9821   4.0060   4.0401   4.0549   4.0721
  4.0841   4.1381   4.1572   4.1660   4.1697   4.1897   4.2044   4.2102
  4.2368   4.2688   4.2906   4.3036   4.3170   4.3310   4.3475   4.3561
  4.3648   4.3867   4.3984   4.4024   4.4249   4.4310   4.4607   4.4861
  4.4970   4.5186   4.5275   4.5488   4.5720   4.5980   4.6149   4.6666
  4.6862   4.7421   4.7660   4.8017   4.8198   4.8628   4.8750   5.0143
  5.0372   5.0915   5.1322   5.1741   5.1919   5.2071   5.2217   5.2310
  5.2383   5.2420   5.2584   5.2699   5.2767   5.2880   5.2966   5.3158
  5.3268   5.3331   5.3470   5.3562   5.3735   5.3803   5.3934   5.3951
  5.4030   5.4132   5.4309   5.4446   5.4577   5.4757   5.5070   5.5205
  5.5273   5.5505   5.5693   5.5872   5.5963   5.6001   5.6107   5.6238
  5.6410   5.6492   5.6592   5.6704   5.6759   5.6952   5.7044   5.7313
  5.7382   5.7616   5.7805   5.8418   5.8520   5.9300   5.9414   6.0327
  6.0514   6.0646   6.0991   6.1308   6.1585   6.2277   6.3259   6.3778
  6.5192   6.5876   6.6216   6.7310   6.7551   6.8290   6.9532   7.0126
  7.0168   7.0509   7.0687   7.0864   7.1195   7.1360   7.1776   7.2024
  7.2085   7.2321   7.2683   7.2849   7.2965   7.3191   7.3443   7.3486
  7.3638   7.3733   7.3900   7.4059   7.4304   7.4410   7.4537   7.4805
  7.5391   7.6140   7.6436   7.6612   7.6840   7.7142   7.7445   7.7841
  7.8051   7.8117   7.8261   7.8883   7.9168   7.9721   8.2249  24.4712
 24.7467  24.7815  24.7893  24.8917  25.1098  50.5365  50.5447  50.5956
 50.6181  50.6369  50.6619  50.7540
 
 Beta MOs
 -- Occupied --
-19.4029 -19.3893 -19.3563 -19.3480 -19.3457 -19.3417 -19.3407 -10.4607
-10.4502 -10.4362 -10.4170 -10.3929 -10.3799  -1.2604  -1.2100  -1.1899
 -1.1675  -1.1591  -1.1427  -1.0042  -0.9282  -0.8626  -0.8126  -0.7797
 -0.7389  -0.6782  -0.6693  -0.6571  -0.6474  -0.6256  -0.6119  -0.5998
 -0.5889  -0.5828  -0.5654  -0.5407  -0.5355  -0.5290  -0.5143  -0.4967
 -0.4905  -0.4827  -0.4669  -0.4520  -0.4363  -0.4273  -0.4119  -0.4097
 -0.3847  -0.3731  -0.3622
 -- Virtual --
 -0.0683   0.0239   0.0302   0.0359   0.0410   0.0521   0.0554   0.0580
  0.0610   0.0637   0.0823   0.0848   0.0896   0.1019   0.1093   0.1135
  0.1180   0.1275   0.1394   0.1405   0.1446   0.1492   0.1552   0.1595
  0.1638   0.1677   0.1701   0.1707   0.1745   0.1789   0.1863   0.1907
  0.1974   0.2021   0.2115   0.2191   0.2241   0.2343   0.2377   0.2486
  0.2527   0.2612   0.2705   0.2726   0.2818   0.2938   0.2959   0.3010
  0.3064   0.3102   0.3148   0.3183   0.3239   0.3279   0.3320   0.3350
  0.3412   0.3449   0.3520   0.3569   0.3589   0.3667   0.3687   0.3710
  0.3804   0.3847   0.3877   0.3894   0.3901   0.4000   0.4014   0.4061
  0.4154   0.4171   0.4229   0.4291   0.4305   0.4387   0.4509   0.4645
  0.4735   0.4814   0.4940   0.5019   0.5058   0.5255   0.5387   0.5418
  0.5888   0.5933   0.6000   0.6145   0.6169   0.6238   0.6312   0.6388
  0.6582   0.6617   0.6649   0.6772   0.6789   0.6921   0.6946   0.7000
  0.7007   0.7091   0.7201   0.7240   0.7394   0.7466   0.7476   0.7566
  0.7632   0.7702   0.7753   0.7960   0.8004   0.8152   0.8237   0.8394
  0.8493   0.8623   0.8822   0.8928   0.9155   0.9258   0.9386   0.9538
  0.9552   0.9859   1.0037   1.0158   1.0312   1.0409   1.0444   1.0585
  1.0665   1.0776   1.0825   1.1021   1.1073   1.1133   1.1257   1.1395
  1.1450   1.1538   1.1697   1.1728   1.1777   1.1879   1.1950   1.2169
  1.2250   1.2264   1.2335   1.2393   1.2518   1.2582   1.2674   1.2714
  1.2864   1.2884   1.2965   1.3093   1.3243   1.3267   1.3396   1.3411
  1.3537   1.3577   1.3652   1.3807   1.3903   1.3907   1.4011   1.4104
  1.4156   1.4344   1.4493   1.4553   1.4607   1.4701   1.4802   1.4901
  1.4952   1.4985   1.5070   1.5156   1.5377   1.5504   1.5731   1.5748
  1.5934   1.5999   1.6142   1.6230   1.6352   1.6424   1.6489   1.6621
  1.6737   1.6807   1.7053   1.7098   1.7265   1.7415   1.7531   1.7963
  1.8100   1.8483   1.8568   1.8612   1.8856   1.9049   1.9182   1.9365
  1.9542   1.9603   1.9653   2.0113   2.0368   2.0499   2.0734   2.0958
  2.1113   2.1301   2.1381   2.1736   2.1901   2.2128   2.2458   2.2632
  2.2834   2.3043   2.3102   2.3451   2.3678   2.3771   2.4064   2.4088
  2.4360   2.4555   2.4702   2.4935   2.5114   2.5189   2.5669   2.5982
  2.6278   2.6788   2.7020   2.7361   2.7442   2.7624   2.7825   2.8125
  2.8209   2.8402   2.8528   2.8776   2.9103   2.9238   2.9334   2.9608
  2.9747   2.9922   3.0322   3.0441   3.0487   3.0687   3.0853   3.1292
  3.1349   3.1614   3.1691   3.1985   3.2081   3.2157   3.2271   3.2447
  3.2545   3.2706   3.2925   3.3056   3.3124   3.3254   3.3444   3.3559
  3.3786   3.3859   3.3953   3.3987   3.4178   3.4277   3.4472   3.4630
  3.4807   3.5000   3.5049   3.5209   3.5277   3.5385   3.5630   3.5699
  3.5821   3.5938   3.6028   3.6210   3.6414   3.6443   3.6687   3.6795
  3.7019   3.7299   3.7416   3.7473   3.7578   3.7653   3.7872   3.8149
  3.8347   3.8467   3.8521   3.8839   3.8953   3.9048   3.9171   3.9219
  3.9331   3.9487   3.9658   3.9759   3.9851   4.0130   4.0442   4.0591
  4.0780   4.0874   4.1401   4.1619   4.1697   4.1720   4.1979   4.2058
  4.2136   4.2403   4.2724   4.2948   4.3048   4.3196   4.3321   4.3514
  4.3620   4.3709   4.3886   4.4034   4.4116   4.4275   4.4334   4.4669
  4.4893   4.5035   4.5217   4.5346   4.5531   4.5770   4.6038   4.6269
  4.6724   4.6951   4.7535   4.7739   4.8106   4.8264   4.8703   4.8798
  5.0231   5.0559   5.0984   5.1341   5.1849   5.2022   5.2215   5.2291
  5.2431   5.2469   5.2492   5.2693   5.2712   5.2860   5.2914   5.3029
  5.3213   5.3294   5.3348   5.3519   5.3611   5.3808   5.3856   5.3976
  5.3994   5.4096   5.4167   5.4429   5.4558   5.4620   5.4780   5.5134
  5.5228   5.5325   5.5545   5.5719   5.5870   5.6013   5.6098   5.6166
  5.6277   5.6433   5.6531   5.6647   5.6713   5.6791   5.6996   5.7105
  5.7352   5.7489   5.7623   5.7954   5.8438   5.8561   5.9320   5.9522
  6.0334   6.0521   6.0650   6.1014   6.1325   6.1587   6.2395   6.3287
  6.3870   6.5200   6.5877   6.6226   6.7322   6.7559   6.8342   6.9606
  7.0300   7.0403   7.0729   7.0858   7.0908   7.1228   7.1390   7.1813
  7.2063   7.2126   7.2410   7.2697   7.2855   7.2974   7.3304   7.3494
  7.3538   7.3656   7.3793   7.3945   7.4082   7.4314   7.4462   7.4575
  7.4851   7.5400   7.6177   7.6525   7.6627   7.6891   7.7160   7.7577
  7.7913   7.8060   7.8138   7.8306   7.8898   7.9171   7.9815   8.2282
 24.4742  24.7467  24.7820  24.7903  24.8933  25.1119  50.5393  50.5485
 50.5958  50.6182  50.6373  50.6626  50.7567
 --------------------------------------------------------------
 
          Ground-State Mulliken Net Atomic Charges

     Atom                 Charge (a.u.)    Spin (a.u.)
  --------------------------------------------------------
      1 O                    -0.415163       0.005567
      2 C                    -0.492527       0.004274
      3 C                     0.342198      -0.032338
      4 O                    -0.426363       0.142671
      5 C                    -0.309319       0.662042
      6 C                     0.305822      -0.107141
      7 C                    -0.430792       0.009589
      8 O                    -0.422152      -0.002041
      9 O                    -0.440658      -0.000054
     10 H                     0.342792       0.001141
     11 H                     0.243404      -0.000903
     12 H                     0.218755      -0.000338
     13 H                     0.319492      -0.007218
     14 H                     0.365227       0.017868
     15 H                     0.282954      -0.004589
     16 H                     0.342293       0.000680
     17 H                     0.336872       0.000236
     18 O                    -0.268737       0.279687
     19 O                    -0.094235       0.029431
     20 C                    -0.262477      -0.001254
     21 O                    -0.363099       0.001980
     22 H                     0.222784      -0.000123
     23 H                     0.251914      -0.000149
     24 H                     0.351018       0.000982
  --------------------------------------------------------
  Sum of atomic charges =    -0.000000
  Sum of spin   charges =     1.000000

 -----------------------------------------------------------------
                    Cartesian Multipole Moments
 -----------------------------------------------------------------
    Charge (ESU x 10^10)
                -0.0000
    Dipole Moment (Debye)
         X      -4.9752      Y       1.2194      Z       0.9262
       Tot       5.2055
    Quadrupole Moments (Debye-Ang)
        XX    -120.6171     XY     -13.5835     YY     -75.3844
        XZ     -14.4942     YZ       0.7779     ZZ     -63.7815
    Octopole Moments (Debye-Ang^2)
       XXX   -1285.0140    XXY    -257.9930    XYY    -397.4470
       YYY    -376.9062    XXZ    -334.1408    XYZ     -88.5814
       YYZ    -231.0190    XZZ    -363.5331    YZZ    -109.4996
       ZZZ    -584.3426
    Hexadecapole Moments (Debye-Ang^3)
      XXXX  -11166.8965   XXXY   -2491.6986   XXYY   -2489.4442
      XYYY   -1799.6556   YYYY   -2359.1876   XXXZ   -3558.6566
      XXYZ   -1137.5146   XYYZ   -1359.0577   YYYZ   -1351.9556
      XXZZ   -2644.8831   XYZZ    -867.9018   YYZZ   -1176.9734
      XZZZ   -3008.0742   YZZZ   -1163.3474   ZZZZ   -4270.1952
 -----------------------------------------------------------------
 Calculating analytic gradient of the SCF energy
 Gradient of CDS energy
            1           2           3           4           5           6
    1  -0.0005408   0.0005086  -0.0016582   0.0011354   0.0000462   0.0000710
    2   0.0004335  -0.0010577   0.0000802  -0.0000698   0.0001459  -0.0000106
    3  -0.0000088  -0.0005364   0.0007340  -0.0007287  -0.0001430   0.0000201
            7           8           9          10          11          12
    1   0.0003873   0.0001388  -0.0003069   0.0001580  -0.0001474   0.0000399
    2   0.0017193   0.0006511  -0.0020628  -0.0002619   0.0000697   0.0001575
    3   0.0013643  -0.0006175  -0.0011735  -0.0000262   0.0001297  -0.0001135
           13          14          15          16          17          18
    1   0.0001846   0.0001307  -0.0000588  -0.0001730  -0.0001302  -0.0000119
    2  -0.0000366   0.0001996  -0.0001393  -0.0002204   0.0003747  -0.0000193
    3  -0.0000704   0.0000327  -0.0000526   0.0004393   0.0003339   0.0000270
           19          20          21          22          23          24
    1  -0.0003339  -0.0011174   0.0021885   0.0000208  -0.0003637  -0.0001675
    2   0.0000725  -0.0018612   0.0015953   0.0000077   0.0004098  -0.0001773
    3  -0.0001494   0.0005659   0.0002321  -0.0002882  -0.0001997   0.0002292
 Gradient of SCF Energy
            1           2           3           4           5           6
    1   0.0049836   0.0051924  -0.0002964  -0.0061597  -0.0021069  -0.0263411
    2  -0.0012093   0.0013971   0.0022519  -0.0035139  -0.0003902   0.0024928
    3  -0.0036152   0.0084108   0.0008266  -0.0004658  -0.0006425  -0.0082595
            7           8           9          10          11          12
    1   0.0117395   0.0198507   0.0199387  -0.0014248  -0.0018636  -0.0031211
    2  -0.0055011   0.0099048  -0.0029559  -0.0005126  -0.0025331   0.0013127
    3   0.0006489  -0.0055649  -0.0082920   0.0025386   0.0007340  -0.0058385
           13          14          15          16          17          18
    1   0.0017445   0.0020523  -0.0160657  -0.0181500  -0.0159035   0.0190918
    2   0.0028841   0.0031948   0.0030424  -0.0038267   0.0022273  -0.0015121
    3  -0.0059657  -0.0040012  -0.0006072   0.0056100   0.0081543   0.0106177
           19          20          21          22          23          24
    1   0.0067139  -0.0029814   0.0041252   0.0030793  -0.0002128  -0.0038848
    2  -0.0002559   0.0017598  -0.0041184  -0.0040365  -0.0017136   0.0016114
    3   0.0022276  -0.0009961   0.0003885   0.0008802   0.0028191   0.0003922
 Max gradient component =       2.634E-02
 RMS gradient           =       7.338E-03
 Computing fast CPCM-SWIG gradient
 Updating gradient with PCM contributions...
 -- total gradient after adding PCM contribution --
---------------------------------------------------
  Atom         X              Y              Z     
---------------------------------------------------
   1       0.000017       0.000135       0.000083
   2      -0.000037       0.000095       0.000317
   3       0.000810      -0.000340       0.000972
   4      -0.000370      -0.000663      -0.000141
   5      -0.001544       0.004090       0.002009
   6      -0.021350       0.002924      -0.015838
   7      -0.002579       0.000052      -0.001396
   8       0.000144      -0.000061      -0.000921
   9       0.000246      -0.000587      -0.000988
  10       0.000063      -0.000078      -0.000055
  11       0.000090       0.000009      -0.000086
  12      -0.000032       0.000199       0.000219
  13      -0.001065       0.001065       0.000663
  14       0.003008      -0.000948       0.001329
  15      -0.002754       0.000372       0.002005
  16       0.000356       0.000019       0.000021
  17       0.000606      -0.000256      -0.000466
  18       0.018974      -0.005204       0.007583
  19       0.004233       0.000921       0.003360
  20       0.000249      -0.001942       0.001697
  21       0.000591       0.000658      -0.000678
  22       0.000141      -0.000856       0.000308
  23       0.000109      -0.000154       0.000366
  24       0.000095       0.000551      -0.000360
---------------------------------------------------
 Number of fixed atoms: 0
 Gradient time:  CPU 700.97 s  wall 60.94 s
rPathMan2.  file_steps = 951
 IRC --- Status = 4.  Checking bisector search.
 IRC --- Bisector search finished successfully.
 ------------------------------------------------------------------------
 Reaction path following.  The coordinates are cartesian              
 Step   2 E=    -761.686102 |G|=  0.035535 S_lin= 0.1493 S_tot= 0.1493
 ------------------------------------------------------------------------
  IRC -- SD step length =   0.150000000000000     
 ----------------------------------------------------------------
             Standard Nuclear Orientation (Angstroms)
    I     Atom           X                Y                Z
 ----------------------------------------------------------------
    1      O       5.1618320098    -0.4145468594     1.0689693881
    2      C       3.7554468478    -0.2810087636     0.9809842673
    3      C       3.2392097197     0.9620031525     1.6720480919
    4      O       2.1212391043     0.9820787550     2.1661092274
    5      C       4.1239930489     2.1224993371     1.6603373920
    6      C       4.2212008976     3.1404244090     2.6777737735
    7      C       3.1543200865     3.2624990972     3.7518615277
    8      O       3.1940875560     2.1230448878     4.5835126015
    9      O       3.4918564674     4.4229077282     4.4715659230
   10      H       5.3787527948    -0.4220356548     2.0135035567
   11      H       3.2324703377    -1.1411168777     1.4026757023
   12      H       3.4938162853    -0.2052099915    -0.0755817354
   13      H       4.8384960764     2.1907998625     0.8570868492
   14      H       4.5238167425     4.1063761328     2.2840019077
   15      H       2.1473370738     3.3641958367     3.3330992893
   16      H       2.2938737002     1.8780843018     4.8231867979
   17      H       2.7601577084     4.6375224365     5.0597587768
   18      O       5.6830581332     2.9202281653     3.5669055041
   19      O       6.4781276112     1.7465296530     3.3704494049
   20      C       6.1232923825     0.7599947904     4.3210843782
   21      O       4.9548585988     0.0792210938     3.9504192974
   22      H       6.9490479711     0.0487019450     4.3025920298
   23      H       6.0191121126     1.2207490136     5.3044275051
   24      H       4.2060818701     0.6593831294     4.1803616045
 ----------------------------------------------------------------
 Nuclear Repulsion Energy =         933.00345070 hartrees
 There are       52 alpha and       51 beta electrons
 Discretize the solute cavity surface with Lebedev spheres
	Using 110 Lebedev grid points for each H atom
	Using 194 Lebedev grid points for other atoms
	Atomic van der Waals radii will be scaled by 1.20
 Remove points where switching function is < 1.0e-08
 Keep 1834 surface tesserae and discard 1898 interior tesserae
 Molecular Surface Area = 195.699 Angst**2
 Applying Cartesian multipole field
    Component          Value
    ---------          -----
     (2,0,0)        1.00000E-12
     (0,2,0)        2.00000E-11
     (0,0,2)       -3.00000E-12
 Nucleus-field energy     =     0.0000000324 hartrees
 Requested basis set is 6-311++G(2df,2p)
 There are 170 shells and 552 basis functions
 A cutoff of  1.0D-12 yielded  12432 shell pairs
 There are    130636 function pairs (    162104 Cartesian)
 Smallest overlap matrix eigenvalue = 2.98E-06
 Guess MOs from SCF MO coefficient file

 -----------------------------------------------------------------------
  General SCF calculation program by
  Eric Jon Sundstrom, Paul Horn, Yuezhi Mao, Dmitri Zuev, Alec White,
  David Stuck, Shaama M.S., Shane Yost, Joonho Lee, David Small,
  Daniel Levine, Susi Lehtola, Hugh Burton, Evgeny Epifanovsky,
  Bang C. Huynh
 -----------------------------------------------------------------------
 Exchange:     0.1500 Hartree-Fock + 1.0000 wB97M-V + LR-HF
 Correlation:  1.0000 wB97M-V
 Using SG-2 standard quadrature grid
 Nonlocal Correlation:  VV10 with C = 0.0100 and b = 6.00 and scale = 1.00000
 Grid used for NLC:  SG-1 standard quadrature
 
 Citation of the SMD model:
 Marenich, A.V.; Cramer, C.J.; Truhlar, D.G.
 J. Phys. Chem. B 2009, 113, 6378-6396.
 iSolventCode=           1
 Solvent: water                                                           
 
 vradii
            1           2           3           4           5           6
    1   1.5200000   1.8500000   1.8500000   1.5200000   1.8500000   1.8500000
            7           8           9          10          11          12
    1   1.8500000   1.5200000   1.5200000   1.2000000   1.2000000   1.2000000
           13          14          15          16          17          18
    1   1.2000000   1.2000000   1.2000000   1.2000000   1.2000000   1.5200000
           19          20          21          22          23          24
    1   1.5200000   1.8500000   1.5200000   1.2000000   1.2000000   1.2000000
 -------------------------------------------------------
 OpenMP BLAS3 based DFT computing Module                
 Release: version 1.0, May 2013, Q-Chem Inc. Pittsburgh 
 -------------------------------------------------------
 A unrestricted SCF calculation will be
 performed using Roothaan-Hall, DIIS, GDM
 SCF converges when RMS gradient is below 1.0e-07
 ---------------------------------------
  Cycle       Energy         DIIS error
 ---------------------------------------
    1    -761.6379262145      2.43e-04  Roothaan Step
 ---------------------------------------
  Cycle       Energy         DIIS error
 ---------------------------------------
    1    -761.6876872819      2.15e-04  
    2    -761.6946442103      1.99e-04  Done DIIS. Switching to GDM
 ---------------------------------------
  Cycle       Energy        RMS Gradient
 ---------------------------------------
    1    -761.6946442103      1.03e-02   Normal BFGS step
    2    -761.6938546708      2.20e-02  Line search: overstep
    3    -761.6988808277      1.33e-02   Normal BFGS step
    4    -761.6994496181      9.49e-03   Normal BFGS step
    5    -761.6997760972      2.48e-03   Normal BFGS step
    6    -761.6998674744      8.90e-04   Normal BFGS step
    7    -761.6999004788      4.93e-04   Normal BFGS step
    8    -761.6999071249      2.96e-04   Normal BFGS step
    9    -761.6999086656      1.59e-04   Normal BFGS step
   10    -761.6999091289      1.05e-04   Normal BFGS step
