
Running Job 1 of 1 Q_in.in
qchem Q_in.in_83199.0 /scratch/ari.fischer/qChem1476989.hpc-mn1/qchem83199/ 0
/usr/local/qchem-5.4.1/exe/qcprog.exe_s Q_in.in_83199.0 /scratch/ari.fischer/qChem1476989.hpc-mn1/qchem83199/
                  Welcome to Q-Chem
     A Quantum Leap Into The Future Of Chemistry


 Q-Chem 5.4, Q-Chem, Inc., Pleasanton, CA (2021)

 License issued to: Nanyang Technological University (site)

 E. Epifanovsky,  A. T. B. Gilbert,  Xintian Feng,  Joonho Lee,  Yuezhi Mao,  
 N. Mardirossian,  P. Pokhilko,  A. White,  M. Wormit,  M. P. Coons,  
 A. L. Dempwolff,  Zhengting Gan,  D. Hait,  P. R. Horn,  L. D. Jacobson,  
 I. Kaliman,  J. Kussmann,  A. W. Lange,  Ka Un Lao,  D. S. Levine,  Jie Liu,  
 S. C. McKenzie,  A. F. Morrison,  K. Nanda,  F. Plasser,  D. R. Rehn,  
 M. L. Vidal,  Zhi-Qiang You,  Ying Zhu,  B. Alam,  B. Albrecht,  
 A. Aldossary,  E. Alguire,  J. H. Andersen,  D. Barton,  K. Begam,  A. Behn,  
 Y. A. Bernard,  E. J. Berquist,  H. Burton,  A. Carreras,  K. Carter-Fenk,  
 R. Chakraborty,  A. D. Chien,  K. D. Closser,  V. Cofer-Shabica,  
 S. Dasgupta,  Jia Deng,  M. de Wergifosse,  M. Diedenhofen,  Hainam Do,  
 S. Ehlert,  Po-Tung Fang,  S. Fatehi,  Qingguo Feng,  T. Friedhoff,  
 J. Gayvert,  Qinghui Ge,  G. Gidofalvi,  M. Goldey,  J. Gomes,  
 C. Gonzalez-Espinoza,  S. Gulania,  A. Gunina,  M. W. D. Hanson-Heine,  
 P. H. P. Harbach,  A. W. Hauser,  M. F. Herbst,  M. Hernandez Vera,  
 M. Hodecker,  Z. C. Holden,  S. Houck,  Xunkun Huang,  Kerwin Hui,  
 B. C. Huynh,  M. Ivanov,  Hyunjun Ji,  Hanjie Jiang,  B. Kaduk,  S. Kaehler,  
 K. Khistyaev,  Jaehoon Kim,  P. Klunzinger,  Z. Koczor-Benda,  
 Joong Hoon Koh,  D. Kosenkov,  L. Koulias,  T. Kowalczyk,  C. M. Krauter,  
 K. Kue,  A. Kunitsa,  T. Kus,  A. Landau,  K. V. Lawler,  D. Lefrancois,  
 S. Lehtola,  Rain Li,  Yi-Pei Li,  Jiashu Liang,  M. Liebenthal,  
 Hung-Hsuan Lin,  You-Sheng Lin,  Fenglai Liu,  Kuan-Yu Liu,  
 M. Loipersberger,  A. Luenser,  A. Manjanath,  P. Manohar,  E. Mansoor,  
 S. F. Manzer,  Shan-Ping Mao,  A. V. Marenich,  T. Markovich,  S. Mason,  
 S. A. Maurer,  P. F. McLaughlin,  M. F. S. J. Menger,  J.-M. Mewes,  
 S. A. Mewes,  P. Morgante,  J. W. Mullinax,  K. J. Oosterbaan,  G. Paran,  
 Alexander C. Paul,  Suranjan K. Paul,  F. Pavosevic,  Zheng Pei,  S. Prager,  
 E. I. Proynov,  E. Ramos,  B. Rana,  A. E. Rask,  A. Rettig,  R. M. Richard,  
 F. Rob,  E. Rossomme,  T. Scheele,  M. Scheurer,  M. Schneider,  
 N. Sergueev,  S. M. Sharada,  W. Skomorowski,  D. W. Small,  C. J. Stein,  
 Yu-Chuan Su,  E. J. Sundstrom,  Zhen Tao,  J. Thirman,  T. Tsuchimochi,  
 N. M. Tubman,  S. P. Veccham,  O. Vydrov,  J. Wenzel,  J. Witte,  A. Yamada,  
 Kun Yao,  S. Yeganeh,  S. R. Yost,  A. Zech,  Igor Ying Zhang,  Xing Zhang,  
 Yu Zhang,  D. Zuev,  A. Aspuru-Guzik,  A. T. Bell,  N. A. Besley,  
 K. B. Bravaya,  B. R. Brooks,  D. Casanova,  Jeng-Da Chai,  S. Coriani,  
 C. J. Cramer,  A. E. DePrince, III,  R. A. DiStasio Jr.,  A. Dreuw,  
 B. D. Dunietz,  T. R. Furlani,  W. A. Goddard III,  S. Grimme,  
 S. Hammes-Schiffer,  T. Head-Gordon,  W. J. Hehre,  Chao-Ping Hsu,  
 T.-C. Jagau,  Yousung Jung,  A. Klamt,  Jing Kong,  D. S. Lambrecht,  
 WanZhen Liang,  N. J. Mayhall,  C. W. McCurdy,  J. B. Neaton,  
 C. Ochsenfeld,  J. A. Parkhill,  R. Peverati,  V. A. Rassolov,  Yihan Shao,  
 L. V. Slipchenko,  T. Stauch,  R. P. Steele,  J. E. Subotnik,  
 A. J. W. Thom,  A. Tkatchenko,  D. G. Truhlar,  T. Van Voorhis,  
 T. A. Wesolowski,  K. B. Whaley,  H. L. Woodcock III,  P. M. Zimmerman,  
 S. Faraji,  P. M. W. Gill,  M. Head-Gordon,  J. M. Herbert,  A. I. Krylov

 Additional authors for Version 5.4.1: 
 S. Kotaru,  Shaozhi Li,  Xiangyuan Li,  F. Matz,  A. Molle,  Haisheng Ren,  
 Yingli Su,  Hung-Yi Tsai,  C. Utku,  Fang Wang

 Contributors to earlier versions of Q-Chem not listed above: 
 R. D. Adamson,  B. Austin,  R. Baer,  J. Baker,  G. J. O. Beran,  
 K. Brandhorst,  S. T. Brown,  E. F. C. Byrd,  A. K. Chakraborty,  
 G. K. L. Chan,  Chun-Min Chang,  Yunqing Chen,  C.-L. Cheng,  
 Siu Hung Chien,  D. M. Chipman,  D. L. Crittenden,  H. Dachsel,  
 R. J. Doerksen,  A. D. Dutoi,  R. G. Edgar,  J. Fosso-Tande,  
 L. Fusti-Molnar,  D. Ghosh,  A. Ghysels,  A. Golubeva-Zadorozhnaya,  
 J. Gonthier,  M. S. Gordon,  S. R. Gwaltney,  G. Hawkins,  J. E. Herr,  
 A. Heyden,  S. Hirata,  E. G. Hohenstein,  G. Kedziora,  F. J. Keil,  
 C. Kelley,  Jihan Kim,  R. A. King,  R. Z. Khaliullin,  P. P. Korambath,  
 W. Kurlancheek,  A. Laurent,  A. M. Lee,  M. S. Lee,  S. V. Levchenko,  
 Ching Yeh Lin,  D. Liotard,  E. Livshits,  R. C. Lochan,  I. Lotan,  
 L. A. Martinez-Martinez,  P. E. Maslen,  N. Nair,  D. P. O'Neill,  
 D. Neuhauser,  E. Neuscamman,  C. M. Oana,  R. Olivares-Amaya,  R. Olson,  
 T. M. Perrine,  B. Peters,  P. A. Pieniazek,  A. Prociuk,  Y. M. Rhee,  
 J. Ritchie,  M. A. Rohrdanz,  E. Rosta,  N. J. Russ,  H. F. Schaefer III,  
 M. W. Schmidt,  N. E. Schultz,  S. Sharma,  N. Shenvi,  C. D. Sherrill,  
 A. C. Simmonett,  A. Sodt,  T. Stein,  D. Stuck,  K. S. Thanthiriwatte,  
 V. Vanovschi,  L. Vogt,  Tao Wang,  A. Warshel,  M. A. Watson,  
 C. F. Williams,  Q. Wu,  X. Xu,  Jun Yang,  W. Zhang,  Yan Zhao

 Please cite Q-Chem as follows:
 Y. Shao et al., Mol. Phys. 113, 184-215 (2015)
 DOI: 10.1080/00268976.2014.952696

 Q-Chem 5.4.1 for Intel X86 EM64T Linux

 Parts of Q-Chem use Armadillo 9.800.1 (Horizon Scraper).
 http://arma.sourceforge.net/

 Q-Chem begins on Thu Feb 23 17:10:20 2023  

 Host: 
0

     Scratch files written to /scratch/ari.fischer/qChem1476989.hpc-mn1/qchem83199//
 Aug1521 |scratch|qcdevops|jenkins|workspace|build_RNUM 8249   
 Processing $rem in /usr/local/qchem-5.4.1/config/preferences:
 Processing $rem in /home/ari.fischer/.qchemrc:
 Symmetry turned off for PCM/SM12/SMD calculation


!!********************************************.
!!******************Warning*******************.
!!Desired Analytical derivatives not available.
!!Finite difference job might take a long time.
!!********************************************.
!!********************************************.


 2-order derivative to be evaluated numerically with 1-order analytical derivatives

 Checking the input file for inconsistencies... 	...done.

--------------------------------------------------------------
User input:
--------------------------------------------------------------
$molecule
0 2
C         1.0772232420    4.4289839745    1.5148419035
C         1.2055431599    2.9925917970    1.5741958238
C         0.0304248425    2.1989088932    1.6215360444
C        -1.1923921001    2.7898579682    1.5614100356
C        -1.3406512495    4.1987604589    1.3702272366
C        -0.2556027687    4.9962832325    1.2682828054
C        -0.3568746666    6.4694238349    1.0152607469
H         1.1399281566    4.6122785171    2.6952650242
H         2.1450437785    2.5467925744    1.2833954646
H         0.1223949119    1.1228983340    1.6638316897
H        -2.0827732715    2.1764145633    1.5958255842
H        -2.3313526865    4.6225691873    1.2740701454
H        -1.4024988122    6.7691755725    0.9555991540
O         0.3449192042    6.8393652898   -0.1811835785
H         0.1196957258    7.0268390278    1.8212560870
H        -0.1034635167    6.4272182090   -0.9287678165
O         2.1932842632    5.1059282303    0.9716510898
H         1.8598480767    5.7572649473    0.3343041662
O         1.8384561760    2.8541641993    3.5411988980
O         1.6464158345    4.0053068889    4.0358557955
$end

$rem
BASIS = 6-311++G(2df,2p)
GUI = 2
JOB_TYPE = Frequency
METHOD = wB97M-V
SOLVENT_METHOD = SMD
SCF_ALGORITHM = DIIS_GDM
MAX_SCF_CYCLES = 400
SCF_CONVERGENCE = 7
THRESH = 12
UNRESTRICTED = 1
SYMMETRY_IGNORE = 1
$end
--------------------------------------------------------------
 ----------------------------------------------------------------
             Standard Nuclear Orientation (Angstroms)
    I     Atom           X                Y                Z
 ----------------------------------------------------------------
    1      C       1.0772232420     4.4289839745     1.5148419035
    2      C       1.2055431599     2.9925917970     1.5741958238
    3      C       0.0304248425     2.1989088932     1.6215360444
    4      C      -1.1923921001     2.7898579682     1.5614100356
    5      C      -1.3406512495     4.1987604589     1.3702272366
    6      C      -0.2556027687     4.9962832325     1.2682828054
    7      C      -0.3568746666     6.4694238349     1.0152607469
    8      H       1.1399281566     4.6122785171     2.6952650242
    9      H       2.1450437785     2.5467925744     1.2833954646
   10      H       0.1223949119     1.1228983340     1.6638316897
   11      H      -2.0827732715     2.1764145633     1.5958255842
   12      H      -2.3313526865     4.6225691873     1.2740701454
   13      H      -1.4024988122     6.7691755725     0.9555991540
   14      O       0.3449192042     6.8393652898    -0.1811835785
   15      H       0.1196957258     7.0268390278     1.8212560870
   16      H      -0.1034635167     6.4272182090    -0.9287678165
   17      O       2.1932842632     5.1059282303     0.9716510898
   18      H       1.8598480767     5.7572649473     0.3343041662
   19      O       1.8384561760     2.8541641993     3.5411988980
   20      O       1.6464158345     4.0053068889     4.0358557955
 ----------------------------------------------------------------
 Nuclear Repulsion Energy =         633.39625760 hartrees
 There are       42 alpha and       41 beta electrons
 Requested basis set is 6-311++G(2df,2p)
 There are 142 shells and 464 basis functions

 Total QAlloc Memory Limit 288000 MB
 Mega-Array Size       188 MB
 MEM_STATIC part       192 MB
 
 Citation of the SMD model:
 Marenich, A.V.; Cramer, C.J.; Truhlar, D.G.
 J. Phys. Chem. B 2009, 113, 6378-6396.
 iSolventCode=           1
 Solvent: water                                                           
 
 vradii
            1           2           3           4           5           6
    1   1.8500000   1.8500000   1.8500000   1.8500000   1.8500000   1.8500000
            7           8           9          10          11          12
    1   1.8500000   1.2000000   1.2000000   1.2000000   1.2000000   1.2000000
           13          14          15          16          17          18
    1   1.2000000   1.5200000   1.2000000   1.2000000   1.5200000   1.2000000
           19          20
    1   1.5200000   1.5200000
 Changing PCM_VDW_RADII to SMD_RADIUS
 Discretize the solute cavity surface with Lebedev spheres
	Using 110 Lebedev grid points for each H atom
	Using 194 Lebedev grid points for other atoms
	Atomic van der Waals radii will be scaled by 1.20
 Remove points where switching function is < 1.0e-08
 Keep 1479 surface tesserae and discard 1645 interior tesserae
 Molecular Surface Area = 170.888 Angst**2
 A cutoff of  1.0D-12 yielded   8972 shell pairs
 There are     96069 function pairs (    119662 Cartesian)
 Smallest overlap matrix eigenvalue = 8.53E-07
 Linear dependence detected in AO basis
 Tighter screening thresholds may be required for diffuse basis sets
 Use S2THRESH > 14 and THRESH = 14 in case of SCF convergence issues
 Number of orthogonalized atomic orbitals = 463
 Maximum deviation from orthogonality = 8.462E-11
 Guess from superposition of atomic densities
 Warning:  Energy on first SCF cycle will be non-variational
 SAD guess density has 83.000000 electrons

 -----------------------------------------------------------------------
  General SCF calculation program by
  Eric Jon Sundstrom, Paul Horn, Yuezhi Mao, Dmitri Zuev, Alec White,
  David Stuck, Shaama M.S., Shane Yost, Joonho Lee, David Small,
  Daniel Levine, Susi Lehtola, Hugh Burton, Evgeny Epifanovsky,
  Bang C. Huynh
 -----------------------------------------------------------------------
 Exchange:     0.1500 Hartree-Fock + 1.0000 wB97M-V + LR-HF
 Correlation:  1.0000 wB97M-V
 Using SG-2 standard quadrature grid
 Nonlocal Correlation:  VV10 with C = 0.0100 and b = 6.00 and scale = 1.00000
 Grid used for NLC:  SG-1 standard quadrature
 using 8 threads for integral computing
 -------------------------------------------------------
 OpenMP Integral computing Module                
 Release: version 1.0, May 2013, Q-Chem Inc. Pittsburgh 
 -------------------------------------------------------
 
 Citation of the SMD model:
 Marenich, A.V.; Cramer, C.J.; Truhlar, D.G.
 J. Phys. Chem. B 2009, 113, 6378-6396.
 iSolventCode=           1
 Solvent: water                                                           
 
 vradii
            1           2           3           4           5           6
    1   1.8500000   1.8500000   1.8500000   1.8500000   1.8500000   1.8500000
            7           8           9          10          11          12
    1   1.8500000   1.2000000   1.2000000   1.2000000   1.2000000   1.2000000
           13          14          15          16          17          18
    1   1.2000000   1.5200000   1.2000000   1.2000000   1.5200000   1.2000000
           19          20
    1   1.5200000   1.5200000
 -------------------------------------------------------
 OpenMP BLAS3 based DFT computing Module                
 Release: version 1.0, May 2013, Q-Chem Inc. Pittsburgh 
 -------------------------------------------------------
 A unrestricted SCF calculation will be
 performed using DIIS, GDM
 SCF converges when RMS gradient is below 1.0e-07
 ---------------------------------------
  Cycle       Energy         DIIS error
 ---------------------------------------
    1    -575.7369622274      1.17e-02  
    2    -572.7543025236      1.09e-03  Done DIIS. Switching to GDM
 ---------------------------------------
  Cycle       Energy        RMS Gradient
 ---------------------------------------
    1    -572.7543025236      6.44e-02   Descent step
    2    -572.8526562266      1.79e-02   Normal BFGS step
    3    -572.8670898662      1.02e-02   Normal BFGS step
    4    -572.8687564200      7.98e-03   Normal BFGS step
    5    -572.8690640520      4.38e-03   Normal BFGS step
    6    -572.8691743911      3.24e-03   Normal BFGS step
    7    -572.8692289159      2.03e-03   Normal BFGS step
    8    -572.8692545298      2.08e-03   Normal BFGS step
    9    -572.8692749983      8.07e-04   Normal BFGS step
   10    -572.8692809022      6.26e-04   Normal BFGS step
   11    -572.8692829312      2.98e-04   Normal BFGS step
   12    -572.8692835479      2.39e-04   Normal BFGS step
   13    -572.8692837706      1.36e-04   Normal BFGS step
   14    -572.8692838725      7.03e-05   Normal BFGS step
   15    -572.8692839020      3.71e-05   Normal BFGS step
   16    -572.8692839179      2.82e-05   Normal BFGS step
   17    -572.8692839262      1.82e-05   Normal BFGS step
   18    -572.8692839287      9.35e-06   Normal BFGS step
   19    -572.8692839298      4.62e-06   Normal BFGS step
   20    -572.8692839301      3.06e-06   Normal BFGS step
   21    -572.8692839301      1.49e-06   Normal BFGS step
   22    -572.8692839301      5.63e-07   Normal BFGS step
   23    -572.8692839302      2.95e-07   Normal BFGS step
   24    -572.8692839302      9.42e-08  Convergence criterion met
 ---------------------------------------
 SCF time:   CPU 3878.98s  wall 494.00s 
<S^2> =          0.767093446
(3)  G-ENP(liq) elect-nuc-pol free energy of system     -572.869283930 a.u.
(4)  G-CDS(liq) cavity-dispersion-solvent structure 
     free energy                                                3.0430 kcal/mol
(6)  G-S(liq) free energy of system                     -572.864434576 a.u.
 SCF   energy in the final basis set =     -572.8644345757
 Total energy in the final basis set =     -572.8644345757
 
 --------------------------------------------------------------
 
                    Orbital Energies (a.u.)
 --------------------------------------------------------------
 
 Alpha MOs
 -- Occupied --
-19.4192 -19.4134 -19.3491 -19.3431 -10.4072 -10.3956 -10.3944 -10.3725
-10.3645 -10.3513 -10.3497  -1.3275  -1.1759  -1.1572  -0.9961  -0.9284
 -0.9022  -0.8802  -0.8098  -0.7407  -0.7249  -0.6608  -0.6417  -0.6241
 -0.6133  -0.6033  -0.5913  -0.5752  -0.5595  -0.5528  -0.5382  -0.5225
 -0.4887  -0.4855  -0.4585  -0.4514  -0.4440  -0.4016  -0.3975  -0.3718
 -0.3507  -0.3218
 -- Virtual --
 -0.0068   0.0257   0.0351   0.0393   0.0457   0.0565   0.0573   0.0633
  0.0713   0.0844   0.0873   0.0960   0.1043   0.1195   0.1284   0.1362
  0.1399   0.1440   0.1488   0.1556   0.1576   0.1594   0.1662   0.1721
  0.1773   0.1803   0.1896   0.1964   0.2019   0.2076   0.2119   0.2146
  0.2172   0.2239   0.2298   0.2388   0.2447   0.2489   0.2593   0.2674
  0.2700   0.2810   0.2889   0.2941   0.2960   0.3029   0.3126   0.3180
  0.3239   0.3296   0.3341   0.3403   0.3437   0.3489   0.3562   0.3622
  0.3745   0.3771   0.3876   0.3908   0.3975   0.4053   0.4123   0.4195
  0.4250   0.4358   0.4393   0.4466   0.4678   0.4720   0.4794   0.5098
  0.5463   0.5503   0.5553   0.5670   0.5901   0.5989   0.6014   0.6092
  0.6121   0.6149   0.6353   0.6420   0.6582   0.6642   0.6698   0.6788
  0.6846   0.6974   0.7058   0.7186   0.7254   0.7285   0.7315   0.7404
  0.7533   0.7635   0.7697   0.7777   0.7925   0.8013   0.8133   0.8203
  0.8279   0.8348   0.8361   0.8562   0.8634   0.8948   0.9033   0.9123
  0.9503   0.9601   0.9804   0.9913   1.0049   1.0188   1.0405   1.0524
  1.0727   1.0807   1.1006   1.1124   1.1264   1.1384   1.1446   1.1538
  1.1658   1.1760   1.1819   1.1863   1.1973   1.2186   1.2237   1.2308
  1.2391   1.2565   1.2604   1.2740   1.2803   1.2852   1.2909   1.3080
  1.3136   1.3192   1.3325   1.3505   1.3545   1.3794   1.3854   1.4023
  1.4095   1.4145   1.4260   1.4387   1.4523   1.4554   1.4694   1.4735
  1.4807   1.4964   1.5044   1.5215   1.5365   1.5517   1.5641   1.5662
  1.5777   1.5954   1.6237   1.6331   1.6470   1.6507   1.6638   1.6800
  1.6918   1.7384   1.7402   1.7470   1.7796   1.8130   1.8213   1.8270
  1.8652   1.9074   1.9250   1.9488   1.9826   2.0105   2.0368   2.0506
  2.0937   2.1008   2.1078   2.1449   2.1612   2.2123   2.2703   2.2936
  2.3390   2.3434   2.3551   2.3785   2.4082   2.4286   2.4646   2.4864
  2.6140   2.6289   2.6409   2.6851   2.6957   2.7104   2.7174   2.7555
  2.7897   2.7997   2.8206   2.8410   2.8423   2.8631   2.8922   2.8945
  2.9134   2.9174   2.9291   2.9536   2.9590   2.9818   2.9989   3.0201
  3.0342   3.0488   3.0607   3.0842   3.1004   3.1075   3.1315   3.1790
  3.1822   3.1877   3.1935   3.2115   3.2420   3.2478   3.2602   3.2742
  3.3097   3.3107   3.3336   3.3438   3.3507   3.3656   3.3822   3.4100
  3.4232   3.4266   3.4362   3.4416   3.4628   3.4929   3.4972   3.4986
  3.5190   3.5425   3.5649   3.5723   3.5815   3.6116   3.6390   3.6634
  3.6805   3.6910   3.7074   3.7258   3.7564   3.7756   3.7990   3.8128
  3.8329   3.8406   3.8422   3.8520   3.8629   3.8913   3.8994   3.9111
  3.9273   3.9496   3.9639   3.9731   4.0031   4.0136   4.0522   4.0666
  4.0785   4.0825   4.1096   4.1604   4.1710   4.1824   4.2026   4.2206
  4.2335   4.2851   4.3077   4.3199   4.3318   4.3558   4.3630   4.3938
  4.4024   4.4344   4.4377   4.4507   4.4671   4.4762   4.5055   4.5263
  4.5510   4.5592   4.5697   4.5792   4.5987   4.6194   4.6544   4.6683
  4.6976   4.7148   4.7377   4.7827   4.7965   4.8070   4.8228   4.8279
  4.8980   4.9535   4.9771   5.0303   5.0814   5.0893   5.1078   5.1165
  5.1529   5.1900   5.1999   5.2260   5.2318   5.2541   5.2668   5.2776
  5.2909   5.3049   5.3153   5.3220   5.3327   5.3579   5.3727   5.3801
  5.3892   5.4420   5.4943   5.5314   5.5620   5.5934   5.6344   5.6698
  5.6748   5.7018   5.7180   5.7211   5.7286   5.7626   5.7776   5.8124
  5.8554   5.9125   5.9704   6.0325   6.1486   6.2053   6.5069   6.5958
  6.6226   6.6676   6.6992   6.8886   6.9711   7.0304   7.0621   7.0940
  7.1285   7.1676   7.1976   7.2635   7.2990   7.3204   7.3467   7.3935
  7.3966   7.4250   7.5167   7.5556   7.6422   7.7300   7.7800   7.8691
  8.1057   8.1265  24.2516  24.6843  24.7875  24.7946  24.9193  25.0930
 25.4283  50.5170  50.5518  50.6091  50.6556
 
 Beta MOs
 -- Occupied --
-19.4028 -19.3976 -19.3492 -19.3431 -10.4071 -10.3956 -10.3951 -10.3729
-10.3650 -10.3510 -10.3496  -1.2965  -1.1760  -1.1573  -0.9964  -0.9125
 -0.8829  -0.8723  -0.8095  -0.7406  -0.7248  -0.6608  -0.6331  -0.6232
 -0.6131  -0.5763  -0.5718  -0.5579  -0.5524  -0.5377  -0.5185  -0.5130
 -0.4873  -0.4824  -0.4572  -0.4510  -0.4443  -0.3977  -0.3951  -0.3466
 -0.3076
 -- Virtual --
 -0.0075   0.0010   0.0258   0.0352   0.0394   0.0459   0.0567   0.0574
  0.0637   0.0717   0.0846   0.0875   0.0964   0.1051   0.1199   0.1291
  0.1367   0.1404   0.1447   0.1490   0.1559   0.1576   0.1600   0.1670
  0.1727   0.1775   0.1805   0.1906   0.1969   0.2020   0.2077   0.2120
  0.2151   0.2178   0.2236   0.2302   0.2402   0.2457   0.2515   0.2600
  0.2676   0.2710   0.2827   0.2901   0.2946   0.2989   0.3057   0.3138
  0.3211   0.3254   0.3298   0.3355   0.3414   0.3449   0.3488   0.3580
  0.3630   0.3754   0.3778   0.3894   0.3918   0.3979   0.4067   0.4132
  0.4197   0.4269   0.4394   0.4398   0.4471   0.4683   0.4729   0.4810
  0.5101   0.5461   0.5503   0.5553   0.5668   0.5899   0.5988   0.6012
  0.6090   0.6123   0.6148   0.6355   0.6422   0.6583   0.6641   0.6698
  0.6792   0.6846   0.6971   0.7062   0.7189   0.7253   0.7284   0.7313
  0.7403   0.7535   0.7635   0.7698   0.7779   0.7927   0.8014   0.8139
  0.8205   0.8278   0.8346   0.8361   0.8565   0.8635   0.8948   0.9031
  0.9128   0.9505   0.9607   0.9816   0.9913   1.0075   1.0194   1.0421
  1.0539   1.0740   1.0813   1.1060   1.1155   1.1268   1.1416   1.1469
  1.1558   1.1680   1.1810   1.1849   1.1999   1.2013   1.2238   1.2249
  1.2323   1.2479   1.2591   1.2616   1.2773   1.2862   1.2877   1.2932
  1.3094   1.3153   1.3237   1.3364   1.3533   1.3546   1.3831   1.3862
  1.4086   1.4110   1.4155   1.4264   1.4399   1.4528   1.4565   1.4696
  1.4746   1.4829   1.4977   1.5118   1.5257   1.5384   1.5527   1.5658
  1.5681   1.5778   1.5954   1.6242   1.6337   1.6483   1.6516   1.6750
  1.6897   1.6949   1.7417   1.7480   1.7573   1.7828   1.8151   1.8239
  1.8364   1.8663   1.9194   1.9261   1.9514   1.9828   2.0150   2.0405
  2.0519   2.0968   2.1022   2.1080   2.1459   2.1635   2.2125   2.2859
  2.2982   2.3406   2.3580   2.3654   2.3847   2.4091   2.4350   2.4652
  2.4866   2.6139   2.6286   2.6409   2.6853   2.6960   2.7157   2.7176
  2.7549   2.7900   2.7992   2.8193   2.8406   2.8415   2.8632   2.8913
  2.8940   2.9128   2.9168   2.9283   2.9526   2.9580   2.9816   2.9980
  3.0187   3.0326   3.0478   3.0594   3.0838   3.0999   3.1071   3.1303
  3.1784   3.1816   3.1870   3.1924   3.2110   3.2413   3.2475   3.2598
  3.2735   3.3094   3.3104   3.3333   3.3429   3.3500   3.3647   3.3813
  3.4094   3.4225   3.4258   3.4358   3.4404   3.4622   3.4920   3.4963
  3.4981   3.5180   3.5421   3.5643   3.5707   3.5810   3.6108   3.6379
  3.6620   3.6800   3.6900   3.7067   3.7248   3.7562   3.7751   3.7984
  3.8123   3.8323   3.8396   3.8418   3.8516   3.8621   3.8909   3.8986
  3.9106   3.9268   3.9486   3.9637   3.9723   4.0022   4.0128   4.0517
  4.0659   4.0782   4.0815   4.1093   4.1598   4.1702   4.1821   4.2017
  4.2198   4.2329   4.2844   4.3070   4.3196   4.3314   4.3551   4.3623
  4.3924   4.4019   4.4340   4.4370   4.4500   4.4665   4.4751   4.5051
  4.5256   4.5509   4.5611   4.5693   4.5990   4.6132   4.6249   4.6551
  4.6693   4.6981   4.7243   4.7544   4.7847   4.7973   4.8075   4.8231
  4.8475   4.8981   4.9600   4.9822   5.0332   5.0948   5.1233   5.1353
  5.1628   5.1767   5.2002   5.2250   5.2337   5.2659   5.2746   5.2886
  5.3018   5.3070   5.3246   5.3276   5.3367   5.3467   5.3633   5.3820
  5.3866   5.3981   5.4444   5.4962   5.5319   5.5620   5.5934   5.6358
  5.6703   5.6925   5.7054   5.7231   5.7284   5.7498   5.7627   5.7788
  5.8112   5.8554   5.9123   5.9696   6.0324   6.1480   6.2050   6.5062
  6.5960   6.6746   6.6834   6.7017   6.9576   7.0377   7.0741   7.1058
  7.1236   7.1690   7.1818   7.2404   7.2886   7.3094   7.3296   7.3469
  7.3953   7.4234   7.4518   7.5170   7.5720   7.6422   7.7301   7.7800
  7.8693   8.1196   8.1507  24.2515  24.6842  24.7872  24.7946  24.9191
 25.0929  25.4281  50.5296  50.5643  50.6091  50.6556
 --------------------------------------------------------------
 
          Ground-State Mulliken Net Atomic Charges

     Atom                 Charge (a.u.)    Spin (a.u.)
  --------------------------------------------------------
      1 C                    -0.422047      -0.003232
      2 C                    -0.018007      -0.041920
      3 C                    -0.314693       0.018180
      4 C                    -0.495854      -0.034140
      5 C                    -0.480618       0.013996
      6 C                     0.577377      -0.026265
      7 C                    -0.440305       0.003891
      8 H                     0.345049      -0.013740
      9 H                     0.345285       0.001955
     10 H                     0.298554      -0.001148
     11 H                     0.289838       0.000519
     12 H                     0.292549      -0.000290
     13 H                     0.243326       0.000069
     14 O                    -0.364221      -0.000215
     15 H                     0.240600      -0.001139
     16 H                     0.332816      -0.000064
     17 O                    -0.461535      -0.000483
     18 H                     0.344541       0.000048
     19 O                    -0.056866       0.545935
     20 O                    -0.255788       0.538045
  --------------------------------------------------------
  Sum of atomic charges =    -0.000000
  Sum of spin   charges =     1.000000

 -----------------------------------------------------------------
                    Cartesian Multipole Moments
 -----------------------------------------------------------------
    Charge (ESU x 10^10)
                -0.0000
    Dipole Moment (Debye)
         X      -6.5633      Y      -0.1444      Z      -5.1302
       Tot       8.3317
    Quadrupole Moments (Debye-Ang)
        XX     -71.0198     XY     -30.8612     YY     -63.0952
        XZ     -15.3727     YZ     -18.6743     ZZ     -89.2088
    Octopole Moments (Debye-Ang^2)
       XXX    -126.5130    XXY    -310.8509    XYY    -185.7997
       YYY    -832.1949    XXZ    -130.3299    XYZ     -56.9843
       YYZ    -165.1030    XZZ     -83.2205    YZZ    -353.9843
       ZZZ    -442.7706
    Hexadecapole Moments (Debye-Ang^3)
      XXXX    -757.5128   XXXY    -535.8027   XXYY   -1625.6535
      XYYY   -1205.0951   YYYY   -8325.5362   XXXZ    -322.1824
      XXYZ    -497.7938   XYYZ    -307.6309   YYYZ   -1311.8365
      XXZZ    -487.5896   XYZZ    -307.9664   YYZZ   -1831.3044
      XZZZ    -457.6549   YZZZ   -1617.3699   ZZZZ   -2135.5192
 -----------------------------------------------------------------
 Calculating analytic gradient of the SCF energy
 Gradient of CDS energy
            1           2           3           4           5           6
    1   0.0007770   0.0002069   0.0001057  -0.0003483  -0.0002386   0.0002651
    2   0.0004795   0.0000167  -0.0003869  -0.0003462   0.0003256  -0.0000362
    3  -0.0004626  -0.0000773   0.0000311   0.0000654  -0.0000497   0.0000315
            7           8           9          10          11          12
    1  -0.0005346  -0.0000166   0.0002359   0.0000175  -0.0001699  -0.0001461
    2   0.0009912   0.0000307  -0.0000205  -0.0002051  -0.0001171   0.0001300
    3   0.0002472   0.0001059   0.0000139   0.0000081   0.0000066  -0.0000250
           13          14          15          16          17          18
    1  -0.0001377  -0.0000085   0.0003429   0.0000430  -0.0007494   0.0002903
    2  -0.0002019  -0.0001947  -0.0000969  -0.0000178  -0.0005406   0.0001605
    3  -0.0000341   0.0002808   0.0000518  -0.0005218   0.0005643  -0.0003101
           19          20
    1   0.0000376   0.0000278
    2   0.0000617  -0.0000319
    3   0.0000494   0.0000246
 Gradient of SCF Energy
            1           2           3           4           5           6
    1  -0.0036222  -0.0017116   0.0024726   0.0063101   0.0038578   0.0085158
    2   0.0058986   0.0016064   0.0050463   0.0010049  -0.0169087   0.0179843
    3   0.0040986   0.0043147  -0.0029950   0.0017542   0.0060681  -0.0006560
            7           8           9          10          11          12
    1   0.0159919  -0.0031126   0.0017010  -0.0000159  -0.0103523  -0.0138529
    2  -0.0126641   0.0011827  -0.0035838  -0.0082583  -0.0068560   0.0061715
    3  -0.0158321  -0.0020408  -0.0024799  -0.0005142   0.0002038  -0.0016933
           13          14          15          16          17          18
    1  -0.0126539   0.0080858   0.0015245  -0.0088206   0.0093535  -0.0049999
    2   0.0024950   0.0128559   0.0035332  -0.0098785  -0.0014463   0.0013979
    3  -0.0014296   0.0166852   0.0069836  -0.0133827   0.0043024  -0.0043273
           19          20
    1  -0.0006021   0.0019309
    2   0.0029270  -0.0025081
    3   0.0010432  -0.0001026
 Max gradient component =       1.798E-02
 RMS gradient           =       7.457E-03
 Computing fast CPCM-SWIG gradient
 Updating gradient with PCM contributions...
 -- total gradient after adding PCM contribution --
---------------------------------------------------
  Atom         X              Y              Z     
---------------------------------------------------
   1       0.000023       0.000123       0.000062
   2       0.000208      -0.000139       0.000010
   3      -0.000152      -0.000049      -0.000006
   4       0.000053      -0.000076       0.000003
   5       0.000015       0.000067      -0.000029
   6      -0.000057      -0.000013      -0.000017
   7      -0.000003      -0.000013       0.000025
   8      -0.000088       0.000067      -0.000064
   9      -0.000039       0.000004      -0.000138
  10       0.000005      -0.000002      -0.000008
  11       0.000005      -0.000007      -0.000016
  12      -0.000000      -0.000004      -0.000005
  13      -0.000003      -0.000000       0.000009
  14      -0.000010       0.000021      -0.000005
  15      -0.000001       0.000001       0.000005
  16       0.000006      -0.000005       0.000006
  17       0.000030      -0.000017      -0.000069
  18       0.000004       0.000023       0.000006
  19      -0.000109       0.000187       0.000014
  20       0.000112      -0.000168       0.000217
---------------------------------------------------
 Number of fixed atoms: 0
 Gradient time:  CPU 486.86 s  wall 69.79 s
 ######################################################
 ######################################################
 # Starting finite difference calculation for IDERIV  #
 Finite diff step size:  1.88973e-03 a.u.
 ----------------------------------------------------------------
             Standard Nuclear Orientation (Angstroms)
    I     Atom           X                Y                Z
 ----------------------------------------------------------------
    1      C       1.0782232420     4.4289839745     1.5148419035
    2      C       1.2055431599     2.9925917970     1.5741958238
    3      C       0.0304248425     2.1989088932     1.6215360444
    4      C      -1.1923921001     2.7898579682     1.5614100356
    5      C      -1.3406512495     4.1987604589     1.3702272366
    6      C      -0.2556027687     4.9962832325     1.2682828054
    7      C      -0.3568746666     6.4694238349     1.0152607469
    8      H       1.1399281566     4.6122785171     2.6952650242
    9      H       2.1450437785     2.5467925744     1.2833954646
   10      H       0.1223949119     1.1228983340     1.6638316897
   11      H      -2.0827732715     2.1764145633     1.5958255842
   12      H      -2.3313526865     4.6225691873     1.2740701454
   13      H      -1.4024988122     6.7691755725     0.9555991540
   14      O       0.3449192042     6.8393652898    -0.1811835785
   15      H       0.1196957258     7.0268390278     1.8212560870
   16      H      -0.1034635167     6.4272182090    -0.9287678165
   17      O       2.1932842632     5.1059282303     0.9716510898
   18      H       1.8598480767     5.7572649473     0.3343041662
   19      O       1.8384561760     2.8541641993     3.5411988980
   20      O       1.6464158345     4.0053068889     4.0358557955
 ----------------------------------------------------------------
 Nuclear Repulsion Energy =         633.39193265 hartrees
 There are       42 alpha and       41 beta electrons
 Discretize the solute cavity surface with Lebedev spheres
	Using 110 Lebedev grid points for each H atom
	Using 194 Lebedev grid points for other atoms
	Atomic van der Waals radii will be scaled by 1.20
 Remove points where switching function is < 1.0e-08
 Keep 1479 surface tesserae and discard 1645 interior tesserae
 Molecular Surface Area = 170.887 Angst**2
 Requested basis set is 6-311++G(2df,2p)
 There are 142 shells and 464 basis functions
 A cutoff of  1.0D-12 yielded   8972 shell pairs
 There are     96069 function pairs (    119662 Cartesian)
 Smallest overlap matrix eigenvalue = 8.54E-07
 Linear dependence detected in AO basis
 Tighter screening thresholds may be required for diffuse basis sets
 Use S2THRESH > 14 and THRESH = 14 in case of SCF convergence issues
 Number of orthogonalized atomic orbitals = 463
 Maximum deviation from orthogonality = 5.697E-11
 Guess MOs from SCF MO coefficient file

 -----------------------------------------------------------------------
  General SCF calculation program by
  Eric Jon Sundstrom, Paul Horn, Yuezhi Mao, Dmitri Zuev, Alec White,
  David Stuck, Shaama M.S., Shane Yost, Joonho Lee, David Small,
  Daniel Levine, Susi Lehtola, Hugh Burton, Evgeny Epifanovsky,
  Bang C. Huynh
 -----------------------------------------------------------------------
 Exchange:     0.1500 Hartree-Fock + 1.0000 wB97M-V + LR-HF
 Correlation:  1.0000 wB97M-V
 Using SG-2 standard quadrature grid
 Nonlocal Correlation:  VV10 with C = 0.0100 and b = 6.00 and scale = 1.00000
 Grid used for NLC:  SG-1 standard quadrature
 
 Citation of the SMD model:
 Marenich, A.V.; Cramer, C.J.; Truhlar, D.G.
 J. Phys. Chem. B 2009, 113, 6378-6396.
 iSolventCode=           1
 Solvent: water                                                           
 
 vradii
            1           2           3           4           5           6
    1   1.8500000   1.8500000   1.8500000   1.8500000   1.8500000   1.8500000
            7           8           9          10          11          12
    1   1.8500000   1.2000000   1.2000000   1.2000000   1.2000000   1.2000000
           13          14          15          16          17          18
    1   1.2000000   1.5200000   1.2000000   1.2000000   1.5200000   1.2000000
           19          20
    1   1.5200000   1.5200000
 -------------------------------------------------------
 OpenMP BLAS3 based DFT computing Module                
 Release: version 1.0, May 2013, Q-Chem Inc. Pittsburgh 
 -------------------------------------------------------
 A unrestricted SCF calculation will be
 performed using Roothaan-Hall, DIIS, GDM
 SCF converges when RMS gradient is below 1.0e-07
 ---------------------------------------
  Cycle       Energy         DIIS error
 ---------------------------------------
    1    -572.8342561284      1.79e-04  Roothaan Step
 ---------------------------------------
  Cycle       Energy         DIIS error
 ---------------------------------------
    1    -572.8611893766      2.12e-04  
    2    -572.8657817522      2.06e-04  Done DIIS. Switching to GDM
 ---------------------------------------
  Cycle       Energy        RMS Gradient
 ---------------------------------------
    1    -572.8657817522      1.74e-02   Normal BFGS step
    2    -572.8656535351      3.25e-02  Line search: overstep
    3    -572.8689850845      5.23e-03   Normal BFGS step
    4    -572.8692110363      3.86e-03   Normal BFGS step
    5    -572.8692607540      2.39e-03   Normal BFGS step
    6    -572.8692784605      8.96e-04   Normal BFGS step
    7    -572.8692821568      6.67e-04   Normal BFGS step
    8    -572.8692836311      3.00e-04   Normal BFGS step
    9    -572.8692839971      1.82e-04   Normal BFGS step
   10    -572.8692842271      1.84e-04   Normal BFGS step
   11    -572.8692843275      1.15e-04   Normal BFGS step
   12    -572.8692843768      3.68e-05   Normal BFGS step
   13    -572.8692843911      3.26e-05   Normal BFGS step
   14    -572.8692843966      1.89e-05   Normal BFGS step
   15    -572.8692843990      8.97e-06   Normal BFGS step
   16    -572.8692843998      5.32e-06   Normal BFGS step
   17    -572.8692844000      4.91e-06   Normal BFGS step
   18    -572.8692844001      3.22e-06   Normal BFGS step
   19    -572.8692844001      2.07e-06   Normal BFGS step
   20    -572.8692844001      1.18e-06   Normal BFGS step
   21    -572.8692844002      6.80e-07   Normal BFGS step
   22    -572.8692844002      3.08e-07   Normal BFGS step
   23    -572.8692844002      9.50e-08  Convergence criterion met
 ---------------------------------------
 SCF time:   CPU 3909.70s  wall 498.00s 
<S^2> =          0.767096411
(3)  G-ENP(liq) elect-nuc-pol free energy of system     -572.869284400 a.u.
(4)  G-CDS(liq) cavity-dispersion-solvent structure 
     free energy                                                3.0440 kcal/mol
(6)  G-S(liq) free energy of system                     -572.864433447 a.u.
 SCF   energy in the final basis set =     -572.8644334473
 Total energy in the final basis set =     -572.8644334473
 
 --------------------------------------------------------------
 
                    Orbital Energies (a.u.)
 --------------------------------------------------------------
 
 Alpha MOs
 -- Occupied --
-19.4192 -19.4134 -19.3491 -19.3431 -10.4072 -10.3956 -10.3944 -10.3726
-10.3645 -10.3513 -10.3497  -1.3275  -1.1760  -1.1573  -0.9960  -0.9283
 -0.9022  -0.8802  -0.8098  -0.7407  -0.7248  -0.6609  -0.6417  -0.6240
 -0.6134  -0.6032  -0.5913  -0.5752  -0.5596  -0.5528  -0.5381  -0.5225
 -0.4887  -0.4856  -0.4584  -0.4514  -0.4440  -0.4016  -0.3974  -0.3718
 -0.3507  -0.3218
 -- Virtual --
 -0.0068   0.0257   0.0351   0.0393   0.0457   0.0566   0.0573   0.0633
  0.0713   0.0844   0.0873   0.0960   0.1043   0.1195   0.1284   0.1362
  0.1399   0.1440   0.1488   0.1556   0.1576   0.1594   0.1662   0.1721
  0.1773   0.1804   0.1896   0.1964   0.2019   0.2076   0.2119   0.2146
  0.2172   0.2239   0.2298   0.2388   0.2447   0.2489   0.2593   0.2674
  0.2699   0.2810   0.2889   0.2941   0.2960   0.3029   0.3126   0.3181
  0.3239   0.3297   0.3341   0.3403   0.3437   0.3488   0.3562   0.3622
  0.3745   0.3771   0.3876   0.3907   0.3975   0.4053   0.4123   0.4195
  0.4250   0.4358   0.4393   0.4466   0.4678   0.4720   0.4794   0.5098
  0.5463   0.5503   0.5553   0.5669   0.5901   0.5990   0.6014   0.6092
  0.6122   0.6149   0.6353   0.6420   0.6582   0.6642   0.6698   0.6788
  0.6846   0.6974   0.7058   0.7186   0.7254   0.7285   0.7314   0.7404
  0.7533   0.7636   0.7697   0.7777   0.7925   0.8013   0.8132   0.8203
  0.8279   0.8348   0.8361   0.8562   0.8634   0.8947   0.9033   0.9123
  0.9502   0.9601   0.9804   0.9912   1.0049   1.0187   1.0405   1.0524
  1.0727   1.0807   1.1005   1.1123   1.1264   1.1384   1.1446   1.1538
  1.1658   1.1761   1.1819   1.1863   1.1973   1.2186   1.2237   1.2309
  1.2391   1.2566   1.2603   1.2740   1.2802   1.2852   1.2909   1.3080
  1.3136   1.3192   1.3325   1.3505   1.3545   1.3794   1.3854   1.4023
  1.4094   1.4144   1.4260   1.4387   1.4522   1.4554   1.4694   1.4734
  1.4807   1.4963   1.5044   1.5216   1.5365   1.5517   1.5641   1.5662
  1.5777   1.5953   1.6237   1.6331   1.6470   1.6508   1.6638   1.6800
  1.6919   1.7384   1.7401   1.7470   1.7796   1.8130   1.8212   1.8270
  1.8652   1.9074   1.9252   1.9488   1.9825   2.0105   2.0368   2.0505
  2.0937   2.1008   2.1079   2.1448   2.1612   2.2123   2.2704   2.2938
  2.3390   2.3435   2.3551   2.3786   2.4083   2.4287   2.4647   2.4865
  2.6140   2.6289   2.6410   2.6850   2.6958   2.7103   2.7174   2.7556
  2.7897   2.7996   2.8207   2.8410   2.8424   2.8632   2.8922   2.8946
  2.9134   2.9174   2.9291   2.9536   2.9590   2.9819   2.9990   3.0201
  3.0343   3.0487   3.0609   3.0841   3.1003   3.1075   3.1316   3.1790
  3.1823   3.1877   3.1933   3.2114   3.2419   3.2478   3.2602   3.2744
  3.3099   3.3105   3.3336   3.3440   3.3507   3.3657   3.3822   3.4100
  3.4232   3.4267   3.4361   3.4415   3.4627   3.4928   3.4973   3.4986
  3.5190   3.5425   3.5649   3.5725   3.5816   3.6116   3.6391   3.6632
  3.6805   3.6909   3.7074   3.7259   3.7563   3.7755   3.7989   3.8129
  3.8329   3.8406   3.8421   3.8519   3.8629   3.8912   3.8994   3.9111
  3.9272   3.9496   3.9638   3.9731   4.0031   4.0134   4.0521   4.0666
  4.0785   4.0823   4.1096   4.1604   4.1709   4.1824   4.2026   4.2205
  4.2335   4.2851   4.3074   4.3199   4.3318   4.3557   4.3622   4.3937
  4.4024   4.4344   4.4376   4.4507   4.4671   4.4759   4.5053   4.5263
  4.5509   4.5591   4.5696   4.5792   4.5988   4.6194   4.6542   4.6682
  4.6975   4.7148   4.7377   4.7826   4.7963   4.8068   4.8226   4.8278
  4.8978   4.9535   4.9771   5.0303   5.0812   5.0893   5.1077   5.1164
  5.1529   5.1901   5.1999   5.2260   5.2317   5.2541   5.2667   5.2775
  5.2908   5.3049   5.3153   5.3220   5.3327   5.3579   5.3728   5.3800
  5.3893   5.4419   5.4941   5.5313   5.5620   5.5934   5.6344   5.6701
  5.6748   5.7018   5.7181   5.7212   5.7288   5.7627   5.7775   5.8123
  5.8553   5.9125   5.9712   6.0326   6.1489   6.2062   6.5069   6.5958
  6.6226   6.6677   6.7010   6.8887   6.9711   7.0304   7.0621   7.0940
  7.1285   7.1676   7.1977   7.2636   7.2990   7.3204   7.3468   7.3936
  7.3967   7.4255   7.5166   7.5556   7.6422   7.7305   7.7800   7.8692
  8.1057   8.1265  24.2518  24.6841  24.7874  24.7945  24.9193  25.0929
 25.4279  50.5170  50.5518  50.6091  50.6560
 
 Beta MOs
 -- Occupied --
-19.4028 -19.3976 -19.3492 -19.3431 -10.4071 -10.3956 -10.3951 -10.3729
-10.3650 -10.3510 -10.3495  -1.2965  -1.1761  -1.1574  -0.9963  -0.9124
 -0.8828  -0.8723  -0.8095  -0.7406  -0.7248  -0.6609  -0.6331  -0.6231
 -0.6132  -0.5763  -0.5718  -0.5579  -0.5524  -0.5377  -0.5185  -0.5130
 -0.4874  -0.4824  -0.4572  -0.4510  -0.4442  -0.3976  -0.3951  -0.3466
 -0.3076
 -- Virtual --
 -0.0075   0.0010   0.0258   0.0352   0.0394   0.0459   0.0567   0.0574
  0.0637   0.0717   0.0846   0.0875   0.0964   0.1051   0.1199   0.1291
  0.1367   0.1404   0.1447   0.1490   0.1559   0.1576   0.1600   0.1670
  0.1727   0.1775   0.1805   0.1906   0.1969   0.2020   0.2077   0.2120
  0.2151   0.2178   0.2236   0.2302   0.2402   0.2457   0.2515   0.2600
  0.2677   0.2710   0.2827   0.2901   0.2946   0.2989   0.3056   0.3138
  0.3211   0.3254   0.3299   0.3355   0.3414   0.3449   0.3488   0.3580
  0.3630   0.3754   0.3778   0.3894   0.3918   0.3980   0.4067   0.4133
  0.4197   0.4269   0.4394   0.4398   0.4471   0.4683   0.4729   0.4810
  0.5102   0.5461   0.5503   0.5553   0.5668   0.5899   0.5989   0.6012
  0.6089   0.6123   0.6148   0.6355   0.6422   0.6583   0.6641   0.6698
  0.6792   0.6847   0.6971   0.7062   0.7189   0.7253   0.7284   0.7313
  0.7403   0.7535   0.7635   0.7698   0.7779   0.7927   0.8015   0.8139
  0.8205   0.8279   0.8346   0.8361   0.8565   0.8635   0.8947   0.9031
  0.9128   0.9504   0.9607   0.9816   0.9913   1.0075   1.0194   1.0421
  1.0539   1.0740   1.0813   1.1060   1.1155   1.1268   1.1417   1.1469
  1.1558   1.1679   1.1810   1.1849   1.1999   1.2013   1.2239   1.2248
  1.2323   1.2479   1.2592   1.2615   1.2773   1.2862   1.2877   1.2931
  1.3094   1.3153   1.3237   1.3364   1.3533   1.3546   1.3831   1.3861
  1.4086   1.4109   1.4154   1.4264   1.4399   1.4528   1.4565   1.4696
  1.4745   1.4829   1.4976   1.5117   1.5257   1.5384   1.5527   1.5658
  1.5681   1.5778   1.5954   1.6242   1.6337   1.6483   1.6516   1.6750
  1.6896   1.6950   1.7417   1.7481   1.7572   1.7828   1.8151   1.8238
  1.8363   1.8663   1.9193   1.9263   1.9514   1.9828   2.0149   2.0406
  2.0519   2.0967   2.1023   2.1081   2.1458   2.1635   2.2125   2.2860
  2.2984   2.3406   2.3579   2.3656   2.3848   2.4092   2.4351   2.4652
  2.4867   2.6139   2.6286   2.6409   2.6853   2.6961   2.7157   2.7176
  2.7550   2.7899   2.7991   2.8194   2.8406   2.8416   2.8632   2.8913
  2.8940   2.9128   2.9168   2.9283   2.9526   2.9581   2.9816   2.9980
  3.0186   3.0327   3.0477   3.0595   3.0837   3.0998   3.1072   3.1304
  3.1783   3.1817   3.1869   3.1922   3.2109   3.2413   3.2475   3.2598
  3.2737   3.3096   3.3102   3.3333   3.3430   3.3500   3.3647   3.3813
  3.4093   3.4225   3.4258   3.4356   3.4403   3.4621   3.4919   3.4964
  3.4980   3.5181   3.5421   3.5644   3.5708   3.5811   3.6108   3.6379
  3.6619   3.6800   3.6899   3.7067   3.7249   3.7561   3.7750   3.7983
  3.8124   3.8324   3.8396   3.8416   3.8515   3.8621   3.8908   3.8986
  3.9105   3.9267   3.9486   3.9637   3.9723   4.0022   4.0127   4.0516
  4.0659   4.0781   4.0813   4.1092   4.1599   4.1702   4.1821   4.2016
  4.2197   4.2328   4.2844   4.3067   4.3196   4.3314   4.3550   4.3615
  4.3923   4.4019   4.4340   4.4369   4.4500   4.4666   4.4747   4.5050
  4.5257   4.5508   4.5611   4.5692   4.5991   4.6132   4.6248   4.6549
  4.6693   4.6979   4.7243   4.7543   4.7847   4.7971   4.8073   4.8229
  4.8474   4.8979   4.9600   4.9822   5.0332   5.0946   5.1233   5.1353
  5.1628   5.1766   5.2003   5.2249   5.2338   5.2658   5.2746   5.2886
  5.3017   5.3070   5.3246   5.3276   5.3367   5.3467   5.3634   5.3821
  5.3866   5.3981   5.4443   5.4960   5.5318   5.5620   5.5934   5.6358
  5.6706   5.6924   5.7054   5.7232   5.7285   5.7498   5.7628   5.7786
  5.8112   5.8554   5.9123   5.9705   6.0325   6.1482   6.2059   6.5062
  6.5960   6.6746   6.6836   6.7033   6.9577   7.0378   7.0741   7.1058
  7.1236   7.1690   7.1818   7.2404   7.2887   7.3094   7.3297   7.3470
  7.3956   7.4238   7.4518   7.5169   7.5720   7.6422   7.7306   7.7800
  7.8694   8.1197   8.1508  24.2517  24.6840  24.7871  24.7945  24.9190
 25.0928  25.4277  50.5296  50.5643  50.6091  50.6560
 --------------------------------------------------------------
 
          Ground-State Mulliken Net Atomic Charges

     Atom                 Charge (a.u.)    Spin (a.u.)
  --------------------------------------------------------
      1 C                    -0.422878      -0.003224
      2 C                    -0.016791      -0.041956
      3 C                    -0.315512       0.018186
      4 C                    -0.495531      -0.034135
      5 C                    -0.480421       0.013992
      6 C                     0.577246      -0.026265
      7 C                    -0.440435       0.003892
      8 H                     0.345030      -0.013727
      9 H                     0.345247       0.001956
     10 H                     0.298556      -0.001148
     11 H                     0.289835       0.000520
     12 H                     0.292539      -0.000290
     13 H                     0.243319       0.000068
     14 O                    -0.364218      -0.000216
     15 H                     0.240597      -0.001139
     16 H                     0.332807      -0.000064
     17 O                    -0.461327      -0.000478
     18 H                     0.344615       0.000047
     19 O                    -0.056864       0.545920
     20 O                    -0.255814       0.538060
  --------------------------------------------------------
  Sum of atomic charges =    -0.000000
  Sum of spin   charges =     1.000000

 -----------------------------------------------------------------
                    Cartesian Multipole Moments
 -----------------------------------------------------------------
    Charge (ESU x 10^10)
                -0.0000
    Dipole Moment (Debye)
         X      -6.5606      Y      -0.1424      Z      -5.1322
       Tot       8.3308
    Quadrupole Moments (Debye-Ang)
        XX     -71.0140     XY     -30.8439     YY     -63.0803
        XZ     -15.3725     YZ     -18.6803     ZZ     -89.2180
    Octopole Moments (Debye-Ang^2)
       XXX    -126.5123    XXY    -310.8137    XYY    -185.7037
       YYY    -832.1061    XXZ    -130.3289    XYZ     -56.9752
       YYZ    -165.1218    XZZ     -83.2326    YZZ    -354.0152
       ZZZ    -442.8098
    Hexadecapole Moments (Debye-Ang^3)
      XXXX    -757.5415   XXXY    -535.7705   XXYY   -1625.4569
      XYYY   -1204.5823   YYYY   -8325.0541   XXXZ    -322.1972
      XXYZ    -497.7708   XYYZ    -307.5651   YYYZ   -1311.9040
      XXZZ    -487.6136   XYZZ    -307.9988   YYZZ   -1831.4199
      XZZZ    -457.7247   YZZZ   -1617.5083   ZZZZ   -2135.6897
 -----------------------------------------------------------------
 Calculating analytic gradient of the SCF energy
 Gradient of CDS energy
            1           2           3           4           5           6
    1   0.0009164   0.0002067   0.0001058  -0.0003483  -0.0002387   0.0002647
    2   0.0005640   0.0000166  -0.0003869  -0.0003462   0.0003255  -0.0000361
    3  -0.0005302  -0.0000772   0.0000311   0.0000654  -0.0000497   0.0000314
            7           8           9          10          11          12
    1  -0.0005346  -0.0000167   0.0002359   0.0000175  -0.0001699  -0.0001461
    2   0.0009913   0.0000306  -0.0000206  -0.0002051  -0.0001171   0.0001300
    3   0.0002472   0.0001059   0.0000140   0.0000081   0.0000066  -0.0000250
           13          14          15          16          17          18
    1  -0.0001377  -0.0000085   0.0003428   0.0000430  -0.0008877   0.0002901
    2  -0.0002019  -0.0001947  -0.0000969  -0.0000178  -0.0006249   0.0001605
    3  -0.0000341   0.0002808   0.0000518  -0.0005218   0.0006318  -0.0003100
           19          20
    1   0.0000376   0.0000277
    2   0.0000617  -0.0000319
    3   0.0000494   0.0000247
 Gradient of SCF Energy
            1           2           3           4           5           6
    1  -0.0024485  -0.0019136   0.0025143   0.0062919   0.0037858   0.0081219
    2   0.0059210   0.0016221   0.0049980   0.0010450  -0.0169298   0.0181014
    3   0.0040046   0.0043219  -0.0029948   0.0017515   0.0060530  -0.0007066
            7           8           9          10          11          12
    1   0.0159879  -0.0031507   0.0017043  -0.0000227  -0.0103491  -0.0138504
    2  -0.0126458   0.0011750  -0.0035322  -0.0082585  -0.0068519   0.0061670
    3  -0.0158497  -0.0020195  -0.0024788  -0.0005174   0.0002031  -0.0016914
           13          14          15          16          17          18
    1  -0.0126497   0.0080707   0.0015264  -0.0088191   0.0088639  -0.0049857
    2   0.0024901   0.0128610   0.0035316  -0.0098780  -0.0016687   0.0014105
    3  -0.0014290   0.0166902   0.0069834  -0.0133843   0.0044984  -0.0043365
           19          20
    1  -0.0006007   0.0019230
    2   0.0029361  -0.0024940
    3   0.0010369  -0.0001351
 Max gradient component =       1.810E-02
 RMS gradient           =       7.438E-03
 Computing fast CPCM-SWIG gradient
 Updating gradient with PCM contributions...
 -- total gradient after adding PCM contribution --
---------------------------------------------------
  Atom         X              Y              Z     
---------------------------------------------------
   1       0.001181       0.000157      -0.000048
   2       0.000003      -0.000120       0.000022
   3      -0.000107      -0.000093      -0.000008
   4       0.000034      -0.000039       0.000001
   5      -0.000059       0.000038      -0.000035
   6      -0.000430       0.000103      -0.000068
   7      -0.000003       0.000004       0.000012
   8      -0.000130       0.000058      -0.000040
   9      -0.000038       0.000051      -0.000137
  10      -0.000001      -0.000006      -0.000011
  11       0.000005      -0.000005      -0.000016
  12      -0.000001      -0.000008      -0.000003
  13      -0.000001      -0.000004       0.000010
  14      -0.000019       0.000024      -0.000002
  15      -0.000001      -0.000001       0.000005
  16       0.000006      -0.000004       0.000005
  17      -0.000455      -0.000227       0.000119
  18       0.000017       0.000028       0.000004
  19      -0.000107       0.000197       0.000007
  20       0.000105      -0.000154       0.000182
---------------------------------------------------
 Number of fixed atoms: 0
 Gradient time:  CPU 488.19 s  wall 70.20 s
 ----------------------------------------------------------------
             Standard Nuclear Orientation (Angstroms)
    I     Atom           X                Y                Z
 ----------------------------------------------------------------
    1      C       1.0762232420     4.4289839745     1.5148419035
    2      C       1.2055431599     2.9925917970     1.5741958238
    3      C       0.0304248425     2.1989088932     1.6215360444
    4      C      -1.1923921001     2.7898579682     1.5614100356
    5      C      -1.3406512495     4.1987604589     1.3702272366
    6      C      -0.2556027687     4.9962832325     1.2682828054
    7      C      -0.3568746666     6.4694238349     1.0152607469
    8      H       1.1399281566     4.6122785171     2.6952650242
    9      H       2.1450437785     2.5467925744     1.2833954646
   10      H       0.1223949119     1.1228983340     1.6638316897
   11      H      -2.0827732715     2.1764145633     1.5958255842
   12      H      -2.3313526865     4.6225691873     1.2740701454
   13      H      -1.4024988122     6.7691755725     0.9555991540
   14      O       0.3449192042     6.8393652898    -0.1811835785
   15      H       0.1196957258     7.0268390278     1.8212560870
   16      H      -0.1034635167     6.4272182090    -0.9287678165
   17      O       2.1932842632     5.1059282303     0.9716510898
   18      H       1.8598480767     5.7572649473     0.3343041662
   19      O       1.8384561760     2.8541641993     3.5411988980
   20      O       1.6464158345     4.0053068889     4.0358557955
 ----------------------------------------------------------------
 Nuclear Repulsion Energy =         633.40059073 hartrees
 There are       42 alpha and       41 beta electrons
 Discretize the solute cavity surface with Lebedev spheres
	Using 110 Lebedev grid points for each H atom
	Using 194 Lebedev grid points for other atoms
	Atomic van der Waals radii will be scaled by 1.20
 Remove points where switching function is < 1.0e-08
 Keep 1479 surface tesserae and discard 1645 interior tesserae
 Molecular Surface Area = 170.888 Angst**2
 Requested basis set is 6-311++G(2df,2p)
 There are 142 shells and 464 basis functions
 A cutoff of  1.0D-12 yielded   8972 shell pairs
 There are     96069 function pairs (    119662 Cartesian)
 Smallest overlap matrix eigenvalue = 8.52E-07
 Linear dependence detected in AO basis
 Tighter screening thresholds may be required for diffuse basis sets
 Use S2THRESH > 14 and THRESH = 14 in case of SCF convergence issues
 Number of orthogonalized atomic orbitals = 463
 Maximum deviation from orthogonality = 8.846E-11
 Guess MOs from SCF MO coefficient file

 -----------------------------------------------------------------------
  General SCF calculation program by
  Eric Jon Sundstrom, Paul Horn, Yuezhi Mao, Dmitri Zuev, Alec White,
  David Stuck, Shaama M.S., Shane Yost, Joonho Lee, David Small,
  Daniel Levine, Susi Lehtola, Hugh Burton, Evgeny Epifanovsky,
  Bang C. Huynh
 -----------------------------------------------------------------------
 Exchange:     0.1500 Hartree-Fock + 1.0000 wB97M-V + LR-HF
 Correlation:  1.0000 wB97M-V
 Using SG-2 standard quadrature grid
 Nonlocal Correlation:  VV10 with C = 0.0100 and b = 6.00 and scale = 1.00000
 Grid used for NLC:  SG-1 standard quadrature
 
 Citation of the SMD model:
 Marenich, A.V.; Cramer, C.J.; Truhlar, D.G.
 J. Phys. Chem. B 2009, 113, 6378-6396.
 iSolventCode=           1
 Solvent: water                                                           
 
 vradii
            1           2           3           4           5           6
    1   1.8500000   1.8500000   1.8500000   1.8500000   1.8500000   1.8500000
            7           8           9          10          11          12
    1   1.8500000   1.2000000   1.2000000   1.2000000   1.2000000   1.2000000
           13          14          15          16          17          18
    1   1.2000000   1.5200000   1.2000000   1.2000000   1.5200000   1.2000000
           19          20
    1   1.5200000   1.5200000
 -------------------------------------------------------
 OpenMP BLAS3 based DFT computing Module                
 Release: version 1.0, May 2013, Q-Chem Inc. Pittsburgh 
 -------------------------------------------------------
 A unrestricted SCF calculation will be
 performed using Roothaan-Hall, DIIS, GDM
 SCF converges when RMS gradient is below 1.0e-07
 ---------------------------------------
  Cycle       Energy         DIIS error
 ---------------------------------------
    1    -572.8342348810      1.79e-04  Roothaan Step
 ---------------------------------------
  Cycle       Energy         DIIS error
 ---------------------------------------
    1    -572.8611513333      2.13e-04  
    2    -572.8657379417      2.07e-04  Done DIIS. Switching to GDM
 ---------------------------------------
  Cycle       Energy        RMS Gradient
 ---------------------------------------
    1    -572.8657379417      1.75e-02   Normal BFGS step
    2    -572.8655940448      3.27e-02  Line search: overstep
    3    -572.8689817299      5.22e-03   Normal BFGS step
    4    -572.8692077777      3.88e-03   Normal BFGS step
    5    -572.8692575587      2.41e-03   Normal BFGS step
    6    -572.8692755804      8.85e-04   Normal BFGS step
    7    -572.8692792836      6.70e-04   Normal BFGS step
    8    -572.8692807661      3.00e-04   Normal BFGS step
    9    -572.8692811332      1.80e-04   Normal BFGS step
   10    -572.8692813625      1.85e-04   Normal BFGS step
   11    -572.8692814627      1.16e-04   Normal BFGS step
   12    -572.8692815119      3.64e-05   Normal BFGS step
   13    -572.8692815262      3.26e-05   Normal BFGS step
   14    -572.8692815318      1.88e-05   Normal BFGS step
   15    -572.8692815341      8.91e-06   Normal BFGS step
   16    -572.8692815349      5.34e-06   Normal BFGS step
   17    -572.8692815351      4.91e-06   Normal BFGS step
   18    -572.8692815352      3.22e-06   Normal BFGS step
   19    -572.8692815352      2.07e-06   Normal BFGS step
   20    -572.8692815352      1.18e-06   Normal BFGS step
   21    -572.8692815353      6.81e-07   Normal BFGS step
   22    -572.8692815353      3.09e-07   Normal BFGS step
   23    -572.8692815353      9.39e-08  Convergence criterion met
 ---------------------------------------
 SCF time:   CPU 3902.07s  wall 497.00s 
<S^2> =          0.767090410
(3)  G-ENP(liq) elect-nuc-pol free energy of system     -572.869281535 a.u.
(4)  G-CDS(liq) cavity-dispersion-solvent structure 
     free energy                                                3.0422 kcal/mol
(6)  G-S(liq) free energy of system                     -572.864433526 a.u.
 SCF   energy in the final basis set =     -572.8644335259
 Total energy in the final basis set =     -572.8644335259
 
 --------------------------------------------------------------
 
                    Orbital Energies (a.u.)
 --------------------------------------------------------------
 
 Alpha MOs
 -- Occupied --
-19.4193 -19.4134 -19.3491 -19.3430 -10.4072 -10.3956 -10.3944 -10.3725
-10.3645 -10.3513 -10.3497  -1.3275  -1.1758  -1.1571  -0.9961  -0.9284
 -0.9022  -0.8802  -0.8098  -0.7408  -0.7249  -0.6608  -0.6417  -0.6241
 -0.6132  -0.6033  -0.5914  -0.5752  -0.5595  -0.5528  -0.5382  -0.5224
 -0.4886  -0.4855  -0.4585  -0.4514  -0.4440  -0.4017  -0.3975  -0.3718
 -0.3507  -0.3219
 -- Virtual --
 -0.0068   0.0257   0.0351   0.0393   0.0457   0.0565   0.0573   0.0633
  0.0713   0.0844   0.0873   0.0960   0.1043   0.1195   0.1283   0.1363
  0.1399   0.1440   0.1488   0.1556   0.1576   0.1594   0.1662   0.1721
  0.1773   0.1803   0.1896   0.1963   0.2019   0.2076   0.2119   0.2146
  0.2172   0.2239   0.2298   0.2388   0.2446   0.2489   0.2592   0.2674
  0.2700   0.2810   0.2889   0.2940   0.2959   0.3029   0.3126   0.3180
  0.3239   0.3296   0.3341   0.3403   0.3437   0.3489   0.3562   0.3623
  0.3745   0.3772   0.3876   0.3908   0.3975   0.4053   0.4122   0.4195
  0.4250   0.4359   0.4393   0.4466   0.4678   0.4720   0.4793   0.5098
  0.5463   0.5502   0.5553   0.5670   0.5902   0.5989   0.6014   0.6093
  0.6121   0.6149   0.6353   0.6420   0.6582   0.6643   0.6699   0.6788
  0.6846   0.6974   0.7059   0.7186   0.7254   0.7285   0.7315   0.7404
  0.7533   0.7635   0.7697   0.7777   0.7925   0.8013   0.8134   0.8203
  0.8278   0.8348   0.8361   0.8563   0.8634   0.8948   0.9033   0.9123
  0.9503   0.9602   0.9805   0.9913   1.0049   1.0188   1.0405   1.0524
  1.0727   1.0807   1.1006   1.1124   1.1265   1.1384   1.1446   1.1538
  1.1659   1.1760   1.1819   1.1863   1.1973   1.2186   1.2238   1.2308
  1.2391   1.2565   1.2604   1.2740   1.2803   1.2852   1.2910   1.3080
  1.3136   1.3192   1.3325   1.3505   1.3546   1.3794   1.3855   1.4024
  1.4095   1.4145   1.4260   1.4387   1.4523   1.4554   1.4694   1.4735
  1.4807   1.4965   1.5044   1.5215   1.5365   1.5518   1.5641   1.5662
  1.5778   1.5954   1.6237   1.6331   1.6470   1.6507   1.6639   1.6801
  1.6918   1.7384   1.7402   1.7470   1.7796   1.8131   1.8214   1.8271
  1.8652   1.9074   1.9247   1.9488   1.9826   2.0106   2.0368   2.0506
  2.0938   2.1009   2.1077   2.1450   2.1611   2.2123   2.2703   2.2933
  2.3391   2.3434   2.3550   2.3785   2.4081   2.4285   2.4646   2.4864
  2.6141   2.6290   2.6408   2.6852   2.6957   2.7104   2.7174   2.7554
  2.7897   2.7998   2.8206   2.8410   2.8423   2.8631   2.8922   2.8945
  2.9134   2.9174   2.9292   2.9536   2.9589   2.9818   2.9989   3.0202
  3.0341   3.0489   3.0605   3.0842   3.1005   3.1074   3.1314   3.1791
  3.1822   3.1878   3.1937   3.2116   3.2421   3.2478   3.2602   3.2740
  3.3095   3.3108   3.3336   3.3437   3.3506   3.3656   3.3821   3.4101
  3.4232   3.4266   3.4363   3.4416   3.4628   3.4930   3.4972   3.4987
  3.5189   3.5425   3.5649   3.5722   3.5814   3.6116   3.6390   3.6635
  3.6805   3.6910   3.7073   3.7257   3.7565   3.7757   3.7991   3.8127
  3.8328   3.8407   3.8424   3.8521   3.8629   3.8914   3.8994   3.9112
  3.9274   3.9496   3.9639   3.9732   4.0031   4.0138   4.0523   4.0666
  4.0786   4.0827   4.1097   4.1604   4.1710   4.1824   4.2026   4.2207
  4.2336   4.2851   4.3079   4.3199   4.3318   4.3559   4.3637   4.3939
  4.4024   4.4344   4.4378   4.4507   4.4670   4.4766   4.5056   4.5263
  4.5511   4.5592   4.5698   4.5792   4.5986   4.6195   4.6545   4.6684
  4.6978   4.7148   4.7378   4.7827   4.7966   4.8072   4.8231   4.8279
  4.8982   4.9536   4.9772   5.0302   5.0815   5.0893   5.1078   5.1166
  5.1530   5.1900   5.1999   5.2259   5.2320   5.2541   5.2669   5.2776
  5.2909   5.3049   5.3153   5.3220   5.3327   5.3579   5.3725   5.3801
  5.3891   5.4421   5.4945   5.5315   5.5621   5.5934   5.6344   5.6695
  5.6748   5.7019   5.7180   5.7211   5.7284   5.7624   5.7778   5.8124
  5.8554   5.9124   5.9696   6.0325   6.1483   6.2045   6.5069   6.5958
  6.6226   6.6676   6.6975   6.8885   6.9711   7.0303   7.0621   7.0940
  7.1285   7.1676   7.1976   7.2635   7.2990   7.3203   7.3466   7.3934
  7.3964   7.4245   7.5167   7.5556   7.6422   7.7296   7.7799   7.8690
  8.1056   8.1265  24.2514  24.6846  24.7877  24.7947  24.9193  25.0931
 25.4286  50.5170  50.5518  50.6092  50.6553
 
 Beta MOs
 -- Occupied --
-19.4028 -19.3976 -19.3492 -19.3430 -10.4071 -10.3956 -10.3952 -10.3728
-10.3650 -10.3510 -10.3496  -1.2965  -1.1758  -1.1572  -0.9964  -0.9125
 -0.8829  -0.8723  -0.8095  -0.7407  -0.7249  -0.6608  -0.6331  -0.6232
 -0.6130  -0.5763  -0.5718  -0.5579  -0.5524  -0.5378  -0.5185  -0.5129
 -0.4873  -0.4824  -0.4573  -0.4510  -0.4443  -0.3977  -0.3951  -0.3466
 -0.3076
 -- Virtual --
 -0.0075   0.0010   0.0258   0.0352   0.0394   0.0459   0.0567   0.0574
  0.0637   0.0717   0.0846   0.0875   0.0964   0.1051   0.1199   0.1291
  0.1367   0.1404   0.1447   0.1490   0.1559   0.1576   0.1600   0.1670
  0.1727   0.1775   0.1805   0.1906   0.1969   0.2020   0.2077   0.2119
  0.2151   0.2179   0.2236   0.2302   0.2402   0.2456   0.2515   0.2600
  0.2676   0.2711   0.2826   0.2902   0.2946   0.2989   0.3057   0.3137
  0.3211   0.3254   0.3297   0.3355   0.3414   0.3449   0.3489   0.3580
  0.3630   0.3754   0.3779   0.3894   0.3918   0.3979   0.4067   0.4132
  0.4197   0.4269   0.4394   0.4398   0.4471   0.4683   0.4729   0.4810
  0.5101   0.5461   0.5503   0.5552   0.5669   0.5899   0.5988   0.6012
  0.6090   0.6122   0.6148   0.6354   0.6422   0.6583   0.6641   0.6698
  0.6792   0.6846   0.6971   0.7063   0.7190   0.7253   0.7284   0.7313
  0.7403   0.7535   0.7634   0.7698   0.7779   0.7927   0.8014   0.8140
  0.8205   0.8278   0.8346   0.8361   0.8566   0.8635   0.8948   0.9031
  0.9127   0.9506   0.9607   0.9816   0.9913   1.0075   1.0195   1.0421
  1.0539   1.0740   1.0812   1.1061   1.1156   1.1269   1.1416   1.1469
  1.1558   1.1680   1.1810   1.1849   1.1999   1.2013   1.2238   1.2249
  1.2323   1.2479   1.2591   1.2617   1.2773   1.2863   1.2877   1.2932
  1.3094   1.3153   1.3237   1.3363   1.3533   1.3547   1.3831   1.3862
  1.4086   1.4110   1.4155   1.4264   1.4399   1.4528   1.4565   1.4696
  1.4746   1.4829   1.4978   1.5118   1.5256   1.5384   1.5527   1.5658
  1.5681   1.5779   1.5955   1.6241   1.6337   1.6483   1.6516   1.6751
  1.6898   1.6948   1.7418   1.7480   1.7573   1.7828   1.8152   1.8240
  1.8364   1.8663   1.9194   1.9258   1.9513   1.9829   2.0150   2.0405
  2.0519   2.0969   2.1022   2.1079   2.1460   2.1634   2.2125   2.2858
  2.2979   2.3406   2.3581   2.3653   2.3847   2.4090   2.4349   2.4651
  2.4866   2.6139   2.6287   2.6408   2.6854   2.6960   2.7158   2.7176
  2.7548   2.7900   2.7993   2.8193   2.8406   2.8415   2.8631   2.8913
  2.8940   2.9128   2.9168   2.9284   2.9526   2.9579   2.9816   2.9979
  3.0187   3.0325   3.0480   3.0592   3.0838   3.1000   3.1071   3.1302
  3.1784   3.1816   3.1870   3.1926   3.2111   3.2414   3.2475   3.2598
  3.2734   3.3092   3.3105   3.3332   3.3427   3.3499   3.3646   3.3813
  3.4094   3.4225   3.4257   3.4359   3.4404   3.4622   3.4920   3.4963
  3.4981   3.5180   3.5421   3.5643   3.5705   3.5809   3.6107   3.6378
  3.6622   3.6801   3.6900   3.7066   3.7247   3.7563   3.7752   3.7985
  3.8122   3.8323   3.8396   3.8419   3.8517   3.8621   3.8910   3.8987
  3.9106   3.9269   3.9486   3.9637   3.9724   4.0022   4.0130   4.0518
  4.0659   4.0782   4.0816   4.1094   4.1598   4.1703   4.1821   4.2017
  4.2198   4.2329   4.2844   4.3072   4.3197   4.3314   4.3552   4.3630
  4.3925   4.4018   4.4340   4.4371   4.4501   4.4665   4.4754   4.5052
  4.5256   4.5510   4.5611   4.5695   4.5989   4.6133   4.6249   4.6552
  4.6694   4.6982   4.7243   4.7544   4.7848   4.7974   4.8077   4.8234
  4.8475   4.8984   4.9601   4.9822   5.0331   5.0951   5.1234   5.1354
  5.1627   5.1767   5.2001   5.2251   5.2337   5.2659   5.2747   5.2886
  5.3018   5.3070   5.3246   5.3276   5.3367   5.3466   5.3633   5.3819
  5.3867   5.3980   5.4445   5.4964   5.5319   5.5620   5.5934   5.6359
  5.6700   5.6925   5.7054   5.7230   5.7282   5.7498   5.7625   5.7789
  5.8113   5.8555   5.9122   5.9688   6.0323   6.1477   6.2042   6.5062
  6.5959   6.6746   6.6832   6.7000   6.9575   7.0377   7.0741   7.1057
  7.1236   7.1690   7.1818   7.2403   7.2886   7.3094   7.3296   7.3468
  7.3951   7.4230   7.4517   7.5170   7.5720   7.6422   7.7296   7.7799
  7.8692   8.1196   8.1507  24.2513  24.6845  24.7874  24.7947  24.9191
 25.0930  25.4284  50.5295  50.5643  50.6091  50.6553
 --------------------------------------------------------------
 
          Ground-State Mulliken Net Atomic Charges

     Atom                 Charge (a.u.)    Spin (a.u.)
  --------------------------------------------------------
      1 C                    -0.421212      -0.003240
      2 C                    -0.019221      -0.041885
      3 C                    -0.313874       0.018174
      4 C                    -0.496178      -0.034145
      5 C                    -0.480817       0.013999
      6 C                     0.577504      -0.026266
      7 C                    -0.440174       0.003889
      8 H                     0.345067      -0.013754
      9 H                     0.345323       0.001954
     10 H                     0.298551      -0.001147
     11 H                     0.289842       0.000518
     12 H                     0.292558      -0.000290
     13 H                     0.243334       0.000070
     14 O                    -0.364224      -0.000215
     15 H                     0.240602      -0.001139
     16 H                     0.332824      -0.000065
     17 O                    -0.461743      -0.000488
     18 H                     0.344468       0.000048
     19 O                    -0.056867       0.545950
     20 O                    -0.255763       0.538029
  --------------------------------------------------------
  Sum of atomic charges =    -0.000000
  Sum of spin   charges =     1.000000

 -----------------------------------------------------------------
                    Cartesian Multipole Moments
 -----------------------------------------------------------------
    Charge (ESU x 10^10)
                -0.0000
    Dipole Moment (Debye)
         X      -6.5660      Y      -0.1464      Z      -5.1281
       Tot       8.3325
    Quadrupole Moments (Debye-Ang)
        XX     -71.0257     XY     -30.8785     YY     -63.1102
        XZ     -15.3728     YZ     -18.6684     ZZ     -89.1997
    Octopole Moments (Debye-Ang^2)
       XXX    -126.5138    XXY    -310.8881    XYY    -185.8956
       YYY    -832.2833    XXZ    -130.3310    XYZ     -56.9934
       YYZ    -165.0842    XZZ     -83.2083    YZZ    -353.9536
       ZZZ    -442.7315
    Hexadecapole Moments (Debye-Ang^3)
      XXXX    -757.4840   XXXY    -535.8347   XXYY   -1625.8498
      XYYY   -1205.6072   YYYY   -8326.0162   XXXZ    -322.1676
      XXYZ    -497.8168   XYYZ    -307.6967   YYYZ   -1311.7691
      XXZZ    -487.5656   XYZZ    -307.9341   YYZZ   -1831.1893
      XZZZ    -457.5853   YZZZ   -1617.2319   ZZZZ   -2135.3492
 -----------------------------------------------------------------
 Calculating analytic gradient of the SCF energy
 Gradient of CDS energy
            1           2           3           4           5           6
    1   0.0006485   0.0002071   0.0001057  -0.0003483  -0.0002386   0.0002654
    2   0.0004017   0.0000167  -0.0003869  -0.0003462   0.0003257  -0.0000362
    3  -0.0004004  -0.0000773   0.0000311   0.0000654  -0.0000498   0.0000315
            7           8           9          10          11          12
    1  -0.0005346  -0.0000165   0.0002360   0.0000175  -0.0001699  -0.0001461
    2   0.0009912   0.0000309  -0.0000205  -0.0002051  -0.0001171   0.0001300
    3   0.0002472   0.0001060   0.0000139   0.0000081   0.0000066  -0.0000250
           13          14          15          16          17          18
    1  -0.0001377  -0.0000085   0.0003430   0.0000430  -0.0006220   0.0002905
    2  -0.0002019  -0.0001947  -0.0000970  -0.0000179  -0.0004631   0.0001605
    3  -0.0000341   0.0002808   0.0000518  -0.0005218   0.0005022  -0.0003102
           19          20
    1   0.0000376   0.0000278
    2   0.0000617  -0.0000318
    3   0.0000494   0.0000246
 Gradient of SCF Energy
            1           2           3           4           5           6
    1  -0.0047857  -0.0015094   0.0024308   0.0063283   0.0039300   0.0089117
    2   0.0058853   0.0015904   0.0050946   0.0009647  -0.0168874   0.0178661
    3   0.0041859   0.0043075  -0.0029952   0.0017568   0.0060832  -0.0006049
            7           8           9          10          11          12
    1   0.0159959  -0.0030746   0.0016976  -0.0000090  -0.0103555  -0.0138553
    2  -0.0126825   0.0011904  -0.0036354  -0.0082580  -0.0068601   0.0061760
    3  -0.0158146  -0.0020621  -0.0024811  -0.0005111   0.0002045  -0.0016951
           13          14          15          16          17          18
    1  -0.0126580   0.0081010   0.0015227  -0.0088221   0.0098306  -0.0050141
    2   0.0025000   0.0128508   0.0035349  -0.0098790  -0.0012316   0.0013852
    3  -0.0014303   0.0166801   0.0069837  -0.0133810   0.0041127  -0.0043182
           19          20
    1  -0.0006035   0.0019388
    2   0.0029178  -0.0025224
    3   0.0010494  -0.0000700
 Max gradient component =       1.787E-02
 RMS gradient           =       7.479E-03
 Computing fast CPCM-SWIG gradient
 Updating gradient with PCM contributions...
 -- total gradient after adding PCM contribution --
---------------------------------------------------
  Atom         X              Y              Z     
---------------------------------------------------
   1      -0.001124       0.000098       0.000165
   2       0.000412      -0.000158      -0.000003
   3      -0.000197      -0.000005      -0.000005
   4       0.000073      -0.000113       0.000006
   5       0.000089       0.000097      -0.000024
   6       0.000318      -0.000130       0.000035
   7      -0.000004      -0.000030       0.000039
   8      -0.000046       0.000077      -0.000089
   9      -0.000041      -0.000044      -0.000140
  10       0.000011       0.000001      -0.000006
  11       0.000005      -0.000008      -0.000015
  12       0.000000      -0.000001      -0.000006
  13      -0.000005       0.000003       0.000009
  14      -0.000001       0.000018      -0.000008
  15      -0.000000       0.000004       0.000005
  16       0.000007      -0.000006       0.000006
  17       0.000504       0.000186      -0.000251
  18      -0.000009       0.000017       0.000008
  19      -0.000111       0.000177       0.000021
  20       0.000120      -0.000183       0.000252
---------------------------------------------------
 Number of fixed atoms: 0
 Gradient time:  CPU 485.51 s  wall 69.59 s
 ----------------------------------------------------------------
             Standard Nuclear Orientation (Angstroms)
    I     Atom           X                Y                Z
 ----------------------------------------------------------------
    1      C       1.0772232420     4.4299839745     1.5148419035
    2      C       1.2055431599     2.9925917970     1.5741958238
    3      C       0.0304248425     2.1989088932     1.6215360444
    4      C      -1.1923921001     2.7898579682     1.5614100356
    5      C      -1.3406512495     4.1987604589     1.3702272366
    6      C      -0.2556027687     4.9962832325     1.2682828054
    7      C      -0.3568746666     6.4694238349     1.0152607469
    8      H       1.1399281566     4.6122785171     2.6952650242
    9      H       2.1450437785     2.5467925744     1.2833954646
   10      H       0.1223949119     1.1228983340     1.6638316897
   11      H      -2.0827732715     2.1764145633     1.5958255842
   12      H      -2.3313526865     4.6225691873     1.2740701454
   13      H      -1.4024988122     6.7691755725     0.9555991540
   14      O       0.3449192042     6.8393652898    -0.1811835785
   15      H       0.1196957258     7.0268390278     1.8212560870
   16      H      -0.1034635167     6.4272182090    -0.9287678165
   17      O       2.1932842632     5.1059282303     0.9716510898
   18      H       1.8598480767     5.7572649473     0.3343041662
   19      O       1.8384561760     2.8541641993     3.5411988980
   20      O       1.6464158345     4.0053068889     4.0358557955
 ----------------------------------------------------------------
 Nuclear Repulsion Energy =         633.39465421 hartrees
 There are       42 alpha and       41 beta electrons
 Discretize the solute cavity surface with Lebedev spheres
	Using 110 Lebedev grid points for each H atom
	Using 194 Lebedev grid points for other atoms
	Atomic van der Waals radii will be scaled by 1.20
 Remove points where switching function is < 1.0e-08
 Keep 1479 surface tesserae and discard 1645 interior tesserae
 Molecular Surface Area = 170.887 Angst**2
 Requested basis set is 6-311++G(2df,2p)
 There are 142 shells and 464 basis functions
 A cutoff of  1.0D-12 yielded   8972 shell pairs
 There are     96069 function pairs (    119662 Cartesian)
 Smallest overlap matrix eigenvalue = 8.55E-07
 Linear dependence detected in AO basis
 Tighter screening thresholds may be required for diffuse basis sets
 Use S2THRESH > 14 and THRESH = 14 in case of SCF convergence issues
 Number of orthogonalized atomic orbitals = 463
 Maximum deviation from orthogonality = 9.747E-11
 Guess MOs from SCF MO coefficient file

 -----------------------------------------------------------------------
  General SCF calculation program by
  Eric Jon Sundstrom, Paul Horn, Yuezhi Mao, Dmitri Zuev, Alec White,
  David Stuck, Shaama M.S., Shane Yost, Joonho Lee, David Small,
  Daniel Levine, Susi Lehtola, Hugh Burton, Evgeny Epifanovsky,
  Bang C. Huynh
 -----------------------------------------------------------------------
 Exchange:     0.1500 Hartree-Fock + 1.0000 wB97M-V + LR-HF
 Correlation:  1.0000 wB97M-V
 Using SG-2 standard quadrature grid
 Nonlocal Correlation:  VV10 with C = 0.0100 and b = 6.00 and scale = 1.00000
 Grid used for NLC:  SG-1 standard quadrature
 
 Citation of the SMD model:
 Marenich, A.V.; Cramer, C.J.; Truhlar, D.G.
 J. Phys. Chem. B 2009, 113, 6378-6396.
 iSolventCode=           1
 Solvent: water                                                           
 
 vradii
            1           2           3           4           5           6
    1   1.8500000   1.8500000   1.8500000   1.8500000   1.8500000   1.8500000
            7           8           9          10          11          12
    1   1.8500000   1.2000000   1.2000000   1.2000000   1.2000000   1.2000000
           13          14          15          16          17          18
    1   1.2000000   1.5200000   1.2000000   1.2000000   1.5200000   1.2000000
           19          20
    1   1.5200000   1.5200000
 -------------------------------------------------------
 OpenMP BLAS3 based DFT computing Module                
 Release: version 1.0, May 2013, Q-Chem Inc. Pittsburgh 
 -------------------------------------------------------
 A unrestricted SCF calculation will be
 performed using Roothaan-Hall, DIIS, GDM
 SCF converges when RMS gradient is below 1.0e-07
 ---------------------------------------
  Cycle       Energy         DIIS error
 ---------------------------------------
    1    -572.8342481748      1.79e-04  Roothaan Step
 ---------------------------------------
  Cycle       Energy         DIIS error
 ---------------------------------------
    1    -572.8611901911      2.12e-04  
    2    -572.8657844274      2.06e-04  Done DIIS. Switching to GDM
 ---------------------------------------
  Cycle       Energy        RMS Gradient
 ---------------------------------------
    1    -572.8657844274      1.74e-02   Normal BFGS step
    2    -572.8656581375      3.25e-02  Line search: overstep
    3    -572.8689843746      5.24e-03   Normal BFGS step
    4    -572.8692102967      3.86e-03   Normal BFGS step
    5    -572.8692600855      2.37e-03   Normal BFGS step
    6    -572.8692776705      9.01e-04   Normal BFGS step
    7    -572.8692813640      6.64e-04   Normal BFGS step
    8    -572.8692828351      2.99e-04   Normal BFGS step
    9    -572.8692831979      1.81e-04   Normal BFGS step
   10    -572.8692834254      1.82e-04   Normal BFGS step
   11    -572.8692835249      1.15e-04   Normal BFGS step
   12    -572.8692835738      3.70e-05   Normal BFGS step
   13    -572.8692835880      3.25e-05   Normal BFGS step
   14    -572.8692835935      1.89e-05   Normal BFGS step
[...]
 Force Cnst:      1.0087                 1.1073                 1.7466
 Red. Mass:       1.2082                 1.2657                 1.8991
 IR Active:          YES                    YES                    YES
 IR Intens:      185.096                127.009                156.825
 Raman Active:       YES                    YES                    YES
               X      Y      Z        X      Y      Z        X      Y      Z
 C         -0.037  0.020 -0.008   -0.035  0.023 -0.002    0.020 -0.109  0.031
 C          0.018 -0.019  0.015    0.034 -0.004  0.009   -0.006  0.012 -0.003
 C         -0.011  0.020 -0.010   -0.017  0.008 -0.009   -0.040  0.038  0.004
 C          0.009 -0.041  0.000   -0.006 -0.035  0.004   -0.012 -0.061  0.006
 C          0.038  0.030 -0.008   -0.001  0.026  0.005    0.043  0.055 -0.007
 C         -0.034  0.072 -0.003   -0.013  0.084 -0.064   -0.053  0.188 -0.010
 C          0.003 -0.042 -0.025    0.020 -0.035  0.056    0.022 -0.078  0.000
 H          0.506 -0.140  0.047    0.513 -0.113  0.051   -0.430 -0.203  0.040
 H         -0.088 -0.211 -0.038   -0.066 -0.199 -0.025    0.101  0.225  0.027
 H         -0.119  0.011 -0.000   -0.030  0.007  0.005   -0.034  0.041 -0.037
 H          0.139 -0.226  0.057    0.004 -0.053  0.013    0.115 -0.245  0.029
 H          0.079  0.137  0.037   -0.137 -0.280  0.013   -0.134 -0.336  0.053
 H          0.068  0.130 -0.205   -0.093 -0.378  0.246   -0.005 -0.188  0.013
 O          0.013  0.017 -0.012   -0.006 -0.020 -0.002   -0.001  0.004 -0.008
 H         -0.111 -0.386  0.282    0.059  0.278 -0.189   -0.027 -0.208  0.117
 H         -0.296 -0.184  0.277    0.289  0.185 -0.286   -0.009 -0.008 -0.001
 O         -0.020 -0.004  0.009   -0.020 -0.006  0.010    0.080  0.024 -0.025
 H          0.171  0.063 -0.009    0.148  0.043 -0.017   -0.544 -0.151  0.093
 O          0.000  0.012 -0.004   -0.000  0.015 -0.002   -0.003 -0.003 -0.004
 O         -0.004 -0.003  0.008   -0.003 -0.008  0.006    0.005  0.009  0.001
 TransDip   0.181 -0.203  0.341    0.282 -0.169  0.148   -0.328 -0.226  0.052

 Mode:                34                     35                     36
 Frequency:      1295.79                1306.60                1337.61
 Force Cnst:      1.7289                 3.0133                 1.7874
 Red. Mass:       1.7477                 2.9957                 1.6955
 IR Active:          YES                    YES                    YES
 IR Intens:       27.324                131.383                 87.406
 Raman Active:       YES                    YES                    YES
               X      Y      Z        X      Y      Z        X      Y      Z
 C          0.133 -0.033 -0.055    0.220  0.145 -0.063   -0.026  0.001  0.026
 C         -0.032  0.033 -0.030    0.075  0.129  0.005   -0.040 -0.116  0.008
 C         -0.029  0.003  0.008   -0.046 -0.090 -0.005    0.008  0.028  0.005
 C          0.004 -0.012  0.001    0.015 -0.030  0.007   -0.060  0.035 -0.006
 C         -0.010  0.038 -0.008   -0.060  0.049 -0.012   -0.022  0.018 -0.005
 C          0.021  0.015  0.020    0.058  0.019  0.009    0.117  0.008  0.012
 C         -0.009 -0.009 -0.015   -0.014 -0.008 -0.019   -0.037  0.032 -0.036
 H          0.310  0.665 -0.377   -0.405 -0.340  0.111    0.001  0.088 -0.035
 H          0.102  0.207  0.152   -0.184 -0.414 -0.024    0.179  0.372 -0.045
 H          0.001  0.005 -0.039   -0.342 -0.125 -0.003    0.323  0.057  0.026
 H          0.035 -0.058  0.004    0.017 -0.044  0.017    0.133 -0.250  0.022
 H         -0.170 -0.323  0.029   -0.238 -0.337  0.042   -0.212 -0.407  0.065
 H          0.013  0.063 -0.020   -0.007  0.023  0.030   -0.095 -0.107  0.216
 O          0.002  0.005  0.002    0.007  0.004  0.002    0.026 -0.001 -0.003
 H          0.003 -0.060  0.016    0.014 -0.096  0.027    0.037 -0.179  0.068
 H         -0.063 -0.034  0.061   -0.080 -0.047  0.080   -0.111 -0.068  0.114
 O         -0.072 -0.041  0.062   -0.119 -0.076  0.040   -0.023  0.020 -0.015
 H         -0.131 -0.043  0.094    0.038 -0.044 -0.001    0.437  0.151 -0.100
 O          0.002  0.069  0.051    0.011 -0.102 -0.042    0.013 -0.078 -0.034
 O          0.002 -0.086 -0.051   -0.010  0.104  0.041   -0.014  0.076  0.028
 TransDip   0.154  0.062  0.020    0.113  0.132 -0.323   -0.084  0.117 -0.262

 Mode:                37                     38                     39
 Frequency:      1358.01                1384.10                1406.32
 Force Cnst:      2.6555                 1.3586                 1.5017
 Red. Mass:       2.4440                 1.2037                 1.2888
 IR Active:          YES                    YES                    YES
 IR Intens:      496.748                 99.489                 95.767
 Raman Active:       YES                    YES                    YES
               X      Y      Z        X      Y      Z        X      Y      Z
 C         -0.025  0.020  0.006   -0.025 -0.001 -0.007   -0.001  0.010 -0.012
 C          0.023  0.013  0.012    0.002  0.016 -0.004   -0.006  0.011  0.003
 C          0.000 -0.030 -0.001    0.020  0.004 -0.001    0.042 -0.003 -0.000
 C         -0.012  0.006 -0.002    0.009 -0.012  0.001   -0.004 -0.002 -0.001
 C         -0.034  0.024 -0.003   -0.008 -0.019  0.001   -0.032 -0.032  0.000
 C          0.085 -0.008  0.009   -0.023  0.002  0.003    0.017 -0.005  0.020
 C         -0.042  0.018 -0.046   -0.031  0.004 -0.069    0.033  0.124 -0.042
 H         -0.413 -0.385  0.359    0.123  0.123 -0.076    0.037  0.075  0.004
 H         -0.072 -0.127 -0.093   -0.034 -0.072  0.022   -0.042 -0.052 -0.012
 H         -0.013 -0.037  0.019   -0.113 -0.006 -0.000   -0.146 -0.020  0.011
 H          0.042 -0.078  0.008   -0.074  0.109 -0.010   -0.079  0.101 -0.009
 H         -0.146 -0.216  0.039    0.055  0.131 -0.012    0.023  0.109  0.000
 H         -0.105 -0.117  0.254   -0.178 -0.363  0.425   -0.147 -0.413  0.288
 O          0.037  0.008  0.008    0.059  0.026  0.018   -0.011 -0.031 -0.020
 H          0.094 -0.051 -0.081    0.201  0.118 -0.297   -0.181 -0.484  0.515
 H         -0.207 -0.119  0.219   -0.363 -0.209  0.388    0.188  0.096 -0.208
 O         -0.003  0.015 -0.036    0.023 -0.002  0.009    0.005 -0.005  0.006
 H          0.329  0.090 -0.119   -0.258 -0.076  0.072   -0.122 -0.040  0.034
 O         -0.041  0.191  0.068    0.007 -0.030 -0.009   -0.002  0.008  0.002
 O          0.042 -0.181 -0.059   -0.007  0.027  0.009    0.002 -0.011 -0.003
 TransDip   0.397 -0.006  0.594   -0.303 -0.101  0.002    0.030  0.282 -0.134

 Mode:                40                     41                     42
 Frequency:      1446.91                1466.74                1480.20
 Force Cnst:      2.7337                 2.6776                 1.4195
 Red. Mass:       2.2162                 2.1124                 1.0996
 IR Active:          YES                    YES                    YES
 IR Intens:       41.562                 62.285                 12.720
 Raman Active:       YES                    YES                    YES
               X      Y      Z        X      Y      Z        X      Y      Z
 C          0.092 -0.185  0.077    0.065  0.071 -0.021    0.000 -0.018  0.006
 C         -0.013  0.095 -0.019    0.061 -0.009 -0.003    0.004  0.015 -0.003
 C         -0.085  0.028 -0.002   -0.181 -0.061  0.004   -0.011 -0.002 -0.000
 C          0.093 -0.066  0.010    0.015  0.152 -0.016    0.008 -0.004  0.001
 C          0.051  0.033 -0.005    0.046 -0.088  0.012    0.005  0.007 -0.000
 C         -0.139 -0.007 -0.001   -0.111 -0.018 -0.003   -0.006 -0.010  0.004
 C          0.010  0.020 -0.022    0.028  0.030 -0.015   -0.036  0.060  0.047
 H         -0.166  0.019 -0.086    0.041 -0.182 -0.002   -0.015  0.023 -0.011
 H         -0.001  0.058  0.116    0.115  0.075 -0.015   -0.007 -0.017  0.015
 H         -0.028  0.041 -0.049    0.644  0.004 -0.016    0.002 -0.000 -0.006
 H         -0.059  0.168 -0.016    0.381 -0.350  0.047    0.001  0.006 -0.000
 H          0.111  0.169 -0.001    0.174  0.170 -0.022    0.000 -0.001 -0.007
 H         -0.069 -0.144  0.258   -0.063 -0.234  0.131   -0.114 -0.394 -0.575
 O          0.013 -0.004 -0.004    0.004 -0.001 -0.000   -0.007  0.000  0.008
 H         -0.115  0.030  0.043   -0.014  0.000  0.028    0.627 -0.273 -0.130
 H         -0.011 -0.005  0.012   -0.003 -0.003  0.004    0.009  0.014 -0.007
 O         -0.048  0.030 -0.027   -0.018 -0.026  0.017   -0.002  0.003 -0.002
 H          0.749  0.243 -0.179   -0.140 -0.061  0.043    0.069  0.024 -0.017
 O          0.007 -0.018 -0.001   -0.002  0.018  0.009    0.001 -0.002  0.001
 O         -0.005  0.019 -0.003    0.002 -0.013 -0.006   -0.000  0.001 -0.001
 TransDip   0.124 -0.122 -0.111    0.250  0.024 -0.029    0.056 -0.082 -0.056

 Mode:                43                     44                     45
 Frequency:      1480.96                1588.41                1685.96
 Force Cnst:      4.2409                 5.5841                 8.1898
 Red. Mass:       3.2819                 3.7565                 4.8903
 IR Active:          YES                    YES                    YES
 IR Intens:       61.945                 47.235                110.838
 Raman Active:       YES                    YES                    YES
               X      Y      Z        X      Y      Z        X      Y      Z
 C          0.226  0.078 -0.022    0.020 -0.179  0.028    0.071  0.034  0.011
 C         -0.132 -0.179  0.042    0.029  0.152 -0.001   -0.079 -0.016  0.017
 C          0.139  0.071 -0.003    0.150 -0.142  0.008    0.263 -0.042  0.005
 C         -0.015 -0.002 -0.002   -0.189  0.215 -0.025   -0.227  0.094 -0.012
 C         -0.073 -0.132  0.017   -0.036 -0.176  0.025    0.242  0.190 -0.023
 C         -0.067  0.165 -0.049    0.025  0.167 -0.041   -0.261 -0.204  0.027
 C          0.017 -0.052  0.019   -0.005 -0.047  0.014    0.023  0.044 -0.008
 H         -0.022 -0.368  0.088   -0.018  0.506  0.279    0.026 -0.390 -0.303
 H          0.132  0.480 -0.127   -0.186 -0.285 -0.004   -0.082  0.021 -0.014
 H         -0.122  0.058  0.034   -0.140 -0.193  0.031   -0.241 -0.108  0.011
 H         -0.174  0.228 -0.039    0.182 -0.343  0.043    0.043 -0.344  0.030
 H          0.158  0.425 -0.057    0.088  0.110 -0.016    0.013 -0.410  0.072
 H         -0.008 -0.156 -0.059    0.030  0.050 -0.041   -0.044 -0.137  0.067
 O          0.000  0.004  0.005    0.000  0.001  0.001    0.003  0.004 -0.003
 H          0.099  0.053 -0.106    0.012  0.020 -0.043   -0.017  0.077 -0.015
 H         -0.024 -0.007  0.026   -0.008 -0.004  0.008   -0.002 -0.005  0.005
 O         -0.078 -0.026  0.019   -0.007  0.022 -0.015   -0.005 -0.006  0.007
 H          0.148  0.038 -0.021    0.226  0.079 -0.065   -0.000 -0.003  0.010
 O         -0.011  0.038 -0.003   -0.002 -0.018 -0.016   -0.003  0.013  0.002
 O          0.006 -0.024 -0.007    0.001  0.006  0.012   -0.001 -0.005 -0.010
 TransDip   0.098  0.221 -0.073    0.004  0.199  0.094   -0.249 -0.101 -0.204

 Mode:                46                     47                     48
 Frequency:      1888.35                3076.51                3126.83
 Force Cnst:      2.5431                 5.8987                 6.3901
 Red. Mass:       1.2104                 1.0578                 1.1093
 IR Active:          YES                    YES                    YES
 IR Intens:      836.940                 41.264                 20.691
 Raman Active:       YES                    YES                    YES
               X      Y      Z        X      Y      Z        X      Y      Z
 C          0.023  0.014 -0.068    0.000 -0.000  0.000    0.000 -0.000  0.000
 C         -0.003 -0.050  0.004   -0.000  0.000  0.000   -0.000 -0.000  0.000
 C         -0.007  0.010 -0.001   -0.000  0.000 -0.000    0.000 -0.000 -0.000
 C          0.011 -0.026  0.004    0.000  0.000  0.000   -0.000 -0.000 -0.000
 C          0.037  0.051 -0.007    0.000 -0.000  0.000    0.001 -0.000 -0.000
 C         -0.064 -0.028 -0.005   -0.000 -0.001 -0.000   -0.002 -0.001 -0.000
 C          0.005  0.004  0.001   -0.030  0.048  0.037   -0.082 -0.013 -0.048
 H         -0.035  0.457  0.875    0.000  0.000 -0.001    0.001 -0.000  0.002
 H          0.034  0.026 -0.034    0.000  0.000 -0.000    0.000  0.000 -0.000
 H          0.011  0.011  0.000    0.000 -0.000 -0.000    0.000  0.000 -0.000
 H         -0.006 -0.004 -0.003   -0.001 -0.000 -0.000    0.001  0.001  0.000
 H          0.006 -0.030  0.001   -0.004  0.003 -0.001   -0.006  0.004 -0.001
 H         -0.007 -0.027  0.010    0.679 -0.191  0.055    0.670 -0.202  0.049
 O          0.000  0.000  0.000   -0.001 -0.001  0.001    0.001  0.000  0.001
 H         -0.004  0.010 -0.003   -0.317 -0.358 -0.516    0.308  0.370  0.517
 H          0.000  0.000  0.000    0.007  0.004  0.006   -0.008 -0.009 -0.004
 O         -0.002 -0.003  0.001   -0.000 -0.000  0.000   -0.000  0.000  0.000
 H         -0.018 -0.012 -0.006    0.001  0.004 -0.004    0.002 -0.000 -0.002
 O         -0.002 -0.010 -0.013   -0.000  0.000  0.000    0.000 -0.000 -0.000
 O          0.004  0.004  0.014    0.000 -0.000 -0.000   -0.000  0.000 -0.000
 TransDip   0.574  0.241  0.686   -0.123  0.133  0.098   -0.140 -0.000 -0.041

 Mode:                49                     50                     51
 Frequency:      3195.69                3205.04                3215.35
 Force Cnst:      6.5491                 6.6024                 6.6667
 Red. Mass:       1.0884                 1.0909                 1.0945
 IR Active:          YES                    YES                    YES
 IR Intens:        6.887                  7.238                 15.082
 Raman Active:       YES                    YES                    YES
               X      Y      Z        X      Y      Z        X      Y      Z
 C          0.000 -0.000  0.000    0.000  0.000  0.000    0.000 -0.001  0.000
 C         -0.005  0.003  0.001    0.012 -0.007 -0.004   -0.040  0.021  0.012
 C          0.001 -0.025  0.001   -0.004  0.050 -0.002    0.009 -0.049  0.002
 C          0.047  0.030 -0.002   -0.029 -0.024  0.002   -0.044 -0.028  0.002
 C         -0.056  0.021 -0.005   -0.054  0.023 -0.005   -0.020  0.010 -0.002
 C          0.002  0.002 -0.000    0.002  0.002 -0.000    0.001  0.001 -0.000
 C         -0.001  0.000 -0.000   -0.000  0.000 -0.000   -0.000  0.000 -0.000
 H          0.001 -0.000  0.000    0.001  0.000  0.000    0.000 -0.001 -0.002
 H          0.058 -0.028 -0.017   -0.142  0.070  0.042    0.471 -0.229 -0.140
 H         -0.025  0.303 -0.012    0.048 -0.578  0.023   -0.050  0.551 -0.022
 H         -0.534 -0.366  0.021    0.348  0.245 -0.015    0.474  0.326 -0.018
 H          0.633 -0.267  0.060    0.613 -0.261  0.059    0.224 -0.098  0.022
 H          0.006 -0.004  0.001    0.005 -0.004  0.001    0.002 -0.001  0.000
 O          0.000 -0.000  0.000   -0.000 -0.000  0.000   -0.000 -0.000  0.000
 H          0.002  0.001  0.001    0.001 -0.001  0.001   -0.000 -0.001 -0.000
 H         -0.000  0.000  0.000    0.000  0.000  0.000    0.000  0.000  0.000
 O         -0.000  0.000 -0.000   -0.000  0.000 -0.000    0.000  0.000  0.000
 H          0.000 -0.001  0.001    0.000 -0.000  0.001    0.000  0.000 -0.001
 O         -0.000  0.000  0.000   -0.000  0.000 -0.000    0.000  0.000 -0.000
 O          0.000 -0.000 -0.000    0.000  0.000  0.000   -0.000 -0.000 -0.000
 TransDip  -0.025  0.071 -0.037   -0.071  0.048  0.002   -0.100 -0.073 -0.008

 Mode:                52                     53                     54
 Frequency:      3224.53                3664.91                3817.11
 Force Cnst:      6.7140                 8.4483                 9.1569
 Red. Mass:       1.0960                 1.0676                 1.0667
 IR Active:          YES                    YES                    YES
 IR Intens:        3.118                511.382                119.473
 Raman Active:       YES                    YES                    YES
               X      Y      Z        X      Y      Z        X      Y      Z
 C         -0.000 -0.003  0.001    0.001 -0.001  0.001    0.000  0.000 -0.000
 C         -0.064  0.029  0.018    0.001  0.000 -0.000   -0.000  0.000 -0.000
 C         -0.004  0.046 -0.002   -0.000 -0.000 -0.000    0.000 -0.000  0.000
 C          0.020  0.011 -0.000    0.000 -0.000 -0.000   -0.000  0.000 -0.000
 C          0.007 -0.004  0.001    0.000 -0.000  0.000    0.000 -0.000 -0.000
 C          0.000 -0.001  0.000   -0.000  0.001 -0.000   -0.000  0.000  0.000
 C          0.000 -0.000  0.000    0.001  0.000 -0.001   -0.001 -0.001 -0.001
 H         -0.000 -0.002 -0.008    0.003  0.001 -0.003   -0.000 -0.000 -0.001
 H          0.714 -0.341 -0.209   -0.003  0.001  0.001    0.000 -0.000 -0.000
 H          0.041 -0.504  0.019    0.000  0.001  0.000    0.000 -0.000  0.000
 H         -0.201 -0.137  0.008    0.000  0.000 -0.000   -0.000 -0.000  0.000
 H         -0.077  0.034 -0.008    0.002  0.000  0.000   -0.000  0.000  0.000
 H         -0.001  0.001 -0.000   -0.004 -0.001  0.002   -0.000 -0.001  0.003
 O          0.000  0.000 -0.000    0.000  0.001  0.002   -0.028 -0.026 -0.049
 H          0.000  0.001  0.000    0.001  0.001  0.002    0.006  0.006  0.011
 H         -0.000 -0.000 -0.000   -0.020 -0.016 -0.028    0.459  0.419  0.780
 O          0.000  0.000  0.000    0.019 -0.043  0.042    0.001 -0.002  0.002
 H         -0.000  0.003 -0.003   -0.314  0.674 -0.665   -0.014  0.025 -0.024
 O          0.000 -0.000 -0.000   -0.000  0.000 -0.000    0.000 -0.000 -0.000
 O         -0.000 -0.000  0.000   -0.000 -0.000 -0.000   -0.000  0.000  0.000
 TransDip  -0.025  0.051  0.001   -0.240  0.527 -0.436    0.110  0.092  0.320

 STANDARD THERMODYNAMIC QUANTITIES AT   298.15 K  AND     1.00 ATM

   This Molecule has  1 Imaginary Frequencies
   Zero point vibrational energy:       96.035 kcal/mol

   Atom    1 Element C  Has Mass   12.00000
   Atom    2 Element C  Has Mass   12.00000
   Atom    3 Element C  Has Mass   12.00000
   Atom    4 Element C  Has Mass   12.00000
   Atom    5 Element C  Has Mass   12.00000
   Atom    6 Element C  Has Mass   12.00000
   Atom    7 Element C  Has Mass   12.00000
   Atom    8 Element H  Has Mass    1.00783
   Atom    9 Element H  Has Mass    1.00783
   Atom   10 Element H  Has Mass    1.00783
   Atom   11 Element H  Has Mass    1.00783
   Atom   12 Element H  Has Mass    1.00783
   Atom   13 Element H  Has Mass    1.00783
   Atom   14 Element O  Has Mass   15.99491
   Atom   15 Element H  Has Mass    1.00783
   Atom   16 Element H  Has Mass    1.00783
   Atom   17 Element O  Has Mass   15.99491
   Atom   18 Element H  Has Mass    1.00783
   Atom   19 Element O  Has Mass   15.99491
   Atom   20 Element O  Has Mass   15.99491
   Molecular Mass:   157.050110 amu
   Principal axes and moments of inertia in amu*Bohr^2:
                             1           2           3
    Eigenvalues --     1147.70976  2010.28383  2559.06471
          X              -0.25478     0.85935    -0.44340
          Y               0.76950     0.45787     0.44523
          Z              -0.58563     0.22776     0.77792
   Rotational Symmetry Number is   1
   The Molecule is an Asymmetric Top
   Translational Enthalpy:        0.889 kcal/mol
   Rotational Enthalpy:           0.889 kcal/mol
   Vibrational Enthalpy:        100.722 kcal/mol
   gas constant (RT):             0.592 kcal/mol
   Translational Entropy:        41.063  cal/mol.K
   Rotational Entropy:           30.158  cal/mol.K
   Vibrational Entropy:          28.022  cal/mol.K

   Total Enthalpy:              103.092 kcal/mol
   Total Entropy:                99.243  cal/mol.K
 Total job time:  64118.13s(wall), 496893.37s(cpu) 
 Fri Feb 24 10:58:58 2023

        *************************************************************
        *                                                           *
        *  Thank you very much for using Q-Chem.  Have a nice day.  *
        *                                                           *
        *************************************************************


