
Running Job 1 of 1 Q_in.in
qchem Q_in.in_368218.0 /scratch/ari.fischer/qChem2287123.hpc-mn1/qchem368218/ 0
/usr/local/qchem-5.4.1/exe/qcprog.exe_s Q_in.in_368218.0 /scratch/ari.fischer/qChem2287123.hpc-mn1/qchem368218/
                  Welcome to Q-Chem
     A Quantum Leap Into The Future Of Chemistry


 Q-Chem 5.4, Q-Chem, Inc., Pleasanton, CA (2021)

 License issued to: Nanyang Technological University (site)

 E. Epifanovsky,  A. T. B. Gilbert,  Xintian Feng,  Joonho Lee,  Yuezhi Mao,  
 N. Mardirossian,  P. Pokhilko,  A. White,  M. Wormit,  M. P. Coons,  
 A. L. Dempwolff,  Zhengting Gan,  D. Hait,  P. R. Horn,  L. D. Jacobson,  
 I. Kaliman,  J. Kussmann,  A. W. Lange,  Ka Un Lao,  D. S. Levine,  Jie Liu,  
 S. C. McKenzie,  A. F. Morrison,  K. Nanda,  F. Plasser,  D. R. Rehn,  
 M. L. Vidal,  Zhi-Qiang You,  Ying Zhu,  B. Alam,  B. Albrecht,  
 A. Aldossary,  E. Alguire,  J. H. Andersen,  D. Barton,  K. Begam,  A. Behn,  
 Y. A. Bernard,  E. J. Berquist,  H. Burton,  A. Carreras,  K. Carter-Fenk,  
 R. Chakraborty,  A. D. Chien,  K. D. Closser,  V. Cofer-Shabica,  
 S. Dasgupta,  Jia Deng,  M. de Wergifosse,  M. Diedenhofen,  Hainam Do,  
 S. Ehlert,  Po-Tung Fang,  S. Fatehi,  Qingguo Feng,  T. Friedhoff,  
 J. Gayvert,  Qinghui Ge,  G. Gidofalvi,  M. Goldey,  J. Gomes,  
 C. Gonzalez-Espinoza,  S. Gulania,  A. Gunina,  M. W. D. Hanson-Heine,  
 P. H. P. Harbach,  A. W. Hauser,  M. F. Herbst,  M. Hernandez Vera,  
 M. Hodecker,  Z. C. Holden,  S. Houck,  Xunkun Huang,  Kerwin Hui,  
 B. C. Huynh,  M. Ivanov,  Hyunjun Ji,  Hanjie Jiang,  B. Kaduk,  S. Kaehler,  
 K. Khistyaev,  Jaehoon Kim,  P. Klunzinger,  Z. Koczor-Benda,  
 Joong Hoon Koh,  D. Kosenkov,  L. Koulias,  T. Kowalczyk,  C. M. Krauter,  
 K. Kue,  A. Kunitsa,  T. Kus,  A. Landau,  K. V. Lawler,  D. Lefrancois,  
 S. Lehtola,  Rain Li,  Yi-Pei Li,  Jiashu Liang,  M. Liebenthal,  
 Hung-Hsuan Lin,  You-Sheng Lin,  Fenglai Liu,  Kuan-Yu Liu,  
 M. Loipersberger,  A. Luenser,  A. Manjanath,  P. Manohar,  E. Mansoor,  
 S. F. Manzer,  Shan-Ping Mao,  A. V. Marenich,  T. Markovich,  S. Mason,  
 S. A. Maurer,  P. F. McLaughlin,  M. F. S. J. Menger,  J.-M. Mewes,  
 S. A. Mewes,  P. Morgante,  J. W. Mullinax,  K. J. Oosterbaan,  G. Paran,  
 Alexander C. Paul,  Suranjan K. Paul,  F. Pavosevic,  Zheng Pei,  S. Prager,  
 E. I. Proynov,  E. Ramos,  B. Rana,  A. E. Rask,  A. Rettig,  R. M. Richard,  
 F. Rob,  E. Rossomme,  T. Scheele,  M. Scheurer,  M. Schneider,  
 N. Sergueev,  S. M. Sharada,  W. Skomorowski,  D. W. Small,  C. J. Stein,  
 Yu-Chuan Su,  E. J. Sundstrom,  Zhen Tao,  J. Thirman,  T. Tsuchimochi,  
 N. M. Tubman,  S. P. Veccham,  O. Vydrov,  J. Wenzel,  J. Witte,  A. Yamada,  
 Kun Yao,  S. Yeganeh,  S. R. Yost,  A. Zech,  Igor Ying Zhang,  Xing Zhang,  
 Yu Zhang,  D. Zuev,  A. Aspuru-Guzik,  A. T. Bell,  N. A. Besley,  
 K. B. Bravaya,  B. R. Brooks,  D. Casanova,  Jeng-Da Chai,  S. Coriani,  
 C. J. Cramer,  A. E. DePrince, III,  R. A. DiStasio Jr.,  A. Dreuw,  
 B. D. Dunietz,  T. R. Furlani,  W. A. Goddard III,  S. Grimme,  
 S. Hammes-Schiffer,  T. Head-Gordon,  W. J. Hehre,  Chao-Ping Hsu,  
 T.-C. Jagau,  Yousung Jung,  A. Klamt,  Jing Kong,  D. S. Lambrecht,  
 WanZhen Liang,  N. J. Mayhall,  C. W. McCurdy,  J. B. Neaton,  
 C. Ochsenfeld,  J. A. Parkhill,  R. Peverati,  V. A. Rassolov,  Yihan Shao,  
 L. V. Slipchenko,  T. Stauch,  R. P. Steele,  J. E. Subotnik,  
 A. J. W. Thom,  A. Tkatchenko,  D. G. Truhlar,  T. Van Voorhis,  
 T. A. Wesolowski,  K. B. Whaley,  H. L. Woodcock III,  P. M. Zimmerman,  
 S. Faraji,  P. M. W. Gill,  M. Head-Gordon,  J. M. Herbert,  A. I. Krylov

 Additional authors for Version 5.4.1: 
 S. Kotaru,  Shaozhi Li,  Xiangyuan Li,  F. Matz,  A. Molle,  Haisheng Ren,  
 Yingli Su,  Hung-Yi Tsai,  C. Utku,  Fang Wang

 Contributors to earlier versions of Q-Chem not listed above: 
 R. D. Adamson,  B. Austin,  R. Baer,  J. Baker,  G. J. O. Beran,  
 K. Brandhorst,  S. T. Brown,  E. F. C. Byrd,  A. K. Chakraborty,  
 G. K. L. Chan,  Chun-Min Chang,  Yunqing Chen,  C.-L. Cheng,  
 Siu Hung Chien,  D. M. Chipman,  D. L. Crittenden,  H. Dachsel,  
 R. J. Doerksen,  A. D. Dutoi,  R. G. Edgar,  J. Fosso-Tande,  
 L. Fusti-Molnar,  D. Ghosh,  A. Ghysels,  A. Golubeva-Zadorozhnaya,  
 J. Gonthier,  M. S. Gordon,  S. R. Gwaltney,  G. Hawkins,  J. E. Herr,  
 A. Heyden,  S. Hirata,  E. G. Hohenstein,  G. Kedziora,  F. J. Keil,  
 C. Kelley,  Jihan Kim,  R. A. King,  R. Z. Khaliullin,  P. P. Korambath,  
 W. Kurlancheek,  A. Laurent,  A. M. Lee,  M. S. Lee,  S. V. Levchenko,  
 Ching Yeh Lin,  D. Liotard,  E. Livshits,  R. C. Lochan,  I. Lotan,  
 L. A. Martinez-Martinez,  P. E. Maslen,  N. Nair,  D. P. O'Neill,  
 D. Neuhauser,  E. Neuscamman,  C. M. Oana,  R. Olivares-Amaya,  R. Olson,  
 T. M. Perrine,  B. Peters,  P. A. Pieniazek,  A. Prociuk,  Y. M. Rhee,  
 J. Ritchie,  M. A. Rohrdanz,  E. Rosta,  N. J. Russ,  H. F. Schaefer III,  
 M. W. Schmidt,  N. E. Schultz,  S. Sharma,  N. Shenvi,  C. D. Sherrill,  
 A. C. Simmonett,  A. Sodt,  T. Stein,  D. Stuck,  K. S. Thanthiriwatte,  
 V. Vanovschi,  L. Vogt,  Tao Wang,  A. Warshel,  M. A. Watson,  
 C. F. Williams,  Q. Wu,  X. Xu,  Jun Yang,  W. Zhang,  Yan Zhao

 Please cite Q-Chem as follows:
 Y. Shao et al., Mol. Phys. 113, 184-215 (2015)
 DOI: 10.1080/00268976.2014.952696

 Q-Chem 5.4.1 for Intel X86 EM64T Linux

 Parts of Q-Chem use Armadillo 9.800.1 (Horizon Scraper).
 http://arma.sourceforge.net/

 Q-Chem begins on Mon Aug 19 06:43:01 2024  

 Host: 
0

     Scratch files written to /scratch/ari.fischer/qChem2287123.hpc-mn1/qchem368218//
 Aug1521 |scratch|qcdevops|jenkins|workspace|build_RNUM 8249   
 Processing $rem in /usr/local/qchem-5.4.1/config/preferences:
 Processing $rem in /home/ari.fischer/.qchemrc:
 Symmetry turned off for PCM/SM12/SMD calculation


!!********************************************.
!!******************Warning*******************.
!!Desired Analytical derivatives not available.
!!Finite difference job might take a long time.
!!********************************************.
!!********************************************.


 2-order derivative to be evaluated numerically with 1-order analytical derivatives

 Checking the input file for inconsistencies... 	...done.

--------------------------------------------------------------
User input:
--------------------------------------------------------------
$molecule
-1 2
C    3.0566807   -0.6440855   -1.2434678
O    1.6708130   -0.4214322   -1.1323478
C    3.5731200   -1.0625794    0.1400414
O    3.0903007   -2.3586694    0.3636560
C    3.1525753   -0.0599283    1.2170720
C    3.9357118   -0.0590888    2.5309354
O    5.2147723    0.2510215    2.4857449
H    3.5732325    0.2611511   -1.5586033
H    1.3761075    0.0256945   -1.9337089
H    2.1014229   -0.2456045    1.4298959
H    3.2216433    0.9521538    0.8165849
H    3.3530913    0.4553904    3.3051097
O    3.3462661   -1.6214513   -2.2121262
H    3.0428731   -2.4733526   -1.8699843
O    4.9927252   -1.2430738    0.0560527
O    5.6354988    0.0346103    0.0431022
H    3.3361366   -2.6313002    1.2569913
H    5.6002278    0.2300318    1.0581701
O    3.8400394   -1.5438193    3.0689214
O    2.6931132   -1.7961176    3.6279366
$end

$rem
BASIS = 6-311++G(2df,2p)
GUI = 2
JOB_TYPE = Frequency
METHOD = wB97M-V
SOLVENT_METHOD = SMD
SCF_ALGORITHM = DIIS_GDM
MAX_SCF_CYCLES = 400
SCF_CONVERGENCE = 7
THRESH = 12
$end
--------------------------------------------------------------
 ----------------------------------------------------------------
             Standard Nuclear Orientation (Angstroms)
    I     Atom           X                Y                Z
 ----------------------------------------------------------------
    1      C       3.0566807000    -0.6440855000    -1.2434678000
    2      O       1.6708130000    -0.4214322000    -1.1323478000
    3      C       3.5731200000    -1.0625794000     0.1400414000
    4      O       3.0903007000    -2.3586694000     0.3636560000
    5      C       3.1525753000    -0.0599283000     1.2170720000
    6      C       3.9357118000    -0.0590888000     2.5309354000
    7      O       5.2147723000     0.2510215000     2.4857449000
    8      H       3.5732325000     0.2611511000    -1.5586033000
    9      H       1.3761075000     0.0256945000    -1.9337089000
   10      H       2.1014229000    -0.2456045000     1.4298959000
   11      H       3.2216433000     0.9521538000     0.8165849000
   12      H       3.3530913000     0.4553904000     3.3051097000
   13      O       3.3462661000    -1.6214513000    -2.2121262000
   14      H       3.0428731000    -2.4733526000    -1.8699843000
   15      O       4.9927252000    -1.2430738000     0.0560527000
   16      O       5.6354988000     0.0346103000     0.0431022000
   17      H       3.3361366000    -2.6313002000     1.2569913000
   18      H       5.6002278000     0.2300318000     1.0581701000
   19      O       3.8400394000    -1.5438193000     3.0689214000
   20      O       2.6931132000    -1.7961176000     3.6279366000
 ----------------------------------------------------------------
 Nuclear Repulsion Energy =         838.08056923 hartrees
 There are       49 alpha and       48 beta electrons
 Requested basis set is 6-311++G(2df,2p)
 There are 144 shells and 488 basis functions

 Total QAlloc Memory Limit 288000 MB
 Mega-Array Size       188 MB
 MEM_STATIC part       192 MB
 
 Citation of the SMD model:
 Marenich, A.V.; Cramer, C.J.; Truhlar, D.G.
 J. Phys. Chem. B 2009, 113, 6378-6396.
 iSolventCode=           1
 Solvent: water                                                           
 
 vradii
            1           2           3           4           5           6
    1   1.8500000   1.5200000   1.8500000   1.5200000   1.8500000   1.8500000
            7           8           9          10          11          12
    1   1.5200000   1.2000000   1.2000000   1.2000000   1.2000000   1.2000000
           13          14          15          16          17          18
    1   1.5200000   1.2000000   1.5200000   1.5200000   1.2000000   1.2000000
           19          20
    1   1.5200000   1.5200000
 Changing PCM_VDW_RADII to SMD_RADIUS
 Discretize the solute cavity surface with Lebedev spheres
	Using 110 Lebedev grid points for each H atom
	Using 194 Lebedev grid points for other atoms
	Atomic van der Waals radii will be scaled by 1.20
 Remove points where switching function is < 1.0e-08
 Keep 1575 surface tesserae and discard 1633 interior tesserae
 Molecular Surface Area = 172.757 Angst**2
 A cutoff of  1.0D-12 yielded   9041 shell pairs
 There are    102847 function pairs (    128511 Cartesian)
 Smallest overlap matrix eigenvalue = 5.06E-06
 Guess from superposition of atomic densities
 Warning:  Energy on first SCF cycle will be non-variational
 SAD guess density has 96.000000 electrons

 -----------------------------------------------------------------------
  General SCF calculation program by
  Eric Jon Sundstrom, Paul Horn, Yuezhi Mao, Dmitri Zuev, Alec White,
  David Stuck, Shaama M.S., Shane Yost, Joonho Lee, David Small,
  Daniel Levine, Susi Lehtola, Hugh Burton, Evgeny Epifanovsky,
  Bang C. Huynh
 -----------------------------------------------------------------------
 Exchange:     0.1500 Hartree-Fock + 1.0000 wB97M-V + LR-HF
 Correlation:  1.0000 wB97M-V
 Using SG-2 standard quadrature grid
 Nonlocal Correlation:  VV10 with C = 0.0100 and b = 6.00 and scale = 1.00000
 Grid used for NLC:  SG-1 standard quadrature
 using 16 threads for integral computing
 -------------------------------------------------------
 OpenMP Integral computing Module                
 Release: version 1.0, May 2013, Q-Chem Inc. Pittsburgh 
 -------------------------------------------------------
 
 Citation of the SMD model:
 Marenich, A.V.; Cramer, C.J.; Truhlar, D.G.
 J. Phys. Chem. B 2009, 113, 6378-6396.
 iSolventCode=           1
 Solvent: water                                                           
 
 vradii
            1           2           3           4           5           6
    1   1.8500000   1.5200000   1.8500000   1.5200000   1.8500000   1.8500000
            7           8           9          10          11          12
    1   1.5200000   1.2000000   1.2000000   1.2000000   1.2000000   1.2000000
           13          14          15          16          17          18
    1   1.5200000   1.2000000   1.5200000   1.5200000   1.2000000   1.2000000
           19          20
    1   1.5200000   1.5200000
 -------------------------------------------------------
 OpenMP BLAS3 based DFT computing Module                
 Release: version 1.0, May 2013, Q-Chem Inc. Pittsburgh 
 -------------------------------------------------------
 A unrestricted SCF calculation will be
 performed using DIIS, GDM
 SCF converges when RMS gradient is below 1.0e-07
 ---------------------------------------
  Cycle       Energy         DIIS error
 ---------------------------------------
    1    -760.9555751358      1.09e-02  
    2    -758.7775872074      1.66e-03  Done DIIS. Switching to GDM
 ---------------------------------------
  Cycle       Energy        RMS Gradient
 ---------------------------------------
    1    -758.7775872074      9.82e-02   Descent step
    2    -758.9864453729      2.83e-02   Normal BFGS step
    3    -759.0279843360      4.07e-02   Normal BFGS step
    4    -759.0307314210      2.37e-02   Normal BFGS step
    5    -759.0335348899      6.42e-03   Normal BFGS step
    6    -759.0337055947      3.67e-03   Normal BFGS step
    7    -759.0338126491      2.70e-03   Normal BFGS step
    8    -759.0338414575      6.98e-04   Normal BFGS step
    9    -759.0338482276      4.46e-04   Normal BFGS step
   10    -759.0338496220      2.79e-04   Normal BFGS step
   11    -759.0338498586      1.25e-04   Normal BFGS step
   12    -759.0338499169      5.95e-05   Normal BFGS step
   13    -759.0338499402      6.11e-05   Normal BFGS step
   14    -759.0338499562      5.59e-05   Normal BFGS step
   15    -759.0338499711      4.47e-05   Normal BFGS step
   16    -759.0338499832      1.82e-05   Normal BFGS step
   17    -759.0338499861      4.50e-06   Normal BFGS step
   18    -759.0338499867      2.30e-06   Normal BFGS step
   19    -759.0338499868      8.65e-07   Normal BFGS step
   20    -759.0338499868      4.09e-07   Normal BFGS step
   21    -759.0338499868      1.84e-07   Normal BFGS step
   22    -759.0338499868      3.83e-08  Convergence criterion met
 ---------------------------------------
 SCF time:   CPU 3625.97s  wall 251.00s 
<S^2> =          0.754410833
(3)  G-ENP(liq) elect-nuc-pol free energy of system     -759.033849987 a.u.
(4)  G-CDS(liq) cavity-dispersion-solvent structure 
     free energy                                                2.9285 kcal/mol
(6)  G-S(liq) free energy of system                     -759.029183118 a.u.
 SCF   energy in the final basis set =     -759.0291831179
 Total energy in the final basis set =     -759.0291831179
 
 --------------------------------------------------------------
 
                    Orbital Energies (a.u.)
 --------------------------------------------------------------
 
 Alpha MOs
 -- Occupied --
-19.4342 -19.3991 -19.3888 -19.3603 -19.3530 -19.3449 -19.3436 -19.2750
-10.4580 -10.4434 -10.4328 -10.3373  -1.3169  -1.2587  -1.2053  -1.1736
 -1.1342  -1.1142  -1.0105  -0.9573  -0.8913  -0.8248  -0.7441  -0.7134
 -0.6811  -0.6448  -0.6357  -0.6265  -0.6057  -0.5919  -0.5848  -0.5694
 -0.5677  -0.5404  -0.5288  -0.5204  -0.5046  -0.4816  -0.4722  -0.4509
 -0.4417  -0.4278  -0.4106  -0.4072  -0.3948  -0.3839  -0.3716  -0.3515
 -0.3397
 -- Virtual --
  0.0296   0.0425   0.0452   0.0506   0.0666   0.0724   0.0730   0.0768
  0.0994   0.1113   0.1174   0.1216   0.1358   0.1396   0.1406   0.1493
  0.1590   0.1617   0.1645   0.1748   0.1776   0.1859   0.1939   0.1991
  0.2056   0.2147   0.2169   0.2288   0.2382   0.2506   0.2551   0.2643
  0.2675   0.2735   0.2820   0.2860   0.2880   0.2956   0.3008   0.3067
  0.3121   0.3165   0.3270   0.3312   0.3389   0.3402   0.3497   0.3545
  0.3603   0.3616   0.3663   0.3735   0.3767   0.3844   0.3878   0.3937
  0.4000   0.4059   0.4128   0.4139   0.4163   0.4262   0.4328   0.4406
  0.4491   0.4586   0.4711   0.4740   0.4785   0.4894   0.4922   0.4971
  0.5300   0.5415   0.5494   0.5754   0.6081   0.6193   0.6273   0.6336
  0.6522   0.6541   0.6732   0.6766   0.6889   0.6958   0.7023   0.7245
  0.7349   0.7426   0.7619   0.7665   0.7769   0.7872   0.7994   0.8074
  0.8360   0.8502   0.8794   0.8878   0.9164   0.9209   0.9693   0.9788
  0.9989   1.0068   1.0149   1.0421   1.0656   1.0745   1.0807   1.0858
  1.1066   1.1186   1.1307   1.1403   1.1542   1.1612   1.1731   1.1764
  1.1824   1.1868   1.1984   1.2043   1.2135   1.2176   1.2260   1.2336
  1.2419   1.2512   1.2554   1.2728   1.2739   1.2884   1.2978   1.3063
  1.3109   1.3177   1.3361   1.3500   1.3631   1.3771   1.3816   1.4050
  1.4133   1.4203   1.4438   1.4449   1.4589   1.4697   1.4875   1.5040
  1.5135   1.5281   1.5370   1.5424   1.5513   1.5634   1.5855   1.5976
  1.6031   1.6298   1.6451   1.6680   1.6797   1.6945   1.7040   1.7120
  1.7236   1.7428   1.7617   1.7684   1.7974   1.8089   1.8252   1.8306
  1.8650   1.8800   1.9004   1.9346   1.9450   1.9564   1.9714   1.9909
  2.0274   2.0476   2.0811   2.1026   2.1213   2.1498   2.1511   2.2021
  2.2234   2.2329   2.2474   2.2580   2.2897   2.3072   2.3386   2.3716
  2.3897   2.4057   2.4221   2.4512   2.4676   2.4914   2.5056   2.5226
  2.5447   2.5685   2.6080   2.6469   2.6784   2.6918   2.7148   2.7578
  2.7915   2.8132   2.8366   2.8569   2.8823   2.8928   2.9223   2.9808
  2.9963   3.0200   3.0630   3.0912   3.1168   3.1707   3.2007   3.2236
  3.2478   3.2660   3.3007   3.3106   3.3319   3.3569   3.3897   3.4124
  3.4407   3.4519   3.4703   3.5011   3.5221   3.5331   3.5693   3.6054
  3.6133   3.6249   3.6642   3.6764   3.6815   3.6909   3.7238   3.7444
  3.7580   3.7671   3.7902   3.8011   3.8336   3.8555   3.8615   3.8660
  3.8882   3.9019   3.9266   3.9336   3.9674   3.9756   4.0032   4.0220
  4.0408   4.0680   4.0924   4.1088   4.1424   4.1699   4.1743   4.2220
  4.2353   4.2551   4.2628   4.2828   4.3069   4.3308   4.3580   4.3692
  4.3814   4.4063   4.4343   4.4452   4.4680   4.5076   4.5244   4.5559
  4.5839   4.6229   4.6432   4.6563   4.6852   4.7327   4.7460   4.7980
  4.8107   4.8361   4.8822   4.9189   4.9313   4.9795   5.0353   5.0732
  5.0927   5.1059   5.1300   5.1447   5.1681   5.2041   5.2295   5.2351
  5.2465   5.2548   5.2617   5.2744   5.2766   5.2856   5.2984   5.3106
  5.3209   5.3398   5.3437   5.3565   5.3599   5.3659   5.3805   5.3856
  5.4089   5.4127   5.4373   5.4529   5.4742   5.4873   5.4991   5.5035
  5.5350   5.5449   5.5585   5.5702   5.5855   5.6069   5.6207   5.6533
  5.6583   5.6725   5.6780   5.6941   5.7181   5.7421   5.7631   5.7887
  5.7996   5.8444   5.8635   5.9136   5.9850   6.0285   6.0522   6.0676
  6.1094   6.1348   6.1613   6.2676   6.2754   6.2980   6.5051   6.5227
  6.5886   6.5997   6.7539   6.8349   6.8522   6.8756   6.9046   6.9469
  6.9641   6.9927   7.0433   7.0625   7.0905   7.1009   7.1133   7.1582
  7.1720   7.1862   7.2064   7.2523   7.2648   7.2874   7.3098   7.3267
  7.3330   7.3624   7.4034   7.4284   7.4321   7.4509   7.4596   7.4907
  7.5036   7.5281   7.5421   7.5924   7.6097   7.6637   7.6870   7.7248
  7.7742   7.7939   7.8577   7.8664   7.9038   7.9255   7.9357   8.0528
  8.0577   8.1177   8.2487  24.6623  24.7763  24.8069  24.8647  50.4515
 50.5334  50.5645  50.6057  50.6350  50.6604  50.6957  50.7787
 
 Beta MOs
 -- Occupied --
-19.4226 -19.3888 -19.3814 -19.3603 -19.3530 -19.3449 -19.3436 -19.2751
-10.4580 -10.4434 -10.4331 -10.3372  -1.2895  -1.2585  -1.2053  -1.1735
 -1.1342  -1.1127  -1.0103  -0.9239  -0.8882  -0.8226  -0.7424  -0.7097
 -0.6805  -0.6405  -0.6330  -0.6211  -0.5833  -0.5818  -0.5686  -0.5661
 -0.5535  -0.5384  -0.5258  -0.5138  -0.4808  -0.4768  -0.4717  -0.4504
 -0.4411  -0.4276  -0.4075  -0.4019  -0.3927  -0.3734  -0.3446  -0.3369
 -- Virtual --
 -0.0156   0.0297   0.0427   0.0453   0.0507   0.0674   0.0726   0.0733
  0.0771   0.0997   0.1119   0.1184   0.1219   0.1360   0.1400   0.1410
  0.1505   0.1592   0.1619   0.1659   0.1752   0.1788   0.1862   0.1954
  0.2006   0.2060   0.2161   0.2178   0.2305   0.2390   0.2520   0.2560
  0.2656   0.2683   0.2803   0.2833   0.2862   0.2900   0.2966   0.3033
  0.3071   0.3129   0.3187   0.3272   0.3337   0.3395   0.3409   0.3512
  0.3548   0.3617   0.3619   0.3665   0.3743   0.3792   0.3858   0.3887
  0.3950   0.4009   0.4061   0.4129   0.4145   0.4172   0.4267   0.4337
  0.4410   0.4495   0.4591   0.4714   0.4744   0.4789   0.4906   0.4931
  0.4975   0.5301   0.5419   0.5502   0.5754   0.6086   0.6195   0.6275
  0.6340   0.6527   0.6542   0.6736   0.6769   0.6891   0.6963   0.7029
  0.7253   0.7350   0.7427   0.7620   0.7666   0.7772   0.7873   0.8000
  0.8076   0.8363   0.8520   0.8795   0.8886   0.9174   0.9217   0.9697
  0.9791   0.9993   1.0085   1.0173   1.0443   1.0691   1.0752   1.0827
  1.0864   1.1079   1.1206   1.1354   1.1421   1.1586   1.1649   1.1755
  1.1820   1.1852   1.1876   1.1997   1.2064   1.2139   1.2212   1.2335
  1.2410   1.2433   1.2550   1.2615   1.2755   1.2764   1.2911   1.2991
  1.3083   1.3117   1.3197   1.3368   1.3506   1.3675   1.3807   1.3849
  1.4063   1.4151   1.4217   1.4457   1.4469   1.4602   1.4734   1.4892
  1.5050   1.5166   1.5347   1.5406   1.5453   1.5523   1.5693   1.5876
  1.5990   1.6057   1.6309   1.6492   1.6743   1.6857   1.6959   1.7059
  1.7220   1.7306   1.7462   1.7642   1.7723   1.8051   1.8110   1.8300
  1.8329   1.8671   1.8863   1.9062   1.9358   1.9469   1.9578   1.9739
  1.9944   2.0295   2.0497   2.0829   2.1041   2.1235   2.1513   2.1553
  2.2092   2.2253   2.2342   2.2492   2.2618   2.3022   2.3096   2.3444
  2.3739   2.3913   2.4070   2.4288   2.4517   2.4685   2.4943   2.5069
  2.5233   2.5449   2.5688   2.6084   2.6472   2.6797   2.6970   2.7166
  2.7587   2.7922   2.8136   2.8385   2.8571   2.8830   2.8931   2.9227
  2.9809   2.9965   3.0204   3.0633   3.0914   3.1177   3.1711   3.2009
  3.2241   3.2486   3.2663   3.3008   3.3112   3.3324   3.3569   3.3900
  3.4125   3.4406   3.4522   3.4703   3.5013   3.5222   3.5336   3.5693
  3.6056   3.6136   3.6245   3.6645   3.6765   3.6816   3.6910   3.7242
  3.7443   3.7585   3.7673   3.7908   3.8008   3.8337   3.8557   3.8618
  3.8663   3.8884   3.9021   3.9267   3.9337   3.9675   3.9758   4.0033
  4.0224   4.0412   4.0682   4.0925   4.1090   4.1426   4.1703   4.1746
  4.2226   4.2357   4.2552   4.2630   4.2833   4.3070   4.3313   4.3585
  4.3695   4.3818   4.4064   4.4350   4.4458   4.4698   4.5080   4.5259
  4.5589   4.5846   4.6307   4.6567   4.6606   4.6918   4.7456   4.7485
  4.8014   4.8159   4.8549   4.8881   4.9251   4.9339   4.9948   5.0367
  5.0738   5.1336   5.1509   5.1611   5.1915   5.2030   5.2083   5.2312
  5.2425   5.2507   5.2637   5.2792   5.2832   5.2870   5.2953   5.3058
  5.3111   5.3404   5.3446   5.3508   5.3602   5.3643   5.3823   5.3852
  5.3928   5.4103   5.4162   5.4405   5.4691   5.4767   5.4879   5.5004
  5.5047   5.5389   5.5484   5.5602   5.5709   5.5862   5.6099   5.6220
  5.6569   5.6670   5.6751   5.6786   5.6949   5.7203   5.7532   5.7704
  5.7954   5.8002   5.8458   5.8654   5.9138   5.9852   6.0297   6.0576
  6.0683   6.1095   6.1350   6.1613   6.2691   6.2774   6.3018   6.5202
  6.5534   6.5894   6.6111   6.7542   6.8357   6.8771   6.9201   6.9600
  6.9775   6.9825   7.0151   7.0625   7.0707   7.0980   7.1093   7.1343
  7.1646   7.1884   7.1944   7.2139   7.2652   7.2789   7.2956   7.3107
  7.3279   7.3352   7.3669   7.4128   7.4287   7.4405   7.4637   7.4860
  7.4997   7.5051   7.5353   7.5442   7.5936   7.6128   7.6640   7.6876
  7.7294   7.7780   7.7982   7.8580   7.8666   7.9042   7.9271   7.9362
  8.0531   8.0722   8.1354   8.2490  24.6624  24.7762  24.8069  24.8647
 50.4636  50.5349  50.5727  50.6062  50.6350  50.6605  50.6958  50.7787
 --------------------------------------------------------------
 
          Ground-State Mulliken Net Atomic Charges

     Atom                 Charge (a.u.)    Spin (a.u.)
  --------------------------------------------------------
      1 C                    -0.070702       0.001076
      2 O                    -0.426463      -0.000049
      3 C                     0.212354       0.007090
      4 O                    -0.397056      -0.003680
      5 C                    -0.560842       0.003267
      6 C                    -0.160653      -0.002600
      7 O                    -0.765428      -0.002210
      8 H                     0.296190       0.000029
      9 H                     0.338984       0.000092
     10 H                     0.282280      -0.000737
     11 H                     0.304689      -0.001111
     12 H                     0.271062       0.003739
     13 O                    -0.466371      -0.000049
     14 H                     0.346029      -0.000043
     15 O                    -0.229437       0.001997
     16 O                    -0.393379      -0.000046
     17 H                     0.322337      -0.000855
     18 H                     0.383028       0.000229
     19 O                     0.066114       0.358138
     20 O                    -0.352736       0.635722
  --------------------------------------------------------
  Sum of atomic charges =    -1.000000
  Sum of spin   charges =     1.000000

 -----------------------------------------------------------------
                    Cartesian Multipole Moments
 -----------------------------------------------------------------
    Charge (ESU x 10^10)
                -4.8032
    Dipole Moment (Debye)
         X     -24.5456      Y       5.4154      Z      -8.2586
       Tot      26.4579
    Quadrupole Moments (Debye-Ang)
        XX    -206.9074     XY      16.9366     YY     -78.8834
        XZ     -33.0694     YZ       4.1183     ZZ    -104.9804
    Octopole Moments (Debye-Ang^2)
       XXX   -1549.5270    XXY     125.8053    XYY    -290.7855
       YYY     184.1759    XXZ    -217.2046    XYZ       4.8263
       YYZ     -71.9094    XZZ    -415.4242    YZZ     104.4639
       ZZZ    -259.5972
    Hexadecapole Moments (Debye-Ang^3)
      XXXX  -10679.3018   XXXY     889.6948   XXYY   -1313.2721
      XYYY     613.0028   YYYY    -678.4672   XXXZ   -1554.4626
      XXYZ      17.4278   XYYZ    -275.1419   YYYZ     155.3627
      XXZZ   -2078.9293   XYZZ     319.7404   YYZZ    -473.2807
      XZZZ   -1045.3456   YZZZ     219.7782   ZZZZ   -2087.2066
 -----------------------------------------------------------------
 Calculating analytic gradient of the SCF energy
 Gradient of CDS energy
            1           2           3           4           5           6
    1  -0.0012541   0.0020360  -0.0009424   0.0009969  -0.0001372   0.0036799
    2  -0.0014053  -0.0005197  -0.0026423   0.0029202   0.0000771   0.0013444
    3  -0.0020268  -0.0000104   0.0004356  -0.0005108  -0.0000268   0.0004082
            7           8           9          10          11          12
    1  -0.0031477   0.0001976  -0.0004358  -0.0001482   0.0000696  -0.0003355
    2  -0.0009890   0.0000832   0.0002083  -0.0001468   0.0000658  -0.0001891
    3   0.0001346   0.0000994  -0.0001877   0.0000227  -0.0001690   0.0000614
           13          14          15          16          17          18
    1  -0.0005313  -0.0000518  -0.0000182  -0.0001474  -0.0000013   0.0002783
    2   0.0019967  -0.0004427   0.0000313  -0.0001578  -0.0004329   0.0001683
    3   0.0020606  -0.0002190  -0.0000314  -0.0001703   0.0000963   0.0000271
           19          20
    1  -0.0001363   0.0000292
    2  -0.0000063   0.0000363
    3  -0.0000657   0.0000719
 Gradient of SCF Energy
            1           2           3           4           5           6
    1   0.0012217  -0.0159917   0.0455654   0.0000680  -0.0562603  -0.0047780
    2   0.0386346   0.0006701  -0.0235821  -0.0162562   0.0281188   0.0331351
    3  -0.0111064  -0.0010199  -0.0111827   0.0187773  -0.0027304   0.0440553
            7           8           9          10          11          12
    1   0.0070637  -0.0187015   0.0058701   0.0276807  -0.0066677   0.0125852
    2  -0.0090405  -0.0204849  -0.0023487   0.0084264  -0.0225042  -0.0161649
    3  -0.0025778   0.0057550   0.0044485  -0.0038419   0.0081077  -0.0243303
           13          14          15          16          17          18
    1   0.0031749   0.0025976  -0.0010580   0.0018489  -0.0045234  -0.0016823
    2  -0.0208200   0.0185504  -0.0209278   0.0205980   0.0107420  -0.0015031
    3   0.0012543  -0.0072572   0.0082891   0.0234504  -0.0249108  -0.0227543
           19          20
    1  -0.0024293   0.0044160
    2  -0.0059325   0.0006895
    3  -0.0032437   0.0008182
 Max gradient component =       5.626E-02
 RMS gradient           =       1.800E-02
 Computing fast CPCM-SWIG gradient
 Updating gradient with PCM contributions...
 -- total gradient after adding PCM contribution --
---------------------------------------------------
  Atom         X              Y              Z     
---------------------------------------------------
   1      -0.000021       0.000002       0.000013
   2      -0.000002       0.000004      -0.000021
   3      -0.000043      -0.000014       0.000011
   4       0.000044       0.000007       0.000017
   5       0.000019      -0.000005       0.000020
   6       0.000083       0.000163      -0.000070
   7      -0.000045      -0.000028      -0.000047
   8      -0.000003      -0.000018      -0.000010
   9      -0.000010       0.000003       0.000013
  10       0.000015       0.000015       0.000004
  11       0.000012       0.000001      -0.000003
  12       0.000023      -0.000003      -0.000002
  13      -0.000015      -0.000017       0.000008
  14      -0.000027       0.000003       0.000002
  15       0.000018      -0.000021      -0.000020
  16       0.000006      -0.000032      -0.000084
  17      -0.000042       0.000006       0.000009
  18      -0.000008       0.000003       0.000102
  19      -0.000020      -0.000096       0.000052
  20       0.000018       0.000027       0.000006
---------------------------------------------------
 Number of fixed atoms: 0
 Gradient time:  CPU 489.99 s  wall 40.30 s
 ######################################################
 ######################################################
 # Starting finite difference calculation for IDERIV  #
 Finite diff step size:  1.88973e-03 a.u.
 ----------------------------------------------------------------
             Standard Nuclear Orientation (Angstroms)
    I     Atom           X                Y                Z
 ----------------------------------------------------------------
    1      C       3.0576807000    -0.6440855000    -1.2434678000
    2      O       1.6708130000    -0.4214322000    -1.1323478000
    3      C       3.5731200000    -1.0625794000     0.1400414000
    4      O       3.0903007000    -2.3586694000     0.3636560000
    5      C       3.1525753000    -0.0599283000     1.2170720000
    6      C       3.9357118000    -0.0590888000     2.5309354000
    7      O       5.2147723000     0.2510215000     2.4857449000
    8      H       3.5732325000     0.2611511000    -1.5586033000
    9      H       1.3761075000     0.0256945000    -1.9337089000
   10      H       2.1014229000    -0.2456045000     1.4298959000
   11      H       3.2216433000     0.9521538000     0.8165849000
   12      H       3.3530913000     0.4553904000     3.3051097000
   13      O       3.3462661000    -1.6214513000    -2.2121262000
   14      H       3.0428731000    -2.4733526000    -1.8699843000
   15      O       4.9927252000    -1.2430738000     0.0560527000
   16      O       5.6354988000     0.0346103000     0.0431022000
   17      H       3.3361366000    -2.6313002000     1.2569913000
   18      H       5.6002278000     0.2300318000     1.0581701000
   19      O       3.8400394000    -1.5438193000     3.0689214000
   20      O       2.6931132000    -1.7961176000     3.6279366000
 ----------------------------------------------------------------
 Nuclear Repulsion Energy =         838.08127210 hartrees
 There are       49 alpha and       48 beta electrons
 Discretize the solute cavity surface with Lebedev spheres
	Using 110 Lebedev grid points for each H atom
	Using 194 Lebedev grid points for other atoms
	Atomic van der Waals radii will be scaled by 1.20
 Remove points where switching function is < 1.0e-08
 Keep 1575 surface tesserae and discard 1633 interior tesserae
 Molecular Surface Area = 172.757 Angst**2
 Requested basis set is 6-311++G(2df,2p)
 There are 144 shells and 488 basis functions
 A cutoff of  1.0D-12 yielded   9041 shell pairs
 There are    102847 function pairs (    128511 Cartesian)
 Smallest overlap matrix eigenvalue = 5.05E-06
 Guess MOs from SCF MO coefficient file

 -----------------------------------------------------------------------
  General SCF calculation program by
  Eric Jon Sundstrom, Paul Horn, Yuezhi Mao, Dmitri Zuev, Alec White,
  David Stuck, Shaama M.S., Shane Yost, Joonho Lee, David Small,
  Daniel Levine, Susi Lehtola, Hugh Burton, Evgeny Epifanovsky,
  Bang C. Huynh
 -----------------------------------------------------------------------
 Exchange:     0.1500 Hartree-Fock + 1.0000 wB97M-V + LR-HF
 Correlation:  1.0000 wB97M-V
 Using SG-2 standard quadrature grid
 Nonlocal Correlation:  VV10 with C = 0.0100 and b = 6.00 and scale = 1.00000
 Grid used for NLC:  SG-1 standard quadrature
 
 Citation of the SMD model:
 Marenich, A.V.; Cramer, C.J.; Truhlar, D.G.
 J. Phys. Chem. B 2009, 113, 6378-6396.
 iSolventCode=           1
 Solvent: water                                                           
 
 vradii
            1           2           3           4           5           6
    1   1.8500000   1.5200000   1.8500000   1.5200000   1.8500000   1.8500000
            7           8           9          10          11          12
    1   1.5200000   1.2000000   1.2000000   1.2000000   1.2000000   1.2000000
           13          14          15          16          17          18
    1   1.5200000   1.2000000   1.5200000   1.5200000   1.2000000   1.2000000
           19          20
    1   1.5200000   1.5200000
 -------------------------------------------------------
 OpenMP BLAS3 based DFT computing Module                
 Release: version 1.0, May 2013, Q-Chem Inc. Pittsburgh 
 -------------------------------------------------------
 A unrestricted SCF calculation will be
 performed using Roothaan-Hall, DIIS, GDM
 SCF converges when RMS gradient is below 1.0e-07
 ---------------------------------------
  Cycle       Energy         DIIS error
 ---------------------------------------
    1    -758.9123072631      2.09e-04  Roothaan Step
 ---------------------------------------
  Cycle       Energy         DIIS error
 ---------------------------------------
    1    -759.0239276926      2.26e-04  
    2    -759.0307239796      1.92e-04  Done DIIS. Switching to GDM
 ---------------------------------------
  Cycle       Energy        RMS Gradient
 ---------------------------------------
    1    -759.0307239796      7.50e-03   Normal BFGS step
    2    -759.0302515874      1.08e-02  Line search: overstep
    3    -759.0335750582      1.82e-03   Normal BFGS step
    4    -759.0337967014      9.55e-04   Normal BFGS step
    5    -759.0338357534      1.12e-03   Normal BFGS step
    6    -759.0338449817      3.14e-04   Normal BFGS step
    7    -759.0338461869      2.41e-04   Normal BFGS step
    8    -759.0338466922      4.35e-05   Normal BFGS step
    9    -759.0338467289      7.30e-05   Normal BFGS step
   10    -759.0338467579      2.99e-05   Normal BFGS step
   11    -759.0338467659      2.95e-05   Normal BFGS step
   12    -759.0338467720      2.60e-05   Normal BFGS step
   13    -759.0338467750      1.87e-05   Normal BFGS step
   14    -759.0338467770      1.41e-05   Normal BFGS step
   15    -759.0338467785      8.35e-06   Normal BFGS step
   16    -759.0338467792      4.99e-06   Normal BFGS step
   17    -759.0338467793      2.16e-06   Normal BFGS step
   18    -759.0338467793      7.34e-07   Normal BFGS step
   19    -759.0338467793      2.41e-07   Normal BFGS step
   20    -759.0338467793      9.54e-08  Convergence criterion met
 ---------------------------------------
 SCF time:   CPU 3521.13s  wall 241.00s 
<S^2> =          0.754410816
(3)  G-ENP(liq) elect-nuc-pol free energy of system     -759.033846779 a.u.
(4)  G-CDS(liq) cavity-dispersion-solvent structure 
     free energy                                                2.9271 kcal/mol
(6)  G-S(liq) free energy of system                     -759.029182075 a.u.
 SCF   energy in the final basis set =     -759.0291820747
 Total energy in the final basis set =     -759.0291820747
 
 --------------------------------------------------------------
 
                    Orbital Energies (a.u.)
 --------------------------------------------------------------
 
 Alpha MOs
 -- Occupied --
-19.4342 -19.3991 -19.3888 -19.3603 -19.3530 -19.3448 -19.3437 -19.2750
-10.4580 -10.4434 -10.4328 -10.3373  -1.3169  -1.2587  -1.2052  -1.1735
 -1.1341  -1.1142  -1.0106  -0.9573  -0.8913  -0.8249  -0.7442  -0.7134
 -0.6811  -0.6448  -0.6357  -0.6265  -0.6057  -0.5919  -0.5848  -0.5694
 -0.5678  -0.5403  -0.5288  -0.5204  -0.5046  -0.4816  -0.4722  -0.4509
 -0.4417  -0.4278  -0.4106  -0.4072  -0.3948  -0.3839  -0.3716  -0.3515
 -0.3397
 -- Virtual --
  0.0296   0.0425   0.0452   0.0506   0.0666   0.0724   0.0730   0.0768
  0.0994   0.1113   0.1174   0.1216   0.1357   0.1396   0.1406   0.1493
  0.1590   0.1617   0.1645   0.1748   0.1776   0.1858   0.1939   0.1991
  0.2056   0.2147   0.2168   0.2288   0.2382   0.2505   0.2551   0.2643
  0.2675   0.2735   0.2820   0.2859   0.2880   0.2956   0.3008   0.3067
  0.3122   0.3165   0.3269   0.3312   0.3389   0.3402   0.3497   0.3545
  0.3603   0.3617   0.3662   0.3735   0.3767   0.3844   0.3878   0.3938
  0.3999   0.4059   0.4127   0.4139   0.4163   0.4263   0.4328   0.4406
  0.4491   0.4586   0.4711   0.4740   0.4785   0.4894   0.4922   0.4971
  0.5300   0.5415   0.5494   0.5754   0.6081   0.6193   0.6273   0.6336
  0.6522   0.6541   0.6731   0.6766   0.6889   0.6958   0.7024   0.7245
  0.7348   0.7427   0.7619   0.7665   0.7769   0.7872   0.7995   0.8073
  0.8359   0.8502   0.8794   0.8878   0.9164   0.9208   0.9694   0.9788
  0.9988   1.0068   1.0149   1.0421   1.0656   1.0745   1.0806   1.0858
  1.1065   1.1186   1.1307   1.1404   1.1542   1.1612   1.1731   1.1764
  1.1824   1.1868   1.1985   1.2043   1.2136   1.2177   1.2260   1.2336
  1.2419   1.2512   1.2554   1.2728   1.2739   1.2883   1.2978   1.3063
  1.3109   1.3176   1.3361   1.3500   1.3631   1.3771   1.3817   1.4049
  1.4133   1.4203   1.4437   1.4449   1.4589   1.4697   1.4875   1.5040
  1.5135   1.5281   1.5370   1.5424   1.5514   1.5635   1.5855   1.5976
  1.6031   1.6298   1.6452   1.6680   1.6797   1.6945   1.7040   1.7121
  1.7237   1.7427   1.7618   1.7684   1.7974   1.8089   1.8252   1.8307
  1.8651   1.8801   1.9004   1.9346   1.9450   1.9565   1.9713   1.9908
  2.0273   2.0476   2.0811   2.1026   2.1213   2.1498   2.1510   2.2020
  2.2233   2.2328   2.2473   2.2579   2.2896   2.3072   2.3385   2.3715
  2.3895   2.4056   2.4221   2.4513   2.4674   2.4914   2.5056   2.5226
  2.5447   2.5683   2.6080   2.6469   2.6784   2.6918   2.7147   2.7577
  2.7914   2.8132   2.8366   2.8567   2.8824   2.8926   2.9223   2.9808
  2.9962   3.0200   3.0631   3.0912   3.1168   3.1708   3.2007   3.2236
  3.2480   3.2660   3.3007   3.3106   3.3319   3.3566   3.3897   3.4123
  3.4407   3.4519   3.4703   3.5011   3.5222   3.5331   3.5691   3.6052
  3.6134   3.6249   3.6643   3.6763   3.6814   3.6909   3.7238   3.7445
  3.7581   3.7671   3.7903   3.8010   3.8339   3.8556   3.8614   3.8661
  3.8882   3.9020   3.9265   3.9336   3.9671   3.9755   4.0032   4.0220
  4.0408   4.0683   4.0923   4.1088   4.1424   4.1700   4.1743   4.2221
  4.2353   4.2552   4.2628   4.2827   4.3069   4.3309   4.3583   4.3692
  4.3816   4.4063   4.4346   4.4453   4.4680   4.5076   4.5244   4.5563
  4.5841   4.6229   4.6433   4.6563   4.6853   4.7327   4.7461   4.7980
  4.8107   4.8361   4.8822   4.9190   4.9314   4.9795   5.0353   5.0732
  5.0927   5.1059   5.1301   5.1448   5.1681   5.2041   5.2296   5.2351
  5.2465   5.2548   5.2616   5.2744   5.2766   5.2856   5.2984   5.3107
  5.3209   5.3397   5.3437   5.3565   5.3599   5.3659   5.3806   5.3858
  5.4090   5.4128   5.4373   5.4529   5.4741   5.4874   5.4991   5.5035
  5.5350   5.5449   5.5585   5.5701   5.5855   5.6070   5.6207   5.6533
  5.6582   5.6725   5.6779   5.6941   5.7178   5.7421   5.7631   5.7887
  5.7992   5.8444   5.8637   5.9134   5.9848   6.0284   6.0521   6.0679
  6.1093   6.1342   6.1597   6.2676   6.2753   6.2980   6.5051   6.5226
  6.5882   6.5997   6.7531   6.8349   6.8522   6.8756   6.9046   6.9469
  6.9641   6.9927   7.0433   7.0626   7.0905   7.1008   7.1133   7.1582
  7.1720   7.1862   7.2064   7.2523   7.2648   7.2873   7.3098   7.3267
  7.3329   7.3624   7.4034   7.4282   7.4320   7.4509   7.4595   7.4906
  7.5036   7.5281   7.5420   7.5924   7.6097   7.6638   7.6868   7.7249
  7.7742   7.7938   7.8577   7.8663   7.9037   7.9255   7.9357   8.0527
  8.0577   8.1177   8.2488  24.6623  24.7763  24.8067  24.8648  50.4515
 50.5334  50.5645  50.6057  50.6347  50.6604  50.6956  50.7787
 
 Beta MOs
 -- Occupied --
-19.4226 -19.3888 -19.3814 -19.3603 -19.3530 -19.3448 -19.3437 -19.2751
-10.4580 -10.4434 -10.4331 -10.3372  -1.2895  -1.2585  -1.2051  -1.1735
 -1.1341  -1.1127  -1.0103  -0.9239  -0.8882  -0.8227  -0.7424  -0.7097
 -0.6805  -0.6404  -0.6330  -0.6211  -0.5833  -0.5818  -0.5686  -0.5661
 -0.5535  -0.5383  -0.5258  -0.5138  -0.4808  -0.4768  -0.4717  -0.4504
 -0.4411  -0.4277  -0.4075  -0.4019  -0.3927  -0.3734  -0.3446  -0.3369
 -- Virtual --
 -0.0156   0.0297   0.0427   0.0453   0.0507   0.0674   0.0726   0.0733
  0.0771   0.0997   0.1119   0.1184   0.1219   0.1360   0.1400   0.1410
  0.1505   0.1592   0.1619   0.1659   0.1752   0.1788   0.1862   0.1954
  0.2006   0.2060   0.2161   0.2177   0.2305   0.2390   0.2520   0.2560
  0.2656   0.2683   0.2803   0.2833   0.2861   0.2900   0.2967   0.3033
  0.3071   0.3130   0.3187   0.3271   0.3337   0.3394   0.3410   0.3512
  0.3548   0.3617   0.3619   0.3664   0.3743   0.3792   0.3858   0.3887
  0.3950   0.4009   0.4061   0.4129   0.4144   0.4172   0.4268   0.4337
  0.4411   0.4495   0.4591   0.4714   0.4744   0.4789   0.4906   0.4931
  0.4975   0.5301   0.5419   0.5502   0.5755   0.6086   0.6195   0.6275
  0.6340   0.6527   0.6542   0.6735   0.6769   0.6891   0.6963   0.7030
  0.7253   0.7350   0.7428   0.7620   0.7666   0.7772   0.7873   0.8000
  0.8075   0.8363   0.8520   0.8795   0.8886   0.9174   0.9217   0.9697
  0.9791   0.9992   1.0085   1.0173   1.0443   1.0691   1.0752   1.0826
  1.0864   1.1079   1.1206   1.1355   1.1421   1.1586   1.1649   1.1756
  1.1819   1.1851   1.1876   1.1997   1.2063   1.2139   1.2213   1.2335
  1.2410   1.2433   1.2549   1.2615   1.2755   1.2764   1.2910   1.2992
  1.3083   1.3117   1.3197   1.3368   1.3507   1.3675   1.3807   1.3849
  1.4063   1.4152   1.4217   1.4456   1.4470   1.4602   1.4734   1.4892
  1.5050   1.5166   1.5347   1.5406   1.5453   1.5524   1.5694   1.5875
  1.5990   1.6058   1.6310   1.6492   1.6743   1.6857   1.6960   1.7060
  1.7221   1.7307   1.7462   1.7642   1.7723   1.8051   1.8110   1.8300
  1.8329   1.8672   1.8863   1.9062   1.9357   1.9470   1.9578   1.9738
  1.9943   2.0294   2.0497   2.0828   2.1041   2.1235   2.1512   2.1552
  2.2092   2.2253   2.2342   2.2492   2.2618   2.3020   2.3096   2.3444
  2.3738   2.3910   2.4068   2.4288   2.4517   2.4684   2.4943   2.5069
  2.5233   2.5449   2.5686   2.6085   2.6473   2.6797   2.6969   2.7166
  2.7586   2.7921   2.8136   2.8385   2.8569   2.8831   2.8930   2.9227
  2.9809   2.9964   3.0205   3.0634   3.0915   3.1177   3.1711   3.2009
  3.2242   3.2488   3.2663   3.3008   3.3112   3.3324   3.3567   3.3901
  3.4124   3.4407   3.4522   3.4703   3.5013   3.5222   3.5336   3.5691
  3.6054   3.6136   3.6245   3.6645   3.6765   3.6816   3.6910   3.7242
  3.7443   3.7586   3.7673   3.7909   3.8008   3.8340   3.8557   3.8617
  3.8663   3.8884   3.9022   3.9266   3.9337   3.9673   3.9757   4.0033
  4.0224   4.0413   4.0685   4.0925   4.1090   4.1426   4.1705   4.1745
  4.2227   4.2356   4.2553   4.2630   4.2832   4.3070   4.3314   4.3588
  4.3695   4.3819   4.4064   4.4353   4.4459   4.4698   4.5080   4.5259
  4.5592   4.5849   4.6308   4.6567   4.6607   4.6919   4.7457   4.7485
  4.8014   4.8159   4.8549   4.8882   4.9252   4.9339   4.9948   5.0367
  5.0738   5.1338   5.1509   5.1611   5.1915   5.2030   5.2082   5.2312
  5.2425   5.2507   5.2636   5.2792   5.2832   5.2870   5.2953   5.3058
  5.3112   5.3404   5.3446   5.3507   5.3602   5.3643   5.3824   5.3852
  5.3928   5.4105   5.4163   5.4405   5.4691   5.4766   5.4880   5.5004
  5.5047   5.5389   5.5484   5.5602   5.5708   5.5862   5.6100   5.6220
  5.6568   5.6670   5.6751   5.6786   5.6949   5.7200   5.7532   5.7704
  5.7954   5.7998   5.8458   5.8655   5.9136   5.9850   6.0295   6.0576
  6.0685   6.1094   6.1344   6.1598   6.2691   6.2774   6.3018   6.5201
  6.5534   6.5889   6.6111   6.7534   6.8357   6.8771   6.9201   6.9600
  6.9775   6.9825   7.0151   7.0625   7.0707   7.0980   7.1093   7.1343
  7.1646   7.1884   7.1944   7.2139   7.2651   7.2788   7.2956   7.3108
  7.3278   7.3351   7.3669   7.4128   7.4286   7.4405   7.4637   7.4860
  7.4997   7.5051   7.5353   7.5442   7.5936   7.6128   7.6641   7.6875
  7.7294   7.7780   7.7982   7.8580   7.8664   7.9040   7.9271   7.9362
  8.0531   8.0722   8.1354   8.2490  24.6623  24.7762  24.8067  24.8648
 50.4636  50.5350  50.5727  50.6062  50.6347  50.6605  50.6957  50.7787
 --------------------------------------------------------------
 
          Ground-State Mulliken Net Atomic Charges

     Atom                 Charge (a.u.)    Spin (a.u.)
  --------------------------------------------------------
      1 C                    -0.070780       0.001076
      2 O                    -0.426994      -0.000049
      3 C                     0.212239       0.007091
      4 O                    -0.397071      -0.003680
      5 C                    -0.560760       0.003269
      6 C                    -0.160602      -0.002602
      7 O                    -0.765419      -0.002210
      8 H                     0.296549       0.000029
      9 H                     0.338927       0.000092
     10 H                     0.282278      -0.000737
     11 H                     0.304670      -0.001112
     12 H                     0.271071       0.003739
     13 O                    -0.466210      -0.000049
     14 H                     0.346098      -0.000043
     15 O                    -0.229440       0.001997
     16 O                    -0.393324      -0.000045
     17 H                     0.322356      -0.000855
     18 H                     0.383032       0.000229
     19 O                     0.066104       0.358133
     20 O                    -0.352724       0.635728
  --------------------------------------------------------
  Sum of atomic charges =    -1.000000
  Sum of spin   charges =     1.000000

 -----------------------------------------------------------------
                    Cartesian Multipole Moments
 -----------------------------------------------------------------
    Charge (ESU x 10^10)
                -4.8032
    Dipole Moment (Debye)
         X     -24.5387      Y       5.4137      Z      -8.2589
       Tot      26.4512
    Quadrupole Moments (Debye-Ang)
        XX    -206.8720     XY      16.9293     YY     -78.8773
        XZ     -33.0794     YZ       4.1210     ZZ    -104.9739
    Octopole Moments (Debye-Ang^2)
       XXX   -1549.3910    XXY     125.7788    XYY    -290.7664
       YYY     184.1589    XXZ    -217.2548    XYZ       4.8378
       YYZ     -71.9171    XZZ    -415.3930    YZZ     104.4527
       ZZZ    -259.6058
    Hexadecapole Moments (Debye-Ang^3)
      XXXX  -10678.8641   XXXY     889.6134   XXYY   -1313.2174
      XYYY     612.9580   YYYY    -678.4126   XXXZ   -1554.6548
      XXYZ      17.4716   XYYZ    -275.1649   YYYZ     155.3821
      XXZZ   -2078.8090   XYZZ     319.7071   YYZZ    -473.2470
      XZZZ   -1045.3805   YZZZ     219.8041   ZZZZ   -2087.1313
 -----------------------------------------------------------------
 Calculating analytic gradient of the SCF energy
 Gradient of CDS energy
            1           2           3           4           5           6
    1  -0.0010364   0.0018305  -0.0009424   0.0009966  -0.0001372   0.0036799
    2  -0.0014761  -0.0004855  -0.0026423   0.0029202   0.0000771   0.0013444
    3  -0.0020796   0.0000063   0.0004356  -0.0005109  -0.0000268   0.0004082
            7           8           9          10          11          12
    1  -0.0031477   0.0001959  -0.0004364  -0.0001485   0.0000695  -0.0003355
    2  -0.0009890   0.0000841   0.0002085  -0.0001468   0.0000658  -0.0001891
    3   0.0001346   0.0001001  -0.0001876   0.0000225  -0.0001691   0.0000614
           13          14          15          16          17          18
    1  -0.0005406  -0.0000520  -0.0000182  -0.0001474  -0.0000013   0.0002783
    2   0.0020320  -0.0004425   0.0000313  -0.0001578  -0.0004329   0.0001683
    3   0.0020959  -0.0002188  -0.0000313  -0.0001702   0.0000963   0.0000271
           19          20
    1  -0.0001363   0.0000292
    2  -0.0000063   0.0000363
    3  -0.0000657   0.0000719
 Gradient of SCF Energy
            1           2           3           4           5           6
    1   0.0022137  -0.0165823   0.0455048   0.0000654  -0.0562620  -0.0047804
    2   0.0387007   0.0007536  -0.0235676  -0.0162575   0.0281207   0.0331370
    3  -0.0111446  -0.0010370  -0.0112675   0.0187947  -0.0027099   0.0440515
            7           8           9          10          11          12
    1   0.0070631  -0.0188626   0.0058361   0.0276877  -0.0066627   0.0125860
    2  -0.0090393  -0.0206960  -0.0023487   0.0084278  -0.0225061  -0.0161644
    3  -0.0025766   0.0058251   0.0044667  -0.0038395   0.0081049  -0.0243287
           13          14          15          16          17          18
    1   0.0030553   0.0026087  -0.0011093   0.0018510  -0.0045187  -0.0016798
    2  -0.0207723   0.0185344  -0.0209111   0.0205995   0.0107355  -0.0015036
    3   0.0013236  -0.0072763   0.0082484   0.0234550  -0.0249098  -0.0227544
           19          20
    1  -0.0024293   0.0044152
    2  -0.0059322   0.0006897
    3  -0.0032438   0.0008183
 Max gradient component =       5.626E-02
 RMS gradient           =       1.802E-02
 Computing fast CPCM-SWIG gradient
 Updating gradient with PCM contributions...
 -- total gradient after adding PCM contribution --
---------------------------------------------------
  Atom         X              Y              Z     
---------------------------------------------------
   1       0.001125       0.000106      -0.000019
   2      -0.000599       0.000064      -0.000026
   3      -0.000178       0.000006      -0.000059
   4       0.000053      -0.000016       0.000051
   5       0.000034      -0.000012       0.000031
   6       0.000076       0.000168      -0.000069
   7      -0.000044      -0.000028      -0.000047
   8      -0.000197      -0.000210       0.000057
   9      -0.000055       0.000009       0.000023
  10       0.000013       0.000014       0.000004
  11       0.000013       0.000002      -0.000005
  12       0.000024      -0.000003       0.000000
  13      -0.000148       0.000007       0.000067
  14      -0.000023      -0.000015      -0.000020
  15      -0.000049       0.000005      -0.000070
  16       0.000010      -0.000031      -0.000084
  17      -0.000043      -0.000000       0.000008
  18      -0.000009       0.000002       0.000101
  19      -0.000020      -0.000096       0.000052
  20       0.000018       0.000027       0.000005
---------------------------------------------------
 Number of fixed atoms: 0
 Gradient time:  CPU 490.83 s  wall 40.23 s
 ----------------------------------------------------------------
             Standard Nuclear Orientation (Angstroms)
    I     Atom           X                Y                Z
 ----------------------------------------------------------------
    1      C       3.0556807000    -0.6440855000    -1.2434678000
    2      O       1.6708130000    -0.4214322000    -1.1323478000
    3      C       3.5731200000    -1.0625794000     0.1400414000
    4      O       3.0903007000    -2.3586694000     0.3636560000
    5      C       3.1525753000    -0.0599283000     1.2170720000
    6      C       3.9357118000    -0.0590888000     2.5309354000
    7      O       5.2147723000     0.2510215000     2.4857449000
    8      H       3.5732325000     0.2611511000    -1.5586033000
    9      H       1.3761075000     0.0256945000    -1.9337089000
   10      H       2.1014229000    -0.2456045000     1.4298959000
   11      H       3.2216433000     0.9521538000     0.8165849000
   12      H       3.3530913000     0.4553904000     3.3051097000
   13      O       3.3462661000    -1.6214513000    -2.2121262000
   14      H       3.0428731000    -2.4733526000    -1.8699843000
   15      O       4.9927252000    -1.2430738000     0.0560527000
   16      O       5.6354988000     0.0346103000     0.0431022000
   17      H       3.3361366000    -2.6313002000     1.2569913000
   18      H       5.6002278000     0.2300318000     1.0581701000
   19      O       3.8400394000    -1.5438193000     3.0689214000
   20      O       2.6931132000    -1.7961176000     3.6279366000
 ----------------------------------------------------------------
 Nuclear Repulsion Energy =         838.07987024 hartrees
 There are       49 alpha and       48 beta electrons
 Discretize the solute cavity surface with Lebedev spheres
	Using 110 Lebedev grid points for each H atom
	Using 194 Lebedev grid points for other atoms
	Atomic van der Waals radii will be scaled by 1.20
 Remove points where switching function is < 1.0e-08
 Keep 1575 surface tesserae and discard 1633 interior tesserae
 Molecular Surface Area = 172.758 Angst**2
 Requested basis set is 6-311++G(2df,2p)
 There are 144 shells and 488 basis functions
 A cutoff of  1.0D-12 yielded   9041 shell pairs
 There are    102847 function pairs (    128511 Cartesian)
 Smallest overlap matrix eigenvalue = 5.06E-06
 Guess MOs from SCF MO coefficient file

 -----------------------------------------------------------------------
  General SCF calculation program by
  Eric Jon Sundstrom, Paul Horn, Yuezhi Mao, Dmitri Zuev, Alec White,
  David Stuck, Shaama M.S., Shane Yost, Joonho Lee, David Small,
  Daniel Levine, Susi Lehtola, Hugh Burton, Evgeny Epifanovsky,
  Bang C. Huynh
 -----------------------------------------------------------------------
 Exchange:     0.1500 Hartree-Fock + 1.0000 wB97M-V + LR-HF
 Correlation:  1.0000 wB97M-V
 Using SG-2 standard quadrature grid
 Nonlocal Correlation:  VV10 with C = 0.0100 and b = 6.00 and scale = 1.00000
 Grid used for NLC:  SG-1 standard quadrature
 
 Citation of the SMD model:
 Marenich, A.V.; Cramer, C.J.; Truhlar, D.G.
 J. Phys. Chem. B 2009, 113, 6378-6396.
 iSolventCode=           1
 Solvent: water                                                           
 
 vradii
            1           2           3           4           5           6
    1   1.8500000   1.5200000   1.8500000   1.5200000   1.8500000   1.8500000
            7           8           9          10          11          12
    1   1.5200000   1.2000000   1.2000000   1.2000000   1.2000000   1.2000000
           13          14          15          16          17          18
    1   1.5200000   1.2000000   1.5200000   1.5200000   1.2000000   1.2000000
           19          20
    1   1.5200000   1.5200000
 -------------------------------------------------------
 OpenMP BLAS3 based DFT computing Module                
 Release: version 1.0, May 2013, Q-Chem Inc. Pittsburgh 
 -------------------------------------------------------
 A unrestricted SCF calculation will be
 performed using Roothaan-Hall, DIIS, GDM
 SCF converges when RMS gradient is below 1.0e-07
 ---------------------------------------
  Cycle       Energy         DIIS error
 ---------------------------------------
    1    -758.9123122831      2.08e-04  Roothaan Step
 ---------------------------------------
  Cycle       Energy         DIIS error
 ---------------------------------------
    1    -759.0239388409      2.25e-04  
    2    -759.0307368254      1.91e-04  Done DIIS. Switching to GDM
 ---------------------------------------
  Cycle       Energy        RMS Gradient
 ---------------------------------------
    1    -759.0307368254      7.49e-03   Normal BFGS step
    2    -759.0302640350      1.08e-02  Line search: overstep
    3    -759.0335796776      1.82e-03   Normal BFGS step
    4    -759.0338014709      9.53e-04   Normal BFGS step
    5    -759.0338404207      1.11e-03   Normal BFGS step
    6    -759.0338496392      3.15e-04   Normal BFGS step
    7    -759.0338508458      2.40e-04   Normal BFGS step
    8    -759.0338513511      4.35e-05   Normal BFGS step
    9    -759.0338513875      7.29e-05   Normal BFGS step
   10    -759.0338514164      2.98e-05   Normal BFGS step
   11    -759.0338514244      2.94e-05   Normal BFGS step
   12    -759.0338514304      2.59e-05   Normal BFGS step
   13    -759.0338514334      1.86e-05   Normal BFGS step
   14    -759.0338514354      1.41e-05   Normal BFGS step
   15    -759.0338514370      8.32e-06   Normal BFGS step
   16    -759.0338514376      4.98e-06   Normal BFGS step
   17    -759.0338514378      2.16e-06   Normal BFGS step
   18    -759.0338514378      7.37e-07   Normal BFGS step
   19    -759.0338514378      2.42e-07   Normal BFGS step
   20    -759.0338514378      9.63e-08  Convergence criterion met
 ---------------------------------------
 SCF time:   CPU 3518.61s  wall 241.00s 
<S^2> =          0.754410846
(3)  G-ENP(liq) elect-nuc-pol free energy of system     -759.033851438 a.u.
(4)  G-CDS(liq) cavity-dispersion-solvent structure 
     free energy                                                2.9301 kcal/mol
(6)  G-S(liq) free energy of system                     -759.029181995 a.u.
 SCF   energy in the final basis set =     -759.0291819945
 Total energy in the final basis set =     -759.0291819945
 
 --------------------------------------------------------------
 
                    Orbital Energies (a.u.)
 --------------------------------------------------------------
 
 Alpha MOs
 -- Occupied --
-19.4342 -19.3991 -19.3888 -19.3603 -19.3530 -19.3450 -19.3436 -19.2750
-10.4580 -10.4434 -10.4328 -10.3373  -1.3169  -1.2587  -1.2054  -1.1736
 -1.1343  -1.1142  -1.0105  -0.9573  -0.8913  -0.8248  -0.7441  -0.7133
 -0.6812  -0.6449  -0.6356  -0.6265  -0.6057  -0.5919  -0.5848  -0.5694
 -0.5677  -0.5405  -0.5289  -0.5204  -0.5046  -0.4816  -0.4722  -0.4509
 -0.4416  -0.4278  -0.4106  -0.4073  -0.3948  -0.3839  -0.3716  -0.3515
 -0.3397
 -- Virtual --
  0.0296   0.0425   0.0452   0.0506   0.0666   0.0724   0.0730   0.0768
  0.0994   0.1113   0.1174   0.1216   0.1358   0.1396   0.1405   0.1493
  0.1590   0.1617   0.1644   0.1748   0.1776   0.1859   0.1939   0.1991
  0.2056   0.2148   0.2170   0.2289   0.2382   0.2506   0.2550   0.2643
  0.2675   0.2735   0.2820   0.2861   0.2880   0.2956   0.3008   0.3066
  0.3121   0.3165   0.3270   0.3312   0.3389   0.3402   0.3496   0.3545
  0.3603   0.3616   0.3663   0.3735   0.3767   0.3844   0.3878   0.3937
  0.4000   0.4059   0.4128   0.4139   0.4163   0.4262   0.4328   0.4405
  0.4492   0.4586   0.4711   0.4740   0.4785   0.4894   0.4922   0.4971
  0.5301   0.5415   0.5494   0.5753   0.6080   0.6193   0.6273   0.6336
  0.6522   0.6541   0.6732   0.6767   0.6889   0.6958   0.7023   0.7245
  0.7349   0.7426   0.7619   0.7665   0.7768   0.7871   0.7994   0.8074
  0.8360   0.8502   0.8794   0.8877   0.9164   0.9209   0.9693   0.9788
  0.9990   1.0069   1.0149   1.0420   1.0655   1.0744   1.0807   1.0857
  1.1066   1.1185   1.1307   1.1403   1.1542   1.1612   1.1731   1.1764
  1.1824   1.1868   1.1984   1.2044   1.2135   1.2175   1.2260   1.2336
  1.2420   1.2513   1.2554   1.2728   1.2738   1.2884   1.2978   1.3062
  1.3109   1.3177   1.3361   1.3500   1.3631   1.3772   1.3816   1.4050
  1.4133   1.4202   1.4438   1.4449   1.4589   1.4697   1.4875   1.5040
  1.5134   1.5281   1.5370   1.5424   1.5512   1.5633   1.5855   1.5976
  1.6030   1.6297   1.6451   1.6680   1.6797   1.6945   1.7040   1.7120
  1.7235   1.7428   1.7617   1.7684   1.7974   1.8089   1.8253   1.8306
  1.8648   1.8799   1.9004   1.9347   1.9450   1.9564   1.9715   1.9910
  2.0275   2.0477   2.0812   2.1026   2.1213   2.1498   2.1512   2.2021
  2.2234   2.2330   2.2474   2.2581   2.2898   2.3073   2.3386   2.3717
  2.3900   2.4058   2.4221   2.4512   2.4677   2.4914   2.5056   2.5226
  2.5447   2.5687   2.6080   2.6468   2.6784   2.6919   2.7148   2.7578
  2.7915   2.8132   2.8366   2.8571   2.8823   2.8929   2.9223   2.9809
  2.9965   3.0199   3.0630   3.0912   3.1167   3.1707   3.2007   3.2235
  3.2475   3.2660   3.3007   3.3105   3.3319   3.3571   3.3897   3.4124
  3.4406   3.4520   3.4703   3.5011   3.5220   3.5331   3.5695   3.6056
  3.6133   3.6250   3.6642   3.6764   3.6816   3.6908   3.7238   3.7443
  3.7580   3.7670   3.7901   3.8011   3.8334   3.8555   3.8615   3.8660
  3.8882   3.9017   3.9267   3.9336   3.9676   3.9756   4.0032   4.0220
  4.0408   4.0677   4.0924   4.1088   4.1425   4.1697   4.1743   4.2219
  4.2354   4.2551   4.2627   4.2829   4.3069   4.3307   4.3577   4.3691
  4.3813   4.4063   4.4341   4.4451   4.4679   4.5075   4.5243   4.5555
  4.5836   4.6228   4.6431   4.6562   4.6851   4.7327   4.7460   4.7980
  4.8106   4.8361   4.8821   4.9189   4.9313   4.9794   5.0353   5.0732
  5.0927   5.1059   5.1300   5.1445   5.1681   5.2041   5.2295   5.2351
  5.2465   5.2548   5.2618   5.2745   5.2766   5.2856   5.2983   5.3106
  5.3209   5.3398   5.3437   5.3565   5.3599   5.3659   5.3804   5.3854
  5.4087   5.4125   5.4374   5.4528   5.4743   5.4873   5.4991   5.5035
  5.5350   5.5450   5.5586   5.5703   5.5855   5.6069   5.6207   5.6533
  5.6583   5.6724   5.6781   5.6941   5.7184   5.7421   5.7630   5.7887
  5.8000   5.8444   5.8634   5.9139   5.9851   6.0287   6.0522   6.0674
  6.1095   6.1354   6.1629   6.2676   6.2754   6.2980   6.5051   6.5228
  6.5891   6.5997   6.7547   6.8350   6.8522   6.8755   6.9046   6.9469
  6.9641   6.9927   7.0433   7.0625   7.0905   7.1009   7.1133   7.1582
  7.1720   7.1862   7.2064   7.2523   7.2649   7.2875   7.3098   7.3268
  7.3332   7.3624   7.4034   7.4286   7.4321   7.4509   7.4596   7.4908
  7.5036   7.5281   7.5421   7.5924   7.6096   7.6636   7.6872   7.7248
  7.7742   7.7939   7.8578   7.8666   7.9040   7.9255   7.9357   8.0528
  8.0577   8.1177   8.2487  24.6623  24.7764  24.8071  24.8645  50.4515
 50.5334  50.5645  50.6056  50.6352  50.6604  50.6957  50.7787
 
 Beta MOs
 -- Occupied --
-19.4226 -19.3888 -19.3814 -19.3603 -19.3530 -19.3450 -19.3436 -19.2751
-10.4580 -10.4434 -10.4331 -10.3372  -1.2895  -1.2585  -1.2054  -1.1735
 -1.1343  -1.1127  -1.0103  -0.9239  -0.8882  -0.8226  -0.7423  -0.7097
 -0.6806  -0.6406  -0.6329  -0.6211  -0.5833  -0.5818  -0.5686  -0.5661
 -0.5534  -0.5385  -0.5258  -0.5138  -0.4808  -0.4767  -0.4717  -0.4504
 -0.4410  -0.4276  -0.4076  -0.4019  -0.3927  -0.3734  -0.3446  -0.3369
 -- Virtual --
 -0.0156   0.0297   0.0427   0.0453   0.0507   0.0674   0.0726   0.0733
  0.0772   0.0997   0.1119   0.1184   0.1219   0.1360   0.1400   0.1410
  0.1505   0.1592   0.1619   0.1659   0.1752   0.1788   0.1862   0.1954
  0.2006   0.2060   0.2161   0.2178   0.2306   0.2390   0.2520   0.2560
  0.2656   0.2683   0.2803   0.2833   0.2863   0.2900   0.2966   0.3033
  0.3070   0.3129   0.3187   0.3272   0.3337   0.3395   0.3409   0.3511
  0.3548   0.3617   0.3619   0.3666   0.3742   0.3792   0.3858   0.3887
  0.3950   0.4009   0.4061   0.4129   0.4145   0.4172   0.4267   0.4337
  0.4410   0.4496   0.4591   0.4714   0.4744   0.4789   0.4906   0.4931
  0.4975   0.5301   0.5419   0.5502   0.5754   0.6085   0.6195   0.6275
  0.6340   0.6528   0.6542   0.6736   0.6769   0.6891   0.6962   0.7029
  0.7253   0.7351   0.7427   0.7621   0.7666   0.7772   0.7872   0.7999
  0.8076   0.8363   0.8520   0.8795   0.8886   0.9174   0.9218   0.9697
  0.9791   0.9993   1.0085   1.0173   1.0442   1.0690   1.0751   1.0827
  1.0863   1.1079   1.1206   1.1354   1.1421   1.1585   1.1649   1.1755
  1.1820   1.1852   1.1876   1.1997   1.2064   1.2139   1.2211   1.2335
  1.2410   1.2433   1.2550   1.2615   1.2756   1.2763   1.2911   1.2991
  1.3082   1.3117   1.3197   1.3368   1.3506   1.3675   1.3808   1.3848
  1.4063   1.4151   1.4216   1.4458   1.4469   1.4602   1.4734   1.4892
  1.5050   1.5166   1.5347   1.5406   1.5453   1.5522   1.5692   1.5876
  1.5990   1.6057   1.6309   1.6492   1.6743   1.6856   1.6959   1.7059
  1.7220   1.7305   1.7463   1.7641   1.7723   1.8051   1.8109   1.8300
  1.8329   1.8669   1.8862   1.9062   1.9358   1.9469   1.9577   1.9740
  1.9945   2.0296   2.0498   2.0829   2.1041   2.1236   2.1514   2.1553
  2.2093   2.2254   2.2343   2.2493   2.2619   2.3023   2.3096   2.3445
  2.3739   2.3915   2.4071   2.4288   2.4516   2.4686   2.4943   2.5069
  2.5233   2.5449   2.5690   2.6084   2.6472   2.6797   2.6970   2.7166
  2.7587   2.7922   2.8136   2.8385   2.8573   2.8830   2.8932   2.9227
  2.9810   2.9967   3.0203   3.0633   3.0914   3.1177   3.1710   3.2010
  3.2241   3.2484   3.2663   3.3008   3.3111   3.3324   3.3572   3.3900
  3.4126   3.4406   3.4523   3.4702   3.5013   3.5221   3.5336   3.5694
  3.6058   3.6135   3.6246   3.6644   3.6766   3.6817   3.6909   3.7242
  3.7442   3.7584   3.7672   3.7907   3.8008   3.8335   3.8556   3.8618
  3.8663   3.8884   3.9019   3.9268   3.9337   3.9677   3.9758   4.0032
  4.0224   4.0412   4.0678   4.0926   4.1090   4.1427   4.1702   4.1746
  4.2225   4.2357   4.2552   4.2629   4.2834   4.3071   4.3312   4.3582
  4.3694   4.3816   4.4064   4.4348   4.4457   4.4698   4.5079   4.5258
  4.5585   4.5844   4.6306   4.6566   4.6606   4.6917   4.7456   4.7485
  4.8014   4.8158   4.8548   4.8880   4.9251   4.9338   4.9948   5.0367
  5.0738   5.1335   5.1508   5.1610   5.1915   5.2030   5.2083   5.2311
  5.2425   5.2508   5.2638   5.2792   5.2832   5.2870   5.2953   5.3057
  5.3110   5.3404   5.3446   5.3508   5.3602   5.3642   5.3823   5.3851
  5.3927   5.4101   5.4161   5.4405   5.4692   5.4768   5.4879   5.5004
  5.5047   5.5389   5.5484   5.5602   5.5710   5.5862   5.6099   5.6220
  5.6569   5.6670   5.6750   5.6786   5.6948   5.7206   5.7532   5.7704
  5.7954   5.8006   5.8458   5.8653   5.9141   5.9853   6.0299   6.0576
  6.0680   6.1096   6.1355   6.1629   6.2691   6.2774   6.3018   6.5203
  6.5534   6.5898   6.6111   6.7551   6.8358   6.8771   6.9201   6.9600
  6.9775   6.9825   7.0151   7.0625   7.0707   7.0981   7.1093   7.1343
  7.1646   7.1884   7.1944   7.2139   7.2652   7.2789   7.2957   7.3107
  7.3279   7.3354   7.3669   7.4128   7.4289   7.4406   7.4637   7.4861
  7.4998   7.5051   7.5353   7.5443   7.5936   7.6128   7.6638   7.6878
  7.7293   7.7781   7.7983   7.8581   7.8667   7.9043   7.9271   7.9362
  8.0531   8.0722   8.1354   8.2490  24.6624  24.7763  24.8070  24.8645
 50.4636  50.5349  50.5726  50.6061  50.6352  50.6605  50.6959  50.7787
 --------------------------------------------------------------
 
          Ground-State Mulliken Net Atomic Charges

     Atom                 Charge (a.u.)    Spin (a.u.)
  --------------------------------------------------------
      1 C                    -0.070626       0.001077
      2 O                    -0.425931      -0.000048
      3 C                     0.212472       0.007090
      4 O                    -0.397042      -0.003680
      5 C                    -0.560925       0.003265
      6 C                    -0.160703      -0.002599
      7 O                    -0.765438      -0.002210
      8 H                     0.295830       0.000029
      9 H                     0.339040       0.000092
     10 H                     0.282283      -0.000736
     11 H                     0.304708      -0.001111
     12 H                     0.271054       0.003739
     13 O                    -0.466532      -0.000049
     14 H                     0.345959      -0.000043
     15 O                    -0.229434       0.001997
     16 O                    -0.393434      -0.000046
     17 H                     0.322318      -0.000855
     18 H                     0.383025       0.000229
     19 O                     0.066124       0.358143
     20 O                    -0.352748       0.635717
  --------------------------------------------------------
  Sum of atomic charges =    -1.000000
  Sum of spin   charges =     1.000000

 -----------------------------------------------------------------
                    Cartesian Multipole Moments
 -----------------------------------------------------------------
    Charge (ESU x 10^10)
                -4.8032
    Dipole Moment (Debye)
         X     -24.5525      Y       5.4171      Z      -8.2582
       Tot      26.4645
    Quadrupole Moments (Debye-Ang)
        XX    -206.9428     XY      16.9438     YY     -78.8896
        XZ     -33.0593     YZ       4.1157     ZZ    -104.9869
    Octopole Moments (Debye-Ang^2)
       XXX   -1549.6632    XXY     125.8319    XYY    -290.8046
       YYY     184.1929    XXZ    -217.1544    XYZ       4.8149
       YYZ     -71.9017    XZZ    -415.4555    YZZ     104.4750
       ZZZ    -259.5887
    Hexadecapole Moments (Debye-Ang^3)
      XXXX  -10679.7395   XXXY     889.7759   XXYY   -1313.3268
      XYYY     613.0476   YYYY    -678.5219   XXXZ   -1554.2703
      XXYZ      17.3839   XYYZ    -275.1188   YYYZ     155.3432
      XXZZ   -2079.0499   XYZZ     319.7737   YYZZ    -473.3144
      XZZZ   -1045.3105   YZZZ     219.7521   ZZZZ   -2087.2820
 -----------------------------------------------------------------
 Calculating analytic gradient of the SCF energy
 Gradient of CDS energy
            1           2           3           4           5           6
    1  -0.0014699   0.0022391  -0.0009424   0.0009971  -0.0001371   0.0036799
    2  -0.0013343  -0.0005535  -0.0026423   0.0029201   0.0000771   0.0013444
    3  -0.0019737  -0.0000270   0.0004356  -0.0005108  -0.0000268   0.0004082
            7           8           9          10          11          12
    1  -0.0031477   0.0001994  -0.0004352  -0.0001480   0.0000697  -0.0003355
    2  -0.0009890   0.0000823   0.0002081  -0.0001467   0.0000658  -0.0001891
    3   0.0001346   0.0000987  -0.0001879   0.0000229  -0.0001688   0.0000614
           13          14          15          16          17          18
    1  -0.0005219  -0.0000517  -0.0000182  -0.0001474  -0.0000013   0.0002783
    2   0.0019610  -0.0004428   0.0000313  -0.0001578  -0.0004329   0.0001683
    3   0.0020250  -0.0002192  -0.0000315  -0.0001704   0.0000963   0.0000271
           19          20
    1  -0.0001363   0.0000292
    2  -0.0000063   0.0000363
    3  -0.0000657   0.0000719
 Gradient of SCF Energy
            1           2           3           4           5           6
    1   0.0002282  -0.0154003   0.0456262   0.0000705  -0.0562586  -0.0047755
    2   0.0385699   0.0005864  -0.0235967  -0.0162549   0.0281170   0.0331331
    3  -0.0110680  -0.0010028  -0.0110979   0.0187599  -0.0027510   0.0440590
            7           8           9          10          11          12
    1   0.0070644  -0.0185403   0.0059043   0.0276737  -0.0066727   0.0125844
    2  -0.0090418  -0.0202745  -0.0023487   0.0084251  -0.0225023  -0.0161653
    3  -0.0025791   0.0056851   0.0044302  -0.0038443   0.0081105  -0.0243319
           13          14          15          16          17          18
    1   0.0032947   0.0025865  -0.0010067   0.0018467  -0.0045281  -0.0016848
    2  -0.0208681   0.0185664  -0.0209444   0.0205965   0.0107484  -0.0015025
    3   0.0011846  -0.0072382   0.0083296   0.0234458  -0.0249119  -0.0227542
           19          20
    1  -0.0024294   0.0044168
    2  -0.0059328   0.0006892
    3  -0.0032436   0.0008181
 Max gradient component =       5.626E-02
 RMS gradient           =       1.798E-02
 Computing fast CPCM-SWIG gradient
 Updating gradient with PCM contributions...
 -- total gradient after adding PCM contribution --
---------------------------------------------------
  Atom         X              Y              Z     
---------------------------------------------------
   1      -0.001168      -0.000101       0.000045
   2       0.000595      -0.000056      -0.000016
   3       0.000092      -0.000035       0.000082
   4       0.000034       0.000029      -0.000016
   5       0.000005       0.000002       0.000010
   6       0.000090       0.000159      -0.000071
   7      -0.000047      -0.000028      -0.000047
   8       0.000191       0.000172      -0.000077
   9       0.000035      -0.000003       0.000004
  10       0.000016       0.000015       0.000004
  11       0.000011      -0.000000      -0.000002
  12       0.000022      -0.000002      -0.000004
  13       0.000118      -0.000041      -0.000051
  14      -0.000031       0.000021       0.000024
  15       0.000084      -0.000046       0.000030
  16       0.000003      -0.000033      -0.000084
  17      -0.000041       0.000013       0.000010
  18      -0.000007       0.000003       0.000102
  19      -0.000020      -0.000096       0.000052
  20       0.000018       0.000027       0.000006
---------------------------------------------------
 Number of fixed atoms: 0
 Gradient time:  CPU 490.43 s  wall 39.64 s
 ----------------------------------------------------------------
             Standard Nuclear Orientation (Angstroms)
    I     Atom           X                Y                Z
 ----------------------------------------------------------------
    1      C       3.0566807000    -0.6430855000    -1.2434678000
    2      O       1.6708130000    -0.4214322000    -1.1323478000
    3      C       3.5731200000    -1.0625794000     0.1400414000
    4      O       3.0903007000    -2.3586694000     0.3636560000
    5      C       3.1525753000    -0.0599283000     1.2170720000
    6      C       3.9357118000    -0.0590888000     2.5309354000
    7      O       5.2147723000     0.2510215000     2.4857449000
    8      H       3.5732325000     0.2611511000    -1.5586033000
    9      H       1.3761075000     0.0256945000    -1.9337089000
   10      H       2.1014229000    -0.2456045000     1.4298959000
   11      H       3.2216433000     0.9521538000     0.8165849000
   12      H       3.3530913000     0.4553904000     3.3051097000
   13      O       3.3462661000    -1.6214513000    -2.2121262000
   14      H       3.0428731000    -2.4733526000    -1.8699843000
   15      O       4.9927252000    -1.2430738000     0.0560527000
   16      O       5.6354988000     0.0346103000     0.0431022000
   17      H       3.3361366000    -2.6313002000     1.2569913000
   18      H       5.6002278000     0.2300318000     1.0581701000
   19      O       3.8400394000    -1.5438193000     3.0689214000
   20      O       2.6931132000    -1.7961176000     3.6279366000
 ----------------------------------------------------------------
 Nuclear Repulsion Energy =         838.07028853 hartrees
 There are       49 alpha and       48 beta electrons
 Discretize the solute cavity surface with Lebedev spheres
	Using 110 Lebedev grid points for each H atom
	Using 194 Lebedev grid points for other atoms
	Atomic van der Waals radii will be scaled by 1.20
 Remove points where switching function is < 1.0e-08
 Keep 1574 surface tesserae and discard 1634 interior tesserae
 Molecular Surface Area = 172.757 Angst**2
 Requested basis set is 6-311++G(2df,2p)
 There are 144 shells and 488 basis functions
 A cutoff of  1.0D-12 yielded   9041 shell pairs
 There are    102847 function pairs (    128511 Cartesian)
 Smallest overlap matrix eigenvalue = 5.06E-06
 Guess MOs from SCF MO coefficient file

 -----------------------------------------------------------------------
  General SCF calculation program by
  Eric Jon Sundstrom, Paul Horn, Yuezhi Mao, Dmitri Zuev, Alec White,
  David Stuck, Shaama M.S., Shane Yost, Joonho Lee, David Small,
  Daniel Levine, Susi Lehtola, Hugh Burton, Evgeny Epifanovsky,
  Bang C. Huynh
 -----------------------------------------------------------------------
 Exchange:     0.1500 Hartree-Fock + 1.0000 wB97M-V + LR-HF
 Correlation:  1.0000 wB97M-V
 Using SG-2 standard quadrature grid
 Nonlocal Correlation:  VV10 with C = 0.0100 and b = 6.00 and scale = 1.00000
 Grid used for NLC:  SG-1 standard quadrature
 
 Citation of the SMD model:
 Marenich, A.V.; Cramer, C.J.; Truhlar, D.G.
 J. Phys. Chem. B 2009, 113, 6378-6396.
 iSolventCode=           1
 Solvent: water                                                           
 
 vradii
            1           2           3           4           5           6
    1   1.8500000   1.5200000   1.8500000   1.5200000   1.8500000   1.8500000
            7           8           9          10          11          12
    1   1.5200000   1.2000000   1.2000000   1.2000000   1.2000000   1.2000000
           13          14          15          16          17          18
    1   1.5200000   1.2000000   1.5200000   1.5200000   1.2000000   1.2000000
           19          20
    1   1.5200000   1.5200000
 -------------------------------------------------------
 OpenMP BLAS3 based DFT computing Module                
 Release: version 1.0, May 2013, Q-Chem Inc. Pittsburgh 
 -------------------------------------------------------
 A unrestricted SCF calculation will be
 performed using Roothaan-Hall, DIIS, GDM
 SCF converges when RMS gradient is below 1.0e-07
 ---------------------------------------
  Cycle       Energy         DIIS error
 ---------------------------------------
    1    -758.9122845163      2.09e-04  Roothaan Step
 ---------------------------------------
  Cycle       Energy         DIIS error
 ---------------------------------------
    1    -759.0239146588      2.26e-04  
    2    -759.0307191570      1.92e-04  Done DIIS. Switching to GDM
 ---------------------------------------
  Cycle       Energy        RMS Gradient
 ---------------------------------------
    1    -759.0307191570      7.49e-03   Normal BFGS step
    2    -759.0302465378      1.08e-02  Line search: overstep
    3    -759.0335741314      1.82e-03   Normal BFGS step
    4    -759.0337960944      9.57e-04   Normal BFGS step
    5    -759.0338351825      1.12e-03   Normal BFGS step
    6    -759.0338444405      3.15e-04   Normal BFGS step
    7    -759.0338456459      2.41e-04   Normal BFGS step
    8    -759.0338461525      4.35e-05   Normal BFGS step
    9    -759.0338461892      7.31e-05   Normal BFGS step
   10    -759.0338462182      2.98e-05   Normal BFGS step
   11    -759.0338462262      2.94e-05   Normal BFGS step
   12    -759.0338462323      2.59e-05   Normal BFGS step
   13    -759.0338462353      1.87e-05   Normal BFGS step
   14    -759.0338462373      1.41e-05   Normal BFGS step
   15    -759.0338462389      8.36e-06   Normal BFGS step
   16    -759.0338462395      5.00e-06   Normal BFGS step
   17    -759.0338462396      2.16e-06   Normal BFGS step
   18    -759.0338462396      7.36e-07   Normal BFGS step
   19    -759.0338462397      2.42e-07   Normal BFGS step
   20    -759.0338462396      9.62e-08  Convergence criterion met
 ---------------------------------------
 SCF time:   CPU 3521.34s  wall 241.00s 
<S^2> =          0.754410845
[...]
 Force Cnst:      1.5359                 1.0964                 1.4397
 Red. Mass:       1.8669                 1.3002                 1.6348
 IR Active:          YES                    YES                    YES
 IR Intens:      146.572                278.371                106.109
 Raman Active:       YES                    YES                    YES
               X      Y      Z        X      Y      Z        X      Y      Z
 C          0.114  0.037  0.053   -0.016 -0.017 -0.007    0.006  0.062  0.042
 O         -0.127  0.008  0.020    0.022 -0.001 -0.019   -0.017 -0.007  0.046
 C          0.036 -0.076 -0.059   -0.079  0.031  0.009   -0.114  0.098  0.060
 O          0.006  0.032 -0.006    0.010 -0.005  0.001   -0.007 -0.047 -0.003
 C         -0.011  0.017  0.007    0.029 -0.009 -0.008    0.030 -0.019 -0.022
 C         -0.001  0.004 -0.001   -0.076  0.028  0.017   -0.017  0.005  0.026
 O         -0.004 -0.000  0.002    0.065  0.009 -0.007    0.022  0.002 -0.009
 H          0.299  0.138  0.648    0.245 -0.083  0.226   -0.371  0.203 -0.156
 H          0.022  0.006 -0.045   -0.374  0.000  0.132    0.704 -0.008 -0.229
 H          0.002  0.041  0.091   -0.033 -0.186 -0.452   -0.003 -0.121 -0.262
 H          0.025  0.071  0.147    0.005  0.202  0.512   -0.041  0.014  0.053
 H          0.010  0.007  0.008   -0.138  0.279 -0.202   -0.110  0.164 -0.150
 O          0.033 -0.076 -0.103   -0.005  0.006  0.009    0.020 -0.053 -0.071
 H         -0.187  0.233  0.520    0.021 -0.015 -0.024   -0.078  0.066  0.157
 O         -0.032  0.009  0.005    0.031 -0.003  0.004    0.047 -0.010 -0.007
 O          0.007  0.006 -0.004   -0.005 -0.004 -0.001   -0.008 -0.006  0.005
 H          0.023  0.083  0.006   -0.061 -0.122 -0.017    0.054  0.092  0.028
 H          0.016 -0.016  0.011    0.007 -0.009  0.007   -0.010  0.015 -0.015
 O          0.001  0.001 -0.000    0.008 -0.037 -0.005    0.008 -0.017 -0.004
 O         -0.001  0.000  0.000    0.002  0.007 -0.002   -0.002  0.002  0.000
 TransDip   0.252  0.117  0.271   -0.528 -0.049  0.068   -0.079  0.248  0.202

 Mode:                34                     35                     36
 Frequency:      1255.62                1262.59                1280.86
 Force Cnst:      1.6943                 2.4830                 2.4099
 Red. Mass:       1.8240                 2.6437                 2.4931
 IR Active:          YES                    YES                    YES
 IR Intens:      178.212                353.940                324.670
 Raman Active:       YES                    YES                    YES
               X      Y      Z        X      Y      Z        X      Y      Z
 C          0.159  0.037  0.045   -0.022 -0.011  0.005    0.192 -0.095 -0.112
 O         -0.112 -0.000 -0.006    0.014  0.000 -0.001   -0.135 -0.002  0.040
 C          0.002  0.091  0.068   -0.018  0.073 -0.001   -0.040 -0.012 -0.022
 O         -0.041 -0.072 -0.035    0.000 -0.024  0.014    0.026  0.027  0.032
 C          0.009 -0.001  0.023   -0.035 -0.027 -0.032   -0.012 -0.017 -0.072
 C          0.028 -0.007 -0.022    0.266  0.006 -0.040    0.016 -0.007  0.075
 O         -0.013 -0.003  0.005   -0.168 -0.023  0.028   -0.011  0.004 -0.012
 H          0.381 -0.165 -0.188    0.018  0.007  0.120    0.189 -0.200 -0.413
 H         -0.231  0.028  0.052   -0.028 -0.003  0.015    0.329  0.032 -0.123
 H         -0.020 -0.091 -0.213   -0.100 -0.162 -0.493    0.033  0.110  0.265
 H         -0.007 -0.076 -0.164    0.124  0.124  0.364   -0.000  0.081  0.177
 H          0.015 -0.053 -0.005    0.519 -0.055  0.210   -0.064  0.342 -0.203
 O         -0.018 -0.016  0.007    0.004 -0.002 -0.010   -0.019  0.090  0.076
 H          0.141 -0.212 -0.372   -0.029  0.040  0.073    0.014  0.045 -0.014
 O          0.008 -0.004 -0.010    0.007 -0.018 -0.005   -0.004  0.000 -0.005
 O         -0.004 -0.003  0.003   -0.002  0.001  0.019    0.002  0.003 -0.000
 H          0.257  0.546  0.088   -0.089 -0.200 -0.018   -0.191 -0.428 -0.058
 H         -0.034  0.051 -0.020   -0.066  0.151 -0.107    0.008 -0.043  0.004
 O          0.017  0.012 -0.006   -0.095  0.039  0.027   -0.055 -0.035  0.021
 O         -0.018 -0.006  0.009    0.074  0.003 -0.032    0.059  0.015 -0.029
 TransDip   0.350  0.245 -0.028    0.518  0.241 -0.191    0.383 -0.400 -0.161

 Mode:                37                     38                     39
 Frequency:      1291.34                1313.51                1340.23
 Force Cnst:      7.1026                 1.5236                 2.0226
 Red. Mass:       7.2291                 1.4988                 1.9112
 IR Active:          YES                    YES                    YES
 IR Intens:       15.060                111.701                 14.884
 Raman Active:       YES                    YES                    YES
               X      Y      Z        X      Y      Z        X      Y      Z
 C          0.027 -0.062 -0.053   -0.041  0.054  0.065    0.022  0.189  0.081
 O         -0.018  0.002  0.010    0.031  0.003 -0.020   -0.015 -0.014  0.004
 C         -0.004  0.005 -0.002    0.061  0.022  0.014   -0.034 -0.121 -0.023
 O          0.012  0.013  0.017   -0.013 -0.016 -0.005    0.027  0.050  0.016
 C         -0.028 -0.014 -0.052   -0.035  0.013 -0.064   -0.008 -0.017 -0.078
 C          0.137  0.007  0.031    0.048 -0.056  0.086   -0.001  0.030  0.007
 O         -0.124 -0.027  0.018   -0.047  0.008 -0.002    0.003 -0.004 -0.001
 H         -0.001 -0.055 -0.073   -0.048  0.067  0.083    0.020  0.118 -0.149
 H          0.080  0.007 -0.025   -0.194 -0.006  0.063    0.097 -0.004 -0.034
 H         -0.014 -0.043 -0.024    0.025  0.109  0.322    0.022  0.043  0.132
 H          0.092  0.090  0.226   -0.016 -0.009 -0.118    0.032  0.175  0.409
 H          0.361  0.465 -0.103    0.093  0.753 -0.403    0.027 -0.186  0.172
 O         -0.002  0.042  0.024    0.002 -0.040 -0.023   -0.012 -0.081 -0.005
 H         -0.045  0.095  0.127    0.033 -0.084 -0.116    0.196 -0.367 -0.581
 O         -0.006 -0.005 -0.003   -0.006 -0.002  0.000   -0.008  0.008  0.002
 O          0.001  0.002  0.006    0.000  0.001 -0.005    0.005  0.002  0.000
 H         -0.098 -0.300 -0.051    0.046  0.100  0.016   -0.101 -0.259 -0.049
 H         -0.026  0.040 -0.046   -0.017 -0.035  0.011    0.017 -0.008 -0.000
 O          0.386  0.080 -0.200   -0.016 -0.044  0.004    0.008  0.013 -0.006
 O         -0.371 -0.078  0.183    0.028  0.009 -0.015   -0.011 -0.003  0.006
 TransDip   0.123 -0.008 -0.018   -0.002  0.156  0.300   -0.021 -0.108 -0.055

 Mode:                40                     41                     42
 Frequency:      1354.88                1389.52                1411.99
 Force Cnst:      2.0369                 1.8955                 1.8295
 Red. Mass:       1.8833                 1.6663                 1.5574
 IR Active:          YES                    YES                    YES
 IR Intens:      139.913                 59.958                 98.463
 Raman Active:       YES                    YES                    YES
               X      Y      Z        X      Y      Z        X      Y      Z
 C         -0.018 -0.014  0.029   -0.038  0.063 -0.010   -0.004 -0.026  0.007
 O          0.007  0.002 -0.009   -0.014 -0.021  0.021    0.001  0.002 -0.003
 C          0.043  0.184 -0.005   -0.000  0.136 -0.128   -0.005  0.086  0.049
 O         -0.017 -0.061  0.018    0.005 -0.028  0.046   -0.011 -0.030 -0.007
 C         -0.041 -0.073 -0.110    0.030 -0.010  0.085    0.019 -0.060 -0.110
 C          0.061  0.055  0.075   -0.048 -0.019 -0.031   -0.132  0.003 -0.040
 O          0.014 -0.017 -0.031    0.005  0.007  0.011    0.026  0.014  0.024
 H          0.089 -0.021  0.174    0.421 -0.079  0.284    0.019 -0.049 -0.018
 H         -0.111 -0.001  0.035    0.230 -0.009 -0.069   -0.038  0.002  0.013
 H          0.014  0.212  0.384   -0.027  0.124 -0.074    0.114  0.021  0.398
 H          0.092  0.032  0.163   -0.138 -0.184 -0.392    0.141  0.060  0.230
 H         -0.615 -0.477 -0.056    0.221  0.124  0.062    0.659  0.074  0.469
 O          0.003 -0.008 -0.016   -0.003 -0.025  0.005    0.004  0.007 -0.013
 H         -0.017  0.015  0.031    0.075 -0.132 -0.207   -0.033  0.062  0.103
 O          0.015 -0.023 -0.004    0.017 -0.012  0.010    0.015 -0.004 -0.001
 O         -0.009  0.001  0.008   -0.006 -0.002 -0.005   -0.002 -0.003 -0.013
 H         -0.064 -0.164 -0.003   -0.202 -0.462 -0.043    0.040  0.099  0.023
 H          0.023 -0.000 -0.029   -0.020 -0.036  0.028   -0.067 -0.048  0.065
 O          0.005  0.022 -0.009    0.008 -0.007 -0.002    0.001 -0.006  0.006
 O         -0.015 -0.005  0.007   -0.004  0.000  0.003    0.005  0.004 -0.003
 TransDip   0.197  0.314  0.078   -0.140  0.004 -0.205   -0.253  0.103  0.162

 Mode:                43                     44                     45
 Frequency:      1435.34                1439.02                1487.03
 Force Cnst:      1.3853                 1.5404                 2.6590
 Red. Mass:       1.1412                 1.2625                 2.0409
 IR Active:          YES                    YES                    YES
 IR Intens:        4.325                101.026                 46.925
 Raman Active:       YES                    YES                    YES
               X      Y      Z        X      Y      Z        X      Y      Z
 C         -0.062  0.035 -0.002   -0.104  0.045  0.051    0.086 -0.028  0.221
 O          0.003 -0.015  0.012    0.009 -0.020  0.008   -0.003  0.022 -0.043
 C         -0.002 -0.009 -0.003    0.016 -0.039  0.023   -0.054  0.036 -0.143
 O          0.001  0.001 -0.000   -0.001  0.008 -0.009    0.013 -0.000  0.031
 C         -0.056  0.055 -0.001    0.020 -0.023 -0.015    0.002  0.011  0.042
 C          0.001  0.006  0.005    0.016 -0.003  0.006   -0.017  0.004 -0.008
 O          0.004 -0.002 -0.003   -0.006 -0.001 -0.001    0.004  0.001  0.002
 H          0.314 -0.209 -0.105    0.491 -0.458 -0.420   -0.313 -0.106 -0.583
 H          0.148 -0.001 -0.037    0.120  0.001 -0.025   -0.447  0.012  0.127
 H          0.104 -0.612  0.160   -0.059  0.319 -0.074    0.014 -0.114 -0.018
 H          0.615 -0.035 -0.086   -0.321  0.057  0.111    0.103 -0.071 -0.140
 H         -0.081  0.001 -0.046   -0.019 -0.008 -0.016    0.032 -0.001  0.029
 O          0.010  0.003 -0.008    0.027  0.013 -0.037    0.015 -0.005 -0.057
 H         -0.006  0.035  0.060   -0.059  0.155  0.260   -0.084  0.136  0.232
 O          0.002  0.001  0.002   -0.002  0.002  0.000    0.011 -0.005  0.008
 O          0.000 -0.000  0.001    0.001  0.001  0.001   -0.001  0.001 -0.002
 H         -0.001  0.002  0.000    0.039  0.095  0.009   -0.131 -0.305 -0.032
 H          0.000  0.007 -0.005    0.011  0.007 -0.005   -0.017 -0.036  0.016
 O         -0.001 -0.003  0.002   -0.001  0.002 -0.001    0.002 -0.001 -0.001
 O          0.002  0.001 -0.001   -0.000 -0.001  0.000   -0.002  0.000  0.001
 TransDip   0.045 -0.022  0.043   -0.157  0.204  0.193   -0.151  0.016  0.159

 Mode:                46                     47                     48
 Frequency:      1604.91                2449.11                2999.37
 Force Cnst:      1.6806                 3.8462                 5.7479
 Red. Mass:       1.1075                 1.0883                 1.0844
 IR Active:          YES                    YES                    YES
 IR Intens:      197.840               2383.341                 93.820
 Raman Active:       YES                    YES                    YES
               X      Y      Z        X      Y      Z        X      Y      Z
 C          0.002 -0.001  0.004    0.000  0.000 -0.001    0.000 -0.000  0.000
 O         -0.001  0.000 -0.001    0.000 -0.000  0.000   -0.000 -0.000 -0.000
 C          0.007  0.002 -0.009   -0.007  0.001  0.001   -0.000  0.001  0.001
 O          0.001  0.000  0.002    0.002  0.001  0.000    0.000 -0.000 -0.000
 C          0.002  0.001 -0.001   -0.002 -0.001 -0.001   -0.003  0.002 -0.000
 C         -0.032 -0.009  0.007    0.014  0.008  0.006    0.040 -0.039 -0.061
 O          0.008 -0.005 -0.016   -0.012 -0.004  0.009    0.002  0.001  0.001
 H         -0.004 -0.000 -0.005   -0.001 -0.002  0.000   -0.000 -0.000  0.000
 H         -0.008  0.000  0.002    0.002 -0.000  0.000    0.000 -0.000 -0.000
 H          0.007  0.008  0.043   -0.003 -0.003 -0.012    0.045  0.010 -0.014
 H         -0.002 -0.003 -0.010    0.001 -0.001  0.002   -0.005 -0.035  0.012
 H          0.042  0.052  0.033   -0.010 -0.029 -0.036   -0.513  0.466  0.712
 O          0.000 -0.000 -0.001    0.000  0.000  0.000   -0.000 -0.000 -0.000
 H         -0.000  0.001  0.002   -0.000  0.000 -0.001   -0.000 -0.000  0.000
 O         -0.013 -0.028 -0.027    0.004 -0.000 -0.003    0.000  0.000 -0.000
 O         -0.018 -0.013  0.056   -0.003 -0.020 -0.067    0.000 -0.000 -0.002
 H         -0.006 -0.013 -0.001   -0.003  0.001 -0.002    0.000  0.001  0.001
 H          0.558  0.778 -0.261    0.109  0.322  0.936   -0.004  0.004  0.035
 O          0.001 -0.003  0.000   -0.001 -0.001  0.000    0.001 -0.001 -0.000
 O          0.001  0.001 -0.001   -0.001 -0.001  0.000   -0.001  0.000  0.000
 TransDip   0.182  0.120 -0.394   -0.173  0.333  1.518    0.220 -0.139 -0.169

 Mode:                49                     50                     51
 Frequency:      3087.46                3116.90                3136.27
 Force Cnst:      5.9750                 6.2281                 6.3797
 Red. Mass:       1.0639                 1.0881                 1.1008
 IR Active:          YES                    YES                    YES
 IR Intens:        9.728                 29.599                 10.829
 Raman Active:       YES                    YES                    YES
               X      Y      Z        X      Y      Z        X      Y      Z
 C          0.001  0.001 -0.000   -0.038 -0.072  0.026   -0.002 -0.003  0.001
 O         -0.000  0.000  0.000   -0.000  0.001 -0.001   -0.000  0.000 -0.000
 C         -0.000  0.000  0.001   -0.001 -0.000 -0.000   -0.001 -0.001  0.000
 O         -0.000  0.000 -0.000   -0.000  0.000 -0.000    0.000  0.000 -0.000
 C          0.038 -0.058  0.017    0.004  0.001 -0.001   -0.070 -0.051  0.030
 C          0.002 -0.003 -0.004    0.000  0.000 -0.000   -0.001 -0.000  0.002
 O          0.000  0.000 -0.000    0.000  0.000 -0.000    0.000  0.000 -0.000
 H         -0.010 -0.017  0.005    0.462  0.830 -0.296    0.018  0.034 -0.013
 H         -0.000  0.000  0.000   -0.002  0.001  0.006    0.001 -0.001 -0.000
 H         -0.505 -0.101  0.108   -0.043 -0.007  0.008    0.820  0.141 -0.166
 H          0.062  0.782 -0.315   -0.000 -0.003  0.003    0.024  0.482 -0.192
 H         -0.025  0.024  0.041   -0.001  0.001  0.002    0.011 -0.008 -0.016
 O         -0.000  0.000 -0.000    0.001  0.001 -0.001    0.000  0.000 -0.000
 H          0.000 -0.000  0.000   -0.008 -0.011  0.013   -0.000 -0.001  0.001
 O         -0.000 -0.000 -0.000    0.000 -0.000  0.000    0.000 -0.000 -0.000
 O         -0.000  0.000 -0.000   -0.000  0.000 -0.000   -0.000  0.000  0.000
 H          0.000  0.001  0.001    0.000  0.001  0.000   -0.000  0.001  0.001
 H          0.000 -0.000  0.004   -0.001  0.001  0.002    0.003 -0.000 -0.001
 O         -0.000  0.000 -0.000    0.000  0.000 -0.000   -0.000  0.000 -0.000
 O         -0.000  0.000 -0.000   -0.000  0.000 -0.000    0.000 -0.000  0.000
 TransDip   0.052 -0.085  0.008   -0.111 -0.134  0.012   -0.086 -0.057  0.020

 Mode:                52                     53                     54
 Frequency:      3776.35                3790.29                3825.94
 Force Cnst:      8.9538                 9.0245                 9.1995
 Red. Mass:       1.0656                 1.0662                 1.0667
 IR Active:          YES                    YES                    YES
 IR Intens:      139.186                232.584                134.086
 Raman Active:       YES                    YES                    YES
               X      Y      Z        X      Y      Z        X      Y      Z
 C         -0.001 -0.002  0.001   -0.000 -0.000  0.000    0.000  0.001 -0.001
 O          0.000 -0.000  0.001   -0.000  0.000 -0.000   -0.021  0.029 -0.051
 C         -0.000  0.000  0.000   -0.000  0.000 -0.001    0.000 -0.000  0.000
 O          0.000 -0.000  0.001   -0.015  0.019 -0.057    0.000 -0.000  0.000
 C          0.000 -0.000  0.000   -0.000 -0.000  0.000    0.000  0.000  0.000
 C         -0.000  0.000 -0.000   -0.000 -0.000  0.000   -0.000  0.000 -0.000
 O          0.000 -0.000  0.000    0.000  0.000 -0.000    0.000 -0.000  0.000
 H          0.007  0.014 -0.003    0.000 -0.000  0.001    0.002 -0.004  0.002
 H         -0.007  0.010 -0.018    0.002 -0.002  0.004    0.315 -0.466  0.824
 H         -0.000  0.000  0.000    0.000  0.001  0.000   -0.000 -0.000  0.000
 H          0.000  0.000 -0.000   -0.000 -0.002 -0.001   -0.000 -0.000  0.000
 H          0.000  0.000  0.000   -0.000  0.001 -0.001   -0.000  0.000  0.000
 O         -0.019 -0.055  0.020   -0.000 -0.001  0.001   -0.000 -0.001  0.000
 H          0.308  0.888 -0.334    0.008  0.022 -0.009    0.006  0.020 -0.007
 O          0.000 -0.000  0.000   -0.000 -0.000 -0.000    0.000 -0.000  0.000
 O         -0.000  0.000  0.000   -0.000 -0.000 -0.000    0.000 -0.000  0.000
 H         -0.006  0.007 -0.024    0.240 -0.296  0.922   -0.001  0.002 -0.005
 H         -0.000 -0.000 -0.000    0.000  0.001  0.003   -0.000 -0.000 -0.000
 O          0.000 -0.000 -0.000   -0.000  0.000  0.000   -0.000 -0.000  0.000
 O         -0.000 -0.000  0.000    0.000 -0.000 -0.000   -0.000  0.000  0.000
 TransDip   0.068  0.357 -0.105    0.038 -0.165  0.458    0.192 -0.177  0.264

 STANDARD THERMODYNAMIC QUANTITIES AT   298.15 K  AND     1.00 ATM

   This Molecule has  0 Imaginary Frequencies
   Zero point vibrational energy:       89.563 kcal/mol

   Atom    1 Element C  Has Mass   12.00000
   Atom    2 Element O  Has Mass   15.99491
   Atom    3 Element C  Has Mass   12.00000
   Atom    4 Element O  Has Mass   15.99491
   Atom    5 Element C  Has Mass   12.00000
   Atom    6 Element C  Has Mass   12.00000
   Atom    7 Element O  Has Mass   15.99491
   Atom    8 Element H  Has Mass    1.00783
   Atom    9 Element H  Has Mass    1.00783
   Atom   10 Element H  Has Mass    1.00783
   Atom   11 Element H  Has Mass    1.00783
   Atom   12 Element H  Has Mass    1.00783
   Atom   13 Element O  Has Mass   15.99491
   Atom   14 Element H  Has Mass    1.00783
   Atom   15 Element O  Has Mass   15.99491
   Atom   16 Element O  Has Mass   15.99491
   Atom   17 Element H  Has Mass    1.00783
   Atom   18 Element H  Has Mass    1.00783
   Atom   19 Element O  Has Mass   15.99491
   Atom   20 Element O  Has Mass   15.99491
   Molecular Mass:   184.021920 amu
   Principal axes and moments of inertia in amu*Bohr^2:
                             1           2           3
    Eigenvalues --     1274.12874  2579.06965  3092.72232
          X               0.19045     0.87732    -0.44050
          Y               0.04226     0.44097     0.89653
          Z               0.98079    -0.18936     0.04691
   Rotational Symmetry Number is   1
   The Molecule is an Asymmetric Top
   Translational Enthalpy:        0.889 kcal/mol
   Rotational Enthalpy:           0.889 kcal/mol
   Vibrational Enthalpy:         95.730 kcal/mol
   gas constant (RT):             0.592 kcal/mol
   Translational Entropy:        41.536  cal/mol.K
   Rotational Entropy:           30.697  cal/mol.K
   Vibrational Entropy:          37.666  cal/mol.K

   Total Enthalpy:               98.100 kcal/mol
   Total Entropy:               109.899  cal/mol.K
 Total job time:  36862.13s(wall), 519398.45s(cpu) 
 Mon Aug 19 16:57:23 2024

        *************************************************************
        *                                                           *
        *  Thank you very much for using Q-Chem.  Have a nice day.  *
        *                                                           *
        *************************************************************


