
Running Job 1 of 1 Q_in.in
qchem Q_in.in_24914.0 /scratch/ari.fischer/qChem2275097.hpc-mn1/qchem24914/ 0
/usr/local/qchem-5.4.1/exe/qcprog.exe_s Q_in.in_24914.0 /scratch/ari.fischer/qChem2275097.hpc-mn1/qchem24914/
                  Welcome to Q-Chem
     A Quantum Leap Into The Future Of Chemistry


 Q-Chem 5.4, Q-Chem, Inc., Pleasanton, CA (2021)

 License issued to: Nanyang Technological University (site)

 E. Epifanovsky,  A. T. B. Gilbert,  Xintian Feng,  Joonho Lee,  Yuezhi Mao,  
 N. Mardirossian,  P. Pokhilko,  A. White,  M. Wormit,  M. P. Coons,  
 A. L. Dempwolff,  Zhengting Gan,  D. Hait,  P. R. Horn,  L. D. Jacobson,  
 I. Kaliman,  J. Kussmann,  A. W. Lange,  Ka Un Lao,  D. S. Levine,  Jie Liu,  
 S. C. McKenzie,  A. F. Morrison,  K. Nanda,  F. Plasser,  D. R. Rehn,  
 M. L. Vidal,  Zhi-Qiang You,  Ying Zhu,  B. Alam,  B. Albrecht,  
 A. Aldossary,  E. Alguire,  J. H. Andersen,  D. Barton,  K. Begam,  A. Behn,  
 Y. A. Bernard,  E. J. Berquist,  H. Burton,  A. Carreras,  K. Carter-Fenk,  
 R. Chakraborty,  A. D. Chien,  K. D. Closser,  V. Cofer-Shabica,  
 S. Dasgupta,  Jia Deng,  M. de Wergifosse,  M. Diedenhofen,  Hainam Do,  
 S. Ehlert,  Po-Tung Fang,  S. Fatehi,  Qingguo Feng,  T. Friedhoff,  
 J. Gayvert,  Qinghui Ge,  G. Gidofalvi,  M. Goldey,  J. Gomes,  
 C. Gonzalez-Espinoza,  S. Gulania,  A. Gunina,  M. W. D. Hanson-Heine,  
 P. H. P. Harbach,  A. W. Hauser,  M. F. Herbst,  M. Hernandez Vera,  
 M. Hodecker,  Z. C. Holden,  S. Houck,  Xunkun Huang,  Kerwin Hui,  
 B. C. Huynh,  M. Ivanov,  Hyunjun Ji,  Hanjie Jiang,  B. Kaduk,  S. Kaehler,  
 K. Khistyaev,  Jaehoon Kim,  P. Klunzinger,  Z. Koczor-Benda,  
 Joong Hoon Koh,  D. Kosenkov,  L. Koulias,  T. Kowalczyk,  C. M. Krauter,  
 K. Kue,  A. Kunitsa,  T. Kus,  A. Landau,  K. V. Lawler,  D. Lefrancois,  
 S. Lehtola,  Rain Li,  Yi-Pei Li,  Jiashu Liang,  M. Liebenthal,  
 Hung-Hsuan Lin,  You-Sheng Lin,  Fenglai Liu,  Kuan-Yu Liu,  
 M. Loipersberger,  A. Luenser,  A. Manjanath,  P. Manohar,  E. Mansoor,  
 S. F. Manzer,  Shan-Ping Mao,  A. V. Marenich,  T. Markovich,  S. Mason,  
 S. A. Maurer,  P. F. McLaughlin,  M. F. S. J. Menger,  J.-M. Mewes,  
 S. A. Mewes,  P. Morgante,  J. W. Mullinax,  K. J. Oosterbaan,  G. Paran,  
 Alexander C. Paul,  Suranjan K. Paul,  F. Pavosevic,  Zheng Pei,  S. Prager,  
 E. I. Proynov,  E. Ramos,  B. Rana,  A. E. Rask,  A. Rettig,  R. M. Richard,  
 F. Rob,  E. Rossomme,  T. Scheele,  M. Scheurer,  M. Schneider,  
 N. Sergueev,  S. M. Sharada,  W. Skomorowski,  D. W. Small,  C. J. Stein,  
 Yu-Chuan Su,  E. J. Sundstrom,  Zhen Tao,  J. Thirman,  T. Tsuchimochi,  
 N. M. Tubman,  S. P. Veccham,  O. Vydrov,  J. Wenzel,  J. Witte,  A. Yamada,  
 Kun Yao,  S. Yeganeh,  S. R. Yost,  A. Zech,  Igor Ying Zhang,  Xing Zhang,  
 Yu Zhang,  D. Zuev,  A. Aspuru-Guzik,  A. T. Bell,  N. A. Besley,  
 K. B. Bravaya,  B. R. Brooks,  D. Casanova,  Jeng-Da Chai,  S. Coriani,  
 C. J. Cramer,  A. E. DePrince, III,  R. A. DiStasio Jr.,  A. Dreuw,  
 B. D. Dunietz,  T. R. Furlani,  W. A. Goddard III,  S. Grimme,  
 S. Hammes-Schiffer,  T. Head-Gordon,  W. J. Hehre,  Chao-Ping Hsu,  
 T.-C. Jagau,  Yousung Jung,  A. Klamt,  Jing Kong,  D. S. Lambrecht,  
 WanZhen Liang,  N. J. Mayhall,  C. W. McCurdy,  J. B. Neaton,  
 C. Ochsenfeld,  J. A. Parkhill,  R. Peverati,  V. A. Rassolov,  Yihan Shao,  
 L. V. Slipchenko,  T. Stauch,  R. P. Steele,  J. E. Subotnik,  
 A. J. W. Thom,  A. Tkatchenko,  D. G. Truhlar,  T. Van Voorhis,  
 T. A. Wesolowski,  K. B. Whaley,  H. L. Woodcock III,  P. M. Zimmerman,  
 S. Faraji,  P. M. W. Gill,  M. Head-Gordon,  J. M. Herbert,  A. I. Krylov

 Additional authors for Version 5.4.1: 
 S. Kotaru,  Shaozhi Li,  Xiangyuan Li,  F. Matz,  A. Molle,  Haisheng Ren,  
 Yingli Su,  Hung-Yi Tsai,  C. Utku,  Fang Wang

 Contributors to earlier versions of Q-Chem not listed above: 
 R. D. Adamson,  B. Austin,  R. Baer,  J. Baker,  G. J. O. Beran,  
 K. Brandhorst,  S. T. Brown,  E. F. C. Byrd,  A. K. Chakraborty,  
 G. K. L. Chan,  Chun-Min Chang,  Yunqing Chen,  C.-L. Cheng,  
 Siu Hung Chien,  D. M. Chipman,  D. L. Crittenden,  H. Dachsel,  
 R. J. Doerksen,  A. D. Dutoi,  R. G. Edgar,  J. Fosso-Tande,  
 L. Fusti-Molnar,  D. Ghosh,  A. Ghysels,  A. Golubeva-Zadorozhnaya,  
 J. Gonthier,  M. S. Gordon,  S. R. Gwaltney,  G. Hawkins,  J. E. Herr,  
 A. Heyden,  S. Hirata,  E. G. Hohenstein,  G. Kedziora,  F. J. Keil,  
 C. Kelley,  Jihan Kim,  R. A. King,  R. Z. Khaliullin,  P. P. Korambath,  
 W. Kurlancheek,  A. Laurent,  A. M. Lee,  M. S. Lee,  S. V. Levchenko,  
 Ching Yeh Lin,  D. Liotard,  E. Livshits,  R. C. Lochan,  I. Lotan,  
 L. A. Martinez-Martinez,  P. E. Maslen,  N. Nair,  D. P. O'Neill,  
 D. Neuhauser,  E. Neuscamman,  C. M. Oana,  R. Olivares-Amaya,  R. Olson,  
 T. M. Perrine,  B. Peters,  P. A. Pieniazek,  A. Prociuk,  Y. M. Rhee,  
 J. Ritchie,  M. A. Rohrdanz,  E. Rosta,  N. J. Russ,  H. F. Schaefer III,  
 M. W. Schmidt,  N. E. Schultz,  S. Sharma,  N. Shenvi,  C. D. Sherrill,  
 A. C. Simmonett,  A. Sodt,  T. Stein,  D. Stuck,  K. S. Thanthiriwatte,  
 V. Vanovschi,  L. Vogt,  Tao Wang,  A. Warshel,  M. A. Watson,  
 C. F. Williams,  Q. Wu,  X. Xu,  Jun Yang,  W. Zhang,  Yan Zhao

 Please cite Q-Chem as follows:
 Y. Shao et al., Mol. Phys. 113, 184-215 (2015)
 DOI: 10.1080/00268976.2014.952696

 Q-Chem 5.4.1 for Intel X86 EM64T Linux

 Parts of Q-Chem use Armadillo 9.800.1 (Horizon Scraper).
 http://arma.sourceforge.net/

 Q-Chem begins on Thu Aug 15 20:25:06 2024  

 Host: 
0

     Scratch files written to /scratch/ari.fischer/qChem2275097.hpc-mn1/qchem24914//
 Aug1521 |scratch|qcdevops|jenkins|workspace|build_RNUM 8249   
 Processing $rem in /usr/local/qchem-5.4.1/config/preferences:
 Processing $rem in /home/ari.fischer/.qchemrc:
 Symmetry turned off for PCM/SM12/SMD calculation

 Checking the input file for inconsistencies... 	...done.

--------------------------------------------------------------
User input:
--------------------------------------------------------------
$molecule
-1 2
C         3.0512042164   -0.6382400361   -1.2476012182
O         1.6634592173   -0.4196410902   -1.1293328155
C         3.5666796399   -1.0379324050    0.1414134485
O         3.0675418969   -2.3298865428    0.3765461952
C         3.1593431798   -0.0294975085    1.2224648604
C         3.9550177460   -0.0655106958    2.5348205441
O         5.2261482159    0.2382966677    2.5021955958
H         3.5702173024    0.2641681310   -1.5842176236
H         1.3633369320   -0.0528751599   -1.9773885775
H         2.1007001718   -0.2021493395    1.4351695276
H         3.2471345025    0.9888759560    0.8277620694
H         3.3638231776    0.4037300139    3.3409686887
O         3.3455386760   -1.6381147822   -2.1930496246
H         3.0616140062   -2.4779141087   -1.7874301193
O         4.9848176864   -1.2330941904    0.0613027379
O         5.6236291595    0.0567586823    0.0278028953
H         3.3594566023   -2.5884479452    1.2693355388
H         5.6085438543    0.2377629579    1.0469216178
O         3.8266883263   -1.5982088949    3.0141903714
O         2.6614571907   -1.8285293098    3.5681021878
$end

$rem
BASIS = 6-311++G(2df,2p)
GUI = 2
JOB_TYPE = Optimization
METHOD = wB97M-V
SCF_ALGORITHM = DIIS_GDM
MAX_SCF_CYCLES = 400
GEOM_OPT_MAX_CYCLES = 150
SCF_CONVERGENCE = 7
THRESH = 12
Solvent_method = SMD
$end
--------------------------------------------------------------
 ----------------------------------------------------------------
             Standard Nuclear Orientation (Angstroms)
    I     Atom           X                Y                Z
 ----------------------------------------------------------------
    1      C       3.0512042164    -0.6382400361    -1.2476012182
    2      O       1.6634592173    -0.4196410902    -1.1293328155
    3      C       3.5666796399    -1.0379324050     0.1414134485
    4      O       3.0675418969    -2.3298865428     0.3765461952
    5      C       3.1593431798    -0.0294975085     1.2224648604
    6      C       3.9550177460    -0.0655106958     2.5348205441
    7      O       5.2261482159     0.2382966677     2.5021955958
    8      H       3.5702173024     0.2641681310    -1.5842176236
    9      H       1.3633369320    -0.0528751599    -1.9773885775
   10      H       2.1007001718    -0.2021493395     1.4351695276
   11      H       3.2471345025     0.9888759560     0.8277620694
   12      H       3.3638231776     0.4037300139     3.3409686887
   13      O       3.3455386760    -1.6381147822    -2.1930496246
   14      H       3.0616140062    -2.4779141087    -1.7874301193
   15      O       4.9848176864    -1.2330941904     0.0613027379
   16      O       5.6236291595     0.0567586823     0.0278028953
   17      H       3.3594566023    -2.5884479452     1.2693355388
   18      H       5.6085438543     0.2377629579     1.0469216178
   19      O       3.8266883263    -1.5982088949     3.0141903714
   20      O       2.6614571907    -1.8285293098     3.5681021878
 ----------------------------------------------------------------
 Nuclear Repulsion Energy =         838.69249350 hartrees
 There are       49 alpha and       48 beta electrons
 Requested basis set is 6-311++G(2df,2p)
 There are 144 shells and 488 basis functions

 Total QAlloc Memory Limit 288000 MB
 Mega-Array Size       188 MB
 MEM_STATIC part       192 MB
 
 Citation of the SMD model:
 Marenich, A.V.; Cramer, C.J.; Truhlar, D.G.
 J. Phys. Chem. B 2009, 113, 6378-6396.
 iSolventCode=           1
 Solvent: water                                                           
 
 vradii
            1           2           3           4           5           6
    1   1.8500000   1.5200000   1.8500000   1.5200000   1.8500000   1.8500000
            7           8           9          10          11          12
    1   1.5200000   1.2000000   1.2000000   1.2000000   1.2000000   1.2000000
           13          14          15          16          17          18
    1   1.5200000   1.2000000   1.5200000   1.5200000   1.2000000   1.2000000
           19          20
    1   1.5200000   1.5200000
 Changing PCM_VDW_RADII to SMD_RADIUS
 Discretize the solute cavity surface with Lebedev spheres
	Using 110 Lebedev grid points for each H atom
	Using 194 Lebedev grid points for other atoms
	Atomic van der Waals radii will be scaled by 1.20
 Remove points where switching function is < 1.0e-08
 Keep 1556 surface tesserae and discard 1652 interior tesserae
 Molecular Surface Area = 172.548 Angst**2
 A cutoff of  1.0D-12 yielded   9040 shell pairs
 There are    102915 function pairs (    128608 Cartesian)
 Smallest overlap matrix eigenvalue = 5.18E-06

 Scale SEOQF with 1.000000e-02/1.000000e-01/1.000000e-01

 Standard Electronic Orientation quadrupole field applied
 Nucleus-field energy     =    -0.0000000226 hartrees
 Guess from superposition of atomic densities
 Warning:  Energy on first SCF cycle will be non-variational
 SAD guess density has 96.000000 electrons

 -----------------------------------------------------------------------
  General SCF calculation program by
  Eric Jon Sundstrom, Paul Horn, Yuezhi Mao, Dmitri Zuev, Alec White,
  David Stuck, Shaama M.S., Shane Yost, Joonho Lee, David Small,
  Daniel Levine, Susi Lehtola, Hugh Burton, Evgeny Epifanovsky,
  Bang C. Huynh
 -----------------------------------------------------------------------
 Exchange:     0.1500 Hartree-Fock + 1.0000 wB97M-V + LR-HF
 Correlation:  1.0000 wB97M-V
 Using SG-2 standard quadrature grid
 Nonlocal Correlation:  VV10 with C = 0.0100 and b = 6.00 and scale = 1.00000
 Grid used for NLC:  SG-1 standard quadrature
 
 Citation of the SMD model:
 Marenich, A.V.; Cramer, C.J.; Truhlar, D.G.
 J. Phys. Chem. B 2009, 113, 6378-6396.
 iSolventCode=           1
 Solvent: water                                                           
 
 vradii
            1           2           3           4           5           6
    1   1.8500000   1.5200000   1.8500000   1.5200000   1.8500000   1.8500000
            7           8           9          10          11          12
    1   1.5200000   1.2000000   1.2000000   1.2000000   1.2000000   1.2000000
           13          14          15          16          17          18
    1   1.5200000   1.2000000   1.5200000   1.5200000   1.2000000   1.2000000
           19          20
    1   1.5200000   1.5200000
 using 16 threads for integral computing
 -------------------------------------------------------
 OpenMP Integral computing Module                
 Release: version 1.0, May 2013, Q-Chem Inc. Pittsburgh 
 -------------------------------------------------------
 -------------------------------------------------------
 OpenMP BLAS3 based DFT computing Module                
 Release: version 1.0, May 2013, Q-Chem Inc. Pittsburgh 
 -------------------------------------------------------
 A unrestricted SCF calculation will be
 performed using DIIS, GDM
 SCF converges when RMS gradient is below 1.0e-07
 ---------------------------------------
  Cycle       Energy         DIIS error
 ---------------------------------------
    1    -760.8696942148      1.08e-02  
    2    -758.7787045396      1.65e-03  Done DIIS. Switching to GDM
 ---------------------------------------
  Cycle       Energy        RMS Gradient
 ---------------------------------------
    1    -758.7787045396      9.94e-02   Descent step
    2    -758.9861261310      2.90e-02   Normal BFGS step
    3    -759.0264960609      4.05e-02   Normal BFGS step
    4    -759.0293948969      2.48e-02   Normal BFGS step
    5    -759.0324090142      6.68e-03   Normal BFGS step
    6    -759.0325920376      3.75e-03   Normal BFGS step
    7    -759.0327078201      2.74e-03   Normal BFGS step
    8    -759.0327400885      7.34e-04   Normal BFGS step
    9    -759.0327477004      5.99e-04   Normal BFGS step
   10    -759.0327494221      3.81e-04   Normal BFGS step
   11    -759.0327497760      1.77e-04   Normal BFGS step
   12    -759.0327498935      1.49e-04   Normal BFGS step
   13    -759.0327499715      1.45e-04   Normal BFGS step
   14    -759.0327500581      1.08e-04   Normal BFGS step
   15    -759.0327501069      5.40e-05   Normal BFGS step
   16    -759.0327501321      2.01e-05   Normal BFGS step
   17    -759.0327501372      5.89e-06   Normal BFGS step
   18    -759.0327501383      2.61e-06   Normal BFGS step
   19    -759.0327501385      1.27e-06   Normal BFGS step
   20    -759.0327501385      6.95e-07   Normal BFGS step
   21    -759.0327501385      2.64e-07   Normal BFGS step
   22    -759.0327501385      4.50e-08  Convergence criterion met
 ---------------------------------------
 SCF time:   CPU 4059.55s  wall 280.00s 
<S^2> =          0.754520871
(3)  G-ENP(liq) elect-nuc-pol free energy of system     -759.032750139 a.u.
(4)  G-CDS(liq) cavity-dispersion-solvent structure 
     free energy                                                2.9389 kcal/mol
(6)  G-S(liq) free energy of system                     -759.028066777 a.u.
 SCF   energy in the final basis set =     -759.0280667772
 Total energy in the final basis set =     -759.0280667772
 
 --------------------------------------------------------------
 
                    Orbital Energies (a.u.)
 --------------------------------------------------------------
 
 Alpha MOs
 -- Occupied --
-19.4312 -19.3993 -19.3904 -19.3636 -19.3532 -19.3461 -19.3447 -19.2783
-10.4582 -10.4437 -10.4345 -10.3389  -1.3080  -1.2574  -1.2047  -1.1716
 -1.1333  -1.1177  -1.0121  -0.9554  -0.8897  -0.8228  -0.7402  -0.7117
 -0.6789  -0.6421  -0.6317  -0.6231  -0.6021  -0.5900  -0.5832  -0.5697
 -0.5655  -0.5417  -0.5299  -0.5204  -0.5049  -0.4824  -0.4732  -0.4529
 -0.4411  -0.4270  -0.4135  -0.4076  -0.3953  -0.3855  -0.3743  -0.3517
 -0.3406
 -- Virtual --
  0.0299   0.0424   0.0451   0.0504   0.0670   0.0719   0.0725   0.0766
  0.0991   0.1109   0.1167   0.1212   0.1350   0.1370   0.1401   0.1481
  0.1600   0.1609   0.1630   0.1740   0.1770   0.1857   0.1933   0.1995
  0.2037   0.2130   0.2147   0.2268   0.2387   0.2504   0.2529   0.2621
  0.2678   0.2702   0.2808   0.2849   0.2877   0.2954   0.3009   0.3061
  0.3115   0.3158   0.3249   0.3301   0.3393   0.3411   0.3486   0.3529
  0.3599   0.3616   0.3645   0.3710   0.3762   0.3840   0.3859   0.3937
  0.3981   0.4066   0.4109   0.4119   0.4158   0.4254   0.4314   0.4404
  0.4458   0.4578   0.4714   0.4720   0.4795   0.4865   0.4916   0.4984
  0.5294   0.5434   0.5510   0.5732   0.6091   0.6197   0.6281   0.6338
  0.6500   0.6549   0.6668   0.6787   0.6865   0.6924   0.7045   0.7204
  0.7305   0.7425   0.7618   0.7646   0.7774   0.7849   0.7996   0.8078
  0.8369   0.8475   0.8745   0.8884   0.9131   0.9197   0.9713   0.9729
  0.9997   1.0042   1.0232   1.0457   1.0615   1.0734   1.0828   1.0854
  1.1064   1.1243   1.1309   1.1404   1.1526   1.1622   1.1742   1.1777
  1.1842   1.1856   1.1979   1.2012   1.2130   1.2207   1.2253   1.2377
  1.2411   1.2540   1.2563   1.2731   1.2769   1.2887   1.2970   1.3072
  1.3120   1.3152   1.3337   1.3521   1.3669   1.3771   1.3858   1.4039
  1.4094   1.4169   1.4388   1.4427   1.4588   1.4638   1.4883   1.5016
  1.5107   1.5263   1.5396   1.5425   1.5495   1.5591   1.5867   1.5918
  1.5980   1.6309   1.6470   1.6599   1.6761   1.6914   1.6972   1.7099
  1.7205   1.7292   1.7572   1.7708   1.7991   1.8111   1.8267   1.8335
  1.8642   1.8828   1.9059   1.9275   1.9476   1.9585   1.9662   1.9872
  2.0207   2.0503   2.0784   2.0974   2.1246   2.1436   2.1502   2.2020
  2.2250   2.2442   2.2460   2.2547   2.2854   2.3027   2.3327   2.3727
  2.3929   2.3993   2.4200   2.4532   2.4682   2.4933   2.5133   2.5286
  2.5421   2.5760   2.6091   2.6413   2.6690   2.6984   2.7169   2.7548
  2.7944   2.8083   2.8373   2.8537   2.8848   2.8914   2.9151   2.9850
  2.9966   3.0207   3.0646   3.0893   3.1150   3.1617   3.2008   3.2108
  3.2421   3.2619   3.2896   3.2988   3.3274   3.3548   3.3903   3.4155
  3.4429   3.4490   3.4669   3.5006   3.5179   3.5318   3.5683   3.5972
  3.6052   3.6219   3.6575   3.6768   3.6783   3.6864   3.7250   3.7421
  3.7513   3.7644   3.7865   3.8050   3.8306   3.8516   3.8611   3.8659
  3.8869   3.8991   3.9230   3.9297   3.9588   3.9772   4.0019   4.0244
  4.0360   4.0671   4.0893   4.0962   4.1413   4.1629   4.1726   4.2188
  4.2294   4.2523   4.2643   4.2756   4.3024   4.3196   4.3536   4.3632
  4.3715   4.3947   4.4281   4.4469   4.4646   4.4915   4.5114   4.5526
  4.5832   4.6199   4.6414   4.6504   4.6816   4.7312   4.7383   4.7907
  4.8059   4.8286   4.8718   4.9058   4.9252   4.9684   5.0352   5.0729
  5.0987   5.1099   5.1335   5.1392   5.1700   5.2011   5.2246   5.2327
  5.2443   5.2497   5.2624   5.2745   5.2770   5.2849   5.2961   5.3067
  5.3193   5.3399   5.3428   5.3557   5.3602   5.3624   5.3776   5.3874
  5.4072   5.4125   5.4368   5.4544   5.4742   5.4872   5.4951   5.4989
  5.5288   5.5475   5.5535   5.5646   5.5834   5.5980   5.6092   5.6407
  5.6428   5.6637   5.6693   5.6893   5.7098   5.7148   5.7654   5.7827
  5.7972   5.8309   5.8505   5.9049   5.9666   5.9997   6.0308   6.0530
  6.0721   6.1169   6.1590   6.2415   6.2650   6.3124   6.4681   6.5163
  6.5551   6.5836   6.7458   6.8262   6.8407   6.8559   6.8992   6.9531
  6.9634   6.9807   7.0481   7.0636   7.0830   7.0966   7.1134   7.1470
  7.1694   7.1898   7.1970   7.2363   7.2561   7.2683   7.2827   7.3091
  7.3314   7.3557   7.4018   7.4252   7.4288   7.4522   7.4575   7.4873
  7.5050   7.5212   7.5299   7.5819   7.6047   7.6488   7.6807   7.7150
  7.7551   7.7786   7.8584   7.8651   7.8988   7.9125   7.9249   8.0397
  8.0445   8.1031   8.2535  24.6437  24.7691  24.7921  24.8531  50.4464
 50.5329  50.5647  50.6020  50.6298  50.6590  50.6974  50.7818
 
 Beta MOs
 -- Occupied --
-19.4196 -19.3904 -19.3815 -19.3636 -19.3531 -19.3461 -19.3447 -19.2784
-10.4582 -10.4437 -10.4348 -10.3387  -1.2806  -1.2571  -1.2047  -1.1715
 -1.1332  -1.1165  -1.0119  -0.9211  -0.8865  -0.8207  -0.7386  -0.7084
 -0.6782  -0.6381  -0.6295  -0.6182  -0.5815  -0.5802  -0.5670  -0.5654
 -0.5505  -0.5403  -0.5269  -0.5136  -0.4821  -0.4750  -0.4726  -0.4523
 -0.4402  -0.4268  -0.4084  -0.4044  -0.3941  -0.3763  -0.3446  -0.3370
 -- Virtual --
 -0.0170   0.0299   0.0426   0.0453   0.0505   0.0678   0.0721   0.0728
  0.0769   0.0995   0.1114   0.1178   0.1215   0.1352   0.1375   0.1405
  0.1496   0.1601   0.1616   0.1645   0.1744   0.1779   0.1861   0.1946
  0.2007   0.2041   0.2152   0.2156   0.2281   0.2394   0.2519   0.2539
  0.2643   0.2683   0.2776   0.2818   0.2851   0.2898   0.2960   0.3027
  0.3066   0.3123   0.3185   0.3251   0.3325   0.3399   0.3417   0.3502
  0.3532   0.3611   0.3618   0.3649   0.3720   0.3777   0.3849   0.3874
  0.3950   0.3992   0.4068   0.4111   0.4129   0.4161   0.4258   0.4322
  0.4409   0.4463   0.4582   0.4717   0.4722   0.4801   0.4873   0.4925
  0.4989   0.5295   0.5437   0.5518   0.5733   0.6096   0.6199   0.6283
  0.6342   0.6506   0.6550   0.6672   0.6790   0.6868   0.6932   0.7047
  0.7210   0.7311   0.7425   0.7620   0.7647   0.7778   0.7850   0.8001
  0.8082   0.8371   0.8493   0.8748   0.8894   0.9143   0.9205   0.9716
  0.9733   1.0002   1.0054   1.0251   1.0491   1.0645   1.0745   1.0843
  1.0860   1.1077   1.1262   1.1352   1.1417   1.1559   1.1664   1.1759
  1.1848   1.1852   1.1881   1.1990   1.2036   1.2134   1.2219   1.2384
  1.2402   1.2443   1.2551   1.2632   1.2762   1.2804   1.2913   1.2985
  1.3095   1.3135   1.3166   1.3344   1.3530   1.3737   1.3794   1.3885
  1.4048   1.4115   1.4183   1.4401   1.4453   1.4601   1.4678   1.4903
  1.5026   1.5150   1.5318   1.5424   1.5456   1.5508   1.5649   1.5879
  1.5934   1.6006   1.6317   1.6512   1.6641   1.6824   1.6949   1.6995
  1.7185   1.7286   1.7335   1.7583   1.7732   1.8088   1.8136   1.8279
  1.8401   1.8663   1.8878   1.9120   1.9282   1.9491   1.9596   1.9690
  1.9912   2.0229   2.0524   2.0803   2.0988   2.1266   2.1440   2.1554
  2.2103   2.2273   2.2461   2.2496   2.2564   2.2961   2.3060   2.3385
  2.3755   2.3945   2.4006   2.4267   2.4538   2.4695   2.4950   2.5150
  2.5293   2.5423   2.5763   2.6094   2.6416   2.6698   2.7024   2.7203
  2.7559   2.7952   2.8087   2.8391   2.8541   2.8852   2.8917   2.9156
  2.9851   2.9968   3.0212   3.0648   3.0895   3.1159   3.1619   3.2010
  3.2114   3.2427   3.2622   3.2898   3.2991   3.3280   3.3549   3.3906
  3.4157   3.4428   3.4492   3.4668   3.5007   3.5179   3.5322   3.5682
  3.5975   3.6055   3.6215   3.6577   3.6769   3.6785   3.6865   3.7254
  3.7421   3.7515   3.7646   3.7869   3.8048   3.8307   3.8519   3.8614
  3.8661   3.8871   3.8993   3.9231   3.9297   3.9589   3.9774   4.0020
  4.0248   4.0365   4.0672   4.0894   4.0963   4.1414   4.1635   4.1727
  4.2193   4.2297   4.2524   4.2645   4.2760   4.3026   4.3200   4.3541
  4.3634   4.3720   4.3948   4.4288   4.4476   4.4663   4.4919   4.5127
  4.5551   4.5840   4.6232   4.6501   4.6629   4.6876   4.7406   4.7430
  4.7982   4.8094   4.8465   4.8809   4.9103   4.9271   4.9845   5.0365
  5.0734   5.1320   5.1566   5.1616   5.1936   5.2006   5.2107   5.2262
  5.2415   5.2512   5.2664   5.2735   5.2780   5.2818   5.2993   5.3009
  5.3084   5.3410   5.3439   5.3470   5.3624   5.3638   5.3789   5.3831
  5.3939   5.4088   5.4160   5.4387   5.4693   5.4760   5.4889   5.4970
  5.5015   5.5345   5.5504   5.5549   5.5654   5.5841   5.6033   5.6098
  5.6431   5.6541   5.6645   5.6695   5.6907   5.7121   5.7318   5.7683
  5.7867   5.7976   5.8326   5.8515   5.9051   5.9668   6.0014   6.0356
  6.0547   6.0722   6.1170   6.1590   6.2416   6.2696   6.3133   6.5078
  6.5217   6.5662   6.5841   6.7461   6.8269   6.8430   6.9250   6.9589
  6.9736   6.9779   7.0156   7.0633   7.0711   7.0948   7.1065   7.1282
  7.1625   7.1784   7.1980   7.2024   7.2511   7.2641   7.2760   7.2865
  7.3130   7.3330   7.3603   7.4075   7.4255   7.4415   7.4629   7.4868
  7.4958   7.5063   7.5276   7.5339   7.5847   7.6069   7.6492   7.6813
  7.7179   7.7625   7.7815   7.8588   7.8652   7.8995   7.9145   7.9252
  8.0445   8.0546   8.1200   8.2538  24.6438  24.7690  24.7920  24.8531
 50.4586  50.5343  50.5730  50.6022  50.6298  50.6591  50.6976  50.7817
 --------------------------------------------------------------
 
          Ground-State Mulliken Net Atomic Charges

     Atom                 Charge (a.u.)    Spin (a.u.)
  --------------------------------------------------------
      1 C                    -0.068907       0.001472
      2 O                    -0.427676      -0.000003
      3 C                     0.204121       0.008885
      4 O                    -0.401855      -0.004763
      5 C                    -0.562382       0.002742
      6 C                    -0.139255      -0.003999
      7 O                    -0.748625      -0.003045
      8 H                     0.291215      -0.000012
      9 H                     0.342834       0.000104
     10 H                     0.277076      -0.000622
     11 H                     0.301811      -0.001028
     12 H                     0.264356       0.003126
     13 O                    -0.462586      -0.000054
     14 H                     0.345046      -0.000087
     15 O                    -0.230107       0.002054
     16 O                    -0.381378      -0.000136
     17 H                     0.322866       0.000218
     18 H                     0.374426       0.000190
     19 O                     0.061593       0.355741
     20 O                    -0.362572       0.639216
  --------------------------------------------------------
  Sum of atomic charges =    -1.000000
  Sum of spin   charges =     1.000000

 -----------------------------------------------------------------
                    Cartesian Multipole Moments
 -----------------------------------------------------------------
    Charge (ESU x 10^10)
                -4.8032
    Dipole Moment (Debye)
         X     -24.1073      Y       5.5852      Z      -8.2686
       Tot      26.0907
    Quadrupole Moments (Debye-Ang)
        XX    -203.4434     XY      17.4205     YY     -79.8099
        XZ     -32.5612     YZ       4.6985     ZZ    -104.4460
    Octopole Moments (Debye-Ang^2)
       XXX   -1526.7586    XXY     126.7598    XYY    -291.8652
       YYY     187.1316    XXZ    -213.6613    XYZ       6.1430
       YYZ     -72.0743    XZZ    -413.0357    YZZ     105.6409
       ZZZ    -256.7063
    Hexadecapole Moments (Debye-Ang^3)
      XXXX  -10538.3226   XXXY     887.3193   XXYY   -1311.3298
      XYYY     616.8571   YYYY    -689.9543   XXXZ   -1533.3375
      XXYZ      23.1553   XYYZ    -274.6197   YYYZ     160.9313
      XXZZ   -2063.6155   XYZZ     322.6246   YYZZ    -477.4249
      XZZZ   -1032.6373   YZZZ     217.4797   ZZZZ   -2046.1846
 -----------------------------------------------------------------
 Calculating analytic gradient of the SCF energy
 Gradient of CDS energy
            1           2           3           4           5           6
    1  -0.0009621   0.0016603  -0.0007511   0.0007885  -0.0001469   0.0034086
    2  -0.0012799  -0.0004779  -0.0020589   0.0023440   0.0000785   0.0012509
    3  -0.0018533   0.0000281   0.0003521  -0.0004128  -0.0000375   0.0004684
            7           8           9          10          11          12
    1  -0.0028523   0.0002381  -0.0004435  -0.0001529   0.0000764  -0.0003379
    2  -0.0008980   0.0000629   0.0001785  -0.0001481   0.0000737  -0.0001958
    3   0.0000956   0.0000957  -0.0002010   0.0000241  -0.0001659   0.0000591
           13          14          15          16          17          18
    1  -0.0004819  -0.0000540  -0.0000198  -0.0001508   0.0000232   0.0002772
    2   0.0018697  -0.0004491   0.0000375  -0.0001546  -0.0004350   0.0001640
    3   0.0018461  -0.0002033  -0.0000318  -0.0001654   0.0000845   0.0000220
           19          20
    1  -0.0001431   0.0000241
    2   0.0000041   0.0000335
    3  -0.0000660   0.0000611
 Gradient of SCF Energy
            1           2           3           4           5           6
    1  -0.0014719  -0.0160514   0.0463542  -0.0037424  -0.0570425   0.0061874
    2   0.0343195  -0.0022286  -0.0205291  -0.0171224   0.0283761   0.0304438
    3  -0.0134992   0.0076837  -0.0094935   0.0131832  -0.0039733   0.0446493
            7           8           9          10          11          12
    1   0.0025988  -0.0161141   0.0051172   0.0251937  -0.0069622   0.0101848
    2  -0.0085312  -0.0184044   0.0004494   0.0077635  -0.0196438  -0.0129678
    3  -0.0007742   0.0050015  -0.0015905  -0.0034733   0.0072296  -0.0222195
           13          14          15          16          17          18
    1   0.0071634   0.0000897  -0.0006817   0.0031754  -0.0025725  -0.0020652
    2  -0.0159806   0.0141375  -0.0246725   0.0234869   0.0105057  -0.0014297
    3  -0.0030013  -0.0039663   0.0092378   0.0177399  -0.0187948  -0.0199325
           19          20
    1   0.0033701  -0.0027308
    2  -0.0071074  -0.0008649
    3  -0.0094686   0.0054620
 Max gradient component =       5.704E-02
 RMS gradient           =       1.718E-02
 Computing fast CPCM-SWIG gradient
 Updating gradient with PCM contributions...
 -- total gradient after adding PCM contribution --
---------------------------------------------------
  Atom         X              Y              Z     
---------------------------------------------------
   1      -0.003025      -0.003494      -0.000583
   2      -0.000350      -0.002735       0.009057
   3       0.001218       0.001155       0.000150
   4      -0.005005      -0.000901      -0.007560
   5       0.000428      -0.001233       0.001078
   6       0.007585      -0.000074      -0.002045
   7      -0.001152       0.000854       0.001867
   8       0.002402       0.002164      -0.001197
   9      -0.000596       0.002196      -0.006607
  10      -0.003518      -0.000625       0.000213
  11       0.000251       0.003102      -0.001152
  12      -0.002957       0.001220       0.003164
  13       0.004745       0.005391      -0.005863
  14      -0.002695      -0.004157       0.005370
  15      -0.000454      -0.005151       0.001418
  16       0.001392       0.005038      -0.006143
  17       0.003238       0.000513       0.007001
  18      -0.000654      -0.000990       0.003473
  19       0.007575      -0.001677      -0.004732
  20      -0.008426      -0.000594       0.003091
---------------------------------------------------
 Number of fixed atoms: 0
 Gradient time:  CPU 549.22 s  wall 44.49 s
 Geometry Optimization Parameters
   NAtoms,    NIC,     NZ,  NCons,   NDum,   NFix, NCnnct, MaxDiis
       20     132       0       0       0       0       0       0


** GEOMETRY OPTIMIZATION IN DELOCALIZED INTERNAL COORDINATES **
   Searching for a Minimum

   Optimization Cycle:   1

                       Coordinates (Angstroms)
     ATOM                X               Y               Z
      1  C         3.0512042164   -0.6382400361   -1.2476012182
      2  O         1.6634592173   -0.4196410902   -1.1293328155
      3  C         3.5666796399   -1.0379324050    0.1414134485
      4  O         3.0675418969   -2.3298865428    0.3765461952
      5  C         3.1593431798   -0.0294975085    1.2224648604
      6  C         3.9550177460   -0.0655106958    2.5348205441
      7  O         5.2261482159    0.2382966677    2.5021955958
      8  H         3.5702173024    0.2641681310   -1.5842176236
      9  H         1.3633369320   -0.0528751599   -1.9773885775
     10  H         2.1007001718   -0.2021493395    1.4351695276
     11  H         3.2471345025    0.9888759560    0.8277620694
     12  H         3.3638231776    0.4037300139    3.3409686887
     13  O         3.3455386760   -1.6381147822   -2.1930496246
     14  H         3.0616140062   -2.4779141087   -1.7874301193
     15  O         4.9848176864   -1.2330941904    0.0613027379
     16  O         5.6236291595    0.0567586823    0.0278028953
     17  H         3.3594566023   -2.5884479452    1.2693355388
     18  H         5.6085438543    0.2377629579    1.0469216178
     19  O         3.8266883263   -1.5982088949    3.0141903714
     20  O         2.6614571907   -1.8285293098    3.5681021878
   Point Group: c1    Number of degrees of freedom:    54


   Energy is   -759.028066777


 Attempting to generate delocalized internal coordinates
 Initial Hessian constructed with Jon Baker's OPTIMIZE code

 54 Hessian modes will be used to form the next step
  Hessian Eigenvalues:
     0.002000    0.003847    0.004530    0.004609    0.004751    0.011182
     0.014346    0.014691    0.015005    0.032842    0.048451    0.049483
     0.051249    0.058536    0.060700    0.062098    0.069741    0.090133
     0.092110    0.096554    0.116268    0.126718    0.160000    0.160000
     0.160000    0.160000    0.171321    0.184359    0.187077    0.190513
     0.207272    0.220165    0.230501    0.239587    0.250000    0.250000
     0.289533    0.290076    0.291051    0.332064    0.341609    0.343446
     0.344095    0.396177    0.404561    0.420021    0.440302    0.444454
     0.448280    0.523909    0.525202    0.530740    0.643376    0.651954

 Minimum search - taking simple RFO step
 Searching for Lamda that Minimizes Along All modes
 Value Taken    Lamda =  -0.00328553
 Calculated Step too Large.  Step scaled by  0.760430
 Step Taken.  Stepsize is  0.300000

                             Maximum     Tolerance    Cnvgd?
         Gradient           0.008770      0.000300      NO
         Displacement       0.119431      0.001200      NO
         Energy change     *********      0.000001      NO


 New Cartesian Coordinates Obtained by Inverse Iteration

 Displacement from previous Coordinates is:  0.837050
 ----------------------------------------------------------------
             Standard Nuclear Orientation (Angstroms)
    I     Atom           X                Y                Z
 ----------------------------------------------------------------
    1      C       3.0567452086    -0.6277017399    -1.2600619256
    2      O       1.6693604680    -0.4022616356    -1.1636738557
    3      C       3.5490674899    -1.0644810300     0.1269298712
    4      O       3.0553174643    -2.3643870271     0.3213671308
    5      C       3.1250061745    -0.0714259904     1.2123829563
    6      C       3.9610432399    -0.0408068637     2.4954450680
    7      O       5.2266238596     0.2707928132     2.3862640934
    8      H       3.5790728769     0.2810276566    -1.5601584337
    9      H       1.3789448098    -0.0040646828    -1.9949291062
   10      H       2.0815485681    -0.2710682885     1.4534899193
   11      H       3.1719489292     0.9392204058     0.8018819715
   12      H       3.4044293854     0.4674656809     3.2952760024
   13      O       3.3560015876    -1.5983291556    -2.2341543754
   14      H       3.0665798653    -2.4557278518    -1.8852716303
   15      O       4.9692349584    -1.2503157449     0.0737671632
   16      O       5.6143612113     0.0290242250     0.1650753121
   17      H       3.3239855498    -2.6619048003     1.2032486505
   18      H       5.5477447895     0.1546302977     1.1873083438
   19      O       3.8819477857    -1.5398375885     3.0719813122
   20      O       2.7873874785    -1.7402982801     3.7538078321
 ----------------------------------------------------------------
 Nuclear Repulsion Energy =         839.00746671 hartrees
 There are       49 alpha and       48 beta electrons
 Discretize the solute cavity surface with Lebedev spheres
	Using 110 Lebedev grid points for each H atom
	Using 194 Lebedev grid points for other atoms
	Atomic van der Waals radii will be scaled by 1.20
 Remove points where switching function is < 1.0e-08
 Keep 1567 surface tesserae and discard 1641 interior tesserae
 Molecular Surface Area = 172.209 Angst**2
 Applying Cartesian multipole field
    Component          Value
    ---------          -----
     (2,0,0)        1.00000E-12
     (0,2,0)        2.00000E-11
     (0,0,2)       -3.00000E-11
 Nucleus-field energy     =    -0.0000000239 hartrees
 Requested basis set is 6-311++G(2df,2p)
 There are 144 shells and 488 basis functions
 A cutoff of  1.0D-12 yielded   9042 shell pairs
 There are    102751 function pairs (    128337 Cartesian)
 Smallest overlap matrix eigenvalue = 5.11E-06
 Guess MOs from SCF MO coefficient file

 -----------------------------------------------------------------------
  General SCF calculation program by
  Eric Jon Sundstrom, Paul Horn, Yuezhi Mao, Dmitri Zuev, Alec White,
  David Stuck, Shaama M.S., Shane Yost, Joonho Lee, David Small,
  Daniel Levine, Susi Lehtola, Hugh Burton, Evgeny Epifanovsky,
  Bang C. Huynh
 -----------------------------------------------------------------------
 Exchange:     0.1500 Hartree-Fock + 1.0000 wB97M-V + LR-HF
 Correlation:  1.0000 wB97M-V
 Using SG-2 standard quadrature grid
 Nonlocal Correlation:  VV10 with C = 0.0100 and b = 6.00 and scale = 1.00000
 Grid used for NLC:  SG-1 standard quadrature
 
 Citation of the SMD model:
 Marenich, A.V.; Cramer, C.J.; Truhlar, D.G.
 J. Phys. Chem. B 2009, 113, 6378-6396.
 iSolventCode=           1
 Solvent: water                                                           
 
 vradii
            1           2           3           4           5           6
    1   1.8500000   1.5200000   1.8500000   1.5200000   1.8500000   1.8500000
            7           8           9          10          11          12
    1   1.5200000   1.2000000   1.2000000   1.2000000   1.2000000   1.2000000
           13          14          15          16          17          18
    1   1.5200000   1.2000000   1.5200000   1.5200000   1.2000000   1.2000000
           19          20
    1   1.5200000   1.5200000
 -------------------------------------------------------
 OpenMP BLAS3 based DFT computing Module                
 Release: version 1.0, May 2013, Q-Chem Inc. Pittsburgh 
 -------------------------------------------------------
 A unrestricted SCF calculation will be
 performed using Roothaan-Hall, DIIS, GDM
 SCF converges when RMS gradient is below 1.0e-07
 ---------------------------------------
  Cycle       Energy         DIIS error
 ---------------------------------------
    1    -758.8771376234      4.56e-04  Roothaan Step
 ---------------------------------------
  Cycle       Energy         DIIS error
 ---------------------------------------
    1    -759.0142497968      2.34e-04  
    2    -759.0236277372      1.61e-04  Done DIIS. Switching to GDM
 ---------------------------------------
  Cycle       Energy        RMS Gradient
 ---------------------------------------
    1    -759.0236277372      9.81e-03   Normal BFGS step
    2    -759.0242263399      1.25e-02   Normal BFGS step
    3    -759.0261875198      3.13e-03   Normal BFGS step
    4    -759.0262220315      3.40e-03   Normal BFGS step
    5    -759.0262821408      1.17e-03   Normal BFGS step
    6    -759.0262880437      9.82e-04   Normal BFGS step
    7    -759.0262928804      7.46e-04   Normal BFGS step
    8    -759.0262964154      4.35e-04   Normal BFGS step
    9    -759.0262985038      3.96e-04   Normal BFGS step
   10    -759.0263003058      2.16e-04   Normal BFGS step
   11    -759.0263009267      4.22e-05   Normal BFGS step
   12    -759.0263010289      2.37e-05   Normal BFGS step
   13    -759.0263010648      9.14e-06   Normal BFGS step
   14    -759.0263010669      6.64e-06   Normal BFGS step
   15    -759.0263010682      4.69e-06   Normal BFGS step
   16    -759.0263010683      3.23e-06   Normal BFGS step
   17    -759.0263010683      1.56e-06   Normal BFGS step
   18    -759.0263010683      4.75e-07   Normal BFGS step
   19    -759.0263010683      1.99e-07   Normal BFGS step
   20    -759.0263010683      8.83e-08  Convergence criterion met
 ---------------------------------------
 SCF time:   CPU 3931.82s  wall 272.00s 
<S^2> =          0.754496693
(3)  G-ENP(liq) elect-nuc-pol free energy of system     -759.026301068 a.u.
(4)  G-CDS(liq) cavity-dispersion-solvent structure 
     free energy                                                2.9029 kcal/mol
(6)  G-S(liq) free energy of system                     -759.021674961 a.u.
 SCF   energy in the final basis set =     -759.0216749612
 Total energy in the final basis set =     -759.0216749612
 
 --------------------------------------------------------------
 
                    Orbital Energies (a.u.)
 --------------------------------------------------------------
 
 Alpha MOs
 -- Occupied --
-19.4322 -19.3984 -19.3835 -19.3526 -19.3450 -19.3439 -19.3379 -19.2830
-10.4570 -10.4434 -10.4373 -10.3393  -1.3108  -1.2521  -1.2039  -1.1713
 -1.1342  -1.1325  -1.0035  -0.9551  -0.8903  -0.8251  -0.7473  -0.7131
 -0.6776  -0.6444  -0.6353  -0.6241  -0.6019  -0.5942  -0.5909  -0.5675
 -0.5670  -0.5378  -0.5277  -0.5189  -0.5037  -0.4830  -0.4732  -0.4520
 -0.4415  -0.4278  -0.4161  -0.4074  -0.3909  -0.3816  -0.3660  -0.3564
 -0.3380
 -- Virtual --
  0.0297   0.0423   0.0453   0.0510   0.0660   0.0713   0.0732   0.0769
  0.1001   0.1115   0.1171   0.1221   0.1362   0.1398   0.1417   0.1496
  0.1588   0.1615   0.1642   0.1745   0.1759   0.1841   0.1925   0.1981
  0.2034   0.2106   0.2171   0.2283   0.2386   0.2490   0.2549   0.2636
  0.2683   0.2732   0.2836   0.2850   0.2867   0.2947   0.2983   0.3069
  0.3120   0.3153   0.3263   0.3321   0.3373   0.3412   0.3506   0.3581
  0.3600   0.3607   0.3656   0.3728   0.3777   0.3867   0.3884   0.3947
  0.4017   0.4057   0.4142   0.4160   0.4188   0.4272   0.4399   0.4429
  0.4525   0.4591   0.4711   0.4750   0.4766   0.4893   0.4941   0.5236
  0.5308   0.5482   0.5596   0.5792   0.6144   0.6177   0.6303   0.6346
  0.6520   0.6589   0.6736   0.6794   0.6851   0.6914   0.7071   0.7256
  0.7363   0.7482   0.7602   0.7765   0.7826   0.7864   0.8008   0.8117
  0.8348   0.8483   0.8737   0.8897   0.9200   0.9293   0.9717   0.9784
  0.9997   1.0053   1.0205   1.0437   1.0668   1.0749   1.0781   1.0888
  1.1105   1.1125   1.1258   1.1470   1.1509   1.1630   1.1697   1.1722
  1.1830   1.1893   1.1962   1.2026   1.2146   1.2160   1.2265   1.2329
  1.2424   1.2484   1.2514   1.2730   1.2776   1.2931   1.3015   1.3046
  1.3152   1.3238   1.3407   1.3550   1.3624   1.3814   1.3855   1.4033
  1.4108   1.4222   1.4405   1.4455   1.4646   1.4786   1.4865   1.5022
  1.5147   1.5295   1.5381   1.5460   1.5492   1.5597   1.5831   1.6049
  1.6137   1.6317   1.6479   1.6701   1.6918   1.6961   1.7073   1.7171
  1.7227   1.7513   1.7656   1.7852   1.8076   1.8195   1.8321   1.8568
  1.8765   1.8851   1.9048   1.9341   1.9546   1.9634   1.9732   2.0151
  2.0277   2.0550   2.0784   2.1262   2.1344   2.1647   2.1942   2.1961
  2.2203   2.2294   2.2402   2.2700   2.2864   2.3243   2.3577   2.3804
  2.3921   2.4203   2.4288   2.4518   2.4657   2.4957   2.5034   2.5209
  2.5630   2.5772   2.6183   2.6595   2.6880   2.7075   2.7396   2.7840
  2.8066   2.8233   2.8339   2.8555   2.8825   2.8990   2.9671   2.9714
  2.9915   3.0104   3.0464   3.0916   3.1149   3.1559   3.1975   3.2087
  3.2447   3.2682   3.3104   3.3220   3.3245   3.3570   3.3902   3.4068
  3.4353   3.4510   3.4677   3.4975   3.5190   3.5274   3.5720   3.6006
  3.6169   3.6187   3.6670   3.6752   3.6804   3.6847   3.7183   3.7426
  3.7562   3.7660   3.7860   3.7992   3.8330   3.8497   3.8630   3.8727
  3.8881   3.9069   3.9250   3.9346   3.9642   3.9773   4.0110   4.0261
  4.0419   4.0732   4.0898   4.1105   4.1394   4.1657   4.1730   4.1811
  4.2256   4.2402   4.2576   4.2752   4.3022   4.3272   4.3484   4.3624
  4.3763   4.4008   4.4316   4.4353   4.4701   4.5034   4.5280   4.5558
  4.5849   4.6126   4.6372   4.6612   4.6798   4.7251   4.7512   4.8012
  4.8221   4.8299   4.8748   4.9074   4.9453   4.9727   5.0322   5.0812
  5.0905   5.1083   5.1297   5.1455   5.1661   5.1814   5.2194   5.2322
  5.2480   5.2593   5.2663   5.2701   5.2705   5.2885   5.3047   5.3115
  5.3289   5.3378   5.3455   5.3560   5.3682   5.3772   5.3807   5.3971
  5.4069   5.4242   5.4323   5.4526   5.4726   5.4927   5.5201   5.5296
  5.5491   5.5627   5.5899   5.6148   5.6176   5.6217   5.6466   5.6597
  5.6732   5.6797   5.6946   5.7161   5.7411   5.7587   5.7661   5.8052
  5.8203   5.8584   5.8620   5.9206   5.9776   6.0127   6.0337   6.0617
  6.1253   6.1504   6.1746   6.2576   6.2683   6.3493   6.4884   6.5229
  6.5771   6.5864   6.7499   6.8290   6.8462   6.8713   6.8995   6.9613
  6.9785   7.0505   7.0766   7.0924   7.1034   7.1200   7.1513   7.1681
  7.1913   7.2281   7.2666   7.2737   7.2853   7.2978   7.3099   7.3208
  7.3357   7.3762   7.4110   7.4257   7.4342   7.4490   7.4652   7.5030
  7.5205   7.5460   7.5838   7.6011   7.6528   7.6705   7.7004   7.7442
  7.7820   7.8414   7.8644   7.8779   7.9076   7.9427   8.0410   8.0686
  8.0923   8.1582   8.2769  24.6596  24.7739  24.8053  24.8601  50.4460
 50.5485  50.5803  50.6121  50.6354  50.6624  50.6939  50.7936
 
 Beta MOs
 -- Occupied --
-19.4204 -19.3835 -19.3807 -19.3526 -19.3450 -19.3439 -19.3379 -19.2831
-10.4570 -10.4434 -10.4376 -10.3392  -1.2833  -1.2518  -1.2039  -1.1713
 -1.1338  -1.1318  -1.0028  -0.9218  -0.8871  -0.8227  -0.7453  -0.7106
 -0.6768  -0.6411  -0.6316  -0.6203  -0.5907  -0.5842  -0.5669  -0.5635
 -0.5453  -0.5374  -0.5236  -0.5138  -0.4817  -0.4771  -0.4728  -0.4515
 -0.4405  -0.4274  -0.4099  -0.4071  -0.3867  -0.3686  -0.3481  -0.3347
 -- Virtual --
 -0.0147   0.0298   0.0425   0.0455   0.0511   0.0667   0.0715   0.0736
  0.0772   0.1004   0.1121   0.1180   0.1225   0.1365   0.1403   0.1422
  0.1512   0.1594   0.1618   0.1655   0.1751   0.1768   0.1845   0.1939
  0.1996   0.2037   0.2120   0.2181   0.2298   0.2393   0.2503   0.2561
  0.2661   0.2692   0.2803   0.2843   0.2857   0.2875   0.2954   0.3012
  0.3075   0.3126   0.3170   0.3264   0.3349   0.3383   0.3415   0.3517
  0.3587   0.3603   0.3616   0.3659   0.3739   0.3802   0.3873   0.3901
  0.3962   0.4020   0.4069   0.4143   0.4177   0.4190   0.4283   0.4401
  0.4437   0.4530   0.4597   0.4714   0.4756   0.4772   0.4899   0.4943
  0.5240   0.5310   0.5489   0.5600   0.5793   0.6149   0.6178   0.6309
  0.6347   0.6523   0.6597   0.6738   0.6797   0.6857   0.6918   0.7072
  0.7261   0.7365   0.7484   0.7603   0.7771   0.7827   0.7865   0.8012
  0.8119   0.8352   0.8499   0.8740   0.8906   0.9210   0.9302   0.9723
  0.9787   1.0006   1.0061   1.0226   1.0458   1.0699   1.0758   1.0796
  1.0893   1.1121   1.1153   1.1312   1.1494   1.1541   1.1663   1.1744
  1.1755   1.1860   1.1902   1.1972   1.2055   1.2149   1.2186   1.2341
  1.2385   1.2470   1.2518   1.2594   1.2740   1.2789   1.2963   1.3034
  1.3065   1.3162   1.3264   1.3415   1.3569   1.3688   1.3827   1.3889
  1.4053   1.4119   1.4233   1.4433   1.4480   1.4660   1.4812   1.4878
  1.5030   1.5178   1.5346   1.5400   1.5487   1.5525   1.5634   1.5866
  1.6062   1.6185   1.6332   1.6533   1.6786   1.6952   1.6981   1.7130
  1.7198   1.7333   1.7561   1.7667   1.7969   1.8090   1.8230   1.8340
  1.8602   1.8806   1.8931   1.9067   1.9357   1.9553   1.9648   1.9740
  2.0198   2.0299   2.0563   2.0800   2.1286   2.1351   2.1715   2.1957
  2.2013   2.2231   2.2309   2.2434   2.2733   2.2980   2.3275   2.3642
  2.3818   2.3938   2.4216   2.4335   2.4521   2.4665   2.4973   2.5052
  2.5220   2.5632   2.5774   2.6187   2.6603   2.6948   2.7085   2.7400
  2.7847   2.8070   2.8242   2.8353   2.8557   2.8830   2.8994   2.9673
  2.9717   2.9916   3.0107   3.0470   3.0918   3.1158   3.1562   3.1977
  3.2094   3.2452   3.2685   3.3109   3.3221   3.3248   3.3570   3.3904
  3.4068   3.4352   3.4512   3.4675   3.4976   3.5190   3.5278   3.5719
  3.6007   3.6165   3.6188   3.6675   3.6754   3.6805   3.6848   3.7185
  3.7428   3.7567   3.7662   3.7863   3.7990   3.8331   3.8499   3.8631
  3.8728   3.8883   3.9071   3.9250   3.9347   3.9643   3.9774   4.0112
  4.0266   4.0422   4.0735   4.0898   4.1106   4.1396   4.1661   4.1733
  4.1813   4.2260   4.2405   4.2577   4.2755   4.3023   4.3276   4.3486
  4.3628   4.3766   4.4009   4.4321   4.4357   4.4715   4.5037   4.5294
  4.5593   4.5862   4.6279   4.6475   4.6630   4.6844   4.7380   4.7534
  4.8086   4.8244   4.8503   4.8800   4.9145   4.9461   4.9877   5.0332
  5.0826   5.1355   5.1487   5.1595   5.1800   5.1906   5.2094   5.2208
  5.2389   5.2590   5.2673   5.2737   5.2772   5.2883   5.3011   5.3132
  5.3212   5.3356   5.3463   5.3573   5.3694   5.3712   5.3822   5.3870
  5.4041   5.4096   5.4282   5.4412   5.4597   5.4738   5.4941   5.5220
  5.5337   5.5509   5.5631   5.5928   5.6156   5.6189   5.6270   5.6548
  5.6601   5.6745   5.6828   5.7018   5.7181   5.7437   5.7618   5.7746
  5.8086   5.8209   5.8605   5.8624   5.9208   5.9777   6.0160   6.0380
  6.0619   6.1254   6.1504   6.1746   6.2612   6.2699   6.3498   6.5188
  6.5379   6.5870   6.5888   6.7503   6.8301   6.8737   6.9205   6.9650
  6.9831   7.0188   7.0713   7.0811   7.0937   7.1224   7.1352   7.1649
  7.1771   7.2025   7.2520   7.2671   7.2765   7.2912   7.3022   7.3128
  7.3233   7.3364   7.3800   7.4225   7.4343   7.4456   7.4572   7.4867
  7.5060   7.5309   7.5481   7.5866   7.6016   7.6530   7.6722   7.7005
  7.7536   7.7824   7.8445   7.8645   7.8787   7.9078   7.9430   8.0541
  8.0735   8.1005   8.1650   8.2770  24.6596  24.7739  24.8052  24.8600
 50.4582  50.5560  50.5825  50.6125  50.6354  50.6625  50.6940  50.7936
 --------------------------------------------------------------
 
          Ground-State Mulliken Net Atomic Charges

     Atom                 Charge (a.u.)    Spin (a.u.)
  --------------------------------------------------------
      1 C                    -0.071576      -0.000752
      2 O                    -0.426606      -0.000114
      3 C                     0.189517       0.007609
      4 O                    -0.400570      -0.003240
      5 C                    -0.525333       0.003467
      6 C                    -0.174328      -0.004579
      7 O                    -0.712975      -0.002114
      8 H                     0.293982       0.000068
      9 H                     0.340673       0.000034
     10 H                     0.277154      -0.000785
     11 H                     0.296611      -0.001227
     12 H                     0.279208       0.002612
     13 O                    -0.467305      -0.000035
     14 H                     0.345608      -0.000057
     15 O                    -0.247333       0.002084
     16 O                    -0.470007       0.000070
     17 H                     0.328912       0.000237
     18 H                     0.443225       0.000149
     19 O                     0.057185       0.363297
     20 O                    -0.356042       0.633279
  --------------------------------------------------------
  Sum of atomic charges =    -1.000000
  Sum of spin   charges =     1.000000

 -----------------------------------------------------------------
                    Cartesian Multipole Moments
 -----------------------------------------------------------------
    Charge (ESU x 10^10)
                -4.8032
    Dipole Moment (Debye)
         X     -24.6566      Y       5.2530      Z      -7.5722
       Tot      26.3226
    Quadrupole Moments (Debye-Ang)
        XX    -207.9048     XY      16.4973     YY     -78.6061
        XZ     -29.2995     YZ       4.6630     ZZ    -103.0832
    Octopole Moments (Debye-Ang^2)
       XXX   -1557.9041    XXY     122.7467    XYY    -290.2849
       YYY     181.4852    XXZ    -195.2367    XYZ       7.5930
       YYZ     -71.1967    XZZ    -403.3302    YZZ     107.2503
       ZZZ    -258.0636
    Hexadecapole Moments (Debye-Ang^3)
      XXXX  -10740.2775   XXXY     869.5319   XXYY   -1310.8510
      XYYY     607.0117   YYYY    -666.2930   XXXZ   -1437.9551
      XXYZ      28.2405   XYYZ    -278.2310   YYYZ     152.5163
      XXZZ   -2001.9139   XYZZ     334.4894   YYZZ    -476.0417
      XZZZ   -1023.2070   YZZZ     236.7320   ZZZZ   -2111.9256
 -----------------------------------------------------------------
 Calculating analytic gradient of the SCF energy
 Gradient of CDS energy
            1           2           3           4           5           6
    1  -0.0011103   0.0018738  -0.0008001   0.0008716  -0.0001399   0.0033220
    2  -0.0012260  -0.0004861  -0.0022195   0.0025007   0.0000772   0.0012806
    3  -0.0018764   0.0000262   0.0003116  -0.0004086  -0.0000266   0.0002482
            7           8           9          10          11          12
    1  -0.0027856   0.0001833  -0.0004378  -0.0001541   0.0000710  -0.0003209
    2  -0.0008872   0.0000982   0.0001919  -0.0001538   0.0000664  -0.0001969
    3   0.0002754   0.0001066  -0.0002012   0.0000250  -0.0001717   0.0000819
           13          14          15          16          17          18
    1  -0.0004925  -0.0000480  -0.0000171  -0.0001434  -0.0000314   0.0002604
    2   0.0017876  -0.0004425   0.0000333  -0.0001464  -0.0004321   0.0001331
    3   0.0018780  -0.0002213  -0.0000195  -0.0001910   0.0001085   0.0000295
           19          20
    1  -0.0001369   0.0000360
    2  -0.0000046   0.0000260
    3  -0.0000549   0.0000805
 Gradient of SCF Energy
            1           2           3           4           5           6
    1   0.0011612  -0.0161762   0.0442333   0.0005154  -0.0587266   0.0082198
    2   0.0391008   0.0000001  -0.0195972  -0.0169923   0.0275964   0.0327481
    3  -0.0117757   0.0007062  -0.0073469   0.0142788  -0.0043953   0.0377727
            7           8           9          10          11          12
    1   0.0107305  -0.0192482   0.0055146   0.0257349  -0.0049258   0.0100090
    2  -0.0100038  -0.0208754  -0.0016037   0.0086404  -0.0224603  -0.0145805
    3  -0.0399929   0.0050091   0.0029507  -0.0046831   0.0084954  -0.0219860
           13          14          15          16          17          18
    1   0.0046038   0.0015787   0.0007464  -0.0018977  -0.0046539  -0.0088787
    2  -0.0197538   0.0166950  -0.0245226   0.0312930   0.0101624  -0.0078444
    3  -0.0009070  -0.0061232   0.0077205   0.0675000  -0.0219160  -0.0261124
           19          20
    1   0.0020203  -0.0005605
    2  -0.0086866   0.0006843
    3  -0.0017116   0.0025163
 Max gradient component =       6.750E-02
 RMS gradient           =       2.037E-02
 Computing fast CPCM-SWIG gradient
 Updating gradient with PCM contributions...
 -- total gradient after adding PCM contribution --
---------------------------------------------------
  Atom         X              Y              Z     
---------------------------------------------------
   1      -0.000641       0.000256       0.000026
   2       0.000344      -0.000609       0.002498
   3      -0.002972       0.002336       0.000170
   4      -0.000257      -0.001046      -0.003648
   5      -0.001343      -0.001277       0.000377
   6       0.012211       0.005499      -0.003872
   7       0.001780      -0.002492      -0.036525
   8       0.000028       0.000764      -0.000377
   9      -0.000350       0.000590      -0.002208
  10      -0.001205       0.000183      -0.000715
  11       0.000732       0.000349      -0.000486
  12      -0.002164      -0.000149       0.002139
  13       0.001181       0.001423      -0.002200
  14      -0.000876      -0.002106       0.001443
  15       0.001394      -0.002377       0.000356
  16      -0.005798       0.009212       0.051582
  17       0.001113      -0.000598       0.002068
  18      -0.001987      -0.006313      -0.013560
  19       0.003448      -0.003203      -0.000632
  20      -0.004638      -0.000440       0.003567
---------------------------------------------------
 Number of fixed atoms: 0
 Gradient time:  CPU 550.49 s  wall 44.47 s
 Geometry Optimization Parameters
   NAtoms,    NIC,     NZ,  NCons,   NDum,   NFix, NCnnct, MaxDiis
       20     132       0       0       0       0       0       0

 Cartesian Hessian Update
 Hessian updated using BFGS update


** GEOMETRY OPTIMIZATION IN DELOCALIZED INTERNAL COORDINATES **
   Searching for a Minimum

   Optimization Cycle:   2

                       Coordinates (Angstroms)
     ATOM                X               Y               Z
      1  C         3.0567452086   -0.6277017399   -1.2600619256
      2  O         1.6693604680   -0.4022616356   -1.1636738557
      3  C         3.5490674899   -1.0644810300    0.1269298712
      4  O         3.0553174643   -2.3643870271    0.3213671308
      5  C         3.1250061745   -0.0714259904    1.2123829563
      6  C         3.9610432399   -0.0408068637    2.4954450680
      7  O         5.2266238596    0.2707928132    2.3862640934
      8  H         3.5790728769    0.2810276566   -1.5601584337
      9  H         1.3789448098   -0.0040646828   -1.9949291062
     10  H         2.0815485681   -0.2710682885    1.4534899193
     11  H         3.1719489292    0.9392204058    0.8018819715
     12  H         3.4044293854    0.4674656809    3.2952760024
     13  O         3.3560015876   -1.5983291556   -2.2341543754
     14  H         3.0665798653   -2.4557278518   -1.8852716303
     15  O         4.9692349584   -1.2503157449    0.0737671632
     16  O         5.6143612113    0.0290242250    0.1650753121
     17  H         3.3239855498   -2.6619048003    1.2032486505
     18  H         5.5477447895    0.1546302977    1.1873083438
     19  O         3.8819477857   -1.5398375885    3.0719813122
     20  O         2.7873874785   -1.7402982801    3.7538078321
   Point Group: c1    Number of degrees of freedom:    54


   Energy is   -759.021674961

 Hessian updated using BFGS update

 52 Hessian modes will be used to form the next step
  Hessian Eigenvalues:
     0.001939    0.003816    0.004208    0.004608    0.006108    0.014253
     0.014664    0.014983    0.022314    0.041561    0.046992    0.050334
     0.055902    0.057994    0.061561    0.064717    0.072513    0.089137
     0.090667    0.100667    0.104491    0.117416    0.128202    0.160119
     0.179347    0.180549    0.187463    0.198749    0.207272    0.222610
     0.231122    0.246106    0.249515    0.282360    0.290041    0.290202
     0.322070    0.337683    0.342431    0.343789    0.391216    0.403794
     0.415347    0.439944    0.444440    0.447980    0.488907    0.524476
     0.528964    0.627457    0.651347    1.593891

 Minimum search - taking simple RFO step
 Searching for Lamda that Minimizes Along All modes
 Value Taken    Lamda =  -0.02096946
 Step Taken.  Stepsize is  0.227994

                             Maximum     Tolerance    Cnvgd?
         Gradient           0.092078      0.000300      NO
         Displacement       0.094767      0.001200      NO
         Energy change      0.006392      0.000001      NO


 New Cartesian Coordinates Obtained by Inverse Iteration

 Displacement from previous Coordinates is:  0.805169
 ----------------------------------------------------------------
             Standard Nuclear Orientation (Angstroms)
    I     Atom           X                Y                Z
 ----------------------------------------------------------------
    1      C       3.0632979075    -0.6231814300    -1.2420265369
    2      O       1.6799461848    -0.3915193856    -1.1334654596
    3      C       3.5748999290    -1.0913634253     0.1290360879
    4      O       3.0927201815    -2.3966454175     0.3017691777
    5      C       3.1379190959    -0.1075108153     1.2191426562
    6      C       3.9020789920    -0.0336718343     2.5418851983
    7      O       5.1701397975     0.2864031012     2.4898401203
    8      H       3.5731337381     0.2903079862    -1.5177121656
    9      H       1.3675259061     0.0352992423    -1.9284108352
   10      H       2.0973708028    -0.3042575772     1.4327633860
   11      H       3.1902847655     0.8914492625     0.8031630831
   12      H       3.3141651558     0.5015727257     3.2832756740
   13      O       3.3356654290    -1.5585813770    -2.2576788386
   14      H       3.0618093622    -2.4363051090    -1.9871048694
   15      O       4.9935229946    -1.2757317295     0.0384554664
   16      O       5.6743143630    -0.0221140370     0.0261344311
   17      H       3.3505577273    -2.7463245190     1.1536337984
   18      H       5.6578544758     0.2076277100     1.0273693144
   19      O       3.8301634937    -1.4893542788     3.2032415152
   20      O       2.7389813982    -1.6865486927     3.8666650966
 ----------------------------------------------------------------
 Nuclear Repulsion Energy =         830.31092162 hartrees
 There are       49 alpha and       48 beta electrons
 Discretize the solute cavity surface with Lebedev spheres
	Using 110 Lebedev grid points for each H atom
	Using 194 Lebedev grid points for other atoms
	Atomic van der Waals radii will be scaled by 1.20
 Remove points where switching function is < 1.0e-08
 Keep 1601 surface tesserae and discard 1607 interior tesserae
 Molecular Surface Area = 174.722 Angst**2
 Applying Cartesian multipole field
    Component          Value
    ---------          -----
     (2,0,0)        1.00000E-12
     (0,2,0)        2.00000E-11
     (0,0,2)       -3.00000E-11
 Nucleus-field energy     =    -0.0000000259 hartrees
 Requested basis set is 6-311++G(2df,2p)
 There are 144 shells and 488 basis functions
 A cutoff of  1.0D-12 yielded   8992 shell pairs
 There are    102048 function pairs (    127444 Cartesian)
 Smallest overlap matrix eigenvalue = 4.89E-06
 Guess MOs from SCF MO coefficient file

 -----------------------------------------------------------------------
  General SCF calculation program by
  Eric Jon Sundstrom, Paul Horn, Yuezhi Mao, Dmitri Zuev, Alec White,
  David Stuck, Shaama M.S., Shane Yost, Joonho Lee, David Small,
  Daniel Levine, Susi Lehtola, Hugh Burton, Evgeny Epifanovsky,
  Bang C. Huynh
 -----------------------------------------------------------------------
 Exchange:     0.1500 Hartree-Fock + 1.0000 wB97M-V + LR-HF
 Correlation:  1.0000 wB97M-V
 Using SG-2 standard quadrature grid
 Nonlocal Correlation:  VV10 with C = 0.0100 and b = 6.00 and scale = 1.00000
 Grid used for NLC:  SG-1 standard quadrature
 
 Citation of the SMD model:
 Marenich, A.V.; Cramer, C.J.; Truhlar, D.G.
 J. Phys. Chem. B 2009, 113, 6378-6396.
 iSolventCode=           1
 Solvent: water                                                           
 
 vradii
            1           2           3           4           5           6
    1   1.8500000   1.5200000   1.8500000   1.5200000   1.8500000   1.8500000
            7           8           9          10          11          12
    1   1.5200000   1.2000000   1.2000000   1.2000000   1.2000000   1.2000000
           13          14          15          16          17          18
    1   1.5200000   1.2000000   1.5200000   1.5200000   1.2000000   1.2000000
           19          20
    1   1.5200000   1.5200000
 -------------------------------------------------------
 OpenMP BLAS3 based DFT computing Module                
 Release: version 1.0, May 2013, Q-Chem Inc. Pittsburgh 
 -------------------------------------------------------
 A unrestricted SCF calculation will be
 performed using Roothaan-Hall, DIIS, GDM
 SCF converges when RMS gradient is below 1.0e-07
 ---------------------------------------
  Cycle       Energy         DIIS error
 ---------------------------------------
    1    -758.8865128353      4.39e-04  Roothaan Step
 ---------------------------------------
  Cycle       Energy         DIIS error
 ---------------------------------------
    1    -759.0181048241      2.66e-04  
    2    -759.0257916153      2.50e-04  Done DIIS. Switching to GDM
 ---------------------------------------
  Cycle       Energy        RMS Gradient
 ---------------------------------------
    1    -759.0257916153      1.24e-02   Normal BFGS step
    2    -759.0244752245      1.52e-02  Line search: overstep
    3    -759.0306457956      3.29e-03   Normal BFGS step
    4    -759.0309822436      3.14e-03   Normal BFGS step
    5    -759.0310579526      2.89e-03   Normal BFGS step
    6    -759.0310853976      2.60e-03   Normal BFGS step
    7    -759.0311090513      2.09e-03   Normal BFGS step
    8    -759.0311388798      1.07e-03   Normal BFGS step
    9    -759.0311516829      7.07e-04   Normal BFGS step
   10    -759.0311541472      2.06e-04   Normal BFGS step
   11    -759.0311549223      1.42e-04   Normal BFGS step
   12    -759.0311550674      7.63e-05   Normal BFGS step
   13    -759.0311551167      4.89e-05   Normal BFGS step
   14    -759.0311551274      1.70e-05   Normal BFGS step
   15    -759.0311551304      5.68e-06   Normal BFGS step
   16    -759.0311551310      3.64e-06   Normal BFGS step
   17    -759.0311551312      1.65e-06   Normal BFGS step
   18    -759.0311551312      7.90e-07   Normal BFGS step
   19    -759.0311551312      2.10e-07   Normal BFGS step
   20    -759.0311551311      6.95e-08  Convergence criterion met
 ---------------------------------------
 SCF time:   CPU 3956.15s  wall 272.00s 
<S^2> =          0.754447622
(3)  G-ENP(liq) elect-nuc-pol free energy of system     -759.031155131 a.u.
(4)  G-CDS(liq) cavity-dispersion-solvent structure 
     free energy                                                3.0582 kcal/mol
(6)  G-S(liq) free energy of system                     -759.026281626 a.u.
 SCF   energy in the final basis set =     -759.0262816259
 Total energy in the final basis set =     -759.0262816259
 
 --------------------------------------------------------------
 
                    Orbital Energies (a.u.)
 --------------------------------------------------------------
 
 Alpha MOs
 -- Occupied --
-19.4291 -19.3934 -19.3910 -19.3654 -19.3531 -19.3428 -19.3426 -19.2721
-10.4608 -10.4440 -10.4298 -10.3360  -1.3156  -1.2605  -1.2057  -1.1747
 -1.1343  -1.1130  -1.0146  -0.9491  -0.8930  -0.8262  -0.7476  -0.7120
 -0.6842  -0.6435  -0.6390  -0.6271  -0.6043  -0.5895  -0.5829  -0.5717
 -0.5666  -0.5389  -0.5279  -0.5219  -0.5063  -0.4834  -0.4728  -0.4495
 -0.4414  -0.4282  -0.4082  -0.4064  -0.3966  -0.3789  -0.3703  -0.3469
 -0.3374
 -- Virtual --
  0.0295   0.0423   0.0453   0.0502   0.0654   0.0719   0.0744   0.0770
  0.0996   0.1114   0.1167   0.1219   0.1359   0.1395   0.1406   0.1495
  0.1580   0.1616   0.1626   0.1760   0.1774   0.1854   0.1917   0.1963
  0.2071   0.2132   0.2169   0.2277   0.2390   0.2493   0.2520   0.2661
  0.2696   0.2773   0.2831   0.2838   0.2863   0.2923   0.3009   0.3062
  0.3086   0.3154   0.3268   0.3344   0.3370   0.3406   0.3489   0.3551
  0.3589   0.3627   0.3676   0.3748   0.3794   0.3805   0.3897   0.3964
  0.4006   0.4037   0.4102   0.4149   0.4199   0.4236   0.4285   0.4462
  0.4513   0.4565   0.4668   0.4727   0.4781   0.4814   0.4913   0.4948
  0.5335   0.5360   0.5469   0.5802   0.6107   0.6153   0.6308   0.6371
  0.6509   0.6566   0.6747   0.6822   0.6866   0.6970   0.7033   0.7292
  0.7357   0.7440   0.7588   0.7685   0.7739   0.7890   0.7961   0.8138
  0.8301   0.8500   0.8802   0.8894   0.9166   0.9230   0.9657   0.9780
  0.9865   1.0055   1.0120   1.0443   1.0719   1.0720   1.0731   1.0824
  1.1065   1.1158   1.1230   1.1397   1.1504   1.1632   1.1678   1.1721
  1.1834   1.1883   1.1953   1.2051   1.2096   1.2140   1.2290   1.2363
  1.2379   1.2472   1.2524   1.2661   1.2728   1.2902   1.2973   1.3022
  1.3108   1.3182   1.3445   1.3471   1.3535   1.3647   1.3863   1.4011
  1.4138   1.4259   1.4388   1.4438   1.4566   1.4677   1.4725   1.5085
  1.5171   1.5197   1.5313   1.5430   1.5514   1.5579   1.5829   1.6001
  1.6061   1.6338   1.6393   1.6656   1.6726   1.6913   1.6972   1.7079
  1.7258   1.7399   1.7486   1.7614   1.7936   1.8073   1.8123   1.8317
  1.8474   1.8655   1.8902   1.9275   1.9357   1.9486   1.9645   1.9894
  2.0127   2.0404   2.0733   2.0810   2.1004   2.1420   2.1519   2.1857
  2.2060   2.2200   2.2445   2.2583   2.2922   2.3094   2.3367   2.3628
  2.3832   2.4020   2.4091   2.4456   2.4706   2.4874   2.5034   2.5109
  2.5348   2.5608   2.6014   2.6322   2.6577   2.6832   2.7040   2.7506
  2.7818   2.8208   2.8247   2.8547   2.8688   2.8921   2.9185   2.9662
  3.0048   3.0218   3.0485   3.0941   3.1108   3.1760   3.1925   3.2263
  3.2435   3.2637   3.2951   3.3160   3.3183   3.3559   3.3826   3.4015
  3.4313   3.4465   3.4682   3.4883   3.5261   3.5283   3.5730   3.6000
  3.6139   3.6256   3.6510   3.6707   3.6766   3.6916   3.7123   3.7431
  3.7543   3.7679   3.7807   3.7930   3.8387   3.8516   3.8593   3.8702
  3.8909   3.9027   3.9159   3.9244   3.9676   3.9752   4.0030   4.0187
  4.0492   4.0712   4.0899   4.1213   4.1339   4.1709   4.1783   4.2197
  4.2411   4.2576   4.2660   4.2992   4.3052   4.3458   4.3668   4.3734
  4.3881   4.4253   4.4459   4.4487   4.4724   4.5180   4.5396   4.5569
  4.5810   4.6096   4.6373   4.6638   4.6949   4.7174   4.7471   4.7909
  4.8204   4.8348   4.8871   4.9135   4.9366   4.9804   5.0266   5.0725
  5.0881   5.1061   5.1235   5.1443   5.1660   5.2009   5.2263   5.2301
  5.2388   5.2538   5.2579   5.2702   5.2725   5.2795   5.2962   5.3104
  5.3145   5.3349   5.3365   5.3529   5.3588   5.3654   5.3731   5.3807
  5.3976   5.4164   5.4280   5.4330   5.4646   5.4737   5.4952   5.4968
  5.5373   5.5438   5.5539   5.5648   5.5719   5.6213   5.6316   5.6547
  5.6700   5.6806   5.6929   5.7012   5.7227   5.7521   5.7655   5.7917
  5.8017   5.8491   5.8799   5.9083   5.9933   6.0257   6.0498   6.0900
  6.1133   6.1362   6.1672   6.2630   6.2902   6.3185   6.5142   6.5452
  6.5884   6.6334   6.7568   6.8294   6.8456   6.8878   6.9036   6.9592
  6.9684   7.0078   7.0461   7.0636   7.0957   7.1029   7.1099   7.1528
  7.1602   7.1756   7.1910   7.2435   7.2739   7.2955   7.3201   7.3373
  7.3535   7.3634   7.3876   7.4114   7.4317   7.4471   7.4523   7.4758
  7.4906   7.5252   7.5363   7.5934   7.6056   7.6753   7.6952   7.7333
  7.7706   7.7941   7.8490   7.8702   7.8893   7.9102   7.9442   8.0430
  8.0591   8.1306   8.2404  24.6798  24.7777  24.8230  24.8694  50.4578
 50.5244  50.5582  50.6046  50.6425  50.6570  50.6905  50.7679
 
 Beta MOs
 -- Occupied --
-19.4170 -19.3909 -19.3760 -19.3654 -19.3531 -19.3428 -19.3426 -19.2721
-10.4608 -10.4440 -10.4301 -10.3359  -1.2879  -1.2604  -1.2057  -1.1747
 -1.1343  -1.1116  -1.0145  -0.9164  -0.8893  -0.8241  -0.7461  -0.7083
 -0.6838  -0.6413  -0.6374  -0.6195  -0.5831  -0.5801  -0.5702  -0.5652
 -0.5498  -0.5353  -0.5234  -0.5166  -0.4823  -0.4798  -0.4716  -0.4492
 -0.4409  -0.4281  -0.4067  -0.4004  -0.3938  -0.3744  -0.3410  -0.3326
 -- Virtual --
 -0.0087   0.0296   0.0424   0.0454   0.0503   0.0661   0.0722   0.0748
  0.0773   0.0999   0.1121   0.1176   0.1223   0.1362   0.1399   0.1411
  0.1506   0.1584   0.1618   0.1637   0.1766   0.1785   0.1859   0.1929
  0.1979   0.2073   0.2143   0.2177   0.2293   0.2397   0.2507   0.2530
  0.2668   0.2707   0.2816   0.2837   0.2863   0.2879   0.2933   0.3042
  0.3069   0.3095   0.3171   0.3271   0.3358   0.3391   0.3413   0.3503
  0.3556   0.3597   0.3640   0.3677   0.3755   0.3817   0.3827   0.3909
  0.3971   0.4018   0.4042   0.4107   0.4150   0.4213   0.4247   0.4292
  0.4465   0.4518   0.4573   0.4674   0.4730   0.4785   0.4825   0.4922
  0.4951   0.5337   0.5368   0.5473   0.5803   0.6110   0.6154   0.6312
  0.6373   0.6514   0.6568   0.6752   0.6824   0.6870   0.6973   0.7037
  0.7296   0.7359   0.7442   0.7589   0.7686   0.7742   0.7891   0.7965
  0.8139   0.8306   0.8513   0.8803   0.8904   0.9176   0.9242   0.9670
  0.9783   0.9880   1.0065   1.0132   1.0455   1.0723   1.0745   1.0762
  1.0837   1.1078   1.1176   1.1290   1.1415   1.1545   1.1664   1.1729
  1.1759   1.1850   1.1892   1.1975   1.2068   1.2127   1.2151   1.2358
  1.2389   1.2457   1.2522   1.2581   1.2668   1.2751   1.2936   1.2984
  1.3041   1.3125   1.3197   1.3455   1.3481   1.3577   1.3701   1.3904
  1.4023   1.4150   1.4269   1.4403   1.4454   1.4578   1.4688   1.4753
  1.5090   1.5177   1.5279   1.5337   1.5445   1.5531   1.5645   1.5895
  1.6019   1.6078   1.6342   1.6443   1.6683   1.6819   1.6934   1.7077
  1.7109   1.7267   1.7464   1.7549   1.7657   1.7980   1.8096   1.8168
  1.8329   1.8554   1.8692   1.8951   1.9295   1.9382   1.9489   1.9655
  1.9932   2.0151   2.0422   2.0741   2.0844   2.1014   2.1436   2.1566
  2.1879   2.2105   2.2202   2.2485   2.2609   2.3036   2.3127   2.3437
  2.3650   2.3846   2.4032   2.4163   2.4459   2.4716   2.4896   2.5050
  2.5118   2.5350   2.5611   2.6018   2.6328   2.6583   2.6900   2.7044
  2.7511   2.7824   2.8218   2.8262   2.8549   2.8693   2.8924   2.9188
  2.9664   3.0049   3.0223   3.0486   3.0943   3.1116   3.1763   3.1926
  3.2272   3.2439   3.2640   3.2950   3.3165   3.3186   3.3559   3.3828
  3.4017   3.4313   3.4467   3.4681   3.4885   3.5264   3.5284   3.5729
  3.6002   3.6135   3.6258   3.6510   3.6712   3.6765   3.6918   3.7127
  3.7431   3.7547   3.7682   3.7806   3.7930   3.8388   3.8517   3.8596
  3.8705   3.8911   3.9029   3.9159   3.9245   3.9677   3.9753   4.0030
  4.0191   4.0495   4.0714   4.0900   4.1215   4.1340   4.1712   4.1786
  4.2201   4.2415   4.2577   4.2660   4.2996   4.3054   4.3464   4.3670
  4.3737   4.3882   4.4254   4.4461   4.4492   4.4733   4.5188   4.5412
  4.5602   4.5816   4.6357   4.6391   4.6662   4.6994   4.7322   4.7496
  4.7917   4.8271   4.8541   4.8908   4.9185   4.9415   4.9948   5.0283
  5.0729   5.1281   5.1477   5.1583   5.1892   5.1990   5.2047   5.2283
  5.2376   5.2428   5.2548   5.2719   5.2776   5.2931   5.2986   5.3088
  5.3119   5.3321   5.3391   5.3473   5.3620   5.3672   5.3698   5.3812
  5.3815   5.4018   5.4183   5.4345   5.4438   5.4657   5.4741   5.4966
  5.4981   5.5394   5.5478   5.5558   5.5659   5.5725   5.6234   5.6320
  5.6650   5.6759   5.6812   5.6934   5.7024   5.7247   5.7553   5.7799
  5.7955   5.8061   5.8497   5.8820   5.9084   5.9934   6.0335   6.0502
  6.0900   6.1133   6.1363   6.1672   6.2671   6.2903   6.3202   6.5153
  6.5858   6.5940   6.6452   6.7571   6.8305   6.8917   6.9196   6.9652
  6.9769   6.9927   7.0227   7.0603   7.0760   7.0973   7.1079   7.1420
  7.1585   7.1643   7.1952   7.1991   7.2740   7.2789   7.2964   7.3211
  7.3395   7.3540   7.3670   7.4092   7.4154   7.4330   7.4493   7.4735
  7.4910   7.4944   7.5296   7.5396   7.5940   7.6097   7.6753   7.6965
  7.7392   7.7750   7.7956   7.8494   7.8704   7.8908   7.9103   7.9443
  8.0431   8.0743   8.1490   8.2406  24.6798  24.7776  24.8229  24.8694
 50.4700  50.5250  50.5671  50.6055  50.6425  50.6571  50.6905  50.7679
 --------------------------------------------------------------
 
          Ground-State Mulliken Net Atomic Charges

     Atom                 Charge (a.u.)    Spin (a.u.)
  --------------------------------------------------------
      1 C                    -0.059377      -0.000535
      2 O                    -0.424982      -0.000144
      3 C                     0.187056       0.005510
      4 O                    -0.395330      -0.002620
      5 C                    -0.514097       0.002559
      6 C                    -0.208720      -0.002596
      7 O                    -0.765240      -0.001440
      8 H                     0.307375       0.000096
      9 H                     0.338234       0.000025
     10 H                     0.278252      -0.001067
     11 H                     0.305252      -0.001107
     12 H                     0.271773       0.002736
     13 O                    -0.471453      -0.000039
     14 H                     0.345054      -0.000024
     15 O                    -0.220627       0.001536
     16 O                    -0.377168       0.000078
     17 H                     0.333161       0.000050
     18 H                     0.377720       0.000245
     19 O                     0.050232       0.377592
     20 O                    -0.357117       0.619145
  --------------------------------------------------------
  Sum of atomic charges =    -1.000000
  Sum of spin   charges =     1.000000

 -----------------------------------------------------------------
                    Cartesian Multipole Moments
 -----------------------------------------------------------------
    Charge (ESU x 10^10)
                -4.8032
    Dipole Moment (Debye)
         X     -24.2544      Y       4.9433      Z      -9.1624
       Tot      26.3943
    Quadrupole Moments (Debye-Ang)
        XX    -203.9337     XY      15.3673     YY     -77.1809
        XZ     -35.6973     YZ       4.8589     ZZ    -110.2775
    Octopole Moments (Debye-Ang^2)
       XXX   -1526.8958    XXY     119.8347    XYY    -285.0834
       YYY     175.7824    XXZ    -224.6860    XYZ       6.8474
       YYZ     -74.2700    XZZ    -431.7280    YZZ     107.3444
       ZZZ    -289.6625
    Hexadecapole Moments (Debye-Ang^3)
      XXXX  -10520.7284   XXXY     871.2052   XXYY   -1291.0119
      XYYY     588.5659   YYYY    -644.7801   XXXZ   -1565.2766
      XXYZ      20.5725   XYYZ    -283.5130   YYYZ     149.8601
      XXZZ   -2143.4098   XYZZ     329.0633   YYZZ    -488.5984
      XZZZ   -1132.2942   YZZZ     258.1232   ZZZZ   -2310.2950
 -----------------------------------------------------------------
 Calculating analytic gradient of the SCF energy
 Gradient of CDS energy
            1           2           3           4           5           6
    1  -0.0015621   0.0022844  -0.0008831   0.0009598  -0.0001254   0.0033421
    2  -0.0010763  -0.0005466  -0.0024992   0.0027845   0.0000679   0.0013449
    3  -0.0018615  -0.0000309   0.0003129  -0.0004055  -0.0000235   0.0003593
            7           8           9          10          11          12
    1  -0.0028474   0.0001678  -0.0004410  -0.0001475   0.0000606  -0.0003122
    2  -0.0009341   0.0000989   0.0002026  -0.0001400   0.0000469  -0.0002053
    3   0.0001633   0.0001210  -0.0001877   0.0000150  -0.0001735   0.0000680
           13          14          15          16          17          18
    1  -0.0004414  -0.0000453  -0.0000178  -0.0001503  -0.0000291   0.0002895
    2   0.0016856  -0.0004340   0.0000401  -0.0001654  -0.0004456   0.0001643
    3   0.0019237  -0.0002444  -0.0000470  -0.0001680   0.0001087   0.0000258
           19          20
    1  -0.0001331   0.0000315
    2  -0.0000078   0.0000187
    3  -0.0000418   0.0000859
 Gradient of SCF Energy
            1           2           3           4           5           6
    1   0.0074596  -0.0165744   0.0436633   0.0041571  -0.0580325  -0.0110333
    2   0.0431564   0.0055841  -0.0227234  -0.0202302   0.0318578   0.0375577
    3  -0.0100666  -0.0118330  -0.0133584   0.0253173   0.0007779   0.0435661
            7           8           9          10          11          12
    1   0.0013694  -0.0222974   0.0070619   0.0326616  -0.0054491   0.0177594
    2  -0.0091711  -0.0231826  -0.0064292   0.0096311  -0.0272955  -0.0210115
    3   0.0010478   0.0065273   0.0122783  -0.0040443   0.0085184  -0.0278206
           13          14          15          16          17          18
    1  -0.0020126   0.0049335  -0.0033714   0.0016402  -0.0082322   0.0028991
    2  -0.0287808   0.0234604  -0.0172689   0.0181072   0.0117802  -0.0011429
    3   0.0034679  -0.0105771   0.0052211   0.0221589  -0.0320000  -0.0227498
           19          20
    1  -0.0046187   0.0080166
    2  -0.0064268   0.0025279
    3   0.0091837  -0.0056148
 Max gradient component =       5.803E-02
 RMS gradient           =       1.983E-02
 Computing fast CPCM-SWIG gradient
 Updating gradient with PCM contributions...
 -- total gradient after adding PCM contribution --
---------------------------------------------------
  Atom         X              Y              Z     
---------------------------------------------------
   1       0.005670       0.006119       0.003000
   2       0.000676       0.005424      -0.011773
   3       0.000307       0.001592      -0.001969
   4       0.003566      -0.003867       0.009503
   5      -0.003795       0.003709      -0.002414
   6      -0.005347       0.005687       0.004120
   7      -0.006724      -0.001291       0.000814
   8      -0.004145      -0.002746       0.001767
   9       0.000498      -0.004266       0.008091
[...]
            1           2           3           4           5           6
    1   0.0012217  -0.0159917   0.0455654   0.0000680  -0.0562603  -0.0047779
    2   0.0386346   0.0006701  -0.0235822  -0.0162561   0.0281188   0.0331351
    3  -0.0111064  -0.0010199  -0.0111827   0.0187773  -0.0027305   0.0440553
            7           8           9          10          11          12
    1   0.0070637  -0.0187015   0.0058701   0.0276807  -0.0066677   0.0125852
    2  -0.0090406  -0.0204849  -0.0023486   0.0084264  -0.0225042  -0.0161649
    3  -0.0025778   0.0057550   0.0044484  -0.0038419   0.0081077  -0.0243303
           13          14          15          16          17          18
    1   0.0031749   0.0025976  -0.0010580   0.0018489  -0.0045234  -0.0016823
    2  -0.0208200   0.0185504  -0.0209278   0.0205980   0.0107420  -0.0015030
    3   0.0012543  -0.0072572   0.0082891   0.0234504  -0.0249108  -0.0227543
           19          20
    1  -0.0024293   0.0044160
    2  -0.0059325   0.0006895
    3  -0.0032437   0.0008182
 Max gradient component =       5.626E-02
 RMS gradient           =       1.800E-02
 Computing fast CPCM-SWIG gradient
 Updating gradient with PCM contributions...
 -- total gradient after adding PCM contribution --
---------------------------------------------------
  Atom         X              Y              Z     
---------------------------------------------------
   1      -0.000021       0.000002       0.000013
   2      -0.000002       0.000004      -0.000021
   3      -0.000043      -0.000014       0.000011
   4       0.000044       0.000007       0.000017
   5       0.000019      -0.000005       0.000020
   6       0.000083       0.000163      -0.000070
   7      -0.000045      -0.000028      -0.000047
   8      -0.000003      -0.000018      -0.000010
   9      -0.000010       0.000003       0.000013
  10       0.000014       0.000015       0.000004
  11       0.000012       0.000001      -0.000003
  12       0.000023      -0.000003      -0.000002
  13      -0.000015      -0.000017       0.000008
  14      -0.000027       0.000003       0.000002
  15       0.000018      -0.000021      -0.000020
  16       0.000006      -0.000032      -0.000084
  17      -0.000042       0.000006       0.000009
  18      -0.000008       0.000003       0.000102
  19      -0.000020      -0.000096       0.000052
  20       0.000018       0.000027       0.000006
---------------------------------------------------
 Number of fixed atoms: 0
 Gradient time:  CPU 539.56 s  wall 44.03 s
 Geometry Optimization Parameters
   NAtoms,    NIC,     NZ,  NCons,   NDum,   NFix, NCnnct, MaxDiis
       20     132       0       0       0       0       0       0

 Cartesian Hessian Update
 Hessian updated using BFGS update


** GEOMETRY OPTIMIZATION IN DELOCALIZED INTERNAL COORDINATES **
   Searching for a Minimum

   Optimization Cycle:  15

                       Coordinates (Angstroms)
     ATOM                X               Y               Z
      1  C         3.0566806833   -0.6440855337   -1.2434678049
      2  O         1.6708129699   -0.4214322096   -1.1323477851
      3  C         3.5731200068   -1.0625794032    0.1400413877
      4  O         3.0903007287   -2.3586693562    0.3636560207
      5  C         3.1525753170   -0.0599283471    1.2170719661
      6  C         3.9357118361   -0.0590887787    2.5309354254
      7  O         5.2147722807    0.2510214906    2.4857449180
      8  H         3.5732325122    0.2611510790   -1.5586032512
      9  H         1.3761075380    0.0256945064   -1.9337089414
     10  H         2.1014228530   -0.2456045338    1.4298958683
     11  H         3.2216433136    0.9521538133    0.8165848976
     12  H         3.3530913205    0.4553903630    3.3051096934
     13  O         3.3462660960   -1.6214513435   -2.2121262095
     14  H         3.0428731434   -2.4733526445   -1.8699842682
     15  O         4.9927251718   -1.2430737688    0.0560526550
     16  O         5.6354988356    0.0346102837    0.0431022402
     17  H         3.3361366275   -2.6313001978    1.2569913233
     18  H         5.6002278071    0.2300318346    1.0581701197
     19  O         3.8400394240   -1.5438192672    3.0689214055
     20  O         2.6931132350   -1.7961175870    3.6279366393
   Point Group: c1    Number of degrees of freedom:    54


   Energy is   -759.029183117

 Hessian updated using BFGS update

 54 Hessian modes will be used to form the next step
  Hessian Eigenvalues:
     0.003371    0.004686    0.006050    0.008053    0.009477    0.013019
     0.014757    0.030247    0.038786    0.041581    0.049232    0.058855
     0.060712    0.063345    0.064594    0.069093    0.090304    0.092516
     0.101460    0.108763    0.115490    0.122139    0.133030    0.157730
     0.162440    0.164786    0.181041    0.194279    0.205020    0.208002
     0.216420    0.235270    0.259308    0.273879    0.287141    0.309104
     0.311270    0.330617    0.342232    0.343859    0.345204    0.360596
     0.371407    0.425091    0.441126    0.449618    0.450806    0.511213
     0.525523    0.529891    0.557523    0.610754    0.633914    1.359325

 Minimum search - taking simple RFO step
 Searching for Lamda that Minimizes Along All modes
 Value Taken    Lamda =  -0.00000052
 Step Taken.  Stepsize is  0.005572

                             Maximum     Tolerance    Cnvgd?
         Gradient           0.000102      0.000300     YES
         Displacement       0.002669      0.001200      NO
         Energy change     -0.000001      0.000001     YES

 Final energy is   -759.029183116905     


 ******************************
 **  OPTIMIZATION CONVERGED  **
 ******************************

                       Coordinates (Angstroms)
     ATOM                X               Y               Z
      1  C         3.0566806833   -0.6440855337   -1.2434678049
      2  O         1.6708129699   -0.4214322096   -1.1323477851
      3  C         3.5731200068   -1.0625794032    0.1400413877
      4  O         3.0903007287   -2.3586693562    0.3636560207
      5  C         3.1525753170   -0.0599283471    1.2170719661
      6  C         3.9357118361   -0.0590887787    2.5309354254
      7  O         5.2147722807    0.2510214906    2.4857449180
      8  H         3.5732325122    0.2611510790   -1.5586032512
      9  H         1.3761075380    0.0256945064   -1.9337089414
     10  H         2.1014228530   -0.2456045338    1.4298958683
     11  H         3.2216433136    0.9521538133    0.8165848976
     12  H         3.3530913205    0.4553903630    3.3051096934
     13  O         3.3462660960   -1.6214513435   -2.2121262095
     14  H         3.0428731434   -2.4733526445   -1.8699842682
     15  O         4.9927251718   -1.2430737688    0.0560526550
     16  O         5.6354988356    0.0346102837    0.0431022402
     17  H         3.3361366275   -2.6313001978    1.2569913233
     18  H         5.6002278071    0.2300318346    1.0581701197
     19  O         3.8400394240   -1.5438192672    3.0689214055
     20  O         2.6931132350   -1.7961175870    3.6279366393

Z-matrix Print:
$molecule
-1 2
O 
O  1 1.430315
H  2 1.034310 1 98.312180
C  1 1.433496 2 109.456615 3 79.924992 0
O  4 1.401059 1 103.541142 2 -170.717997 0
H  5 0.965821 4 108.725831 1 70.418196 0
O  3 1.478846 2 163.524591 1 -26.185061 0
C  7 1.316893 3 106.435879 2 -23.728962 0
H  8 1.097033 7 115.442824 3 -144.459219 0
C  8 1.529556 7 117.901047 3 -12.308298 0
H  10 1.088435 8 109.062512 7 -174.950625 0
H  10 1.090629 8 106.408965 7 -59.926050 0
C  4 1.534909 1 108.343985 2 76.735888 0
H  13 1.088848 4 109.143097 1 -57.234891 0
O  13 1.406202 4 111.229779 1 59.746062 0
H  15 0.966873 13 107.698818 4 50.596074 0
O  13 1.408031 4 107.646692 1 -177.794726 0
H  17 0.963822 13 107.980706 4 167.586944 0
O  8 1.582089 7 106.941730 3 105.698194 0
O  19 1.300612 8 112.428429 7 155.677080 0
$end

 
 --------------------------------------------------------------
 
                    Orbital Energies (a.u.)
 --------------------------------------------------------------
 
 Alpha MOs
 -- Occupied --
-19.4342 -19.3991 -19.3888 -19.3603 -19.3530 -19.3449 -19.3436 -19.2750
-10.4580 -10.4434 -10.4328 -10.3373  -1.3169  -1.2587  -1.2053  -1.1736
 -1.1342  -1.1142  -1.0105  -0.9573  -0.8913  -0.8248  -0.7441  -0.7134
 -0.6811  -0.6448  -0.6357  -0.6265  -0.6057  -0.5919  -0.5848  -0.5694
 -0.5677  -0.5404  -0.5288  -0.5204  -0.5046  -0.4816  -0.4722  -0.4509
 -0.4417  -0.4278  -0.4106  -0.4072  -0.3948  -0.3839  -0.3716  -0.3515
 -0.3397
 -- Virtual --
  0.0296   0.0425   0.0452   0.0506   0.0666   0.0724   0.0730   0.0768
  0.0994   0.1113   0.1174   0.1216   0.1358   0.1396   0.1406   0.1493
  0.1590   0.1617   0.1645   0.1748   0.1776   0.1859   0.1939   0.1991
  0.2056   0.2147   0.2169   0.2288   0.2382   0.2506   0.2551   0.2643
  0.2675   0.2735   0.2820   0.2860   0.2880   0.2956   0.3008   0.3067
  0.3121   0.3165   0.3270   0.3312   0.3389   0.3402   0.3497   0.3545
  0.3603   0.3616   0.3663   0.3735   0.3767   0.3844   0.3878   0.3937
  0.4000   0.4059   0.4128   0.4139   0.4163   0.4262   0.4328   0.4406
  0.4491   0.4586   0.4711   0.4740   0.4785   0.4894   0.4922   0.4971
  0.5300   0.5415   0.5494   0.5754   0.6081   0.6193   0.6273   0.6336
  0.6522   0.6541   0.6732   0.6766   0.6889   0.6958   0.7023   0.7245
  0.7349   0.7426   0.7619   0.7665   0.7769   0.7872   0.7994   0.8074
  0.8360   0.8502   0.8794   0.8878   0.9164   0.9209   0.9693   0.9788
  0.9989   1.0068   1.0149   1.0421   1.0656   1.0745   1.0807   1.0858
  1.1066   1.1186   1.1307   1.1403   1.1542   1.1612   1.1731   1.1764
  1.1824   1.1868   1.1984   1.2043   1.2135   1.2176   1.2260   1.2336
  1.2419   1.2512   1.2554   1.2728   1.2739   1.2884   1.2978   1.3063
  1.3109   1.3177   1.3361   1.3500   1.3631   1.3771   1.3816   1.4050
  1.4133   1.4203   1.4438   1.4449   1.4589   1.4697   1.4875   1.5040
  1.5135   1.5281   1.5370   1.5424   1.5513   1.5634   1.5855   1.5976
  1.6031   1.6298   1.6451   1.6680   1.6797   1.6945   1.7040   1.7120
  1.7236   1.7428   1.7617   1.7684   1.7974   1.8089   1.8252   1.8306
  1.8650   1.8800   1.9004   1.9346   1.9450   1.9564   1.9714   1.9909
  2.0274   2.0476   2.0811   2.1026   2.1213   2.1498   2.1511   2.2021
  2.2234   2.2329   2.2474   2.2580   2.2897   2.3072   2.3386   2.3716
  2.3897   2.4057   2.4221   2.4512   2.4676   2.4914   2.5056   2.5226
  2.5447   2.5685   2.6080   2.6469   2.6784   2.6918   2.7148   2.7578
  2.7915   2.8132   2.8366   2.8569   2.8823   2.8928   2.9223   2.9808
  2.9963   3.0200   3.0630   3.0912   3.1168   3.1707   3.2007   3.2236
  3.2478   3.2660   3.3007   3.3106   3.3319   3.3569   3.3897   3.4124
  3.4407   3.4519   3.4703   3.5011   3.5221   3.5331   3.5693   3.6054
  3.6133   3.6249   3.6642   3.6764   3.6815   3.6909   3.7238   3.7444
  3.7580   3.7671   3.7902   3.8011   3.8336   3.8555   3.8615   3.8660
  3.8882   3.9019   3.9266   3.9336   3.9674   3.9756   4.0032   4.0220
  4.0408   4.0680   4.0924   4.1088   4.1424   4.1699   4.1743   4.2220
  4.2353   4.2551   4.2628   4.2828   4.3069   4.3308   4.3580   4.3692
  4.3814   4.4063   4.4343   4.4452   4.4680   4.5076   4.5244   4.5559
  4.5839   4.6229   4.6432   4.6563   4.6852   4.7327   4.7460   4.7980
  4.8107   4.8361   4.8822   4.9189   4.9313   4.9795   5.0353   5.0732
  5.0927   5.1059   5.1300   5.1447   5.1681   5.2041   5.2295   5.2351
  5.2465   5.2548   5.2617   5.2744   5.2766   5.2856   5.2984   5.3106
  5.3209   5.3398   5.3437   5.3565   5.3599   5.3659   5.3805   5.3856
  5.4089   5.4127   5.4373   5.4529   5.4742   5.4873   5.4991   5.5035
  5.5350   5.5449   5.5585   5.5702   5.5855   5.6069   5.6207   5.6533
  5.6583   5.6725   5.6780   5.6941   5.7181   5.7421   5.7631   5.7887
  5.7996   5.8444   5.8635   5.9136   5.9850   6.0285   6.0522   6.0676
  6.1094   6.1348   6.1613   6.2676   6.2754   6.2980   6.5051   6.5227
  6.5886   6.5997   6.7539   6.8349   6.8522   6.8756   6.9046   6.9469
  6.9641   6.9927   7.0433   7.0625   7.0905   7.1009   7.1133   7.1582
  7.1720   7.1862   7.2064   7.2523   7.2648   7.2874   7.3098   7.3267
  7.3330   7.3624   7.4034   7.4284   7.4321   7.4509   7.4596   7.4907
  7.5036   7.5281   7.5421   7.5924   7.6097   7.6637   7.6870   7.7248
  7.7742   7.7939   7.8577   7.8664   7.9038   7.9255   7.9357   8.0528
  8.0577   8.1177   8.2487  24.6623  24.7763  24.8069  24.8647  50.4515
 50.5334  50.5645  50.6057  50.6350  50.6604  50.6957  50.7787
 
 Beta MOs
 -- Occupied --
-19.4226 -19.3888 -19.3814 -19.3603 -19.3530 -19.3449 -19.3436 -19.2751
-10.4580 -10.4434 -10.4331 -10.3372  -1.2895  -1.2585  -1.2053  -1.1735
 -1.1342  -1.1127  -1.0103  -0.9239  -0.8882  -0.8226  -0.7424  -0.7097
 -0.6805  -0.6405  -0.6330  -0.6211  -0.5833  -0.5818  -0.5686  -0.5661
 -0.5535  -0.5384  -0.5258  -0.5138  -0.4808  -0.4768  -0.4717  -0.4504
 -0.4411  -0.4276  -0.4075  -0.4019  -0.3927  -0.3734  -0.3446  -0.3369
 -- Virtual --
 -0.0156   0.0297   0.0427   0.0453   0.0507   0.0674   0.0726   0.0733
  0.0771   0.0997   0.1119   0.1184   0.1219   0.1360   0.1400   0.1410
  0.1505   0.1592   0.1619   0.1659   0.1752   0.1788   0.1862   0.1954
  0.2006   0.2060   0.2161   0.2178   0.2305   0.2390   0.2520   0.2560
  0.2656   0.2683   0.2803   0.2833   0.2862   0.2900   0.2966   0.3033
  0.3071   0.3129   0.3187   0.3272   0.3337   0.3395   0.3409   0.3512
  0.3548   0.3617   0.3619   0.3665   0.3743   0.3792   0.3858   0.3887
  0.3950   0.4009   0.4061   0.4129   0.4145   0.4172   0.4267   0.4337
  0.4410   0.4495   0.4591   0.4714   0.4744   0.4789   0.4906   0.4931
  0.4975   0.5301   0.5419   0.5502   0.5754   0.6086   0.6195   0.6275
  0.6340   0.6527   0.6542   0.6736   0.6769   0.6891   0.6963   0.7029
  0.7253   0.7350   0.7427   0.7620   0.7666   0.7772   0.7873   0.8000
  0.8076   0.8363   0.8520   0.8795   0.8886   0.9174   0.9217   0.9697
  0.9791   0.9993   1.0085   1.0173   1.0443   1.0691   1.0752   1.0827
  1.0864   1.1079   1.1206   1.1354   1.1421   1.1586   1.1649   1.1755
  1.1820   1.1852   1.1876   1.1997   1.2064   1.2139   1.2212   1.2335
  1.2410   1.2433   1.2550   1.2615   1.2755   1.2764   1.2911   1.2991
  1.3083   1.3117   1.3197   1.3368   1.3506   1.3675   1.3807   1.3849
  1.4063   1.4151   1.4217   1.4457   1.4469   1.4602   1.4734   1.4892
  1.5050   1.5166   1.5347   1.5406   1.5453   1.5523   1.5693   1.5876
  1.5990   1.6057   1.6309   1.6492   1.6743   1.6857   1.6959   1.7059
  1.7220   1.7306   1.7462   1.7642   1.7723   1.8051   1.8110   1.8300
  1.8329   1.8671   1.8863   1.9062   1.9358   1.9469   1.9578   1.9739
  1.9944   2.0295   2.0497   2.0829   2.1041   2.1235   2.1513   2.1553
  2.2092   2.2253   2.2342   2.2492   2.2618   2.3022   2.3096   2.3444
  2.3739   2.3913   2.4070   2.4288   2.4517   2.4685   2.4943   2.5069
  2.5233   2.5449   2.5688   2.6084   2.6472   2.6797   2.6970   2.7166
  2.7587   2.7922   2.8136   2.8385   2.8571   2.8830   2.8931   2.9227
  2.9809   2.9965   3.0204   3.0633   3.0914   3.1177   3.1711   3.2009
  3.2241   3.2486   3.2663   3.3008   3.3112   3.3324   3.3569   3.3900
  3.4125   3.4406   3.4522   3.4703   3.5013   3.5222   3.5336   3.5693
  3.6056   3.6136   3.6245   3.6645   3.6765   3.6816   3.6910   3.7242
  3.7443   3.7585   3.7673   3.7908   3.8008   3.8337   3.8557   3.8618
  3.8663   3.8884   3.9021   3.9267   3.9337   3.9675   3.9758   4.0033
  4.0224   4.0412   4.0682   4.0925   4.1090   4.1426   4.1703   4.1746
  4.2226   4.2357   4.2552   4.2630   4.2833   4.3070   4.3313   4.3585
  4.3695   4.3818   4.4064   4.4350   4.4458   4.4698   4.5080   4.5259
  4.5589   4.5846   4.6307   4.6567   4.6606   4.6918   4.7456   4.7485
  4.8014   4.8159   4.8549   4.8881   4.9251   4.9339   4.9948   5.0367
  5.0738   5.1336   5.1509   5.1611   5.1915   5.2030   5.2083   5.2312
  5.2425   5.2507   5.2637   5.2792   5.2832   5.2870   5.2953   5.3058
  5.3111   5.3404   5.3446   5.3508   5.3602   5.3643   5.3823   5.3852
  5.3928   5.4103   5.4162   5.4405   5.4691   5.4767   5.4879   5.5004
  5.5047   5.5389   5.5484   5.5602   5.5709   5.5862   5.6099   5.6220
  5.6569   5.6670   5.6751   5.6786   5.6949   5.7203   5.7532   5.7704
  5.7954   5.8002   5.8458   5.8654   5.9138   5.9852   6.0297   6.0576
  6.0683   6.1095   6.1350   6.1613   6.2691   6.2774   6.3018   6.5202
  6.5534   6.5894   6.6111   6.7542   6.8357   6.8771   6.9201   6.9600
  6.9775   6.9825   7.0151   7.0625   7.0707   7.0980   7.1093   7.1343
  7.1646   7.1884   7.1944   7.2139   7.2652   7.2789   7.2956   7.3107
  7.3279   7.3352   7.3669   7.4128   7.4287   7.4405   7.4637   7.4860
  7.4997   7.5051   7.5353   7.5442   7.5936   7.6128   7.6640   7.6876
  7.7294   7.7780   7.7982   7.8580   7.8666   7.9042   7.9271   7.9362
  8.0531   8.0722   8.1354   8.2490  24.6624  24.7762  24.8069  24.8647
 50.4636  50.5349  50.5727  50.6062  50.6350  50.6605  50.6958  50.7787
 --------------------------------------------------------------
 
          Ground-State Mulliken Net Atomic Charges

     Atom                 Charge (a.u.)    Spin (a.u.)
  --------------------------------------------------------
      1 C                    -0.070702       0.001076
      2 O                    -0.426463      -0.000049
      3 C                     0.212354       0.007090
      4 O                    -0.397056      -0.003680
      5 C                    -0.560842       0.003267
      6 C                    -0.160652      -0.002601
      7 O                    -0.765429      -0.002210
      8 H                     0.296190       0.000029
      9 H                     0.338984       0.000092
     10 H                     0.282280      -0.000737
     11 H                     0.304689      -0.001111
     12 H                     0.271062       0.003739
     13 O                    -0.466371      -0.000049
     14 H                     0.346029      -0.000043
     15 O                    -0.229437       0.001997
     16 O                    -0.393379      -0.000046
     17 H                     0.322337      -0.000855
     18 H                     0.383028       0.000229
     19 O                     0.066114       0.358138
     20 O                    -0.352736       0.635723
  --------------------------------------------------------
  Sum of atomic charges =    -1.000000
  Sum of spin   charges =     1.000000

 -----------------------------------------------------------------
                    Cartesian Multipole Moments
 -----------------------------------------------------------------
    Charge (ESU x 10^10)
                -4.8032
    Dipole Moment (Debye)
         X     -24.5456      Y       5.4154      Z      -8.2586
       Tot      26.4579
    Quadrupole Moments (Debye-Ang)
        XX    -206.9074     XY      16.9366     YY     -78.8834
        XZ     -33.0694     YZ       4.1183     ZZ    -104.9804
    Octopole Moments (Debye-Ang^2)
       XXX   -1549.5270    XXY     125.8053    XYY    -290.7855
       YYY     184.1759    XXZ    -217.2046    XYZ       4.8263
       YYZ     -71.9094    XZZ    -415.4242    YZZ     104.4639
       ZZZ    -259.5972
    Hexadecapole Moments (Debye-Ang^3)
      XXXX  -10679.3018   XXXY     889.6947   XXYY   -1313.2721
      XYYY     613.0028   YYYY    -678.4672   XXXZ   -1554.4626
      XXYZ      17.4278   XYYZ    -275.1419   YYYZ     155.3626
      XXZZ   -2078.9293   XYZZ     319.7404   YYZZ    -473.2807
      XZZZ   -1045.3456   YZZZ     219.7782   ZZZZ   -2087.2066
 -----------------------------------------------------------------
 Total job time:  4839.96s(wall), 68579.05s(cpu) 
 Thu Aug 15 21:45:46 2024

        *************************************************************
        *                                                           *
        *  Thank you very much for using Q-Chem.  Have a nice day.  *
        *                                                           *
        *************************************************************


