
Running Job 1 of 1 Q_in.in
qchem Q_in.in_209784.0 /scratch/ari.fischer/qChem2100609.hpc-mn1/qchem209784/ 0
/usr/local/qchem-5.4.1/exe/qcprog.exe_s Q_in.in_209784.0 /scratch/ari.fischer/qChem2100609.hpc-mn1/qchem209784/
                  Welcome to Q-Chem
     A Quantum Leap Into The Future Of Chemistry


 Q-Chem 5.4, Q-Chem, Inc., Pleasanton, CA (2021)

 License issued to: Nanyang Technological University (site)

 E. Epifanovsky,  A. T. B. Gilbert,  Xintian Feng,  Joonho Lee,  Yuezhi Mao,  
 N. Mardirossian,  P. Pokhilko,  A. White,  M. Wormit,  M. P. Coons,  
 A. L. Dempwolff,  Zhengting Gan,  D. Hait,  P. R. Horn,  L. D. Jacobson,  
 I. Kaliman,  J. Kussmann,  A. W. Lange,  Ka Un Lao,  D. S. Levine,  Jie Liu,  
 S. C. McKenzie,  A. F. Morrison,  K. Nanda,  F. Plasser,  D. R. Rehn,  
 M. L. Vidal,  Zhi-Qiang You,  Ying Zhu,  B. Alam,  B. Albrecht,  
 A. Aldossary,  E. Alguire,  J. H. Andersen,  D. Barton,  K. Begam,  A. Behn,  
 Y. A. Bernard,  E. J. Berquist,  H. Burton,  A. Carreras,  K. Carter-Fenk,  
 R. Chakraborty,  A. D. Chien,  K. D. Closser,  V. Cofer-Shabica,  
 S. Dasgupta,  Jia Deng,  M. de Wergifosse,  M. Diedenhofen,  Hainam Do,  
 S. Ehlert,  Po-Tung Fang,  S. Fatehi,  Qingguo Feng,  T. Friedhoff,  
 J. Gayvert,  Qinghui Ge,  G. Gidofalvi,  M. Goldey,  J. Gomes,  
 C. Gonzalez-Espinoza,  S. Gulania,  A. Gunina,  M. W. D. Hanson-Heine,  
 P. H. P. Harbach,  A. W. Hauser,  M. F. Herbst,  M. Hernandez Vera,  
 M. Hodecker,  Z. C. Holden,  S. Houck,  Xunkun Huang,  Kerwin Hui,  
 B. C. Huynh,  M. Ivanov,  Hyunjun Ji,  Hanjie Jiang,  B. Kaduk,  S. Kaehler,  
 K. Khistyaev,  Jaehoon Kim,  P. Klunzinger,  Z. Koczor-Benda,  
 Joong Hoon Koh,  D. Kosenkov,  L. Koulias,  T. Kowalczyk,  C. M. Krauter,  
 K. Kue,  A. Kunitsa,  T. Kus,  A. Landau,  K. V. Lawler,  D. Lefrancois,  
 S. Lehtola,  Rain Li,  Yi-Pei Li,  Jiashu Liang,  M. Liebenthal,  
 Hung-Hsuan Lin,  You-Sheng Lin,  Fenglai Liu,  Kuan-Yu Liu,  
 M. Loipersberger,  A. Luenser,  A. Manjanath,  P. Manohar,  E. Mansoor,  
 S. F. Manzer,  Shan-Ping Mao,  A. V. Marenich,  T. Markovich,  S. Mason,  
 S. A. Maurer,  P. F. McLaughlin,  M. F. S. J. Menger,  J.-M. Mewes,  
 S. A. Mewes,  P. Morgante,  J. W. Mullinax,  K. J. Oosterbaan,  G. Paran,  
 Alexander C. Paul,  Suranjan K. Paul,  F. Pavosevic,  Zheng Pei,  S. Prager,  
 E. I. Proynov,  E. Ramos,  B. Rana,  A. E. Rask,  A. Rettig,  R. M. Richard,  
 F. Rob,  E. Rossomme,  T. Scheele,  M. Scheurer,  M. Schneider,  
 N. Sergueev,  S. M. Sharada,  W. Skomorowski,  D. W. Small,  C. J. Stein,  
 Yu-Chuan Su,  E. J. Sundstrom,  Zhen Tao,  J. Thirman,  T. Tsuchimochi,  
 N. M. Tubman,  S. P. Veccham,  O. Vydrov,  J. Wenzel,  J. Witte,  A. Yamada,  
 Kun Yao,  S. Yeganeh,  S. R. Yost,  A. Zech,  Igor Ying Zhang,  Xing Zhang,  
 Yu Zhang,  D. Zuev,  A. Aspuru-Guzik,  A. T. Bell,  N. A. Besley,  
 K. B. Bravaya,  B. R. Brooks,  D. Casanova,  Jeng-Da Chai,  S. Coriani,  
 C. J. Cramer,  A. E. DePrince, III,  R. A. DiStasio Jr.,  A. Dreuw,  
 B. D. Dunietz,  T. R. Furlani,  W. A. Goddard III,  S. Grimme,  
 S. Hammes-Schiffer,  T. Head-Gordon,  W. J. Hehre,  Chao-Ping Hsu,  
 T.-C. Jagau,  Yousung Jung,  A. Klamt,  Jing Kong,  D. S. Lambrecht,  
 WanZhen Liang,  N. J. Mayhall,  C. W. McCurdy,  J. B. Neaton,  
 C. Ochsenfeld,  J. A. Parkhill,  R. Peverati,  V. A. Rassolov,  Yihan Shao,  
 L. V. Slipchenko,  T. Stauch,  R. P. Steele,  J. E. Subotnik,  
 A. J. W. Thom,  A. Tkatchenko,  D. G. Truhlar,  T. Van Voorhis,  
 T. A. Wesolowski,  K. B. Whaley,  H. L. Woodcock III,  P. M. Zimmerman,  
 S. Faraji,  P. M. W. Gill,  M. Head-Gordon,  J. M. Herbert,  A. I. Krylov

 Additional authors for Version 5.4.1: 
 S. Kotaru,  Shaozhi Li,  Xiangyuan Li,  F. Matz,  A. Molle,  Haisheng Ren,  
 Yingli Su,  Hung-Yi Tsai,  C. Utku,  Fang Wang

 Contributors to earlier versions of Q-Chem not listed above: 
 R. D. Adamson,  B. Austin,  R. Baer,  J. Baker,  G. J. O. Beran,  
 K. Brandhorst,  S. T. Brown,  E. F. C. Byrd,  A. K. Chakraborty,  
 G. K. L. Chan,  Chun-Min Chang,  Yunqing Chen,  C.-L. Cheng,  
 Siu Hung Chien,  D. M. Chipman,  D. L. Crittenden,  H. Dachsel,  
 R. J. Doerksen,  A. D. Dutoi,  R. G. Edgar,  J. Fosso-Tande,  
 L. Fusti-Molnar,  D. Ghosh,  A. Ghysels,  A. Golubeva-Zadorozhnaya,  
 J. Gonthier,  M. S. Gordon,  S. R. Gwaltney,  G. Hawkins,  J. E. Herr,  
 A. Heyden,  S. Hirata,  E. G. Hohenstein,  G. Kedziora,  F. J. Keil,  
 C. Kelley,  Jihan Kim,  R. A. King,  R. Z. Khaliullin,  P. P. Korambath,  
 W. Kurlancheek,  A. Laurent,  A. M. Lee,  M. S. Lee,  S. V. Levchenko,  
 Ching Yeh Lin,  D. Liotard,  E. Livshits,  R. C. Lochan,  I. Lotan,  
 L. A. Martinez-Martinez,  P. E. Maslen,  N. Nair,  D. P. O'Neill,  
 D. Neuhauser,  E. Neuscamman,  C. M. Oana,  R. Olivares-Amaya,  R. Olson,  
 T. M. Perrine,  B. Peters,  P. A. Pieniazek,  A. Prociuk,  Y. M. Rhee,  
 J. Ritchie,  M. A. Rohrdanz,  E. Rosta,  N. J. Russ,  H. F. Schaefer III,  
 M. W. Schmidt,  N. E. Schultz,  S. Sharma,  N. Shenvi,  C. D. Sherrill,  
 A. C. Simmonett,  A. Sodt,  T. Stein,  D. Stuck,  K. S. Thanthiriwatte,  
 V. Vanovschi,  L. Vogt,  Tao Wang,  A. Warshel,  M. A. Watson,  
 C. F. Williams,  Q. Wu,  X. Xu,  Jun Yang,  W. Zhang,  Yan Zhao

 Please cite Q-Chem as follows:
 Y. Shao et al., Mol. Phys. 113, 184-215 (2015)
 DOI: 10.1080/00268976.2014.952696

 Q-Chem 5.4.1 for Intel X86 EM64T Linux

 Parts of Q-Chem use Armadillo 9.800.1 (Horizon Scraper).
 http://arma.sourceforge.net/

 Q-Chem begins on Tue May 14 09:51:40 2024  

 Host: 
0

     Scratch files written to /scratch/ari.fischer/qChem2100609.hpc-mn1/qchem209784//
 Aug1521 |scratch|qcdevops|jenkins|workspace|build_RNUM 8249   
 Processing $rem in /usr/local/qchem-5.4.1/config/preferences:
 Processing $rem in /home/ari.fischer/.qchemrc:
 Symmetry turned off for PCM/SM12/SMD calculation


!!********************************************.
!!******************Warning*******************.
!!Desired Analytical derivatives not available.
!!Finite difference job might take a long time.
!!********************************************.
!!********************************************.


 2-order derivative to be evaluated numerically with 1-order analytical derivatives

 Checking the input file for inconsistencies... 	...done.

--------------------------------------------------------------
User input:
--------------------------------------------------------------
$molecule
0 2
H         0.5494870302    1.1121890970    1.8981981717
C         0.0368225133    1.2510758343    0.9559882674
C        -1.3937059848    1.5742808067    0.9869507899
H        -1.8418405081    1.8157438377    1.9416345888
C        -2.1299889353    1.5826360889   -0.1223353566
H        -3.1838649876    1.8228880810   -0.1068511667
C        -1.5107143611    1.2143396570   -1.4283669096
H        -1.9763529213    1.7262930837   -2.2683406194
C         0.0081139346    1.3928883184   -1.5053921124
H         0.3779365918    0.6823609414   -2.2476299993
C         0.6985687447    1.1628351551   -0.1952745688
H         1.7617485246    0.9637213830   -0.2224195762
O         0.3216569184    2.7243746560   -1.9170485898
H         0.0636089520    2.8222509235   -2.8415479411
O        -1.8180789309   -0.2197648546   -1.6153931630
O        -1.6444777806   -0.5971757089   -2.8488761150
$end

$rem
BASIS = 6-311++G(2df,2p)
GUI = 2
JOB_TYPE = Frequency
METHOD = wB97M-V
SOLVENT_METHOD = SMD
SCF_ALGORITHM = DIIS_GDM
MAX_SCF_CYCLES = 400
SCF_CONVERGENCE = 7
THRESH = 12
$end
--------------------------------------------------------------
 ----------------------------------------------------------------
             Standard Nuclear Orientation (Angstroms)
    I     Atom           X                Y                Z
 ----------------------------------------------------------------
    1      H       0.5494870302     1.1121890970     1.8981981717
    2      C       0.0368225133     1.2510758343     0.9559882674
    3      C      -1.3937059848     1.5742808067     0.9869507899
    4      H      -1.8418405081     1.8157438377     1.9416345888
    5      C      -2.1299889353     1.5826360889    -0.1223353566
    6      H      -3.1838649876     1.8228880810    -0.1068511667
    7      C      -1.5107143611     1.2143396570    -1.4283669096
    8      H      -1.9763529213     1.7262930837    -2.2683406194
    9      C       0.0081139346     1.3928883184    -1.5053921124
   10      H       0.3779365918     0.6823609414    -2.2476299993
   11      C       0.6985687447     1.1628351551    -0.1952745688
   12      H       1.7617485246     0.9637213830    -0.2224195762
   13      O       0.3216569184     2.7243746560    -1.9170485898
   14      H       0.0636089520     2.8222509235    -2.8415479411
   15      O      -1.8180789309    -0.2197648546    -1.6153931630
   16      O      -1.6444777806    -0.5971757089    -2.8488761150
 ----------------------------------------------------------------
 Nuclear Repulsion Energy =         448.47096813 hartrees
 There are       34 alpha and       33 beta electrons
 Requested basis set is 6-311++G(2df,2p)
 There are 114 shells and 376 basis functions

 Total QAlloc Memory Limit 288000 MB
 Mega-Array Size       188 MB
 MEM_STATIC part       192 MB
 
 Citation of the SMD model:
 Marenich, A.V.; Cramer, C.J.; Truhlar, D.G.
 J. Phys. Chem. B 2009, 113, 6378-6396.
 iSolventCode=           1
 Solvent: water                                                           
 
 vradii
            1           2           3           4           5           6
    1   1.2000000   1.8500000   1.8500000   1.2000000   1.8500000   1.2000000
            7           8           9          10          11          12
    1   1.8500000   1.2000000   1.8500000   1.2000000   1.8500000   1.2000000
           13          14          15          16
    1   1.5200000   1.2000000   1.5200000   1.5200000
 Changing PCM_VDW_RADII to SMD_RADIUS
 Discretize the solute cavity surface with Lebedev spheres
	Using 110 Lebedev grid points for each H atom
	Using 194 Lebedev grid points for other atoms
	Atomic van der Waals radii will be scaled by 1.20
 Remove points where switching function is < 1.0e-08
 Keep 1231 surface tesserae and discard 1285 interior tesserae
 Molecular Surface Area = 145.367 Angst**2
 A cutoff of  1.0D-12 yielded   6043 shell pairs
 There are     66404 function pairs (     83261 Cartesian)
 Smallest overlap matrix eigenvalue = 2.32E-06
 Guess from superposition of atomic densities
 Warning:  Energy on first SCF cycle will be non-variational
 SAD guess density has 67.000000 electrons

 -----------------------------------------------------------------------
  General SCF calculation program by
  Eric Jon Sundstrom, Paul Horn, Yuezhi Mao, Dmitri Zuev, Alec White,
  David Stuck, Shaama M.S., Shane Yost, Joonho Lee, David Small,
  Daniel Levine, Susi Lehtola, Hugh Burton, Evgeny Epifanovsky,
  Bang C. Huynh
 -----------------------------------------------------------------------
 Exchange:     0.1500 Hartree-Fock + 1.0000 wB97M-V + LR-HF
 Correlation:  1.0000 wB97M-V
 Using SG-2 standard quadrature grid
 Nonlocal Correlation:  VV10 with C = 0.0100 and b = 6.00 and scale = 1.00000
 Grid used for NLC:  SG-1 standard quadrature
 using 16 threads for integral computing
 -------------------------------------------------------
 OpenMP Integral computing Module                
 Release: version 1.0, May 2013, Q-Chem Inc. Pittsburgh 
 -------------------------------------------------------
 
 Citation of the SMD model:
 Marenich, A.V.; Cramer, C.J.; Truhlar, D.G.
 J. Phys. Chem. B 2009, 113, 6378-6396.
 iSolventCode=           1
 Solvent: water                                                           
 
 vradii
            1           2           3           4           5           6
    1   1.2000000   1.8500000   1.8500000   1.2000000   1.8500000   1.2000000
            7           8           9          10          11          12
    1   1.8500000   1.2000000   1.8500000   1.2000000   1.8500000   1.2000000
           13          14          15          16
    1   1.5200000   1.2000000   1.5200000   1.5200000
 -------------------------------------------------------
 OpenMP BLAS3 based DFT computing Module                
 Release: version 1.0, May 2013, Q-Chem Inc. Pittsburgh 
 -------------------------------------------------------
 A unrestricted SCF calculation will be
 performed using DIIS, GDM
 SCF converges when RMS gradient is below 1.0e-07
 ---------------------------------------
  Cycle       Energy         DIIS error
 ---------------------------------------
    1    -460.6877653646      1.29e-02  
    2    -458.2437717433      1.33e-03  Done DIIS. Switching to GDM
 ---------------------------------------
  Cycle       Energy        RMS Gradient
 ---------------------------------------
    1    -458.2437717433      1.05e-01   Descent step
    2    -458.3363571352      2.55e-02   Normal BFGS step
    3    -458.3510361507      3.14e-02   Normal BFGS step
    4    -458.3546883756      4.66e-03   Normal BFGS step
    5    -458.3555136295      5.86e-03   Normal BFGS step
    6    -458.3557352210      3.73e-03   Normal BFGS step
    7    -458.3558065782      1.92e-03   Normal BFGS step
    8    -458.3558232034      5.81e-04   Normal BFGS step
    9    -458.3558259513      3.79e-04   Normal BFGS step
   10    -458.3558264357      1.23e-04   Normal BFGS step
   11    -458.3558265361      1.29e-04   Normal BFGS step
   12    -458.3558265761      1.12e-04   Normal BFGS step
   13    -458.3558266192      6.83e-05   Normal BFGS step
   14    -458.3558266444      2.67e-05   Normal BFGS step
   15    -458.3558266529      1.36e-05   Normal BFGS step
   16    -458.3558266550      1.03e-05   Normal BFGS step
   17    -458.3558266557      7.06e-06   Normal BFGS step
   18    -458.3558266561      5.40e-06   Normal BFGS step
   19    -458.3558266563      1.99e-06   Normal BFGS step
   20    -458.3558266563      1.24e-06   Normal BFGS step
   21    -458.3558266563      3.80e-07   Normal BFGS step
   22    -458.3558266563      1.24e-07   Normal BFGS step
   23    -458.3558266563      6.08e-08  Convergence criterion met
 ---------------------------------------
 SCF time:   CPU 2095.69s  wall 142.00s 
<S^2> =          0.754090186
(3)  G-ENP(liq) elect-nuc-pol free energy of system     -458.355826656 a.u.
(4)  G-CDS(liq) cavity-dispersion-solvent structure 
     free energy                                                2.5606 kcal/mol
(6)  G-S(liq) free energy of system                     -458.351746075 a.u.
 SCF   energy in the final basis set =     -458.3517460749
 Total energy in the final basis set =     -458.3517460749
 
 --------------------------------------------------------------
 
                    Orbital Energies (a.u.)
 --------------------------------------------------------------
 
 Alpha MOs
 -- Occupied --
-19.4638 -19.4160 -19.3453 -10.4103 -10.4064 -10.3559 -10.3509 -10.3489
-10.3476  -1.3430  -1.1655  -1.0272  -0.9574  -0.8782  -0.8563  -0.7527
 -0.7262  -0.6576  -0.6507  -0.6396  -0.6138  -0.6018  -0.5722  -0.5543
 -0.5332  -0.5195  -0.4804  -0.4585  -0.4392  -0.4335  -0.4174  -0.4036
 -0.3781  -0.3344
 -- Virtual --
  0.0174   0.0267   0.0369   0.0392   0.0561   0.0581   0.0621   0.0831
  0.0987   0.1068   0.1088   0.1214   0.1280   0.1411   0.1439   0.1497
  0.1545   0.1580   0.1612   0.1638   0.1646   0.1718   0.1776   0.1814
  0.1872   0.1917   0.2037   0.2111   0.2132   0.2213   0.2283   0.2408
  0.2474   0.2510   0.2634   0.2767   0.2852   0.2918   0.2983   0.3070
  0.3134   0.3283   0.3326   0.3385   0.3432   0.3567   0.3680   0.3730
  0.3777   0.3857   0.3896   0.3986   0.4056   0.4190   0.4265   0.4314
  0.4415   0.4588   0.4715   0.5162   0.5302   0.5438   0.5697   0.5741
  0.5901   0.5951   0.6059   0.6079   0.6277   0.6345   0.6439   0.6543
  0.6904   0.6958   0.7014   0.7085   0.7171   0.7205   0.7364   0.7433
  0.7520   0.7757   0.7850   0.7893   0.8025   0.8158   0.8261   0.8355
  0.8459   0.8511   0.8696   0.8817   0.9023   0.9084   0.9408   0.9594
  0.9911   1.0227   1.0484   1.0665   1.0874   1.1051   1.1169   1.1282
  1.1378   1.1520   1.1687   1.1754   1.1876   1.1968   1.2056   1.2154
  1.2249   1.2391   1.2418   1.2647   1.2691   1.2883   1.3009   1.3302
  1.3419   1.3478   1.3597   1.3797   1.3843   1.4017   1.4072   1.4324
  1.4372   1.4497   1.4561   1.4679   1.4903   1.5142   1.5290   1.5384
  1.5565   1.5633   1.5758   1.5943   1.6105   1.6205   1.6352   1.6610
  1.6765   1.6982   1.7158   1.7481   1.7757   1.8028   1.8126   1.8179
  1.8587   1.8993   1.9247   1.9676   2.0000   2.0201   2.0516   2.0652
  2.1324   2.1552   2.2346   2.2517   2.2967   2.3168   2.3677   2.4058
  2.4553   2.5695   2.6046   2.6517   2.6629   2.6790   2.7251   2.7321
  2.7716   2.7920   2.8147   2.8275   2.8349   2.8604   2.8696   2.8731
  2.8915   2.9015   2.9447   2.9570   2.9655   2.9738   2.9755   2.9942
  3.0133   3.0452   3.0685   3.0859   3.1242   3.1615   3.1836   3.2170
  3.2322   3.2454   3.2690   3.2883   3.3099   3.3263   3.3465   3.3832
  3.3848   3.3982   3.4224   3.4292   3.4400   3.4780   3.4887   3.5036
  3.5117   3.5248   3.5325   3.5640   3.5841   3.6075   3.6442   3.6868
  3.7155   3.7319   3.7418   3.7566   3.7726   3.7755   3.7962   3.8234
  3.8289   3.8577   3.8635   3.8825   3.8951   3.9173   3.9203   3.9693
  3.9757   3.9936   4.0257   4.0610   4.0673   4.0867   4.1318   4.1622
  4.1981   4.2147   4.2241   4.2365   4.2774   4.2910   4.3368   4.3580
  4.3647   4.3783   4.4081   4.4276   4.4566   4.5031   4.5240   4.5502
  4.5765   4.6007   4.6218   4.6465   4.6612   4.7220   4.7268   4.7446
  4.7658   4.7858   4.8454   4.8947   4.9243   4.9594   5.0106   5.0216
  5.0406   5.0585   5.0953   5.0981   5.1086   5.1663   5.1918   5.2490
  5.2508   5.2826   5.3018   5.3317   5.3476   5.3803   5.4102   5.4384
  5.4627   5.5060   5.5235   5.5806   5.6261   5.6411   5.6884   5.7119
  5.7223   5.8119   5.8259   5.9073   5.9313   6.0307   6.1075   6.2754
  6.4218   6.4819   6.6083   6.6313   6.8335   6.8942   6.9756   7.0983
  7.1219   7.2200   7.2706   7.3125   7.3355   7.3956   7.4189   7.4569
  7.6845   7.8072   7.8210   8.0286   8.1051  24.2810  24.5562  24.7083
 24.7809  25.1391  25.3517  50.4349  50.5334  50.6180
 
 Beta MOs
 -- Occupied --
-19.4532 -19.3976 -19.3453 -10.4106 -10.4060 -10.3559 -10.3508 -10.3488
-10.3476  -1.3166  -1.1653  -1.0064  -0.9464  -0.8772  -0.8481  -0.7484
 -0.7248  -0.6508  -0.6400  -0.6268  -0.6055  -0.5734  -0.5597  -0.5437
 -0.5327  -0.4969  -0.4789  -0.4573  -0.4384  -0.4283  -0.4006  -0.3805
 -0.3343
 -- Virtual --
 -0.0317   0.0182   0.0269   0.0373   0.0393   0.0564   0.0586   0.0625
  0.0835   0.0993   0.1073   0.1095   0.1223   0.1288   0.1417   0.1447
  0.1501   0.1549   0.1583   0.1621   0.1640   0.1653   0.1722   0.1786
  0.1818   0.1882   0.1928   0.2046   0.2121   0.2138   0.2225   0.2289
  0.2416   0.2480   0.2530   0.2702   0.2820   0.2872   0.2932   0.3010
  0.3077   0.3148   0.3296   0.3338   0.3400   0.3444   0.3604   0.3692
  0.3736   0.3788   0.3862   0.3920   0.3993   0.4063   0.4197   0.4275
  0.4336   0.4421   0.4601   0.4726   0.5165   0.5304   0.5440   0.5704
  0.5742   0.5903   0.5955   0.6063   0.6089   0.6279   0.6348   0.6441
  0.6547   0.6906   0.6961   0.7016   0.7095   0.7173   0.7214   0.7366
  0.7433   0.7521   0.7760   0.7852   0.7896   0.8029   0.8165   0.8267
  0.8360   0.8461   0.8513   0.8699   0.8819   0.9028   0.9085   0.9421
  0.9617   0.9934   1.0235   1.0503   1.0698   1.0893   1.1057   1.1181
  1.1315   1.1402   1.1552   1.1711   1.1811   1.1945   1.2007   1.2205
  1.2288   1.2297   1.2418   1.2504   1.2682   1.2710   1.2897   1.3031
  1.3315   1.3441   1.3505   1.3612   1.3801   1.3851   1.4023   1.4095
  1.4336   1.4391   1.4522   1.4573   1.4712   1.4929   1.5166   1.5293
  1.5471   1.5582   1.5655   1.5777   1.5963   1.6175   1.6228   1.6440
  1.6726   1.6857   1.7078   1.7275   1.7547   1.7765   1.8050   1.8158
  1.8204   1.8622   1.9071   1.9296   1.9727   2.0018   2.0243   2.0524
  2.0662   2.1352   2.1655   2.2390   2.2623   2.3064   2.3237   2.3778
  2.4118   2.4565   2.5701   2.6049   2.6543   2.6667   2.6798   2.7287
  2.7327   2.7722   2.7928   2.8150   2.8275   2.8350   2.8609   2.8697
  2.8736   2.8918   2.9020   2.9452   2.9571   2.9657   2.9741   2.9758
  2.9948   3.0134   3.0455   3.0693   3.0866   3.1248   3.1620   3.1840
  3.2174   3.2324   3.2456   3.2692   3.2884   3.3102   3.3263   3.3470
  3.3833   3.3850   3.3983   3.4226   3.4295   3.4403   3.4784   3.4890
  3.5039   3.5119   3.5252   3.5328   3.5646   3.5849   3.6079   3.6443
  3.6871   3.7162   3.7325   3.7423   3.7572   3.7727   3.7757   3.7962
  3.8237   3.8295   3.8578   3.8638   3.8828   3.8955   3.9178   3.9208
  3.9700   3.9758   3.9938   4.0259   4.0617   4.0676   4.0874   4.1322
  4.1629   4.1984   4.2151   4.2244   4.2369   4.2777   4.2922   4.3373
  4.3590   4.3660   4.3786   4.4089   4.4283   4.4576   4.5037   4.5252
  4.5547   4.5774   4.6039   4.6417   4.6481   4.6648   4.7265   4.7340
  4.7514   4.7722   4.7891   4.8466   4.9129   4.9324   4.9640   5.0136
  5.0311   5.0467   5.0654   5.1434   5.1457   5.1808   5.1969   5.2108
  5.2674   5.2947   5.2984   5.3142   5.3358   5.3483   5.3937   5.4186
  5.4435   5.4801   5.5138   5.5360   5.5813   5.6280   5.6498   5.6901
  5.7156   5.7313   5.8278   5.8355   5.9088   5.9319   6.0313   6.1078
  6.2765   6.4360   6.5281   6.6171   6.6360   6.9177   6.9736   7.0367
  7.1239   7.1398   7.2477   7.3077   7.3147   7.3446   7.4032   7.4450
  7.4980   7.6849   7.8180   7.8243   8.0419   8.1253  24.2810  24.5562
 24.7081  24.7811  25.1391  25.3517  50.4475  50.5431  50.6182
 --------------------------------------------------------------
 
          Ground-State Mulliken Net Atomic Charges

     Atom                 Charge (a.u.)    Spin (a.u.)
  --------------------------------------------------------
      1 H                     0.286789      -0.000070
      2 C                    -0.164833       0.000892
      3 C                    -0.290898      -0.002294
      4 H                     0.279242       0.000181
      5 C                    -0.070162       0.008850
      6 H                     0.312268      -0.000476
      7 C                    -0.507099      -0.005170
      8 H                     0.278625       0.005752
      9 C                    -0.296033       0.006267
     10 H                     0.239531      -0.001739
     11 C                    -0.147367       0.002675
     12 H                     0.296263       0.000189
     13 O                    -0.398500       0.002066
     14 H                     0.332698       0.000014
     15 O                     0.084604       0.321437
     16 O                    -0.235129       0.661427
  --------------------------------------------------------
  Sum of atomic charges =    -0.000000
  Sum of spin   charges =     1.000000

 -----------------------------------------------------------------
                    Cartesian Multipole Moments
 -----------------------------------------------------------------
    Charge (ESU x 10^10)
                -0.0000
    Dipole Moment (Debye)
         X      -0.1635      Y       1.7560      Z       0.9083
       Tot       1.9837
    Quadrupole Moments (Debye-Ang)
        XX     -50.1684     XY      -9.0123     YY     -59.2481
        XZ      -2.2917     YZ      -6.2928     ZZ     -47.1980
    Octopole Moments (Debye-Ang^2)
       XXX     117.9921    XXY     -46.3221    XYY      29.7561
       YYY    -208.8331    XXZ      49.8913    XYZ      12.7599
       YYZ      39.9267    XZZ      48.0043    YZZ     -22.8998
       ZZZ     129.9294
    Hexadecapole Moments (Debye-Ang^3)
      XXXX    -584.4161   XXXY      39.0451   XXYY    -225.4216
      XYYY      54.3154   YYYY    -857.7855   XXXZ    -131.8158
      XXYZ      18.6965   XYYZ     -30.0647   YYYZ      72.0482
      XXZZ    -252.9382   XYZZ     -11.4071   YYZZ    -201.9154
      XZZZ    -166.8079   YZZZ     -13.3352   ZZZZ    -774.6418
 -----------------------------------------------------------------
 Calculating analytic gradient of the SCF energy
 Gradient of CDS energy
            1           2           3           4           5           6
    1   0.0000971   0.0003739  -0.0003495  -0.0000850  -0.0003998  -0.0001964
    2  -0.0000263  -0.0001088   0.0001261   0.0000458   0.0000768   0.0000448
    3   0.0001784   0.0003604   0.0003746   0.0001811  -0.0000688   0.0000029
            7           8           9          10          11          12
    1  -0.0000058  -0.0000597   0.0000310  -0.0000168   0.0003860   0.0001991
    2  -0.0001175   0.0000145   0.0001289  -0.0001501  -0.0000745  -0.0000371
    3  -0.0001725  -0.0001397  -0.0002211  -0.0001047  -0.0000800  -0.0000079
           13          14          15          16
    1  -0.0000983   0.0000942   0.0000517  -0.0000216
    2  -0.0001888   0.0003197  -0.0000199  -0.0000337
    3   0.0001774  -0.0003909  -0.0001037   0.0000145
 Gradient of SCF Energy
            1           2           3           4           5           6
    1   0.0029581  -0.0028070   0.0050067  -0.0032187   0.0053583  -0.0074865
    2  -0.0007956   0.0004820  -0.0020274   0.0016545   0.0012376   0.0020741
    3   0.0062939  -0.0046175  -0.0041346   0.0071301  -0.0036680  -0.0003776
            7           8           9          10          11          12
    1   0.0047325  -0.0036837  -0.0047645   0.0027117  -0.0039484   0.0046238
    2  -0.0129177   0.0059569   0.0074310  -0.0028522  -0.0003692  -0.0014505
    3   0.0087653  -0.0078020   0.0047438  -0.0046824  -0.0029324  -0.0002991
           13          14          15          16
    1   0.0064313  -0.0054355   0.0001527  -0.0006307
    2   0.0032192  -0.0005805   0.0002684  -0.0013304
    3   0.0167468  -0.0149807   0.0005307  -0.0007165
 Max gradient component =       1.675E-02
 RMS gradient           =       5.485E-03
 Computing fast CPCM-SWIG gradient
 Updating gradient with PCM contributions...
 -- total gradient after adding PCM contribution --
---------------------------------------------------
  Atom         X              Y              Z     
---------------------------------------------------
   1      -0.000015      -0.000008       0.000012
   2      -0.000005       0.000004       0.000011
   3      -0.000006       0.000010      -0.000020
   4      -0.000007       0.000030       0.000000
   5       0.000003      -0.000005      -0.000039
   6      -0.000007       0.000022      -0.000011
   7       0.000005       0.000004       0.000040
   8      -0.000007       0.000010      -0.000018
   9       0.000014       0.000020      -0.000000
  10       0.000010      -0.000024       0.000004
  11      -0.000014       0.000008      -0.000015
  12       0.000007      -0.000007       0.000013
  13       0.000035      -0.000007       0.000054
  14       0.000005      -0.000030      -0.000044
  15      -0.000001      -0.000055      -0.000080
  16      -0.000016       0.000029       0.000091
---------------------------------------------------
 Number of fixed atoms: 0
 Gradient time:  CPU 254.00 s  wall 21.29 s
 ######################################################
 ######################################################
 # Starting finite difference calculation for IDERIV  #
 Finite diff step size:  1.88973e-03 a.u.
 ----------------------------------------------------------------
             Standard Nuclear Orientation (Angstroms)
    I     Atom           X                Y                Z
 ----------------------------------------------------------------
    1      H       0.5504870302     1.1121890970     1.8981981717
    2      C       0.0368225133     1.2510758343     0.9559882674
    3      C      -1.3937059848     1.5742808067     0.9869507899
    4      H      -1.8418405081     1.8157438377     1.9416345888
    5      C      -2.1299889353     1.5826360889    -0.1223353566
    6      H      -3.1838649876     1.8228880810    -0.1068511667
    7      C      -1.5107143611     1.2143396570    -1.4283669096
    8      H      -1.9763529213     1.7262930837    -2.2683406194
    9      C       0.0081139346     1.3928883184    -1.5053921124
   10      H       0.3779365918     0.6823609414    -2.2476299993
   11      C       0.6985687447     1.1628351551    -0.1952745688
   12      H       1.7617485246     0.9637213830    -0.2224195762
   13      O       0.3216569184     2.7243746560    -1.9170485898
   14      H       0.0636089520     2.8222509235    -2.8415479411
   15      O      -1.8180789309    -0.2197648546    -1.6153931630
   16      O      -1.6444777806    -0.5971757089    -2.8488761150
 ----------------------------------------------------------------
 Nuclear Repulsion Energy =         448.46851914 hartrees
 There are       34 alpha and       33 beta electrons
 Discretize the solute cavity surface with Lebedev spheres
	Using 110 Lebedev grid points for each H atom
	Using 194 Lebedev grid points for other atoms
	Atomic van der Waals radii will be scaled by 1.20
 Remove points where switching function is < 1.0e-08
 Keep 1231 surface tesserae and discard 1285 interior tesserae
 Molecular Surface Area = 145.370 Angst**2
 Requested basis set is 6-311++G(2df,2p)
 There are 114 shells and 376 basis functions
 A cutoff of  1.0D-12 yielded   6043 shell pairs
 There are     66404 function pairs (     83261 Cartesian)
 Smallest overlap matrix eigenvalue = 2.32E-06
 Guess MOs from SCF MO coefficient file

 -----------------------------------------------------------------------
  General SCF calculation program by
  Eric Jon Sundstrom, Paul Horn, Yuezhi Mao, Dmitri Zuev, Alec White,
  David Stuck, Shaama M.S., Shane Yost, Joonho Lee, David Small,
  Daniel Levine, Susi Lehtola, Hugh Burton, Evgeny Epifanovsky,
  Bang C. Huynh
 -----------------------------------------------------------------------
 Exchange:     0.1500 Hartree-Fock + 1.0000 wB97M-V + LR-HF
 Correlation:  1.0000 wB97M-V
 Using SG-2 standard quadrature grid
 Nonlocal Correlation:  VV10 with C = 0.0100 and b = 6.00 and scale = 1.00000
 Grid used for NLC:  SG-1 standard quadrature
 
 Citation of the SMD model:
 Marenich, A.V.; Cramer, C.J.; Truhlar, D.G.
 J. Phys. Chem. B 2009, 113, 6378-6396.
 iSolventCode=           1
 Solvent: water                                                           
 
 vradii
            1           2           3           4           5           6
    1   1.2000000   1.8500000   1.8500000   1.2000000   1.8500000   1.2000000
            7           8           9          10          11          12
    1   1.8500000   1.2000000   1.8500000   1.2000000   1.8500000   1.2000000
           13          14          15          16
    1   1.5200000   1.2000000   1.5200000   1.5200000
 -------------------------------------------------------
 OpenMP BLAS3 based DFT computing Module                
 Release: version 1.0, May 2013, Q-Chem Inc. Pittsburgh 
 -------------------------------------------------------
 A unrestricted SCF calculation will be
 performed using Roothaan-Hall, DIIS, GDM
 SCF converges when RMS gradient is below 1.0e-07
 ---------------------------------------
  Cycle       Energy         DIIS error
 ---------------------------------------
    1    -458.3308817634      1.79e-04  Roothaan Step
 ---------------------------------------
  Cycle       Energy         DIIS error
 ---------------------------------------
    1    -458.3517187811      1.97e-04  
    2    -458.3546978132      1.44e-04  Done DIIS. Switching to GDM
 ---------------------------------------
  Cycle       Energy        RMS Gradient
 ---------------------------------------
    1    -458.3546978132      6.29e-03   Normal BFGS step
    2    -458.3547284122      1.30e-02   Normal BFGS step
    3    -458.3557949899      1.03e-03   Normal BFGS step
    4    -458.3558024960      2.17e-03   Normal BFGS step
    5    -458.3558252895      2.77e-04   Normal BFGS step
    6    -458.3558259967      2.81e-04   Normal BFGS step
    7    -458.3558265144      1.53e-04   Normal BFGS step
    8    -458.3558266089      7.45e-05   Normal BFGS step
    9    -458.3558266407      1.74e-05   Normal BFGS step
   10    -458.3558266472      3.73e-06   Normal BFGS step
   11    -458.3558266477      1.51e-06   Normal BFGS step
   12    -458.3558266477      1.26e-06   Normal BFGS step
   13    -458.3558266477      1.18e-06   Normal BFGS step
   14    -458.3558266478      9.51e-07   Normal BFGS step
   15    -458.3558266478      7.11e-07   Normal BFGS step
   16    -458.3558266478      2.91e-07   Normal BFGS step
   17    -458.3558266478      9.99e-08  Convergence criterion met
 ---------------------------------------
 SCF time:   CPU 1687.98s  wall 114.00s 
<S^2> =          0.754090176
(3)  G-ENP(liq) elect-nuc-pol free energy of system     -458.355826648 a.u.
(4)  G-CDS(liq) cavity-dispersion-solvent structure 
     free energy                                                2.5607 kcal/mol
(6)  G-S(liq) free energy of system                     -458.351745882 a.u.
 SCF   energy in the final basis set =     -458.3517458825
 Total energy in the final basis set =     -458.3517458825
 
 --------------------------------------------------------------
 
                    Orbital Energies (a.u.)
 --------------------------------------------------------------
 
 Alpha MOs
 -- Occupied --
-19.4638 -19.4160 -19.3453 -10.4103 -10.4063 -10.3559 -10.3509 -10.3489
-10.3476  -1.3430  -1.1655  -1.0272  -0.9574  -0.8782  -0.8563  -0.7527
 -0.7262  -0.6576  -0.6507  -0.6396  -0.6138  -0.6018  -0.5722  -0.5542
 -0.5332  -0.5195  -0.4804  -0.4585  -0.4392  -0.4335  -0.4174  -0.4036
 -0.3781  -0.3344
 -- Virtual --
  0.0174   0.0267   0.0369   0.0392   0.0561   0.0581   0.0621   0.0831
  0.0987   0.1068   0.1088   0.1214   0.1280   0.1411   0.1439   0.1497
  0.1545   0.1580   0.1612   0.1638   0.1646   0.1718   0.1776   0.1814
  0.1872   0.1917   0.2037   0.2111   0.2132   0.2213   0.2283   0.2408
  0.2474   0.2510   0.2634   0.2767   0.2852   0.2918   0.2983   0.3070
  0.3134   0.3283   0.3326   0.3385   0.3432   0.3567   0.3680   0.3730
  0.3777   0.3857   0.3896   0.3986   0.4056   0.4190   0.4265   0.4314
  0.4415   0.4588   0.4715   0.5162   0.5302   0.5438   0.5696   0.5741
  0.5901   0.5951   0.6058   0.6079   0.6277   0.6345   0.6439   0.6543
  0.6903   0.6958   0.7014   0.7085   0.7171   0.7205   0.7364   0.7433
  0.7520   0.7757   0.7850   0.7893   0.8025   0.8158   0.8261   0.8355
  0.8460   0.8511   0.8696   0.8817   0.9022   0.9084   0.9407   0.9594
  0.9910   1.0226   1.0484   1.0665   1.0874   1.1051   1.1168   1.1282
  1.1378   1.1520   1.1687   1.1754   1.1876   1.1967   1.2056   1.2154
  1.2249   1.2391   1.2418   1.2647   1.2691   1.2882   1.3009   1.3302
  1.3419   1.3477   1.3597   1.3798   1.3842   1.4018   1.4072   1.4323
  1.4372   1.4496   1.4561   1.4679   1.4903   1.5142   1.5290   1.5384
  1.5565   1.5632   1.5758   1.5942   1.6105   1.6205   1.6352   1.6609
  1.6765   1.6982   1.7158   1.7481   1.7757   1.8028   1.8126   1.8179
  1.8587   1.8993   1.9246   1.9676   2.0000   2.0201   2.0516   2.0651
  2.1324   2.1552   2.2345   2.2517   2.2967   2.3167   2.3677   2.4058
  2.4553   2.5695   2.6047   2.6517   2.6628   2.6791   2.7251   2.7321
  2.7716   2.7921   2.8147   2.8275   2.8348   2.8604   2.8696   2.8731
  2.8915   2.9015   2.9447   2.9569   2.9655   2.9738   2.9755   2.9942
  3.0133   3.0452   3.0685   3.0859   3.1242   3.1614   3.1836   3.2169
  3.2322   3.2455   3.2690   3.2883   3.3099   3.3263   3.3463   3.3832
  3.3847   3.3983   3.4224   3.4291   3.4400   3.4779   3.4886   3.5036
  3.5117   3.5248   3.5325   3.5639   3.5841   3.6075   3.6441   3.6867
  3.7154   3.7320   3.7419   3.7566   3.7724   3.7754   3.7962   3.8234
  3.8290   3.8577   3.8635   3.8824   3.8952   3.9173   3.9203   3.9693
  3.9758   3.9936   4.0255   4.0609   4.0672   4.0867   4.1318   4.1621
  4.1981   4.2147   4.2241   4.2364   4.2772   4.2910   4.3367   4.3579
  4.3647   4.3782   4.4080   4.4275   4.4565   4.5030   4.5240   4.5501
  4.5765   4.6006   4.6217   4.6465   4.6610   4.7219   4.7266   4.7444
  4.7658   4.7857   4.8453   4.8947   4.9243   4.9595   5.0105   5.0216
  5.0407   5.0585   5.0953   5.0981   5.1086   5.1662   5.1917   5.2490
  5.2506   5.2823   5.3017   5.3317   5.3476   5.3803   5.4101   5.4382
  5.4627   5.5060   5.5234   5.5805   5.6260   5.6411   5.6884   5.7119
  5.7223   5.8119   5.8258   5.9072   5.9311   6.0306   6.1068   6.2754
  6.4218   6.4819   6.6083   6.6313   6.8335   6.8942   6.9756   7.0983
  7.1219   7.2200   7.2706   7.3125   7.3355   7.3956   7.4189   7.4569
  7.6845   7.8072   7.8210   8.0286   8.1051  24.2808  24.5560  24.7083
 24.7809  25.1390  25.3515  50.4349  50.5334  50.6180
 
 Beta MOs
 -- Occupied --
-19.4532 -19.3976 -19.3453 -10.4106 -10.4060 -10.3559 -10.3509 -10.3488
-10.3476  -1.3166  -1.1653  -1.0064  -0.9464  -0.8772  -0.8481  -0.7484
 -0.7248  -0.6508  -0.6400  -0.6268  -0.6055  -0.5735  -0.5597  -0.5437
 -0.5327  -0.4969  -0.4789  -0.4573  -0.4384  -0.4283  -0.4006  -0.3805
 -0.3343
 -- Virtual --
 -0.0317   0.0182   0.0269   0.0373   0.0393   0.0564   0.0586   0.0625
  0.0835   0.0993   0.1073   0.1095   0.1223   0.1288   0.1417   0.1447
  0.1501   0.1549   0.1583   0.1621   0.1640   0.1653   0.1722   0.1786
  0.1818   0.1882   0.1928   0.2046   0.2121   0.2138   0.2225   0.2289
  0.2416   0.2480   0.2530   0.2702   0.2820   0.2872   0.2932   0.3010
  0.3077   0.3148   0.3296   0.3338   0.3400   0.3444   0.3604   0.3692
  0.3736   0.3788   0.3862   0.3920   0.3992   0.4063   0.4197   0.4275
  0.4336   0.4421   0.4601   0.4726   0.5165   0.5304   0.5440   0.5704
  0.5742   0.5903   0.5955   0.6063   0.6089   0.6279   0.6348   0.6441
  0.6547   0.6906   0.6961   0.7016   0.7094   0.7173   0.7214   0.7366
  0.7433   0.7521   0.7760   0.7852   0.7896   0.8029   0.8165   0.8266
  0.8360   0.8462   0.8513   0.8699   0.8819   0.9028   0.9085   0.9420
  0.9617   0.9934   1.0234   1.0503   1.0698   1.0894   1.1056   1.1181
  1.1315   1.1401   1.1552   1.1711   1.1811   1.1945   1.2007   1.2206
  1.2288   1.2296   1.2418   1.2504   1.2683   1.2711   1.2896   1.3031
  1.3315   1.3441   1.3505   1.3612   1.3802   1.3851   1.4023   1.4095
  1.4335   1.4391   1.4522   1.4573   1.4712   1.4929   1.5167   1.5293
  1.5471   1.5582   1.5654   1.5777   1.5963   1.6175   1.6228   1.6440
  1.6726   1.6856   1.7078   1.7275   1.7547   1.7765   1.8050   1.8158
  1.8204   1.8622   1.9071   1.9295   1.9726   2.0017   2.0244   2.0525
  2.0661   2.1352   2.1655   2.2390   2.2623   2.3064   2.3237   2.3778
  2.4118   2.4565   2.5701   2.6050   2.6544   2.6667   2.6798   2.7288
  2.7327   2.7722   2.7928   2.8150   2.8275   2.8349   2.8609   2.8697
  2.8736   2.8918   2.9020   2.9452   2.9570   2.9657   2.9740   2.9758
  2.9948   3.0134   3.0455   3.0693   3.0866   3.1249   3.1619   3.1840
  3.2173   3.2324   3.2457   3.2692   3.2884   3.3101   3.3263   3.3469
  3.3833   3.3849   3.3984   3.4225   3.4295   3.4403   3.4784   3.4889
  3.5038   3.5119   3.5253   3.5328   3.5646   3.5849   3.6079   3.6443
  3.6871   3.7161   3.7325   3.7423   3.7572   3.7725   3.7757   3.7962
  3.8237   3.8295   3.8578   3.8638   3.8827   3.8955   3.9178   3.9207
  3.9700   3.9759   3.9938   4.0258   4.0616   4.0675   4.0873   4.1322
  4.1628   4.1984   4.2151   4.2244   4.2368   4.2776   4.2922   4.3372
  4.3590   4.3660   4.3786   4.4088   4.4283   4.4576   4.5036   4.5252
  4.5547   4.5773   4.6037   4.6418   4.6479   4.6647   4.7263   4.7339
  4.7513   4.7721   4.7889   4.8466   4.9129   4.9324   4.9641   5.0135
  5.0312   5.0467   5.0654   5.1434   5.1457   5.1806   5.1969   5.2107
  5.2670   5.2947   5.2984   5.3141   5.3358   5.3482   5.3937   5.4186
  5.4433   5.4801   5.5138   5.5360   5.5812   5.6279   5.6498   5.6900
  5.7157   5.7313   5.8276   5.8354   5.9086   5.9317   6.0313   6.1071
  6.2765   6.4360   6.5281   6.6171   6.6360   6.9177   6.9736   7.0367
  7.1239   7.1398   7.2477   7.3077   7.3147   7.3446   7.4032   7.4450
  7.4980   7.6849   7.8180   7.8243   8.0419   8.1253  24.2808  24.5560
 24.7081  24.7811  25.1390  25.3515  50.4475  50.5431  50.6182
 --------------------------------------------------------------
 
          Ground-State Mulliken Net Atomic Charges

     Atom                 Charge (a.u.)    Spin (a.u.)
  --------------------------------------------------------
      1 H                     0.286714      -0.000071
      2 C                    -0.164655       0.000893
      3 C                    -0.291259      -0.002296
      4 H                     0.279253       0.000181
      5 C                    -0.070147       0.008850
      6 H                     0.312273      -0.000476
      7 C                    -0.507119      -0.005171
      8 H                     0.278625       0.005752
      9 C                    -0.296005       0.006268
     10 H                     0.239522      -0.001739
     11 C                    -0.147165       0.002675
     12 H                     0.296287       0.000189
     13 O                    -0.398502       0.002066
     14 H                     0.332699       0.000014
     15 O                     0.084609       0.321436
     16 O                    -0.235130       0.661428
  --------------------------------------------------------
  Sum of atomic charges =    -0.000000
  Sum of spin   charges =     1.000000

 -----------------------------------------------------------------
                    Cartesian Multipole Moments
 -----------------------------------------------------------------
    Charge (ESU x 10^10)
                 0.0000
    Dipole Moment (Debye)
         X      -0.1633      Y       1.7561      Z       0.9079
       Tot       1.9836
    Quadrupole Moments (Debye-Ang)
        XX     -50.1663     XY      -9.0125     YY     -59.2482
        XZ      -2.2903     YZ      -6.2931     ZZ     -47.2000
    Octopole Moments (Debye-Ang^2)
       XXX     117.9866    XXY     -46.3193    XYY      29.7539
       YYY    -208.8337    XXZ      49.8928    XYZ      12.7613
       YYZ      39.9252    XZZ      48.0059    YZZ     -22.9019
       ZZZ     129.9233
    Hexadecapole Moments (Debye-Ang^3)
      XXXX    -584.4073   XXXY      39.0367   XXYY    -225.4175
      XYYY      54.3085   YYYY    -857.7871   XXXZ    -131.8183
      XXYZ      18.6983   XYYZ     -30.0653   YYYZ      72.0446
      XXZZ    -252.9347   XYZZ     -11.4056   YYZZ    -201.9197
      XZZZ    -166.8061   YZZZ     -13.3413   ZZZZ    -774.6613
 -----------------------------------------------------------------
 Calculating analytic gradient of the SCF energy
 Gradient of CDS energy
            1           2           3           4           5           6
    1   0.0000975   0.0003734  -0.0003495  -0.0000850  -0.0003998  -0.0001964
    2  -0.0000264  -0.0001087   0.0001261   0.0000458   0.0000768   0.0000448
    3   0.0001789   0.0003599   0.0003746   0.0001811  -0.0000688   0.0000029
            7           8           9          10          11          12
    1  -0.0000058  -0.0000597   0.0000310  -0.0000168   0.0003860   0.0001991
    2  -0.0001175   0.0000145   0.0001289  -0.0001501  -0.0000745  -0.0000371
    3  -0.0001725  -0.0001397  -0.0002211  -0.0001047  -0.0000800  -0.0000079
           13          14          15          16
    1  -0.0000983   0.0000942   0.0000517  -0.0000216
    2  -0.0001888   0.0003197  -0.0000199  -0.0000337
    3   0.0001774  -0.0003909  -0.0001037   0.0000145
 Gradient of SCF Energy
            1           2           3           4           5           6
    1   0.0032001  -0.0030373   0.0049831  -0.0032165   0.0053514  -0.0074892
    2  -0.0008432   0.0005244  -0.0020215   0.0016535   0.0012419   0.0020736
    3   0.0065236  -0.0048391  -0.0041860   0.0071288  -0.0036633  -0.0003801
            7           8           9          10          11          12
    1   0.0047314  -0.0036837  -0.0047661   0.0027125  -0.0039297   0.0046263
    2  -0.0129180   0.0059571   0.0074374  -0.0028525  -0.0003749  -0.0014541
    3   0.0087668  -0.0078026   0.0047495  -0.0046807  -0.0028964  -0.0002995
           13          14          15          16
    1   0.0064312  -0.0054357   0.0001529  -0.0006307
    2   0.0032190  -0.0005804   0.0002684  -0.0013308
    3   0.0167460  -0.0149809   0.0005305  -0.0007167
 Max gradient component =       1.675E-02
 RMS gradient           =       5.500E-03
 Computing fast CPCM-SWIG gradient
 Updating gradient with PCM contributions...
 -- total gradient after adding PCM contribution --
---------------------------------------------------
  Atom         X              Y              Z     
---------------------------------------------------
   1       0.000219      -0.000055       0.000249
   2      -0.000234       0.000045      -0.000214
   3      -0.000025       0.000016      -0.000070
   4      -0.000005       0.000029       0.000001
   5      -0.000007      -0.000002      -0.000035
   6      -0.000008       0.000022      -0.000013
   7       0.000005       0.000005       0.000041
   8      -0.000006       0.000009      -0.000018
   9       0.000012       0.000025       0.000005
  10       0.000011      -0.000025       0.000006
  11       0.000008       0.000004       0.000015
  12       0.000008      -0.000010       0.000012
  13       0.000034      -0.000007       0.000054
  14       0.000005      -0.000030      -0.000044
  15      -0.000001      -0.000055      -0.000081
  16      -0.000016       0.000029       0.000091
---------------------------------------------------
 Number of fixed atoms: 0
 Gradient time:  CPU 252.64 s  wall 20.43 s
 ----------------------------------------------------------------
             Standard Nuclear Orientation (Angstroms)
    I     Atom           X                Y                Z
 ----------------------------------------------------------------
    1      H       0.5484870302     1.1121890970     1.8981981717
    2      C       0.0368225133     1.2510758343     0.9559882674
    3      C      -1.3937059848     1.5742808067     0.9869507899
    4      H      -1.8418405081     1.8157438377     1.9416345888
    5      C      -2.1299889353     1.5826360889    -0.1223353566
    6      H      -3.1838649876     1.8228880810    -0.1068511667
    7      C      -1.5107143611     1.2143396570    -1.4283669096
    8      H      -1.9763529213     1.7262930837    -2.2683406194
    9      C       0.0081139346     1.3928883184    -1.5053921124
   10      H       0.3779365918     0.6823609414    -2.2476299993
   11      C       0.6985687447     1.1628351551    -0.1952745688
   12      H       1.7617485246     0.9637213830    -0.2224195762
   13      O       0.3216569184     2.7243746560    -1.9170485898
   14      H       0.0636089520     2.8222509235    -2.8415479411
   15      O      -1.8180789309    -0.2197648546    -1.6153931630
   16      O      -1.6444777806    -0.5971757089    -2.8488761150
 ----------------------------------------------------------------
 Nuclear Repulsion Energy =         448.47341632 hartrees
 There are       34 alpha and       33 beta electrons
 Discretize the solute cavity surface with Lebedev spheres
	Using 110 Lebedev grid points for each H atom
	Using 194 Lebedev grid points for other atoms
	Atomic van der Waals radii will be scaled by 1.20
 Remove points where switching function is < 1.0e-08
 Keep 1231 surface tesserae and discard 1285 interior tesserae
 Molecular Surface Area = 145.364 Angst**2
 Requested basis set is 6-311++G(2df,2p)
 There are 114 shells and 376 basis functions
 A cutoff of  1.0D-12 yielded   6043 shell pairs
 There are     66404 function pairs (     83261 Cartesian)
 Smallest overlap matrix eigenvalue = 2.32E-06
 Guess MOs from SCF MO coefficient file

 -----------------------------------------------------------------------
  General SCF calculation program by
  Eric Jon Sundstrom, Paul Horn, Yuezhi Mao, Dmitri Zuev, Alec White,
  David Stuck, Shaama M.S., Shane Yost, Joonho Lee, David Small,
  Daniel Levine, Susi Lehtola, Hugh Burton, Evgeny Epifanovsky,
  Bang C. Huynh
 -----------------------------------------------------------------------
 Exchange:     0.1500 Hartree-Fock + 1.0000 wB97M-V + LR-HF
 Correlation:  1.0000 wB97M-V
 Using SG-2 standard quadrature grid
 Nonlocal Correlation:  VV10 with C = 0.0100 and b = 6.00 and scale = 1.00000
 Grid used for NLC:  SG-1 standard quadrature
 
 Citation of the SMD model:
 Marenich, A.V.; Cramer, C.J.; Truhlar, D.G.
 J. Phys. Chem. B 2009, 113, 6378-6396.
 iSolventCode=           1
 Solvent: water                                                           
 
 vradii
            1           2           3           4           5           6
    1   1.2000000   1.8500000   1.8500000   1.2000000   1.8500000   1.2000000
            7           8           9          10          11          12
    1   1.8500000   1.2000000   1.8500000   1.2000000   1.8500000   1.2000000
           13          14          15          16
    1   1.5200000   1.2000000   1.5200000   1.5200000
 -------------------------------------------------------
 OpenMP BLAS3 based DFT computing Module                
 Release: version 1.0, May 2013, Q-Chem Inc. Pittsburgh 
 -------------------------------------------------------
 A unrestricted SCF calculation will be
 performed using Roothaan-Hall, DIIS, GDM
 SCF converges when RMS gradient is below 1.0e-07
 ---------------------------------------
  Cycle       Energy         DIIS error
 ---------------------------------------
    1    -458.3308831613      1.79e-04  Roothaan Step
 ---------------------------------------
  Cycle       Energy         DIIS error
 ---------------------------------------
    1    -458.3517181482      1.97e-04  
    2    -458.3546968795      1.44e-04  Done DIIS. Switching to GDM
 ---------------------------------------
  Cycle       Energy        RMS Gradient
 ---------------------------------------
    1    -458.3546968795      6.29e-03   Normal BFGS step
    2    -458.3547269955      1.30e-02   Normal BFGS step
    3    -458.3557945847      1.03e-03   Normal BFGS step
    4    -458.3558020687      2.17e-03   Normal BFGS step
    5    -458.3558248655      2.78e-04   Normal BFGS step
    6    -458.3558255733      2.81e-04   Normal BFGS step
    7    -458.3558260898      1.53e-04   Normal BFGS step
    8    -458.3558261843      7.44e-05   Normal BFGS step
    9    -458.3558262161      1.74e-05   Normal BFGS step
   10    -458.3558262226      3.69e-06   Normal BFGS step
   11    -458.3558262231      1.47e-06   Normal BFGS step
   12    -458.3558262231      1.21e-06   Normal BFGS step
   13    -458.3558262231      1.14e-06   Normal BFGS step
   14    -458.3558262232      9.21e-07   Normal BFGS step
   15    -458.3558262232      6.97e-07   Normal BFGS step
   16    -458.3558262232      3.03e-07   Normal BFGS step
   17    -458.3558262232      9.91e-08  Convergence criterion met
 ---------------------------------------
 SCF time:   CPU 1661.76s  wall 113.00s 
<S^2> =          0.754090189
(3)  G-ENP(liq) elect-nuc-pol free energy of system     -458.355826223 a.u.
(4)  G-CDS(liq) cavity-dispersion-solvent structure 
     free energy                                                2.5605 kcal/mol
(6)  G-S(liq) free energy of system                     -458.351745825 a.u.
 SCF   energy in the final basis set =     -458.3517458248
 Total energy in the final basis set =     -458.3517458248
 
 --------------------------------------------------------------
 
                    Orbital Energies (a.u.)
 --------------------------------------------------------------
 
 Alpha MOs
 -- Occupied --
-19.4638 -19.4160 -19.3453 -10.4102 -10.4064 -10.3558 -10.3508 -10.3489
-10.3476  -1.3430  -1.1655  -1.0272  -0.9574  -0.8782  -0.8563  -0.7527
 -0.7262  -0.6576  -0.6507  -0.6396  -0.6139  -0.6018  -0.5722  -0.5543
 -0.5332  -0.5196  -0.4804  -0.4585  -0.4392  -0.4336  -0.4174  -0.4036
 -0.3781  -0.3344
 -- Virtual --
  0.0174   0.0267   0.0369   0.0392   0.0561   0.0581   0.0621   0.0831
  0.0987   0.1068   0.1088   0.1214   0.1280   0.1411   0.1439   0.1497
  0.1545   0.1580   0.1612   0.1638   0.1646   0.1718   0.1776   0.1814
  0.1872   0.1917   0.2037   0.2111   0.2132   0.2213   0.2283   0.2408
  0.2474   0.2510   0.2634   0.2767   0.2852   0.2918   0.2983   0.3070
  0.3134   0.3283   0.3326   0.3385   0.3432   0.3567   0.3680   0.3730
  0.3777   0.3858   0.3896   0.3987   0.4056   0.4190   0.4265   0.4314
  0.4416   0.4588   0.4715   0.5162   0.5302   0.5438   0.5697   0.5741
  0.5901   0.5951   0.6059   0.6079   0.6277   0.6345   0.6439   0.6543
  0.6904   0.6958   0.7014   0.7085   0.7171   0.7205   0.7364   0.7433
  0.7521   0.7757   0.7849   0.7893   0.8025   0.8159   0.8261   0.8355
  0.8458   0.8511   0.8696   0.8817   0.9023   0.9084   0.9408   0.9593
  0.9911   1.0227   1.0484   1.0665   1.0874   1.1052   1.1169   1.1282
  1.1379   1.1520   1.1687   1.1754   1.1876   1.1968   1.2056   1.2154
  1.2249   1.2391   1.2418   1.2647   1.2691   1.2884   1.3009   1.3303
  1.3419   1.3479   1.3597   1.3797   1.3843   1.4017   1.4072   1.4325
  1.4372   1.4497   1.4561   1.4679   1.4903   1.5142   1.5291   1.5384
  1.5565   1.5634   1.5758   1.5943   1.6105   1.6205   1.6352   1.6610
  1.6766   1.6982   1.7158   1.7481   1.7757   1.8028   1.8126   1.8179
  1.8586   1.8993   1.9247   1.9677   2.0001   2.0200   2.0516   2.0654
  2.1325   2.1552   2.2346   2.2517   2.2967   2.3168   2.3677   2.4058
  2.4552   2.5695   2.6045   2.6516   2.6629   2.6789   2.7251   2.7321
  2.7716   2.7920   2.8147   2.8275   2.8350   2.8605   2.8697   2.8731
  2.8915   2.9016   2.9447   2.9570   2.9656   2.9738   2.9754   2.9942
  3.0133   3.0452   3.0685   3.0859   3.1242   3.1615   3.1836   3.2170
  3.2322   3.2453   3.2690   3.2882   3.3099   3.3263   3.3466   3.3833
  3.3849   3.3982   3.4224   3.4292   3.4400   3.4780   3.4888   3.5037
  3.5116   3.5248   3.5325   3.5641   3.5841   3.6075   3.6442   3.6868
  3.7155   3.7319   3.7418   3.7566   3.7728   3.7755   3.7961   3.8234
  3.8289   3.8577   3.8635   3.8826   3.8951   3.9172   3.9204   3.9694
  3.9757   3.9936   4.0258   4.0611   4.0673   4.0868   4.1318   4.1623
  4.1982   4.2147   4.2241   4.2366   4.2775   4.2910   4.3368   4.3580
  4.3647   4.3783   4.4082   4.4276   4.4566   4.5032   4.5240   4.5502
  4.5766   4.6008   4.6218   4.6466   4.6613   4.7221   4.7269   4.7447
  4.7659   4.7860   4.8455   4.8947   4.9243   4.9594   5.0107   5.0215
  5.0406   5.0585   5.0953   5.0981   5.1086   5.1664   5.1919   5.2490
  5.2510   5.2828   5.3018   5.3317   5.3476   5.3804   5.4102   5.4386
  5.4627   5.5060   5.5235   5.5807   5.6262   5.6411   5.6884   5.7119
  5.7224   5.8119   5.8260   5.9075   5.9316   6.0307   6.1083   6.2754
  6.4218   6.4819   6.6083   6.6313   6.8335   6.8942   6.9757   7.0983
  7.1219   7.2200   7.2706   7.3125   7.3355   7.3956   7.4189   7.4569
  7.6845   7.8072   7.8210   8.0286   8.1052  24.2813  24.5564  24.7083
 24.7809  25.1392  25.3518  50.4349  50.5334  50.6180
 
 Beta MOs
 -- Occupied --
-19.4532 -19.3976 -19.3453 -10.4106 -10.4060 -10.3559 -10.3508 -10.3488
-10.3476  -1.3166  -1.1653  -1.0064  -0.9464  -0.8772  -0.8481  -0.7484
 -0.7248  -0.6508  -0.6400  -0.6268  -0.6056  -0.5734  -0.5597  -0.5437
 -0.5327  -0.4969  -0.4789  -0.4573  -0.4384  -0.4284  -0.4006  -0.3805
 -0.3343
 -- Virtual --
 -0.0317   0.0182   0.0269   0.0373   0.0393   0.0564   0.0586   0.0625
  0.0835   0.0993   0.1073   0.1095   0.1223   0.1288   0.1417   0.1447
  0.1501   0.1549   0.1583   0.1621   0.1640   0.1653   0.1722   0.1786
  0.1818   0.1882   0.1928   0.2046   0.2121   0.2138   0.2225   0.2289
  0.2416   0.2480   0.2530   0.2702   0.2820   0.2872   0.2932   0.3010
  0.3077   0.3148   0.3296   0.3338   0.3400   0.3444   0.3604   0.3693
  0.3736   0.3788   0.3862   0.3920   0.3993   0.4063   0.4197   0.4275
  0.4336   0.4421   0.4601   0.4726   0.5165   0.5304   0.5440   0.5704
  0.5743   0.5903   0.5956   0.6063   0.6089   0.6279   0.6348   0.6441
  0.6547   0.6907   0.6961   0.7016   0.7095   0.7173   0.7214   0.7366
  0.7433   0.7521   0.7760   0.7852   0.7896   0.8029   0.8165   0.8267
  0.8360   0.8460   0.8513   0.8699   0.8819   0.9029   0.9085   0.9421
  0.9617   0.9934   1.0235   1.0503   1.0698   1.0893   1.1057   1.1182
  1.1315   1.1402   1.1552   1.1711   1.1811   1.1945   1.2008   1.2205
  1.2288   1.2297   1.2418   1.2504   1.2682   1.2710   1.2899   1.3031
  1.3315   1.3441   1.3506   1.3613   1.3801   1.3851   1.4023   1.4095
  1.4337   1.4391   1.4523   1.4573   1.4712   1.4929   1.5166   1.5293
  1.5471   1.5582   1.5656   1.5778   1.5963   1.6175   1.6228   1.6440
  1.6726   1.6858   1.7078   1.7275   1.7547   1.7765   1.8050   1.8158
  1.8204   1.8621   1.9071   1.9296   1.9727   2.0018   2.0243   2.0524
  2.0664   2.1352   2.1655   2.2390   2.2623   2.3064   2.3237   2.3778
  2.4118   2.4565   2.5701   2.6048   2.6543   2.6667   2.6797   2.7287
  2.7327   2.7722   2.7928   2.8150   2.8275   2.8351   2.8610   2.8697
  2.8736   2.8919   2.9020   2.9452   2.9571   2.9658   2.9741   2.9758
  2.9948   3.0135   3.0455   3.0694   3.0866   3.1248   3.1620   3.1840
  3.2174   3.2324   3.2455   3.2692   3.2883   3.3102   3.3264   3.3472
  3.3833   3.3851   3.3983   3.4226   3.4296   3.4403   3.4785   3.4892
  3.5039   3.5118   3.5252   3.5328   3.5647   3.5849   3.6080   3.6444
  3.6872   3.7162   3.7324   3.7423   3.7572   3.7729   3.7758   3.7961
  3.8237   3.8295   3.8578   3.8638   3.8829   3.8955   3.9178   3.9208
  3.9700   3.9758   3.9938   4.0261   4.0618   4.0676   4.0874   4.1322
  4.1629   4.1985   4.2151   4.2244   4.2369   4.2778   4.2923   4.3374
  4.3590   4.3660   4.3787   4.4090   4.4283   4.4577   4.5038   4.5252
  4.5548   4.5774   4.6040   4.6417   4.6482   4.6649   4.7268   4.7341
  4.7515   4.7722   4.7892   4.8467   4.9129   4.9324   4.9640   5.0137
  5.0311   5.0467   5.0654   5.1434   5.1457   5.1810   5.1969   5.2108
  5.2678   5.2947   5.2984   5.3142   5.3358   5.3483   5.3938   5.4186
  5.4437   5.4801   5.5139   5.5361   5.5814   5.6281   5.6498   5.6901
  5.7156   5.7313   5.8279   5.8355   5.9090   5.9322   6.0314   6.1085
  6.2766   6.4360   6.5281   6.6171   6.6360   6.9177   6.9736   7.0367
  7.1239   7.1398   7.2477   7.3077   7.3147   7.3446   7.4032   7.4450
  7.4980   7.6849   7.8180   7.8243   8.0419   8.1253  24.2813  24.5564
 24.7081  24.7811  25.1392  25.3518  50.4475  50.5431  50.6182
 --------------------------------------------------------------
 
          Ground-State Mulliken Net Atomic Charges

     Atom                 Charge (a.u.)    Spin (a.u.)
  --------------------------------------------------------
      1 H                     0.286865      -0.000070
      2 C                    -0.165010       0.000889
      3 C                    -0.290537      -0.002292
      4 H                     0.279231       0.000181
      5 C                    -0.070177       0.008849
      6 H                     0.312264      -0.000476
      7 C                    -0.507080      -0.005169
      8 H                     0.278625       0.005752
      9 C                    -0.296061       0.006267
     10 H                     0.239540      -0.001739
     11 C                    -0.147569       0.002676
     12 H                     0.296238       0.000189
     13 O                    -0.398498       0.002066
     14 H                     0.332697       0.000014
     15 O                     0.084599       0.321438
     16 O                    -0.235128       0.661427
  --------------------------------------------------------
  Sum of atomic charges =    -0.000000
  Sum of spin   charges =     1.000000

 -----------------------------------------------------------------
                    Cartesian Multipole Moments
 -----------------------------------------------------------------
    Charge (ESU x 10^10)
                -0.0000
    Dipole Moment (Debye)
         X      -0.1636      Y       1.7558      Z       0.9088
       Tot       1.9838
    Quadrupole Moments (Debye-Ang)
        XX     -50.1704     XY      -9.0121     YY     -59.2481
        XZ      -2.2931     YZ      -6.2924     ZZ     -47.1961
    Octopole Moments (Debye-Ang^2)
       XXX     117.9976    XXY     -46.3250    XYY      29.7583
       YYY    -208.8324    XXZ      49.8898    XYZ      12.7586
       YYZ      39.9281    XZZ      48.0027    YZZ     -22.8978
       ZZZ     129.9355
    Hexadecapole Moments (Debye-Ang^3)
      XXXX    -584.4250   XXXY      39.0535   XXYY    -225.4258
      XYYY      54.3223   YYYY    -857.7840   XXXZ    -131.8133
      XXYZ      18.6947   XYYZ     -30.0642   YYYZ      72.0519
      XXZZ    -252.9417   XYZZ     -11.4086   YYZZ    -201.9110
      XZZZ    -166.8097   YZZZ     -13.3291   ZZZZ    -774.6223
 -----------------------------------------------------------------
 Calculating analytic gradient of the SCF energy
 Gradient of CDS energy
            1           2           3           4           5           6
    1   0.0000966   0.0003744  -0.0003496  -0.0000850  -0.0003998  -0.0001964
    2  -0.0000262  -0.0001088   0.0001261   0.0000458   0.0000768   0.0000448
    3   0.0001779   0.0003610   0.0003746   0.0001811  -0.0000688   0.0000029
            7           8           9          10          11          12
    1  -0.0000058  -0.0000597   0.0000310  -0.0000168   0.0003860   0.0001991
    2  -0.0001175   0.0000145   0.0001289  -0.0001501  -0.0000745  -0.0000371
    3  -0.0001725  -0.0001397  -0.0002211  -0.0001047  -0.0000800  -0.0000079
           13          14          15          16
    1  -0.0000983   0.0000942   0.0000517  -0.0000216
    2  -0.0001888   0.0003197  -0.0000199  -0.0000337
    3   0.0001774  -0.0003909  -0.0001037   0.0000145
 Gradient of SCF Energy
            1           2           3           4           5           6
    1   0.0027161  -0.0025768   0.0050303  -0.0032209   0.0053652  -0.0074837
    2  -0.0007479   0.0004395  -0.0020334   0.0016555   0.0012332   0.0020746
    3   0.0060636  -0.0043952  -0.0040832   0.0071315  -0.0036727  -0.0003751
            7           8           9          10          11          12
    1   0.0047335  -0.0036836  -0.0047629   0.0027108  -0.0039671   0.0046214
    2  -0.0129174   0.0059567   0.0074245  -0.0028519  -0.0003635  -0.0014469
    3   0.0087639  -0.0078013   0.0047381  -0.0046841  -0.0029685  -0.0002987
           13          14          15          16
    1   0.0064314  -0.0054354   0.0001526  -0.0006308
    2   0.0032194  -0.0005806   0.0002684  -0.0013301
    3   0.0167475  -0.0149805   0.0005310  -0.0007162
 Max gradient component =       1.675E-02
 RMS gradient           =       5.471E-03
 Computing fast CPCM-SWIG gradient
 Updating gradient with PCM contributions...
 -- total gradient after adding PCM contribution --
---------------------------------------------------
  Atom         X              Y              Z     
---------------------------------------------------
   1      -0.000249       0.000040      -0.000225
   2       0.000223      -0.000038       0.000237
   3       0.000013       0.000004       0.000030
   4      -0.000009       0.000030      -0.000001
   5       0.000012      -0.000009      -0.000042
   6      -0.000005       0.000023      -0.000008
   7       0.000005       0.000003       0.000038
   8      -0.000007       0.000010      -0.000018
   9       0.000016       0.000015      -0.000006
  10       0.000009      -0.000024       0.000003
  11      -0.000036       0.000011      -0.000046
  12       0.000006      -0.000003       0.000014
  13       0.000035      -0.000007       0.000055
  14       0.000005      -0.000030      -0.000044
  15      -0.000001      -0.000055      -0.000080
  16      -0.000016       0.000029       0.000091
---------------------------------------------------
 Number of fixed atoms: 0
 Gradient time:  CPU 264.44 s  wall 21.34 s
 ----------------------------------------------------------------
             Standard Nuclear Orientation (Angstroms)
    I     Atom           X                Y                Z
 ----------------------------------------------------------------
    1      H       0.5494870302     1.1131890970     1.8981981717
    2      C       0.0368225133     1.2510758343     0.9559882674
    3      C      -1.3937059848     1.5742808067     0.9869507899
    4      H      -1.8418405081     1.8157438377     1.9416345888
    5      C      -2.1299889353     1.5826360889    -0.1223353566
    6      H      -3.1838649876     1.8228880810    -0.1068511667
    7      C      -1.5107143611     1.2143396570    -1.4283669096
    8      H      -1.9763529213     1.7262930837    -2.2683406194
    9      C       0.0081139346     1.3928883184    -1.5053921124
   10      H       0.3779365918     0.6823609414    -2.2476299993
   11      C       0.6985687447     1.1628351551    -0.1952745688
   12      H       1.7617485246     0.9637213830    -0.2224195762
   13      O       0.3216569184     2.7243746560    -1.9170485898
   14      H       0.0636089520     2.8222509235    -2.8415479411
   15      O      -1.8180789309    -0.2197648546    -1.6153931630
   16      O      -1.6444777806    -0.5971757089    -2.8488761150
 ----------------------------------------------------------------
 Nuclear Repulsion Energy =         448.47155412 hartrees
 There are       34 alpha and       33 beta electrons
 Discretize the solute cavity surface with Lebedev spheres
	Using 110 Lebedev grid points for each H atom
	Using 194 Lebedev grid points for other atoms
	Atomic van der Waals radii will be scaled by 1.20
 Remove points where switching function is < 1.0e-08
 Keep 1231 surface tesserae and discard 1285 interior tesserae
 Molecular Surface Area = 145.366 Angst**2
 Requested basis set is 6-311++G(2df,2p)
 There are 114 shells and 376 basis functions
 A cutoff of  1.0D-12 yielded   6043 shell pairs
 There are     66404 function pairs (     83261 Cartesian)
 Smallest overlap matrix eigenvalue = 2.32E-06
 Guess MOs from SCF MO coefficient file

 -----------------------------------------------------------------------
  General SCF calculation program by
  Eric Jon Sundstrom, Paul Horn, Yuezhi Mao, Dmitri Zuev, Alec White,
  David Stuck, Shaama M.S., Shane Yost, Joonho Lee, David Small,
  Daniel Levine, Susi Lehtola, Hugh Burton, Evgeny Epifanovsky,
  Bang C. Huynh
 -----------------------------------------------------------------------
 Exchange:     0.1500 Hartree-Fock + 1.0000 wB97M-V + LR-HF
 Correlation:  1.0000 wB97M-V
 Using SG-2 standard quadrature grid
 Nonlocal Correlation:  VV10 with C = 0.0100 and b = 6.00 and scale = 1.00000
 Grid used for NLC:  SG-1 standard quadrature
 
 Citation of the SMD model:
 Marenich, A.V.; Cramer, C.J.; Truhlar, D.G.
 J. Phys. Chem. B 2009, 113, 6378-6396.
 iSolventCode=           1
 Solvent: water                                                           
 
 vradii
            1           2           3           4           5           6
    1   1.2000000   1.8500000   1.8500000   1.2000000   1.8500000   1.2000000
            7           8           9          10          11          12
    1   1.8500000   1.2000000   1.8500000   1.2000000   1.8500000   1.2000000
           13          14          15          16
    1   1.5200000   1.2000000   1.5200000   1.5200000
 -------------------------------------------------------
 OpenMP BLAS3 based DFT computing Module                
 Release: version 1.0, May 2013, Q-Chem Inc. Pittsburgh 
 -------------------------------------------------------
 A unrestricted SCF calculation will be
 performed using Roothaan-Hall, DIIS, GDM
 SCF converges when RMS gradient is below 1.0e-07
 ---------------------------------------
  Cycle       Energy         DIIS error
 ---------------------------------------
    1    -458.3308813734      1.79e-04  Roothaan Step
 ---------------------------------------
  Cycle       Energy         DIIS error
 ---------------------------------------
    1    -458.3517187337      1.97e-04  
    2    -458.3546977238      1.44e-04  Done DIIS. Switching to GDM
 ---------------------------------------
  Cycle       Energy        RMS Gradient
 ---------------------------------------
    1    -458.3546977238      6.29e-03   Normal BFGS step
    2    -458.3547283520      1.30e-02   Normal BFGS step
    3    -458.3557949086      1.03e-03   Normal BFGS step
    4    -458.3558024113      2.17e-03   Normal BFGS step
    5    -458.3558252039      2.77e-04   Normal BFGS step
    6    -458.3558259111      2.81e-04   Normal BFGS step
    7    -458.3558264287      1.53e-04   Normal BFGS step
    8    -458.3558265231      7.45e-05   Normal BFGS step
    9    -458.3558265550      1.74e-05   Normal BFGS step
   10    -458.3558265615      3.73e-06   Normal BFGS step
   11    -458.3558265620      1.50e-06   Normal BFGS step
   12    -458.3558265620      1.26e-06   Normal BFGS step
   13    -458.3558265620      1.17e-06   Normal BFGS step
   14    -458.3558265621      9.48e-07   Normal BFGS step
   15    -458.3558265621      7.10e-07   Normal BFGS step
   16    -458.3558265621      2.93e-07   Normal BFGS step
   17    -458.3558265620      9.98e-08  Convergence criterion met
 ---------------------------------------
 SCF time:   CPU 1668.91s  wall 113.00s 
<S^2> =          0.754090186
(3)  G-ENP(liq) elect-nuc-pol free energy of system     -458.355826562 a.u.
(4)  G-CDS(liq) cavity-dispersion-solvent structure 
     free energy                                                2.5606 kcal/mol
(6)  G-S(liq) free energy of system                     -458.351746030 a.u.
 SCF   energy in the final basis set =     -458.3517460302
 Total energy in the final basis set =     -458.3517460302
 
 --------------------------------------------------------------
 
                    Orbital Energies (a.u.)
 --------------------------------------------------------------
 
 Alpha MOs
 -- Occupied --
-19.4638 -19.4160 -19.3453 -10.4102 -10.4064 -10.3559 -10.3509 -10.3489
-10.3476  -1.3430  -1.1655  -1.0272  -0.9574  -0.8782  -0.8563  -0.7527
 -0.7262  -0.6576  -0.6507  -0.6396  -0.6138  -0.6018  -0.5722  -0.5543
 -0.5332  -0.5195  -0.4804  -0.4585  -0.4392  -0.4335  -0.4174  -0.4036
 -0.3781  -0.3344
 -- Virtual --
  0.0174   0.0267   0.0369   0.0392   0.0561   0.0581   0.0621   0.0831
  0.0987   0.1068   0.1088   0.1214   0.1280   0.1411   0.1439   0.1497
  0.1545   0.1581   0.1612   0.1638   0.1646   0.1718   0.1776   0.1814
  0.1872   0.1917   0.2037   0.2111   0.2132   0.2213   0.2283   0.2408
  0.2474   0.2510   0.2634   0.2767   0.2852   0.2918   0.2983   0.3070
  0.3134   0.3283   0.3326   0.3385   0.3432   0.3567   0.3680   0.3731
  0.3777   0.3858   0.3896   0.3986   0.4056   0.4190   0.4265   0.4314
  0.4415   0.4588   0.4715   0.5162   0.5302   0.5438   0.5696   0.5741
  0.5901   0.5951   0.6059   0.6079   0.6277   0.6345   0.6439   0.6543
  0.6904   0.6958   0.7014   0.7085   0.7171   0.7205   0.7364   0.7433
  0.7520   0.7757   0.7849   0.7893   0.8026   0.8159   0.8261   0.8355
  0.8459   0.8511   0.8696   0.8817   0.9023   0.9084   0.9407   0.9593
  0.9910   1.0227   1.0484   1.0665   1.0874   1.1051   1.1169   1.1282
  1.1378   1.1520   1.1687   1.1754   1.1876   1.1968   1.2056   1.2154
  1.2249   1.2391   1.2418   1.2646   1.2691   1.2883   1.3009   1.3302
  1.3419   1.3478   1.3597   1.3797   1.3843   1.4017   1.4072   1.4324
  1.4372   1.4497   1.4561   1.4679   1.4903   1.5142   1.5290   1.5384
  1.5565   1.5633   1.5758   1.5943   1.6105   1.6205   1.6352   1.6610
  1.6765   1.6982   1.7158   1.7481   1.7757   1.8028   1.8126   1.8180
  1.8586   1.8993   1.9246   1.9676   2.0001   2.0201   2.0516   2.0653
  2.1325   2.1552   2.2346   2.2517   2.2967   2.3168   2.3677   2.4058
  2.4553   2.5696   2.6045   2.6516   2.6628   2.6790   2.7251   2.7321
  2.7716   2.7920   2.8147   2.8274   2.8350   2.8605   2.8696   2.8731
  2.8915   2.9015   2.9447   2.9569   2.9655   2.9738   2.9754   2.9942
  3.0133   3.0452   3.0685   3.0859   3.1243   3.1615   3.1836   3.2170
  3.2322   3.2453   3.2689   3.2883   3.3099   3.3263   3.3464   3.3833
  3.3848   3.3982   3.4224   3.4292   3.4400   3.4779   3.4887   3.5037
  3.5116   3.5248   3.5325   3.5640   3.5841   3.6075   3.6442   3.6868
  3.7155   3.7320   3.7418   3.7566   3.7727   3.7754   3.7961   3.8234
  3.8290   3.8576   3.8635   3.8825   3.8952   3.9173   3.9204   3.9694
  3.9757   3.9937   4.0257   4.0610   4.0673   4.0867   4.1318   4.1622
  4.1981   4.2148   4.2241   4.2364   4.2774   4.2910   4.3367   4.3580
  4.3647   4.3783   4.4081   4.4276   4.4567   4.5031   4.5240   4.5502
  4.5765   4.6007   4.6218   4.6466   4.6612   4.7220   4.7268   4.7447
  4.7659   4.7858   4.8454   4.8947   4.9243   4.9595   5.0106   5.0216
  5.0406   5.0585   5.0953   5.0981   5.1086   5.1664   5.1918   5.2490
  5.2509   5.2826   5.3017   5.3317   5.3476   5.3803   5.4102   5.4385
  5.4627   5.5060   5.5235   5.5806   5.6261   5.6411   5.6884   5.7119
  5.7224   5.8119   5.8259   5.9074   5.9314   6.0307   6.1078   6.2754
  6.4218   6.4819   6.6083   6.6313   6.8335   6.8942   6.9757   7.0983
  7.1219   7.2200   7.2706   7.3125   7.3355   7.3956   7.4189   7.4569
  7.6845   7.8072   7.8210   8.0286   8.1052  24.2811  24.5563  24.7083
 24.7809  25.1391  25.3517  50.4349  50.5334  50.6180
 
 Beta MOs
 -- Occupied --
-19.4532 -19.3976 -19.3453 -10.4106 -10.4060 -10.3559 -10.3508 -10.3488
-10.3476  -1.3166  -1.1653  -1.0064  -0.9464  -0.8772  -0.8481  -0.7484
 -0.7248  -0.6508  -0.6400  -0.6268  -0.6055  -0.5734  -0.5597  -0.5437
 -0.5327  -0.4969  -0.4789  -0.4573  -0.4384  -0.4283  -0.4006  -0.3805
 -0.3343
 -- Virtual --
 -0.0317   0.0182   0.0269   0.0373   0.0393   0.0564   0.0586   0.0625
  0.0835   0.0993   0.1073   0.1095   0.1223   0.1288   0.1417   0.1447
  0.1501   0.1549   0.1583   0.1621   0.1640   0.1653   0.1722   0.1786
  0.1818   0.1882   0.1928   0.2046   0.2121   0.2138   0.2225   0.2289
  0.2416   0.2480   0.2530   0.2702   0.2820   0.2873   0.2932   0.3010
  0.3077   0.3148   0.3296   0.3338   0.3400   0.3444   0.3604   0.3692
  0.3736   0.3788   0.3862   0.3920   0.3993   0.4063   0.4197   0.4275
  0.4336   0.4421   0.4601   0.4726   0.5165   0.5304   0.5440   0.5704
  0.5742   0.5903   0.5955   0.6063   0.6089   0.6279   0.6348   0.6441
  0.6547   0.6906   0.6961   0.7016   0.7095   0.7173   0.7214   0.7366
  0.7433   0.7521   0.7760   0.7852   0.7896   0.8030   0.8166   0.8267
  0.8359   0.8461   0.8513   0.8699   0.8819   0.9028   0.9085   0.9420
  0.9617   0.9934   1.0235   1.0503   1.0699   1.0893   1.1056   1.1181
  1.1315   1.1401   1.1552   1.1711   1.1811   1.1944   1.2008   1.2206
  1.2288   1.2297   1.2419   1.2504   1.2682   1.2711   1.2898   1.3031
  1.3315   1.3441   1.3506   1.3612   1.3801   1.3851   1.4023   1.4095
  1.4336   1.4391   1.4523   1.4573   1.4712   1.4929   1.5167   1.5293
  1.5471   1.5582   1.5655   1.5778   1.5964   1.6175   1.6228   1.6440
  1.6726   1.6857   1.7078   1.7275   1.7547   1.7765   1.8050   1.8158
  1.8205   1.8621   1.9071   1.9295   1.9727   2.0018   2.0244   2.0524
  2.0663   2.1353   2.1655   2.2390   2.2623   2.3064   2.3237   2.3778
  2.4118   2.4565   2.5701   2.6048   2.6543   2.6667   2.6798   2.7288
  2.7327   2.7722   2.7928   2.8150   2.8274   2.8351   2.8610   2.8697
  2.8736   2.8919   2.9020   2.9452   2.9571   2.9657   2.9741   2.9758
  2.9948   3.0134   3.0455   3.0694   3.0866   3.1249   3.1620   3.1840
  3.2174   3.2324   3.2455   3.2692   3.2884   3.3102   3.3263   3.3470
  3.3834   3.3851   3.3983   3.4226   3.4295   3.4403   3.4784   3.4890
  3.5039   3.5118   3.5253   3.5328   3.5646   3.5849   3.6080   3.6443
  3.6872   3.7163   3.7325   3.7423   3.7572   3.7728   3.7757   3.7961
  3.8237   3.8295   3.8577   3.8637   3.8828   3.8955   3.9178   3.9208
  3.9700   3.9758   3.9939   4.0259   4.0617   4.0676   4.0874   4.1322
  4.1629   4.1985   4.2152   4.2244   4.2368   4.2778   4.2922   4.3372
  4.3590   4.3660   4.3786   4.4089   4.4283   4.4577   4.5037   4.5252
  4.5547   4.5773   4.6039   4.6417   4.6481   4.6648   4.7266   4.7340
  4.7514   4.7722   4.7891   4.8466   4.9129   4.9324   4.9641   5.0137
  5.0311   5.0467   5.0654   5.1434   5.1457   5.1809   5.1969   5.2108
  5.2675   5.2947   5.2984   5.3142   5.3358   5.3483   5.3937   5.4186
  5.4436   5.4801   5.5138   5.5360   5.5813   5.6281   5.6498   5.6901
  5.7156   5.7313   5.8278   5.8355   5.9089   5.9320   6.0314   6.1081
  6.2766   6.4360   6.5281   6.6171   6.6360   6.9177   6.9736   7.0367
  7.1239   7.1398   7.2477   7.3077   7.3147   7.3446   7.4032   7.4450
  7.4980   7.6849   7.8180   7.8243   8.0419   8.1253  24.2811  24.5563
 24.7081  24.7811  25.1391  25.3517  50.4475  50.5431  50.6182
 --------------------------------------------------------------
 
          Ground-State Mulliken Net Atomic Charges

     Atom                 Charge (a.u.)    Spin (a.u.)
  --------------------------------------------------------
      1 H                     0.286869      -0.000070
      2 C                    -0.165281       0.000893
      3 C                    -0.290444      -0.002295
      4 H                     0.279279       0.000181
      5 C                    -0.070487       0.008849
      6 H                     0.312254      -0.000476
      7 C                    -0.506999      -0.005172
      8 H                     0.278635       0.005752
      9 C                    -0.296094       0.006269
     10 H                     0.239521      -0.001739
     11 C                    -0.147168       0.002674
     12 H                     0.296249       0.000189
     13 O                    -0.398506       0.002066
     14 H                     0.332699       0.000014
     15 O                     0.084609       0.321437
     16 O                    -0.235137       0.661427
  --------------------------------------------------------
  Sum of atomic charges =    -0.000000
  Sum of spin   charges =     1.000000

 -----------------------------------------------------------------
                    Cartesian Multipole Moments
 -----------------------------------------------------------------
    Charge (ESU x 10^10)
                -0.0000
    Dipole Moment (Debye)
         X      -0.1632      Y       1.7569      Z       0.9084
       Tot       1.9846
    Quadrupole Moments (Debye-Ang)
        XX     -50.1686     XY      -9.0113     YY     -59.2460
        XZ      -2.2916     YZ      -6.2909     ZZ     -47.1977
    Octopole Moments (Debye-Ang^2)
       XXX     117.9938    XXY     -46.3228    XYY      29.7584
       YYY    -208.8305    XXZ      49.8917    XYZ      12.7616
       YYZ      39.9305    XZZ      48.0050    YZZ     -22.8952
       ZZZ     129.9311
    Hexadecapole Moments (Debye-Ang^3)
      XXXX    -584.4200   XXXY      39.0466   XXYY    -225.4229
      XYYY      54.3190   YYYY    -857.7845   XXXZ    -131.8155
      XXYZ      18.6969   XYYZ     -30.0612   YYYZ      72.0502
      XXZZ    -252.9381   XYZZ     -11.4036   YYZZ    -201.9042
      XZZZ    -166.8071   YZZZ     -13.3300   ZZZZ    -774.6374
 -----------------------------------------------------------------
 Calculating analytic gradient of the SCF energy
 Gradient of CDS energy
            1           2           3           4           5           6
    1   0.0000970   0.0003740  -0.0003495  -0.0000850  -0.0003998  -0.0001964
    2  -0.0000261  -0.0001090   0.0001261   0.0000458   0.0000768   0.0000448
    3   0.0001783   0.0003606   0.0003746   0.0001811  -0.0000688   0.0000029
            7           8           9          10          11          12
    1  -0.0000058  -0.0000597   0.0000310  -0.0000168   0.0003860   0.0001991
    2  -0.0001175   0.0000145   0.0001289  -0.0001501  -0.0000745  -0.0000371
    3  -0.0001725  -0.0001397  -0.0002211  -0.0001047  -0.0000800  -0.0000079
           13          14          15          16
[...]
 H         -0.037  0.078 -0.080   -0.014  0.033 -0.093   -0.291  0.034  0.243
 C          0.012 -0.135  0.034   -0.000 -0.076  0.027   -0.157 -0.048 -0.105
 H          0.098  0.302  0.072    0.131  0.605  0.086   -0.122  0.222 -0.302
 O          0.011  0.070 -0.053   -0.003  0.027 -0.019    0.017 -0.011 -0.003
 H         -0.058 -0.014 -0.044   -0.019  0.001 -0.018   -0.100 -0.265  0.001
 O          0.004  0.041 -0.000   -0.008 -0.038  0.004   -0.028 -0.044 -0.010
 O         -0.003  0.003  0.017    0.003  0.001 -0.010   -0.004 -0.015 -0.009
 TransDip   0.047  0.261  0.010    0.012  0.039  0.091    0.008  0.040  0.087

 Mode:                16                     17                     18
 Frequency:       940.59                 969.58                 980.38
 Force Cnst:      2.6036                 1.4157                 2.4601
 Red. Mass:       4.9949                 2.5559                 4.3443
 IR Active:          YES                    YES                    YES
 IR Intens:      103.663                  6.732                 27.698
 Raman Active:       YES                    YES                    YES
               X      Y      Z        X      Y      Z        X      Y      Z
 H         -0.197 -0.074  0.099    0.335 -0.176  0.071   -0.157 -0.070 -0.108
 C         -0.046  0.013  0.029    0.207 -0.051  0.144   -0.078  0.025 -0.142
 C          0.020 -0.029 -0.058   -0.175  0.048  0.072   -0.152  0.072  0.196
 H         -0.010  0.354 -0.174   -0.394  0.157 -0.045   -0.348 -0.032  0.133
 C          0.057 -0.151 -0.030   -0.088  0.012 -0.066    0.234 -0.072 -0.045
 H          0.151  0.227 -0.092   -0.128 -0.107 -0.463    0.261  0.043 -0.251
 C          0.033  0.450  0.046    0.081  0.014  0.045   -0.132 -0.007 -0.138
 H         -0.230  0.338  0.135    0.115  0.003  0.020   -0.365 -0.017 -0.019
 C          0.040 -0.033 -0.135   -0.071 -0.008 -0.063   -0.103  0.087  0.110
 H         -0.199 -0.094 -0.194   -0.193  0.007 -0.139   -0.265  0.116 -0.004
 C          0.051  0.042  0.056    0.065  0.001 -0.043    0.268 -0.085  0.010
 H          0.027 -0.124  0.234    0.072  0.042 -0.427    0.326  0.172  0.065
 O         -0.053 -0.056  0.027    0.001 -0.010 -0.002    0.009 -0.029  0.002
 H          0.063  0.153  0.019    0.061  0.156 -0.000   -0.043 -0.152  0.005
 O         -0.044 -0.239  0.043   -0.006 -0.007 -0.002   -0.001 -0.000  0.006
 O          0.006  0.028 -0.003    0.000 -0.001 -0.000    0.001  0.011  0.009
 TransDip   0.083  0.312  0.047    0.001  0.041 -0.072   -0.164  0.008 -0.040

 Mode:                19                     20                     21
 Frequency:       999.11                1027.73                1035.75
 Force Cnst:      1.3714                 0.8229                 0.8502
 Red. Mass:       2.3318                 1.3224                 1.3451
 IR Active:          YES                    YES                    YES
 IR Intens:       11.865                  0.729                  1.309
 Raman Active:       YES                    YES                    YES
               X      Y      Z        X      Y      Z        X      Y      Z
 H         -0.357 -0.039  0.203    0.114  0.521 -0.006   -0.146 -0.523 -0.007
 C         -0.050  0.017  0.043   -0.026 -0.077 -0.019    0.009  0.097  0.001
 C          0.036 -0.007 -0.100   -0.028 -0.073  0.025   -0.013 -0.104  0.008
 H         -0.122 -0.234 -0.124    0.108  0.481 -0.051    0.152  0.569 -0.085
 C          0.085  0.032 -0.041    0.038  0.068 -0.017    0.021  0.070 -0.009
 H          0.074 -0.052 -0.094   -0.074 -0.426  0.019   -0.084 -0.396  0.087
 C         -0.021 -0.101  0.194   -0.015 -0.005  0.000   -0.010 -0.001  0.008
 H         -0.198  0.114  0.425   -0.029  0.005  0.012   -0.011 -0.008  0.003
 C         -0.097 -0.040 -0.118   -0.021  0.002  0.003    0.007 -0.004  0.001
 H         -0.371  0.001 -0.288   -0.030 -0.005  0.009   -0.007  0.017 -0.028
 C          0.069  0.014  0.065    0.041  0.078  0.009   -0.015 -0.064 -0.001
 H          0.066 -0.042  0.208   -0.067 -0.497  0.020    0.069  0.373  0.045
 O          0.009  0.016 -0.014    0.002 -0.003  0.002    0.000  0.003 -0.002
 H          0.134  0.300 -0.018    0.017  0.023  0.001   -0.009 -0.022 -0.002
 O          0.028  0.077 -0.027    0.003  0.004  0.000    0.002  0.004 -0.000
 O         -0.003 -0.031 -0.010    0.001 -0.002 -0.003    0.000 -0.003 -0.004
 TransDip  -0.091 -0.062  0.009   -0.017 -0.018 -0.011   -0.016 -0.022  0.024

 Mode:                22                     23                     24
 Frequency:      1072.94                1122.95                1164.90
 Force Cnst:      4.2355                 1.1088                 0.8192
 Red. Mass:       6.2445                 1.4924                 1.0246
 IR Active:          YES                    YES                    YES
 IR Intens:      173.209                 21.679                  0.102
 Raman Active:       YES                    YES                    YES
               X      Y      Z        X      Y      Z        X      Y      Z
 H          0.039  0.196  0.074   -0.298  0.041  0.160    0.363 -0.087 -0.220
 C          0.025 -0.004  0.047   -0.038  0.011  0.012    0.004 -0.004 -0.011
 C          0.006 -0.015 -0.036    0.033 -0.006  0.039   -0.005  0.003 -0.013
 H         -0.026 -0.037 -0.044    0.351  0.005  0.188   -0.407  0.068 -0.220
 C         -0.032  0.037 -0.004   -0.032 -0.014  0.037    0.012 -0.010 -0.001
 H         -0.050 -0.028  0.039   -0.022  0.041  0.051    0.034  0.053  0.414
 C          0.023 -0.066  0.039    0.110 -0.010 -0.074   -0.010 -0.006  0.020
 H         -0.331 -0.172  0.164    0.481 -0.195 -0.393    0.291 -0.062 -0.181
 C          0.145  0.505 -0.149   -0.112  0.040 -0.028    0.004  0.003  0.010
 H          0.137  0.496 -0.172   -0.372  0.043 -0.163   -0.288  0.066 -0.194
 C         -0.021 -0.062  0.006    0.039 -0.002  0.031   -0.006  0.013 -0.002
 H          0.012  0.054  0.163    0.039 -0.005  0.018   -0.002 -0.015  0.412
 O         -0.065 -0.328  0.067   -0.004 -0.030 -0.011    0.002 -0.002 -0.000
 H         -0.011 -0.118  0.089    0.095  0.277 -0.004   -0.007 -0.023 -0.000
 O         -0.030  0.016  0.002   -0.013 -0.008  0.001    0.001  0.004 -0.002
 O          0.001 -0.010 -0.017    0.001  0.011  0.007   -0.000 -0.001 -0.000
 TransDip   0.149  0.369 -0.141    0.051  0.110 -0.086   -0.003 -0.008  0.005

 Mode:                25                     26                     27
 Frequency:      1194.07                1226.94                1267.08
 Force Cnst:      0.9108                 0.9675                13.2882
 Red. Mass:       1.0842                 1.0908                14.0479
 IR Active:          YES                    YES                    YES
 IR Intens:        2.440                102.566                 16.867
 Raman Active:       YES                    YES                    YES
               X      Y      Z        X      Y      Z        X      Y      Z
 H          0.357 -0.105 -0.213    0.149  0.015 -0.109   -0.056  0.004  0.037
 C          0.026  0.004 -0.014    0.003  0.004 -0.030   -0.001 -0.002  0.007
 C          0.027  0.003  0.014   -0.007 -0.001 -0.003    0.009  0.000 -0.005
 H          0.369 -0.082  0.199   -0.078  0.011 -0.040   -0.016  0.022 -0.023
 C         -0.029  0.001 -0.036    0.003  0.002 -0.001    0.004 -0.039  0.013
 H         -0.053 -0.056 -0.536    0.003 -0.003  0.057    0.019  0.027 -0.131
 C         -0.018  0.001 -0.006    0.001 -0.002  0.005   -0.007  0.016 -0.041
 H         -0.086 -0.003  0.027    0.007  0.033  0.025    0.119  0.144 -0.031
 C         -0.021 -0.001  0.007   -0.011  0.036  0.009    0.024 -0.011  0.008
 H         -0.113  0.015 -0.053    0.148 -0.384  0.483   -0.221 -0.080 -0.050
 C         -0.026  0.006  0.036    0.007 -0.044  0.013   -0.010  0.009 -0.008
 H         -0.018 -0.005  0.555    0.028  0.049  0.105   -0.013  0.004 -0.054
 O          0.002  0.003  0.000   -0.029 -0.021 -0.027    0.001  0.015  0.004
 H         -0.004 -0.025 -0.001    0.231  0.690 -0.017   -0.029 -0.080  0.000
 O          0.000  0.002 -0.000    0.000  0.001  0.006   -0.092  0.181  0.642
 O          0.000  0.000  0.001    0.001 -0.002 -0.006    0.089 -0.178 -0.611
 TransDip   0.013 -0.046  0.016    0.121  0.295 -0.062    0.020  0.011 -0.130

 Mode:                28                     29                     30
 Frequency:      1308.49                1345.67                1368.48
 Force Cnst:      1.1514                 2.1934                 1.4620
 Red. Mass:       1.1414                 2.0559                 1.3250
 IR Active:          YES                    YES                    YES
 IR Intens:       18.341                 27.294                  2.597
 Raman Active:       YES                    YES                    YES
               X      Y      Z        X      Y      Z        X      Y      Z
 H          0.003 -0.003  0.006    0.228 -0.069 -0.154   -0.264  0.054  0.139
 C          0.005 -0.000  0.004   -0.006  0.003 -0.016    0.042 -0.011 -0.035
 C         -0.008  0.002  0.002   -0.031  0.002 -0.039    0.050 -0.013  0.009
 H          0.045 -0.031  0.037    0.034 -0.010 -0.006   -0.374  0.074 -0.213
 C         -0.002  0.015 -0.007   -0.056  0.027  0.026   -0.015  0.006  0.077
 H         -0.010 -0.008  0.031   -0.046  0.058  0.470   -0.026 -0.022 -0.298
 C         -0.042 -0.050 -0.050    0.216 -0.018 -0.110    0.011  0.025  0.016
 H          0.409  0.825  0.222   -0.590  0.097  0.413    0.120 -0.125 -0.136
 C         -0.022  0.012  0.005   -0.148 -0.021 -0.012   -0.115 -0.012 -0.024
 H          0.157  0.213 -0.096    0.145  0.107  0.015    0.571  0.227  0.101
 C          0.001 -0.001 -0.001    0.040 -0.004  0.058    0.008 -0.003 -0.037
 H          0.005  0.013  0.027    0.041  0.000  0.119    0.019 -0.003  0.393
 O          0.003 -0.018 -0.010    0.014  0.009  0.005    0.014 -0.005  0.000
 H          0.013  0.075 -0.001   -0.037 -0.139  0.001   -0.025 -0.075  0.002
 O          0.009 -0.046  0.019   -0.013 -0.009  0.017   -0.001  0.005  0.003
 O         -0.000  0.012  0.012    0.002  0.005 -0.006    0.001 -0.003 -0.007
 TransDip  -0.049  0.013 -0.127   -0.084 -0.122 -0.078   -0.039 -0.031  0.015

 Mode:                31                     32                     33
 Frequency:      1389.38                1438.06                1453.37
 Force Cnst:      1.4465                 2.1363                 2.2813
 Red. Mass:       1.2718                 1.7533                 1.8330
 IR Active:          YES                    YES                    YES
 IR Intens:       16.301                 12.880                 30.350
 Raman Active:       YES                    YES                    YES
               X      Y      Z        X      Y      Z        X      Y      Z
 H          0.290 -0.072 -0.208    0.009 -0.002  0.049   -0.386  0.081  0.293
 C         -0.062  0.015  0.001    0.046 -0.009  0.017    0.128 -0.029 -0.009
 C         -0.002  0.000 -0.017   -0.121  0.029 -0.001   -0.077  0.019  0.016
 H          0.122 -0.017  0.039    0.434 -0.062  0.288    0.126 -0.016  0.130
 C          0.019 -0.016 -0.020    0.052 -0.039 -0.121    0.012 -0.009 -0.054
 H          0.031  0.013  0.016    0.089  0.058  0.460    0.025  0.036  0.251
 C         -0.026  0.037  0.055   -0.038  0.025  0.103    0.014  0.011 -0.016
 H          0.012 -0.206 -0.106    0.248 -0.092 -0.123   -0.275 -0.069  0.105
 C         -0.023 -0.047  0.046   -0.076  0.016 -0.099    0.056 -0.049  0.143
 H          0.395  0.552 -0.296    0.386 -0.106  0.247   -0.059  0.308 -0.234
 C          0.017 -0.002  0.067    0.019 -0.010 -0.015   -0.070  0.026 -0.115
 H          0.005  0.001 -0.323    0.034 -0.005  0.197   -0.073 -0.018  0.406
 O         -0.004 -0.036 -0.034    0.015  0.017  0.022   -0.014 -0.026 -0.032
 H          0.100  0.331 -0.016   -0.089 -0.279  0.012    0.124  0.395 -0.017
 O          0.001  0.016  0.003    0.003  0.013  0.004   -0.001  0.005  0.002
 O          0.001 -0.008 -0.012    0.000 -0.008 -0.011    0.000 -0.001 -0.003
 TransDip   0.048  0.083  0.086    0.071 -0.046  0.078   -0.047  0.057  0.160

 Mode:                34                     35                     36
 Frequency:      1688.63                1742.19                3066.94
 Force Cnst:     13.4149                10.7875                 6.0066
 Red. Mass:       7.9848                 6.0323                 1.0839
 IR Active:          YES                    YES                    YES
 IR Intens:        3.760                  3.120                 22.806
 Raman Active:       YES                    YES                    YES
               X      Y      Z        X      Y      Z        X      Y      Z
 H         -0.148  0.029 -0.060   -0.398  0.086 -0.028    0.001 -0.002  0.002
 C          0.283 -0.047 -0.265    0.168 -0.029 -0.300   -0.001 -0.000  0.000
 C         -0.316  0.030 -0.274    0.173 -0.005  0.274    0.000  0.000 -0.000
 H          0.200 -0.055 -0.057   -0.392  0.099  0.032   -0.001  0.001  0.002
 C          0.188  0.011  0.351   -0.130 -0.016 -0.295   -0.000 -0.000  0.000
 H          0.208 -0.077 -0.227   -0.148  0.084  0.242   -0.002  0.001 -0.000
 C         -0.026 -0.004 -0.034    0.005 -0.002  0.054    0.002 -0.002  0.002
 H          0.175 -0.029 -0.162   -0.017  0.044  0.094   -0.016  0.020 -0.030
 C          0.022  0.013 -0.047    0.001 -0.002 -0.060    0.029 -0.051 -0.058
 H         -0.186 -0.021 -0.114   -0.039  0.019 -0.096   -0.343  0.636  0.684
 C         -0.154  0.014  0.344   -0.118  0.009  0.329   -0.002  0.001  0.000
 H         -0.203  0.057 -0.202   -0.173  0.062 -0.259    0.033 -0.004 -0.003
 O         -0.001  0.004 -0.001    0.000  0.005 -0.001    0.000 -0.001  0.001
 H         -0.016 -0.031  0.000   -0.011 -0.028 -0.002   -0.005 -0.003 -0.001
 O          0.001 -0.010 -0.008    0.000  0.006  0.004    0.000 -0.000  0.000
 O          0.000  0.001  0.004   -0.000 -0.001 -0.002   -0.000 -0.000  0.000
 TransDip  -0.060  0.010 -0.014    0.046  0.015  0.029    0.031 -0.134 -0.067

 Mode:                37                     38                     39
 Frequency:      3116.83                3189.77                3196.57
 Force Cnst:      6.2190                 6.5117                 6.5488
 Red. Mass:       1.0865                 1.0862                 1.0878
 IR Active:          YES                    YES                    YES
 IR Intens:        8.720                  1.179                  8.282
 Raman Active:       YES                    YES                    YES
               X      Y      Z        X      Y      Z        X      Y      Z
 H          0.002 -0.001  0.003    0.298 -0.081  0.548    0.125 -0.033  0.222
 C         -0.000  0.000 -0.000   -0.025  0.007 -0.047   -0.012  0.003 -0.017
 C          0.000  0.000  0.000   -0.018  0.010  0.041    0.023 -0.013 -0.050
 H          0.000  0.001 -0.001    0.222 -0.119 -0.474   -0.275  0.147  0.581
 C          0.004 -0.001  0.001    0.018 -0.004 -0.002   -0.033  0.008  0.002
 H         -0.046  0.008 -0.002   -0.223  0.052  0.004    0.402 -0.093 -0.007
 C         -0.037  0.038 -0.066   -0.000 -0.000  0.001   -0.001  0.001 -0.002
 H          0.431 -0.461  0.768   -0.004  0.004 -0.008    0.010 -0.010  0.018
 C          0.002 -0.001 -0.003    0.000 -0.001 -0.001    0.001 -0.001 -0.002
 H         -0.014  0.023  0.027   -0.005  0.009  0.012   -0.006  0.011  0.013
 C         -0.000  0.000  0.000    0.042 -0.008 -0.000    0.048 -0.009 -0.002
 H          0.010 -0.002 -0.001   -0.497  0.095  0.012   -0.557  0.105  0.014
 O          0.000 -0.000  0.000    0.000 -0.000  0.000   -0.000 -0.000  0.000
 H         -0.002 -0.003  0.002   -0.000 -0.001 -0.000   -0.000 -0.001 -0.000
 O          0.000  0.001 -0.000    0.000  0.000 -0.000   -0.000 -0.000 -0.000
 O          0.000 -0.000  0.000    0.000 -0.000 -0.000   -0.000  0.000  0.000
 TransDip  -0.021  0.058 -0.072   -0.029  0.011 -0.015    0.051 -0.011 -0.076

 Mode:                40                     41                     42
 Frequency:      3210.13                3217.04                3808.66
 Force Cnst:      6.6666                 6.7069                 9.1139
 Red. Mass:       1.0980                 1.0999                 1.0664
 IR Active:          YES                    YES                    YES
 IR Intens:       22.630                 10.786                114.268
 Raman Active:       YES                    YES                    YES
               X      Y      Z        X      Y      Z        X      Y      Z
 H          0.296 -0.080  0.548   -0.177  0.047 -0.321    0.000 -0.000  0.001
 C         -0.023  0.007 -0.052    0.015 -0.004  0.030   -0.000  0.000  0.000
 C          0.002  0.000  0.005   -0.016  0.010  0.044    0.000 -0.000  0.000
 H          0.010 -0.007 -0.032    0.214 -0.115 -0.456   -0.000  0.000  0.000
 C         -0.042  0.010 -0.001   -0.065  0.014 -0.004   -0.000 -0.000 -0.000
 H          0.478 -0.110 -0.007    0.709 -0.163 -0.008   -0.000  0.000  0.000
 C          0.000  0.000 -0.002   -0.001  0.001 -0.004    0.000 -0.000  0.000
 H          0.006 -0.006  0.013    0.015 -0.015  0.030    0.001  0.001 -0.001
 C          0.000  0.000  0.002    0.001 -0.000 -0.002   -0.001 -0.001 -0.001
 H          0.005 -0.011 -0.015   -0.004  0.007  0.009   -0.001 -0.002  0.003
 C         -0.053  0.010  0.007    0.022 -0.004 -0.003    0.000  0.000 -0.000
 H          0.586 -0.110 -0.017   -0.234  0.044  0.007   -0.000  0.000  0.000
 O         -0.000  0.000 -0.000   -0.000 -0.000  0.000   -0.016  0.008 -0.060
 H          0.000  0.001  0.000    0.000 -0.000  0.001    0.260 -0.111  0.957
 O         -0.000 -0.000 -0.000   -0.000 -0.000  0.000   -0.000 -0.000  0.000
 O         -0.000  0.000  0.000   -0.000  0.000  0.000    0.000  0.000 -0.000
 TransDip  -0.142  0.028 -0.049   -0.035  0.021  0.097    0.048 -0.114  0.319

 STANDARD THERMODYNAMIC QUANTITIES AT   298.15 K  AND     1.00 ATM

   This Molecule has  0 Imaginary Frequencies
   Zero point vibrational energy:       77.659 kcal/mol

   Atom    1 Element H  Has Mass    1.00783
   Atom    2 Element C  Has Mass   12.00000
   Atom    3 Element C  Has Mass   12.00000
   Atom    4 Element H  Has Mass    1.00783
   Atom    5 Element C  Has Mass   12.00000
   Atom    6 Element H  Has Mass    1.00783
   Atom    7 Element C  Has Mass   12.00000
   Atom    8 Element H  Has Mass    1.00783
   Atom    9 Element C  Has Mass   12.00000
   Atom   10 Element H  Has Mass    1.00783
   Atom   11 Element C  Has Mass   12.00000
   Atom   12 Element H  Has Mass    1.00783
   Atom   13 Element O  Has Mass   15.99491
   Atom   14 Element H  Has Mass    1.00783
   Atom   15 Element O  Has Mass   15.99491
   Atom   16 Element O  Has Mass   15.99491
   Molecular Mass:   127.039540 amu
   Principal axes and moments of inertia in amu*Bohr^2:
                             1           2           3
    Eigenvalues --      783.66886  1173.54483  1499.36328
          X               0.40487     0.69854    -0.59001
          Y               0.50667     0.36576     0.78071
          Z               0.76116    -0.61503    -0.20584
   Rotational Symmetry Number is   1
   The Molecule is an Asymmetric Top
   Translational Enthalpy:        0.889 kcal/mol
   Rotational Enthalpy:           0.889 kcal/mol
   Vibrational Enthalpy:         81.018 kcal/mol
   gas constant (RT):             0.592 kcal/mol
   Translational Entropy:        40.431  cal/mol.K
   Rotational Entropy:           28.713  cal/mol.K
   Vibrational Entropy:          19.819  cal/mol.K

   Total Enthalpy:               83.388 kcal/mol
   Total Entropy:                88.962  cal/mol.K
 Total job time:  13531.10s(wall), 195160.14s(cpu) 
 Tue May 14 13:37:11 2024

        *************************************************************
        *                                                           *
        *  Thank you very much for using Q-Chem.  Have a nice day.  *
        *                                                           *
        *************************************************************


