
Running Job 1 of 1 Q_in.in
qchem Q_in.in_76927.0 /scratch/ari.fischer/qChem1914444.hpc-mn1/qchem76927/ 0
/usr/local/qchem-5.4.1/exe/qcprog.exe_s Q_in.in_76927.0 /scratch/ari.fischer/qChem1914444.hpc-mn1/qchem76927/
                  Welcome to Q-Chem
     A Quantum Leap Into The Future Of Chemistry


 Q-Chem 5.4, Q-Chem, Inc., Pleasanton, CA (2021)

 License issued to: Nanyang Technological University (site)

 E. Epifanovsky,  A. T. B. Gilbert,  Xintian Feng,  Joonho Lee,  Yuezhi Mao,  
 N. Mardirossian,  P. Pokhilko,  A. White,  M. Wormit,  M. P. Coons,  
 A. L. Dempwolff,  Zhengting Gan,  D. Hait,  P. R. Horn,  L. D. Jacobson,  
 I. Kaliman,  J. Kussmann,  A. W. Lange,  Ka Un Lao,  D. S. Levine,  Jie Liu,  
 S. C. McKenzie,  A. F. Morrison,  K. Nanda,  F. Plasser,  D. R. Rehn,  
 M. L. Vidal,  Zhi-Qiang You,  Ying Zhu,  B. Alam,  B. Albrecht,  
 A. Aldossary,  E. Alguire,  J. H. Andersen,  D. Barton,  K. Begam,  A. Behn,  
 Y. A. Bernard,  E. J. Berquist,  H. Burton,  A. Carreras,  K. Carter-Fenk,  
 R. Chakraborty,  A. D. Chien,  K. D. Closser,  V. Cofer-Shabica,  
 S. Dasgupta,  Jia Deng,  M. de Wergifosse,  M. Diedenhofen,  Hainam Do,  
 S. Ehlert,  Po-Tung Fang,  S. Fatehi,  Qingguo Feng,  T. Friedhoff,  
 J. Gayvert,  Qinghui Ge,  G. Gidofalvi,  M. Goldey,  J. Gomes,  
 C. Gonzalez-Espinoza,  S. Gulania,  A. Gunina,  M. W. D. Hanson-Heine,  
 P. H. P. Harbach,  A. W. Hauser,  M. F. Herbst,  M. Hernandez Vera,  
 M. Hodecker,  Z. C. Holden,  S. Houck,  Xunkun Huang,  Kerwin Hui,  
 B. C. Huynh,  M. Ivanov,  Hyunjun Ji,  Hanjie Jiang,  B. Kaduk,  S. Kaehler,  
 K. Khistyaev,  Jaehoon Kim,  P. Klunzinger,  Z. Koczor-Benda,  
 Joong Hoon Koh,  D. Kosenkov,  L. Koulias,  T. Kowalczyk,  C. M. Krauter,  
 K. Kue,  A. Kunitsa,  T. Kus,  A. Landau,  K. V. Lawler,  D. Lefrancois,  
 S. Lehtola,  Rain Li,  Yi-Pei Li,  Jiashu Liang,  M. Liebenthal,  
 Hung-Hsuan Lin,  You-Sheng Lin,  Fenglai Liu,  Kuan-Yu Liu,  
 M. Loipersberger,  A. Luenser,  A. Manjanath,  P. Manohar,  E. Mansoor,  
 S. F. Manzer,  Shan-Ping Mao,  A. V. Marenich,  T. Markovich,  S. Mason,  
 S. A. Maurer,  P. F. McLaughlin,  M. F. S. J. Menger,  J.-M. Mewes,  
 S. A. Mewes,  P. Morgante,  J. W. Mullinax,  K. J. Oosterbaan,  G. Paran,  
 Alexander C. Paul,  Suranjan K. Paul,  F. Pavosevic,  Zheng Pei,  S. Prager,  
 E. I. Proynov,  E. Ramos,  B. Rana,  A. E. Rask,  A. Rettig,  R. M. Richard,  
 F. Rob,  E. Rossomme,  T. Scheele,  M. Scheurer,  M. Schneider,  
 N. Sergueev,  S. M. Sharada,  W. Skomorowski,  D. W. Small,  C. J. Stein,  
 Yu-Chuan Su,  E. J. Sundstrom,  Zhen Tao,  J. Thirman,  T. Tsuchimochi,  
 N. M. Tubman,  S. P. Veccham,  O. Vydrov,  J. Wenzel,  J. Witte,  A. Yamada,  
 Kun Yao,  S. Yeganeh,  S. R. Yost,  A. Zech,  Igor Ying Zhang,  Xing Zhang,  
 Yu Zhang,  D. Zuev,  A. Aspuru-Guzik,  A. T. Bell,  N. A. Besley,  
 K. B. Bravaya,  B. R. Brooks,  D. Casanova,  Jeng-Da Chai,  S. Coriani,  
 C. J. Cramer,  A. E. DePrince, III,  R. A. DiStasio Jr.,  A. Dreuw,  
 B. D. Dunietz,  T. R. Furlani,  W. A. Goddard III,  S. Grimme,  
 S. Hammes-Schiffer,  T. Head-Gordon,  W. J. Hehre,  Chao-Ping Hsu,  
 T.-C. Jagau,  Yousung Jung,  A. Klamt,  Jing Kong,  D. S. Lambrecht,  
 WanZhen Liang,  N. J. Mayhall,  C. W. McCurdy,  J. B. Neaton,  
 C. Ochsenfeld,  J. A. Parkhill,  R. Peverati,  V. A. Rassolov,  Yihan Shao,  
 L. V. Slipchenko,  T. Stauch,  R. P. Steele,  J. E. Subotnik,  
 A. J. W. Thom,  A. Tkatchenko,  D. G. Truhlar,  T. Van Voorhis,  
 T. A. Wesolowski,  K. B. Whaley,  H. L. Woodcock III,  P. M. Zimmerman,  
 S. Faraji,  P. M. W. Gill,  M. Head-Gordon,  J. M. Herbert,  A. I. Krylov

 Additional authors for Version 5.4.1: 
 S. Kotaru,  Shaozhi Li,  Xiangyuan Li,  F. Matz,  A. Molle,  Haisheng Ren,  
 Yingli Su,  Hung-Yi Tsai,  C. Utku,  Fang Wang

 Contributors to earlier versions of Q-Chem not listed above: 
 R. D. Adamson,  B. Austin,  R. Baer,  J. Baker,  G. J. O. Beran,  
 K. Brandhorst,  S. T. Brown,  E. F. C. Byrd,  A. K. Chakraborty,  
 G. K. L. Chan,  Chun-Min Chang,  Yunqing Chen,  C.-L. Cheng,  
 Siu Hung Chien,  D. M. Chipman,  D. L. Crittenden,  H. Dachsel,  
 R. J. Doerksen,  A. D. Dutoi,  R. G. Edgar,  J. Fosso-Tande,  
 L. Fusti-Molnar,  D. Ghosh,  A. Ghysels,  A. Golubeva-Zadorozhnaya,  
 J. Gonthier,  M. S. Gordon,  S. R. Gwaltney,  G. Hawkins,  J. E. Herr,  
 A. Heyden,  S. Hirata,  E. G. Hohenstein,  G. Kedziora,  F. J. Keil,  
 C. Kelley,  Jihan Kim,  R. A. King,  R. Z. Khaliullin,  P. P. Korambath,  
 W. Kurlancheek,  A. Laurent,  A. M. Lee,  M. S. Lee,  S. V. Levchenko,  
 Ching Yeh Lin,  D. Liotard,  E. Livshits,  R. C. Lochan,  I. Lotan,  
 L. A. Martinez-Martinez,  P. E. Maslen,  N. Nair,  D. P. O'Neill,  
 D. Neuhauser,  E. Neuscamman,  C. M. Oana,  R. Olivares-Amaya,  R. Olson,  
 T. M. Perrine,  B. Peters,  P. A. Pieniazek,  A. Prociuk,  Y. M. Rhee,  
 J. Ritchie,  M. A. Rohrdanz,  E. Rosta,  N. J. Russ,  H. F. Schaefer III,  
 M. W. Schmidt,  N. E. Schultz,  S. Sharma,  N. Shenvi,  C. D. Sherrill,  
 A. C. Simmonett,  A. Sodt,  T. Stein,  D. Stuck,  K. S. Thanthiriwatte,  
 V. Vanovschi,  L. Vogt,  Tao Wang,  A. Warshel,  M. A. Watson,  
 C. F. Williams,  Q. Wu,  X. Xu,  Jun Yang,  W. Zhang,  Yan Zhao

 Please cite Q-Chem as follows:
 Y. Shao et al., Mol. Phys. 113, 184-215 (2015)
 DOI: 10.1080/00268976.2014.952696

 Q-Chem 5.4.1 for Intel X86 EM64T Linux

 Parts of Q-Chem use Armadillo 9.800.1 (Horizon Scraper).
 http://arma.sourceforge.net/

 Q-Chem begins on Tue Feb  6 21:52:14 2024  

 Host: 
0

     Scratch files written to /scratch/ari.fischer/qChem1914444.hpc-mn1/qchem76927//
 Aug1521 |scratch|qcdevops|jenkins|workspace|build_RNUM 8249   
 Processing $rem in /usr/local/qchem-5.4.1/config/preferences:
 Processing $rem in /home/ari.fischer/.qchemrc:
 Symmetry turned off for PCM/SM12/SMD calculation

 Checking the input file for inconsistencies... 	...done.

--------------------------------------------------------------
User input:
--------------------------------------------------------------
$molecule
0 2
H         0.5462870693    1.0831206813    1.8963710107
C         0.0345855481    1.2353565987    0.9502017503
C        -1.3939993983    1.5834543187    0.9827367931
H        -1.8387415965    1.8309732158    1.9428832558
C        -2.1323880624    1.6091572074   -0.1326841702
H        -3.1874841142    1.8645278014   -0.1180150935
C        -1.5149463690    1.2140999411   -1.4372907470
H        -1.9887624310    1.6980758391   -2.2948894275
C         0.0057687766    1.4026339582   -1.5182883113
H         0.3746401884    0.7096912911   -2.2847615436
C         0.6958544031    1.1389934316   -0.2079839607
H         1.7609072115    0.9257395072   -0.2372474016
O         0.3085472328    2.7500854445   -1.8826599611
H         0.0492225791    2.8579636376   -2.8136290480
O        -1.8079241971   -0.2303567128   -1.5782496733
O        -1.5926480404   -0.6425788607   -2.8031977722
$end

$rem
BASIS = 6-311++G(2df,2p)
GUI = 2
JOB_TYPE = Optimization
METHOD = wB97M-V
SCF_ALGORITHM = DIIS_GDM
MAX_SCF_CYCLES = 400
GEOM_OPT_MAX_CYCLES = 150
SCF_CONVERGENCE = 7
THRESH = 12
Solvent_method = SMD
$end
--------------------------------------------------------------
 ----------------------------------------------------------------
             Standard Nuclear Orientation (Angstroms)
    I     Atom           X                Y                Z
 ----------------------------------------------------------------
    1      H       0.5462870693     1.0831206813     1.8963710107
    2      C       0.0345855481     1.2353565987     0.9502017503
    3      C      -1.3939993983     1.5834543187     0.9827367931
    4      H      -1.8387415965     1.8309732158     1.9428832558
    5      C      -2.1323880624     1.6091572074    -0.1326841702
    6      H      -3.1874841142     1.8645278014    -0.1180150935
    7      C      -1.5149463690     1.2140999411    -1.4372907470
    8      H      -1.9887624310     1.6980758391    -2.2948894275
    9      C       0.0057687766     1.4026339582    -1.5182883113
   10      H       0.3746401884     0.7096912911    -2.2847615436
   11      C       0.6958544031     1.1389934316    -0.2079839607
   12      H       1.7609072115     0.9257395072    -0.2372474016
   13      O       0.3085472328     2.7500854445    -1.8826599611
   14      H       0.0492225791     2.8579636376    -2.8136290480
   15      O      -1.8079241971    -0.2303567128    -1.5782496733
   16      O      -1.5926480404    -0.6425788607    -2.8031977722
 ----------------------------------------------------------------
 Nuclear Repulsion Energy =         448.10661239 hartrees
 There are       34 alpha and       33 beta electrons
 Requested basis set is 6-311++G(2df,2p)
 There are 114 shells and 376 basis functions

 Total QAlloc Memory Limit 288000 MB
 Mega-Array Size       188 MB
 MEM_STATIC part       192 MB
 
 Citation of the SMD model:
 Marenich, A.V.; Cramer, C.J.; Truhlar, D.G.
 J. Phys. Chem. B 2009, 113, 6378-6396.
 iSolventCode=           1
 Solvent: water                                                           
 
 vradii
            1           2           3           4           5           6
    1   1.2000000   1.8500000   1.8500000   1.2000000   1.8500000   1.2000000
            7           8           9          10          11          12
    1   1.8500000   1.2000000   1.8500000   1.2000000   1.8500000   1.2000000
           13          14          15          16
    1   1.5200000   1.2000000   1.5200000   1.5200000
 Changing PCM_VDW_RADII to SMD_RADIUS
 Discretize the solute cavity surface with Lebedev spheres
	Using 110 Lebedev grid points for each H atom
	Using 194 Lebedev grid points for other atoms
	Atomic van der Waals radii will be scaled by 1.20
 Remove points where switching function is < 1.0e-08
 Keep 1229 surface tesserae and discard 1287 interior tesserae
 Molecular Surface Area = 145.641 Angst**2
 A cutoff of  1.0D-12 yielded   6047 shell pairs
 There are     66493 function pairs (     83391 Cartesian)
 Smallest overlap matrix eigenvalue = 2.53E-06

 Scale SEOQF with 1.000000e-01/1.000000e-01/1.000000e-01

 Standard Electronic Orientation quadrupole field applied
 Nucleus-field energy     =    -0.0000000034 hartrees
 Guess from superposition of atomic densities
 Warning:  Energy on first SCF cycle will be non-variational
 SAD guess density has 67.000000 electrons

 -----------------------------------------------------------------------
  General SCF calculation program by
  Eric Jon Sundstrom, Paul Horn, Yuezhi Mao, Dmitri Zuev, Alec White,
  David Stuck, Shaama M.S., Shane Yost, Joonho Lee, David Small,
  Daniel Levine, Susi Lehtola, Hugh Burton, Evgeny Epifanovsky,
  Bang C. Huynh
 -----------------------------------------------------------------------
 Exchange:     0.1500 Hartree-Fock + 1.0000 wB97M-V + LR-HF
 Correlation:  1.0000 wB97M-V
 Using SG-2 standard quadrature grid
 Nonlocal Correlation:  VV10 with C = 0.0100 and b = 6.00 and scale = 1.00000
 Grid used for NLC:  SG-1 standard quadrature
 
 Citation of the SMD model:
 Marenich, A.V.; Cramer, C.J.; Truhlar, D.G.
 J. Phys. Chem. B 2009, 113, 6378-6396.
 iSolventCode=           1
 Solvent: water                                                           
 
 vradii
            1           2           3           4           5           6
    1   1.2000000   1.8500000   1.8500000   1.2000000   1.8500000   1.2000000
            7           8           9          10          11          12
    1   1.8500000   1.2000000   1.8500000   1.2000000   1.8500000   1.2000000
           13          14          15          16
    1   1.5200000   1.2000000   1.5200000   1.5200000
 using 8 threads for integral computing
 -------------------------------------------------------
 OpenMP Integral computing Module                
 Release: version 1.0, May 2013, Q-Chem Inc. Pittsburgh 
 -------------------------------------------------------
 -------------------------------------------------------
 OpenMP BLAS3 based DFT computing Module                
 Release: version 1.0, May 2013, Q-Chem Inc. Pittsburgh 
 -------------------------------------------------------
 A unrestricted SCF calculation will be
 performed using DIIS, GDM
 SCF converges when RMS gradient is below 1.0e-07
 ---------------------------------------
  Cycle       Energy         DIIS error
 ---------------------------------------
    1    -460.6012465492      1.28e-02  
    2    -458.2441034922      1.32e-03  Done DIIS. Switching to GDM
 ---------------------------------------
  Cycle       Energy        RMS Gradient
 ---------------------------------------
    1    -458.2441034922      1.10e-01   Descent step
    2    -458.3354703373      2.66e-02   Normal BFGS step
    3    -458.3504263093      3.21e-02   Normal BFGS step
    4    -458.3541638498      5.20e-03   Normal BFGS step
    5    -458.3550402803      6.14e-03   Normal BFGS step
    6    -458.3552783780      3.94e-03   Normal BFGS step
    7    -458.3553569033      2.06e-03   Normal BFGS step
    8    -458.3553753656      6.57e-04   Normal BFGS step
    9    -458.3553785157      4.17e-04   Normal BFGS step
   10    -458.3553790688      1.45e-04   Normal BFGS step
   11    -458.3553791880      1.53e-04   Normal BFGS step
   12    -458.3553792434      1.32e-04   Normal BFGS step
   13    -458.3553793069      7.41e-05   Normal BFGS step
   14    -458.3553793401      2.74e-05   Normal BFGS step
   15    -458.3553793517      1.53e-05   Normal BFGS step
   16    -458.3553793541      1.06e-05   Normal BFGS step
   17    -458.3553793549      7.47e-06   Normal BFGS step
   18    -458.3553793553      5.90e-06   Normal BFGS step
   19    -458.3553793555      2.02e-06   Normal BFGS step
   20    -458.3553793556      1.34e-06   Normal BFGS step
   21    -458.3553793556      4.29e-07   Normal BFGS step
   22    -458.3553793556      1.53e-07   Normal BFGS step
   23    -458.3553793556      8.44e-08  Convergence criterion met
 ---------------------------------------
 SCF time:   CPU 1866.94s  wall 236.00s 
<S^2> =          0.754135464
(3)  G-ENP(liq) elect-nuc-pol free energy of system     -458.355379356 a.u.
(4)  G-CDS(liq) cavity-dispersion-solvent structure 
     free energy                                                2.5832 kcal/mol
(6)  G-S(liq) free energy of system                     -458.351262779 a.u.
 SCF   energy in the final basis set =     -458.3512627787
 Total energy in the final basis set =     -458.3512627787
 
 --------------------------------------------------------------
 
                    Orbital Energies (a.u.)
 --------------------------------------------------------------
 
 Alpha MOs
 -- Occupied --
-19.4639 -19.4171 -19.3470 -10.4116 -10.4075 -10.3579 -10.3529 -10.3508
-10.3495  -1.3379  -1.1652  -1.0267  -0.9556  -0.8762  -0.8556  -0.7506
 -0.7248  -0.6557  -0.6489  -0.6385  -0.6121  -0.5998  -0.5709  -0.5523
 -0.5318  -0.5192  -0.4821  -0.4579  -0.4377  -0.4329  -0.4193  -0.4051
 -0.3783  -0.3337
 -- Virtual --
  0.0159   0.0266   0.0369   0.0390   0.0562   0.0580   0.0618   0.0831
  0.0981   0.1068   0.1093   0.1201   0.1277   0.1408   0.1436   0.1493
  0.1548   0.1577   0.1608   0.1635   0.1643   0.1712   0.1763   0.1815
  0.1866   0.1913   0.2029   0.2113   0.2121   0.2201   0.2277   0.2393
  0.2471   0.2496   0.2591   0.2746   0.2855   0.2936   0.2981   0.3051
  0.3141   0.3267   0.3317   0.3387   0.3395   0.3566   0.3665   0.3707
  0.3783   0.3848   0.3886   0.3983   0.4059   0.4182   0.4263   0.4292
  0.4433   0.4580   0.4722   0.5103   0.5290   0.5429   0.5646   0.5739
  0.5883   0.5922   0.6052   0.6061   0.6263   0.6347   0.6430   0.6545
  0.6888   0.6940   0.7005   0.7082   0.7164   0.7192   0.7350   0.7407
  0.7512   0.7742   0.7844   0.7879   0.8016   0.8163   0.8257   0.8364
  0.8463   0.8515   0.8649   0.8773   0.8994   0.9088   0.9401   0.9576
  0.9949   1.0226   1.0477   1.0636   1.0852   1.1039   1.1189   1.1280
  1.1384   1.1516   1.1662   1.1766   1.1866   1.1941   1.2034   1.2129
  1.2237   1.2387   1.2412   1.2601   1.2688   1.2831   1.2984   1.3288
  1.3401   1.3424   1.3569   1.3733   1.3782   1.3970   1.4023   1.4281
  1.4343   1.4426   1.4579   1.4690   1.4910   1.5115   1.5245   1.5408
  1.5545   1.5600   1.5722   1.5907   1.6087   1.6169   1.6315   1.6630
  1.6754   1.6984   1.7136   1.7442   1.7715   1.8009   1.8081   1.8169
  1.8616   1.9031   1.9246   1.9599   1.9920   2.0158   2.0453   2.0584
  2.1248   2.1584   2.2249   2.2582   2.2890   2.3161   2.3620   2.4028
  2.4572   2.5776   2.6076   2.6538   2.6680   2.6806   2.7247   2.7342
  2.7703   2.7908   2.8160   2.8256   2.8334   2.8581   2.8692   2.8722
  2.8888   2.8975   2.9415   2.9555   2.9621   2.9706   2.9748   2.9947
  3.0142   3.0363   3.0578   3.0844   3.1180   3.1594   3.1742   3.2140
  3.2266   3.2427   3.2674   3.2909   3.3101   3.3267   3.3491   3.3776
  3.3844   3.4018   3.4206   3.4310   3.4453   3.4704   3.4826   3.5021
  3.5090   3.5209   3.5375   3.5644   3.5841   3.6119   3.6372   3.6836
  3.7118   3.7258   3.7348   3.7557   3.7621   3.7688   3.7867   3.8204
  3.8263   3.8514   3.8616   3.8786   3.8950   3.9097   3.9110   3.9632
  3.9674   3.9878   4.0200   4.0527   4.0640   4.0753   4.1225   4.1502
  4.1835   4.2080   4.2149   4.2301   4.2705   4.2805   4.3290   4.3428
  4.3595   4.3679   4.4004   4.4195   4.4493   4.4925   4.5094   4.5435
  4.5683   4.5869   4.6160   4.6360   4.6481   4.7114   4.7154   4.7358
  4.7512   4.7753   4.8279   4.8910   4.9110   4.9356   5.0013   5.0137
  5.0208   5.0454   5.0943   5.0976   5.1116   5.1624   5.1873   5.2402
  5.2457   5.2716   5.2986   5.3267   5.3452   5.3802   5.4067   5.4179
  5.4614   5.4972   5.5201   5.5679   5.6166   5.6260   5.6699   5.6952
  5.7083   5.7983   5.8132   5.8966   5.9169   6.0079   6.0778   6.2365
  6.4121   6.4467   6.5769   6.6253   6.8354   6.8916   6.9706   7.0934
  7.1185   7.2101   7.2655   7.2823   7.3369   7.3968   7.4173   7.4518
  7.6707   7.8060   7.8221   8.0204   8.0866  24.2768  24.5403  24.6893
 24.7634  25.1080  25.3102  50.4267  50.5303  50.6157
 
 Beta MOs
 -- Occupied --
-19.4534 -19.3985 -19.3469 -10.4120 -10.4072 -10.3579 -10.3528 -10.3508
-10.3496  -1.3114  -1.1650  -1.0050  -0.9448  -0.8752  -0.8477  -0.7463
 -0.7236  -0.6496  -0.6376  -0.6258  -0.6041  -0.5720  -0.5575  -0.5435
 -0.5311  -0.4951  -0.4806  -0.4566  -0.4367  -0.4284  -0.4009  -0.3812
 -0.3336
 -- Virtual --
 -0.0336   0.0168   0.0268   0.0373   0.0390   0.0564   0.0584   0.0621
  0.0835   0.0988   0.1073   0.1099   0.1211   0.1285   0.1414   0.1444
  0.1496   0.1552   0.1580   0.1618   0.1638   0.1648   0.1716   0.1772
  0.1820   0.1878   0.1921   0.2040   0.2119   0.2133   0.2216   0.2283
  0.2400   0.2482   0.2519   0.2660   0.2800   0.2869   0.2945   0.3012
  0.3057   0.3152   0.3280   0.3329   0.3404   0.3407   0.3600   0.3677
  0.3713   0.3793   0.3852   0.3910   0.3991   0.4067   0.4188   0.4271
  0.4313   0.4440   0.4593   0.4731   0.5105   0.5291   0.5431   0.5654
  0.5740   0.5885   0.5927   0.6058   0.6070   0.6265   0.6351   0.6433
  0.6549   0.6890   0.6943   0.7007   0.7091   0.7166   0.7203   0.7352
  0.7407   0.7512   0.7745   0.7848   0.7881   0.8020   0.8167   0.8264
  0.8368   0.8465   0.8517   0.8652   0.8775   0.9002   0.9089   0.9415
  0.9592   0.9971   1.0236   1.0500   1.0674   1.0871   1.1044   1.1202
  1.1301   1.1409   1.1555   1.1684   1.1810   1.1937   1.1971   1.2187
  1.2268   1.2302   1.2413   1.2484   1.2633   1.2719   1.2845   1.3007
  1.3301   1.3413   1.3464   1.3586   1.3738   1.3791   1.3978   1.4042
  1.4291   1.4363   1.4445   1.4593   1.4727   1.4936   1.5141   1.5253
  1.5492   1.5566   1.5617   1.5738   1.5929   1.6139   1.6198   1.6418
  1.6735   1.6846   1.7080   1.7247   1.7517   1.7721   1.8034   1.8110
  1.8195   1.8659   1.9100   1.9300   1.9651   1.9937   2.0201   2.0464
  2.0594   2.1277   2.1690   2.2299   2.2695   2.2983   2.3234   2.3705
  2.4084   2.4582   2.5781   2.6079   2.6554   2.6727   2.6813   2.7280
  2.7354   2.7709   2.7915   2.8162   2.8256   2.8335   2.8586   2.8693
  2.8727   2.8892   2.8979   2.9420   2.9557   2.9623   2.9709   2.9752
  2.9952   3.0144   3.0366   3.0586   3.0852   3.1187   3.1599   3.1746
  3.2144   3.2268   3.2430   3.2676   3.2910   3.3104   3.3267   3.3496
  3.3778   3.3846   3.4019   3.4208   3.4314   3.4456   3.4709   3.4830
  3.5023   3.5092   3.5212   3.5378   3.5648   3.5850   3.6122   3.6373
  3.6840   3.7124   3.7264   3.7353   3.7563   3.7625   3.7689   3.7867
  3.8208   3.8269   3.8515   3.8619   3.8789   3.8953   3.9103   3.9114
  3.9638   3.9676   3.9880   4.0202   4.0535   4.0642   4.0760   4.1230
  4.1508   4.1838   4.2083   4.2153   4.2304   4.2710   4.2816   4.3295
  4.3439   4.3602   4.3686   4.4011   4.4203   4.4503   4.4932   4.5101
  4.5481   4.5691   4.5904   4.6356   4.6363   4.6523   4.7125   4.7226
  4.7418   4.7617   4.7789   4.8292   4.9061   4.9191   4.9430   5.0041
  5.0207   5.0268   5.0542   5.1445   5.1474   5.1723   5.1984   5.2098
  5.2554   5.2903   5.2953   5.3066   5.3313   5.3459   5.3911   5.4123
  5.4285   5.4785   5.5062   5.5303   5.5687   5.6196   5.6353   5.6709
  5.6960   5.7202   5.8145   5.8219   5.8972   5.9184   6.0086   6.0781
  6.2374   6.4263   6.4925   6.5879   6.6272   6.9200   6.9716   7.0324
  7.1203   7.1341   7.2375   7.2730   7.3160   7.3440   7.4044   7.4429
  7.4941   7.6711   7.8192   7.8236   8.0335   8.1065  24.2768  24.5403
 24.6890  24.7636  25.1080  25.3102  50.4393  50.5399  50.6159
 --------------------------------------------------------------
 
          Ground-State Mulliken Net Atomic Charges

     Atom                 Charge (a.u.)    Spin (a.u.)
  --------------------------------------------------------
      1 H                     0.286834      -0.000046
      2 C                    -0.166272       0.002255
      3 C                    -0.284299      -0.003553
      4 H                     0.279685       0.000183
      5 C                    -0.099605       0.009359
      6 H                     0.311424      -0.000511
      7 C                    -0.490760      -0.003900
      8 H                     0.285395       0.005766
      9 C                    -0.276999       0.006288
     10 H                     0.245461      -0.001567
     11 C                    -0.173241       0.000840
     12 H                     0.295818       0.000176
     13 O                    -0.397082       0.002143
     14 H                     0.334219      -0.000027
     15 O                     0.078680       0.316997
     16 O                    -0.229257       0.665597
  --------------------------------------------------------
  Sum of atomic charges =    -0.000000
  Sum of spin   charges =     1.000000

 -----------------------------------------------------------------
                    Cartesian Multipole Moments
 -----------------------------------------------------------------
    Charge (ESU x 10^10)
                -0.0000
    Dipole Moment (Debye)
         X      -0.2043      Y       1.8361      Z       0.7177
       Tot       1.9819
    Quadrupole Moments (Debye-Ang)
        XX     -50.0001     XY      -9.0607     YY     -59.3081
        XZ      -1.9528     YZ      -6.7165     ZZ     -46.4883
    Octopole Moments (Debye-Ang^2)
       XXX     117.1474    XXY     -46.1692    XYY      29.6431
       YYY    -208.2212    XXZ      48.4243    XYZ      12.6262
       YYZ      38.7737    XZZ      46.4192    YZZ     -21.8728
       ZZZ     126.7357
    Hexadecapole Moments (Debye-Ang^3)
      XXXX    -577.9149   XXXY      40.2926   XXYY    -225.5792
      XYYY      56.0674   YYYY    -866.7689   XXXZ    -126.1112
      XXYZ      18.3633   XYYZ     -29.4043   YYYZ      67.4963
      XXZZ    -245.8969   XYZZ     -10.7488   YYZZ    -198.6058
      XZZZ    -157.9282   YZZZ     -15.4693   ZZZZ    -753.5501
 -----------------------------------------------------------------
 Calculating analytic gradient of the SCF energy
 Gradient of CDS energy
            1           2           3           4           5           6
    1   0.0000992   0.0003729  -0.0003478  -0.0000863  -0.0003992  -0.0002011
    2  -0.0000295  -0.0001151   0.0001293   0.0000480   0.0000921   0.0000487
    3   0.0001834   0.0003596   0.0003759   0.0001864  -0.0000706   0.0000028
            7           8           9          10          11          12
    1  -0.0000073  -0.0000645   0.0000356  -0.0000182   0.0003873   0.0002033
    2  -0.0001234   0.0000071   0.0001396  -0.0001542  -0.0000887  -0.0000407
    3  -0.0001696  -0.0001496  -0.0002311  -0.0001051  -0.0000841  -0.0000056
           13          14          15          16
    1  -0.0000943   0.0000892   0.0000516  -0.0000206
    2  -0.0001904   0.0003294  -0.0000200  -0.0000322
    3   0.0001758  -0.0003808  -0.0001025   0.0000151
 Gradient of SCF Energy
            1           2           3           4           5           6
    1   0.0041876  -0.0046487   0.0074226  -0.0042610   0.0035818  -0.0106503
    2  -0.0012433   0.0013738  -0.0029147   0.0022739   0.0022078   0.0027425
    3   0.0091289  -0.0013426  -0.0011871   0.0099914  -0.0069220  -0.0004018
            7           8           9          10          11          12
    1   0.0051383  -0.0050107  -0.0041868   0.0032857  -0.0028153   0.0076592
    2  -0.0141037   0.0069010   0.0099654  -0.0053711  -0.0008427  -0.0019143
    3   0.0084626  -0.0107748   0.0015167  -0.0072800  -0.0062100  -0.0005006
           13          14          15          16
    1   0.0090901  -0.0078289  -0.0022355   0.0012719
    2   0.0047804  -0.0016570   0.0003459  -0.0025439
    3   0.0263231  -0.0219889   0.0086725  -0.0074874
 Max gradient component =       2.632E-02
 RMS gradient           =       7.638E-03
 Computing fast CPCM-SWIG gradient
 Updating gradient with PCM contributions...
 -- total gradient after adding PCM contribution --
---------------------------------------------------
  Atom         X              Y              Z     
---------------------------------------------------
   1       0.001360      -0.000419       0.003020
   2      -0.001963       0.000857       0.003532
   3       0.002493      -0.000744       0.003343
   4      -0.001203       0.000663       0.003020
   5      -0.001922       0.000723      -0.003843
   6      -0.003244       0.000640      -0.000019
   7       0.000837      -0.001029      -0.000610
   8      -0.001263       0.001104      -0.002622
   9       0.000177       0.002985      -0.003273
  10       0.000581      -0.002766      -0.002373
  11       0.001227      -0.000758      -0.003763
  12       0.003127      -0.000490      -0.000147
  13       0.002749       0.001659       0.009202
  14      -0.002373      -0.001151      -0.006701
  15      -0.002426       0.000029       0.008160
  16       0.001841      -0.001303      -0.006927
---------------------------------------------------
 Number of fixed atoms: 0
 Gradient time:  CPU 222.37 s  wall 32.04 s
 Geometry Optimization Parameters
   NAtoms,    NIC,     NZ,  NCons,   NDum,   NFix, NCnnct, MaxDiis
       16     113       0       0       0       0       0       0


** GEOMETRY OPTIMIZATION IN DELOCALIZED INTERNAL COORDINATES **
   Searching for a Minimum

   Optimization Cycle:   1

                       Coordinates (Angstroms)
     ATOM                X               Y               Z
      1  H         0.5462870693    1.0831206813    1.8963710107
      2  C         0.0345855481    1.2353565987    0.9502017503
      3  C        -1.3939993983    1.5834543187    0.9827367931
      4  H        -1.8387415965    1.8309732158    1.9428832558
      5  C        -2.1323880624    1.6091572074   -0.1326841702
      6  H        -3.1874841142    1.8645278014   -0.1180150935
      7  C        -1.5149463690    1.2140999411   -1.4372907470
      8  H        -1.9887624310    1.6980758391   -2.2948894275
      9  C         0.0057687766    1.4026339582   -1.5182883113
     10  H         0.3746401884    0.7096912911   -2.2847615436
     11  C         0.6958544031    1.1389934316   -0.2079839607
     12  H         1.7609072115    0.9257395072   -0.2372474016
     13  O         0.3085472328    2.7500854445   -1.8826599611
     14  H         0.0492225791    2.8579636376   -2.8136290480
     15  O        -1.8079241971   -0.2303567128   -1.5782496733
     16  O        -1.5926480404   -0.6425788607   -2.8031977722
   Point Group: c1    Number of degrees of freedom:    42


   Energy is   -458.351262779


 Attempting to generate delocalized internal coordinates
 Initial Hessian constructed with Jon Baker's OPTIMIZE code

 42 Hessian modes will be used to form the next step
  Hessian Eigenvalues:
     0.004984    0.007482    0.011901    0.014494    0.015808    0.018328
     0.021480    0.021673    0.025290    0.042924    0.048221    0.057434
     0.066556    0.077902    0.083853    0.137791    0.159483    0.159805
     0.159951    0.159994    0.160000    0.167008    0.189082    0.209625
     0.219863    0.250000    0.280236    0.309735    0.318638    0.340003
     0.344912    0.345016    0.347354    0.351954    0.352101    0.352328
     0.353191    0.412332    0.528866    0.546774    0.564435    0.644237

 Minimum search - taking simple RFO step
 Searching for Lamda that Minimizes Along All modes
 Value Taken    Lamda =  -0.00088478
 Step Taken.  Stepsize is  0.122459

                             Maximum     Tolerance    Cnvgd?
         Gradient           0.007682      0.000300      NO
         Displacement       0.047956      0.001200      NO
         Energy change     *********      0.000001      NO


 New Cartesian Coordinates Obtained by Inverse Iteration

 Displacement from previous Coordinates is:  0.146043
 ----------------------------------------------------------------
             Standard Nuclear Orientation (Angstroms)
    I     Atom           X                Y                Z
 ----------------------------------------------------------------
    1      H       0.5435557190     1.0929296945     1.8918202240
    2      C       0.0339369245     1.2403071935     0.9494799916
    3      C      -1.3926713927     1.5790993171     0.9791407738
    4      H      -1.8388345639     1.8259177429     1.9331819020
    5      C      -2.1271977361     1.5959633716    -0.1307432681
    6      H      -3.1779724319     1.8482496464    -0.1167435914
    7      C      -1.5086054137     1.2106070332    -1.4325386330
    8      H      -1.9802677898     1.7003872362    -2.2819738235
    9      C       0.0081277174     1.4007917853    -1.5092953022
   10      H       0.3818211293     0.7074067807    -2.2649816005
   11      C       0.6962976510     1.1504748693    -0.2007511126
   12      H       1.7574852783     0.9417107697    -0.2267343825
   13      O       0.3101767055     2.7421546106    -1.8963947084
   14      H       0.0580787969     2.8547696364    -2.8215691980
   15      O      -1.8007732463    -0.2305405115    -1.5882962153
   16      O      -1.6442385473    -0.6292918756    -2.8203053560
 ----------------------------------------------------------------
 Nuclear Repulsion Energy =         448.75056437 hartrees
 There are       34 alpha and       33 beta electrons
 Discretize the solute cavity surface with Lebedev spheres
	Using 110 Lebedev grid points for each H atom
	Using 194 Lebedev grid points for other atoms
	Atomic van der Waals radii will be scaled by 1.20
 Remove points where switching function is < 1.0e-08
 Keep 1233 surface tesserae and discard 1283 interior tesserae
 Molecular Surface Area = 145.427 Angst**2
 Applying Cartesian multipole field
    Component          Value
    ---------          -----
     (2,0,0)        1.00000E-11
     (0,2,0)        2.00000E-11
     (0,0,2)       -3.00000E-11
 Nucleus-field energy     =    -0.0000000035 hartrees
 Requested basis set is 6-311++G(2df,2p)
 There are 114 shells and 376 basis functions
 A cutoff of  1.0D-12 yielded   6043 shell pairs
 There are     66414 function pairs (     83285 Cartesian)
 Smallest overlap matrix eigenvalue = 2.40E-06
 Guess MOs from SCF MO coefficient file

 -----------------------------------------------------------------------
  General SCF calculation program by
  Eric Jon Sundstrom, Paul Horn, Yuezhi Mao, Dmitri Zuev, Alec White,
  David Stuck, Shaama M.S., Shane Yost, Joonho Lee, David Small,
  Daniel Levine, Susi Lehtola, Hugh Burton, Evgeny Epifanovsky,
  Bang C. Huynh
 -----------------------------------------------------------------------
 Exchange:     0.1500 Hartree-Fock + 1.0000 wB97M-V + LR-HF
 Correlation:  1.0000 wB97M-V
 Using SG-2 standard quadrature grid
 Nonlocal Correlation:  VV10 with C = 0.0100 and b = 6.00 and scale = 1.00000
 Grid used for NLC:  SG-1 standard quadrature
 
 Citation of the SMD model:
 Marenich, A.V.; Cramer, C.J.; Truhlar, D.G.
 J. Phys. Chem. B 2009, 113, 6378-6396.
 iSolventCode=           1
 Solvent: water                                                           
 
 vradii
            1           2           3           4           5           6
    1   1.2000000   1.8500000   1.8500000   1.2000000   1.8500000   1.2000000
            7           8           9          10          11          12
    1   1.8500000   1.2000000   1.8500000   1.2000000   1.8500000   1.2000000
           13          14          15          16
    1   1.5200000   1.2000000   1.5200000   1.5200000
 -------------------------------------------------------
 OpenMP BLAS3 based DFT computing Module                
 Release: version 1.0, May 2013, Q-Chem Inc. Pittsburgh 
 -------------------------------------------------------
 A unrestricted SCF calculation will be
 performed using Roothaan-Hall, DIIS, GDM
 SCF converges when RMS gradient is below 1.0e-07
 ---------------------------------------
  Cycle       Energy         DIIS error
 ---------------------------------------
    1    -458.3289156040      2.19e-04  Roothaan Step
 ---------------------------------------
  Cycle       Energy         DIIS error
 ---------------------------------------
    1    -458.3514572958      1.97e-04  
    2    -458.3546801838      1.39e-04  Done DIIS. Switching to GDM
 ---------------------------------------
  Cycle       Energy        RMS Gradient
 ---------------------------------------
    1    -458.3546801838      5.64e-03   Normal BFGS step
    2    -458.3547980823      1.11e-02   Normal BFGS step
    3    -458.3557482124      1.28e-03   Normal BFGS step
    4    -458.3557606466      2.13e-03   Normal BFGS step
    5    -458.3557831560      7.81e-04   Normal BFGS step
    6    -458.3557853381      6.65e-04   Normal BFGS step
    7    -458.3557869006      4.97e-04   Normal BFGS step
    8    -458.3557878462      2.97e-04   Normal BFGS step
    9    -458.3557882696      2.03e-04   Normal BFGS step
   10    -458.3557886173      1.13e-04   Normal BFGS step
   11    -458.3557887831      5.70e-05   Normal BFGS step
   12    -458.3557888185      2.87e-05   Normal BFGS step
   13    -458.3557888242      1.24e-05   Normal BFGS step
   14    -458.3557888257      5.76e-06   Normal BFGS step
   15    -458.3557888261      2.29e-06   Normal BFGS step
   16    -458.3557888262      1.33e-06   Normal BFGS step
   17    -458.3557888262      9.78e-07   Normal BFGS step
   18    -458.3557888262      7.27e-07   Normal BFGS step
   19    -458.3557888262      3.68e-07   Normal BFGS step
   20    -458.3557888262      1.64e-07   Normal BFGS step
   21    -458.3557888262      4.78e-08  Convergence criterion met
 ---------------------------------------
 SCF time:   CPU 1655.42s  wall 209.00s 
<S^2> =          0.754104697
(3)  G-ENP(liq) elect-nuc-pol free energy of system     -458.355788826 a.u.
(4)  G-CDS(liq) cavity-dispersion-solvent structure 
     free energy                                                2.5606 kcal/mol
(6)  G-S(liq) free energy of system                     -458.351708199 a.u.
 SCF   energy in the final basis set =     -458.3517081992
 Total energy in the final basis set =     -458.3517081992
 
 --------------------------------------------------------------
 
                    Orbital Energies (a.u.)
 --------------------------------------------------------------
 
 Alpha MOs
 -- Occupied --
-19.4638 -19.4163 -19.3455 -10.4101 -10.4063 -10.3557 -10.3508 -10.3487
-10.3475  -1.3412  -1.1654  -1.0276  -0.9575  -0.8783  -0.8564  -0.7525
 -0.7259  -0.6574  -0.6505  -0.6397  -0.6134  -0.6016  -0.5717  -0.5538
 -0.5333  -0.5197  -0.4809  -0.4583  -0.4390  -0.4335  -0.4179  -0.4042
 -0.3781  -0.3345
 -- Virtual --
  0.0170   0.0267   0.0369   0.0391   0.0562   0.0581   0.0619   0.0832
  0.0985   0.1069   0.1092   0.1210   0.1280   0.1409   0.1436   0.1495
  0.1547   0.1579   0.1612   0.1638   0.1646   0.1717   0.1769   0.1817
  0.1873   0.1914   0.2035   0.2113   0.2125   0.2206   0.2279   0.2402
  0.2474   0.2513   0.2613   0.2757   0.2854   0.2934   0.2988   0.3072
  0.3149   0.3284   0.3330   0.3389   0.3427   0.3571   0.3678   0.3722
  0.3790   0.3857   0.3897   0.3989   0.4059   0.4195   0.4276   0.4306
  0.4421   0.4582   0.4724   0.5144   0.5301   0.5431   0.5678   0.5740
  0.5904   0.5947   0.6055   0.6076   0.6272   0.6346   0.6452   0.6553
  0.6897   0.6956   0.7019   0.7094   0.7178   0.7197   0.7365   0.7444
  0.7534   0.7768   0.7869   0.7897   0.8034   0.8169   0.8258   0.8369
  0.8465   0.8518   0.8671   0.8811   0.9026   0.9104   0.9420   0.9589
  0.9934   1.0231   1.0473   1.0664   1.0876   1.1050   1.1194   1.1296
  1.1392   1.1528   1.1683   1.1760   1.1880   1.1970   1.2032   1.2140
  1.2251   1.2400   1.2432   1.2642   1.2692   1.2877   1.2996   1.3299
  1.3428   1.3477   1.3599   1.3787   1.3832   1.4016   1.4055   1.4320
  1.4393   1.4472   1.4578   1.4699   1.4922   1.5148   1.5287   1.5399
  1.5585   1.5630   1.5759   1.5935   1.6117   1.6200   1.6357   1.6622
  1.6783   1.7004   1.7155   1.7465   1.7763   1.8027   1.8077   1.8172
  1.8588   1.9022   1.9252   1.9675   1.9990   2.0187   2.0522   2.0647
  2.1279   2.1573   2.2320   2.2551   2.2938   2.3170   2.3696   2.4062
  2.4564   2.5745   2.6055   2.6513   2.6642   2.6802   2.7245   2.7333
  2.7725   2.7927   2.8164   2.8272   2.8348   2.8592   2.8682   2.8722
  2.8898   2.9017   2.9437   2.9586   2.9658   2.9749   2.9761   2.9950
  3.0137   3.0410   3.0647   3.0866   3.1231   3.1619   3.1806   3.2164
  3.2320   3.2451   3.2681   3.2910   3.3132   3.3264   3.3485   3.3830
  3.3855   3.4034   3.4226   3.4343   3.4451   3.4760   3.4878   3.5069
  3.5130   3.5252   3.5354   3.5651   3.5865   3.6095   3.6447   3.6886
  3.7146   3.7322   3.7422   3.7595   3.7704   3.7746   3.7937   3.8254
  3.8286   3.8581   3.8640   3.8837   3.8985   3.9166   3.9187   3.9691
  3.9736   3.9934   4.0291   4.0604   4.0685   4.0812   4.1294   4.1605
  4.1943   4.2163   4.2234   4.2379   4.2805   4.2916   4.3395   4.3563
  4.3686   4.3782   4.4111   4.4299   4.4592   4.5042   4.5232   4.5517
  4.5811   4.6016   4.6264   4.6501   4.6613   4.7220   4.7254   4.7469
  4.7675   4.7888   4.8409   4.8973   4.9219   4.9570   5.0128   5.0213
  5.0390   5.0581   5.0953   5.0981   5.1083   5.1671   5.1950   5.2480
  5.2497   5.2825   5.3024   5.3327   5.3460   5.3810   5.4141   5.4372
  5.4634   5.5044   5.5248   5.5802   5.6231   5.6385   5.6872   5.7131
  5.7217   5.8088   5.8268   5.9097   5.9330   6.0311   6.1067   6.2709
  6.4222   6.4715   6.6001   6.6308   6.8319   6.8926   6.9736   7.0960
  7.1223   7.2164   7.2701   7.3094   7.3342   7.3964   7.4191   7.4564
  7.6855   7.8078   7.8217   8.0268   8.1010  24.2847  24.5558  24.7083
 24.7825  25.1428  25.3508  50.4327  50.5331  50.6190
 
 Beta MOs
 -- Occupied --
-19.4532 -19.3978 -19.3455 -10.4105 -10.4060 -10.3557 -10.3508 -10.3487
-10.3475  -1.3148  -1.1652  -1.0068  -0.9463  -0.8773  -0.8483  -0.7482
 -0.7245  -0.6510  -0.6401  -0.6268  -0.6051  -0.5728  -0.5596  -0.5434
 -0.5326  -0.4967  -0.4793  -0.4570  -0.4382  -0.4286  -0.4004  -0.3809
 -0.3344
 -- Virtual --
 -0.0322   0.0179   0.0269   0.0373   0.0391   0.0564   0.0586   0.0623
  0.0836   0.0991   0.1073   0.1099   0.1220   0.1288   0.1415   0.1443
  0.1498   0.1551   0.1582   0.1621   0.1640   0.1652   0.1721   0.1778
  0.1821   0.1883   0.1924   0.2045   0.2122   0.2134   0.2220   0.2285
  0.2410   0.2481   0.2532   0.2683   0.2813   0.2872   0.2947   0.3017
  0.3078   0.3161   0.3297   0.3341   0.3405   0.3439   0.3610   0.3690
  0.3727   0.3799   0.3861   0.3922   0.3997   0.4067   0.4202   0.4285
  0.4329   0.4426   0.4595   0.4733   0.5147   0.5303   0.5433   0.5686
  0.5741   0.5906   0.5951   0.6060   0.6086   0.6275   0.6349   0.6454
  0.6557   0.6899   0.6959   0.7022   0.7103   0.7179   0.7207   0.7367
  0.7445   0.7535   0.7772   0.7872   0.7900   0.8039   0.8175   0.8264
  0.8373   0.8467   0.8520   0.8675   0.8813   0.9032   0.9104   0.9431
  0.9609   0.9958   1.0240   1.0495   1.0699   1.0894   1.1055   1.1205
  1.1324   1.1419   1.1563   1.1708   1.1814   1.1950   1.1994   1.2192
  1.2280   1.2302   1.2433   1.2512   1.2677   1.2710   1.2891   1.3019
  1.3311   1.3444   1.3509   1.3615   1.3793   1.3840   1.4022   1.4076
  1.4330   1.4411   1.4495   1.4592   1.4733   1.4949   1.5173   1.5293
  1.5489   1.5601   1.5652   1.5775   1.5955   1.6185   1.6219   1.6454
  1.6736   1.6881   1.7090   1.7279   1.7531   1.7769   1.8051   1.8111
  1.8193   1.8622   1.9094   1.9307   1.9730   2.0006   2.0228   2.0532
  2.0656   2.1309   2.1674   2.2368   2.2662   2.3034   2.3237   2.3788
  2.4122   2.4576   2.5751   2.6058   2.6545   2.6675   2.6811   2.7282
  2.7338   2.7730   2.7935   2.8167   2.8273   2.8350   2.8597   2.8683
  2.8727   2.8902   2.9022   2.9442   2.9587   2.9660   2.9752   2.9764
  2.9956   3.0139   3.0413   3.0655   3.0873   3.1238   3.1623   3.1810
  3.2168   3.2322   3.2454   3.2684   3.2911   3.3135   3.3265   3.3490
  3.3831   3.3857   3.4035   3.4227   3.4346   3.4453   3.4765   3.4882
  3.5072   3.5132   3.5256   3.5357   3.5656   3.5874   3.6099   3.6448
  3.6890   3.7153   3.7327   3.7426   3.7601   3.7708   3.7746   3.7936
  3.8258   3.8291   3.8582   3.8643   3.8840   3.8988   3.9172   3.9192
  3.9698   3.9737   3.9936   4.0294   4.0612   4.0688   4.0818   4.1298
  4.1611   4.1947   4.2166   4.2237   4.2383   4.2810   4.2927   4.3401
  4.3573   4.3696   4.3787   4.4119   4.4307   4.4603   4.5048   4.5241
  4.5573   4.5818   4.6054   4.6457   4.6505   4.6653   4.7262   4.7338
  4.7541   4.7729   4.7918   4.8421   4.9147   4.9314   4.9609   5.0158
  5.0319   5.0438   5.0649   5.1441   5.1461   5.1836   5.1959   5.2123
  5.2680   5.2934   5.2980   5.3142   5.3365   5.3466   5.3957   5.4220
  5.4420   5.4806   5.5126   5.5366   5.5809   5.6252   5.6474   5.6889
  5.7174   5.7302   5.8270   5.8331   5.9115   5.9337   6.0318   6.1070
  6.2720   6.4364   6.5177   6.6104   6.6338   6.9164   6.9722   7.0348
  7.1243   7.1374   7.2441   7.3043   7.3139   7.3438   7.4051   7.4434
  7.4984   7.6859   7.8182   7.8255   8.0402   8.1210  24.2847  24.5558
 24.7081  24.7827  25.1428  25.3508  50.4453  50.5428  50.6192
 --------------------------------------------------------------
 
          Ground-State Mulliken Net Atomic Charges

     Atom                 Charge (a.u.)    Spin (a.u.)
  --------------------------------------------------------
      1 H                     0.286813      -0.000059
      2 C                    -0.167742       0.001353
      3 C                    -0.285579      -0.002082
      4 H                     0.279365       0.000180
      5 C                    -0.085133       0.007942
      6 H                     0.312461      -0.000470
      7 C                    -0.495807      -0.004972
      8 H                     0.283079       0.005326
      9 C                    -0.298622       0.007475
     10 H                     0.242566      -0.001749
     11 C                    -0.151844       0.001921
     12 H                     0.296485       0.000170
     13 O                    -0.398875       0.002118
     14 H                     0.333181      -0.000010
     15 O                     0.082942       0.320289
     16 O                    -0.233293       0.662569
  --------------------------------------------------------
  Sum of atomic charges =    -0.000000
  Sum of spin   charges =     1.000000

 -----------------------------------------------------------------
                    Cartesian Multipole Moments
 -----------------------------------------------------------------
    Charge (ESU x 10^10)
                -0.0000
    Dipole Moment (Debye)
         X      -0.1427      Y       1.8217      Z       0.8135
       Tot       2.0002
    Quadrupole Moments (Debye-Ang)
        XX     -50.1352     XY      -9.0309     YY     -59.1911
        XZ      -2.2466     YZ      -6.5854     ZZ     -46.8577
    Octopole Moments (Debye-Ang^2)
       XXX     117.8884    XXY     -46.1037    XYY      29.8498
       YYY    -207.8202    XXZ      49.3269    XYZ      12.6241
       YYZ      39.0767    XZZ      47.6857    YZZ     -22.1374
       ZZZ     128.2221
    Hexadecapole Moments (Debye-Ang^3)
      XXXX    -581.2810   XXXY      38.8735   XXYY    -225.6031
      XYYY      54.2928   YYYY    -861.8204   XXXZ    -130.2719
      XXYZ      18.2936   XYYZ     -30.5052   YYYZ      68.3590
      XXZZ    -249.6068   XYZZ     -11.0587   YYZZ    -198.8876
      XZZZ    -164.3087   YZZZ     -15.1031   ZZZZ    -761.2181
 -----------------------------------------------------------------
 Calculating analytic gradient of the SCF energy
 Gradient of CDS energy
            1           2           3           4           5           6
    1   0.0000964   0.0003700  -0.0003467  -0.0000846  -0.0003984  -0.0001954
    2  -0.0000279  -0.0001139   0.0001284   0.0000468   0.0000850   0.0000469
    3   0.0001783   0.0003587   0.0003726   0.0001808  -0.0000689   0.0000026
            7           8           9          10          11          12
    1  -0.0000070  -0.0000617   0.0000293  -0.0000140   0.0003878   0.0001979
    2  -0.0001203   0.0000091   0.0001350  -0.0001506  -0.0000813  -0.0000389
    3  -0.0001710  -0.0001428  -0.0002222  -0.0001057  -0.0000817  -0.0000048
           13          14          15          16
    1  -0.0000955   0.0000913   0.0000509  -0.0000204
    2  -0.0001944   0.0003281  -0.0000192  -0.0000328
    3   0.0001757  -0.0003841  -0.0001022   0.0000147
 Gradient of SCF Energy
            1           2           3           4           5           6
    1   0.0028520  -0.0026543   0.0049897  -0.0031227   0.0056367  -0.0072700
    2  -0.0006846   0.0006904  -0.0024549   0.0015724   0.0016093   0.0021747
    3   0.0060980  -0.0050849  -0.0048318   0.0069135  -0.0030645  -0.0002837
            7           8           9          10          11          12
    1   0.0047832  -0.0038331  -0.0042794   0.0026396  -0.0044678   0.0045467
    2  -0.0128440   0.0056726   0.0076232  -0.0024537  -0.0008336  -0.0014759
    3   0.0087411  -0.0079267   0.0050894  -0.0048678  -0.0021212  -0.0002063
           13          14          15          16
    1   0.0062217  -0.0054295  -0.0001398  -0.0004730
    2   0.0028177  -0.0000869   0.0008342  -0.0021610
    3   0.0174768  -0.0159298   0.0030358  -0.0030381
 Max gradient component =       1.748E-02
 RMS gradient           =       5.619E-03
 Computing fast CPCM-SWIG gradient
 Updating gradient with PCM contributions...
 -- total gradient after adding PCM contribution --
---------------------------------------------------
  Atom         X              Y              Z     
---------------------------------------------------
   1      -0.000064       0.000133      -0.000112
   2       0.000086       0.000154      -0.000399
   3       0.000042      -0.000319      -0.000456
   4       0.000026      -0.000065      -0.000118
   5       0.000162       0.000246       0.000205
   6       0.000161       0.000066       0.000071
   7       0.000363       0.000143      -0.000032
   8      -0.000120      -0.000164      -0.000024
   9       0.000263       0.000287       0.000148
  10      -0.000103       0.000279       0.000052
  11      -0.000406      -0.000540       0.000682
  12      -0.000083      -0.000023       0.000115
  13      -0.000047      -0.000155       0.000477
  14      -0.000072       0.000293      -0.000737
  15      -0.000323       0.000517       0.002420
  16       0.000114      -0.000852      -0.002291
---------------------------------------------------
 Number of fixed atoms: 0
 Gradient time:  CPU 222.09 s  wall 31.79 s
 Geometry Optimization Parameters
   NAtoms,    NIC,     NZ,  NCons,   NDum,   NFix, NCnnct, MaxDiis
       16     113       0       0       0       0       0       0

 Cartesian Hessian Update
 Hessian updated using BFGS update


** GEOMETRY OPTIMIZATION IN DELOCALIZED INTERNAL COORDINATES **
   Searching for a Minimum

   Optimization Cycle:   2

                       Coordinates (Angstroms)
     ATOM                X               Y               Z
      1  H         0.5435557190    1.0929296945    1.8918202240
      2  C         0.0339369245    1.2403071935    0.9494799916
      3  C        -1.3926713927    1.5790993171    0.9791407738
      4  H        -1.8388345639    1.8259177429    1.9331819020
      5  C        -2.1271977361    1.5959633716   -0.1307432681
      6  H        -3.1779724319    1.8482496464   -0.1167435914
      7  C        -1.5086054137    1.2106070332   -1.4325386330
      8  H        -1.9802677898    1.7003872362   -2.2819738235
      9  C         0.0081277174    1.4007917853   -1.5092953022
     10  H         0.3818211293    0.7074067807   -2.2649816005
     11  C         0.6962976510    1.1504748693   -0.2007511126
     12  H         1.7574852783    0.9417107697   -0.2267343825
     13  O         0.3101767055    2.7421546106   -1.8963947084
     14  H         0.0580787969    2.8547696364   -2.8215691980
     15  O        -1.8007732463   -0.2305405115   -1.5882962153
     16  O        -1.6442385473   -0.6292918756   -2.8203053560
   Point Group: c1    Number of degrees of freedom:    42


   Energy is   -458.351708199

 Hessian updated using BFGS update

 42 Hessian modes will be used to form the next step
  Hessian Eigenvalues:
     0.005234    0.007163    0.011895    0.014481    0.015702    0.018328
     0.021491    0.021631    0.025294    0.042932    0.048187    0.057655
     0.066694    0.077878    0.083944    0.137670    0.159478    0.159623
     0.159951    0.159991    0.162767    0.167887    0.189166    0.209505
     0.219793    0.252040    0.279297    0.308373    0.318031    0.340664
     0.342667    0.345189    0.349200    0.352017    0.352197    0.352911
     0.359354    0.412430    0.511503    0.546697    0.575791    0.632703

 Minimum search - taking simple RFO step
 Searching for Lamda that Minimizes Along All modes
 Value Taken    Lamda =  -0.00004425
 Step Taken.  Stepsize is  0.060538

                             Maximum     Tolerance    Cnvgd?
         Gradient           0.001457      0.000300      NO
         Displacement       0.024577      0.001200      NO
         Energy change     -0.000445      0.000001      NO


 New Cartesian Coordinates Obtained by Inverse Iteration

 Displacement from previous Coordinates is:  0.069396
 ----------------------------------------------------------------
             Standard Nuclear Orientation (Angstroms)
    I     Atom           X                Y                Z
 ----------------------------------------------------------------
    1      H       0.5451724029     1.0953548489     1.8925030330
    2      C       0.0343606735     1.2428236804     0.9508579018
    3      C      -1.3933079270     1.5785638216     0.9823502175
    4      H      -1.8388496685     1.8246303716     1.9368178201
    5      C      -2.1293615830     1.5926316435    -0.1267739401
    6      H      -3.1805547562     1.8429886938    -0.1119827880
    7      C      -1.5113115833     1.2131008061    -1.4306256455
    8      H      -1.9803156420     1.7102343473    -2.2769615848
    9      C       0.0059479261     1.3976379452    -1.5084575130
   10      H       0.3775205071     0.6983891617    -2.2599396303
   11      C       0.6960305290     1.1544167055    -0.2002324260
   12      H       1.7571900858     0.9463301105    -0.2277301786
   13      O       0.3125985647     2.7352569679    -1.9039321156
   14      H       0.0584659294     2.8420523473    -2.8280767648
   15      O      -1.8066713081    -0.2254324933    -1.5980000268
   16      O      -1.6279953504    -0.6180416579    -2.8265206591
 ----------------------------------------------------------------
 Nuclear Repulsion Energy =         448.86317080 hartrees
 There are       34 alpha and       33 beta electrons
 Discretize the solute cavity surface with Lebedev spheres
	Using 110 Lebedev grid points for each H atom
	Using 194 Lebedev grid points for other atoms
	Atomic van der Waals radii will be scaled by 1.20
 Remove points where switching function is < 1.0e-08
 Keep 1233 surface tesserae and discard 1283 interior tesserae
 Molecular Surface Area = 145.286 Angst**2
 Applying Cartesian multipole field
    Component          Value
    ---------          -----
     (2,0,0)        1.00000E-11
     (0,2,0)        2.00000E-11
     (0,0,2)       -3.00000E-11
 Nucleus-field energy     =    -0.0000000036 hartrees
 Requested basis set is 6-311++G(2df,2p)
 There are 114 shells and 376 basis functions
 A cutoff of  1.0D-12 yielded   6044 shell pairs
 There are     66429 function pairs (     83297 Cartesian)
 Smallest overlap matrix eigenvalue = 2.36E-06
 Guess MOs from SCF MO coefficient file

 -----------------------------------------------------------------------
  General SCF calculation program by
  Eric Jon Sundstrom, Paul Horn, Yuezhi Mao, Dmitri Zuev, Alec White,
  David Stuck, Shaama M.S., Shane Yost, Joonho Lee, David Small,
  Daniel Levine, Susi Lehtola, Hugh Burton, Evgeny Epifanovsky,
  Bang C. Huynh
 -----------------------------------------------------------------------
 Exchange:     0.1500 Hartree-Fock + 1.0000 wB97M-V + LR-HF
 Correlation:  1.0000 wB97M-V
 Using SG-2 standard quadrature grid
 Nonlocal Correlation:  VV10 with C = 0.0100 and b = 6.00 and scale = 1.00000
 Grid used for NLC:  SG-1 standard quadrature
 
 Citation of the SMD model:
 Marenich, A.V.; Cramer, C.J.; Truhlar, D.G.
 J. Phys. Chem. B 2009, 113, 6378-6396.
 iSolventCode=           1
 Solvent: water                                                           
 
 vradii
            1           2           3           4           5           6
    1   1.2000000   1.8500000   1.8500000   1.2000000   1.8500000   1.2000000
            7           8           9          10          11          12
    1   1.8500000   1.2000000   1.8500000   1.2000000   1.8500000   1.2000000
           13          14          15          16
    1   1.5200000   1.2000000   1.5200000   1.5200000
 -------------------------------------------------------
 OpenMP BLAS3 based DFT computing Module                
 Release: version 1.0, May 2013, Q-Chem Inc. Pittsburgh 
 -------------------------------------------------------
 A unrestricted SCF calculation will be
 performed using Roothaan-Hall, DIIS, GDM
 SCF converges when RMS gradient is below 1.0e-07
 ---------------------------------------
  Cycle       Energy         DIIS error
 ---------------------------------------
    1    -458.3304794658      1.87e-04  Roothaan Step
 ---------------------------------------
  Cycle       Energy         DIIS error
 ---------------------------------------
    1    -458.3516328659      1.98e-04  
    2    -458.3546999618      1.42e-04  Done DIIS. Switching to GDM
 ---------------------------------------
  Cycle       Energy        RMS Gradient
 ---------------------------------------
    1    -458.3546999618      5.18e-03   Normal BFGS step
    2    -458.3547867293      1.18e-02   Normal BFGS step
    3    -458.3557796151      1.07e-03   Normal BFGS step
    4    -458.3557878838      2.27e-03   Normal BFGS step
    5    -458.3558099704      3.70e-04   Normal BFGS step
    6    -458.3558110249      3.47e-04   Normal BFGS step
    7    -458.3558118411      3.03e-04   Normal BFGS step
    8    -458.3558122687      2.49e-04   Normal BFGS step
    9    -458.3558124971      1.79e-04   Normal BFGS step
   10    -458.3558126355      1.19e-04   Normal BFGS step
   11    -458.3558127123      7.71e-05   Normal BFGS step
   12    -458.3558127492      2.12e-05   Normal BFGS step
   13    -458.3558127565      7.22e-06   Normal BFGS step
   14    -458.3558127576      3.37e-06   Normal BFGS step
   15    -458.3558127578      1.70e-06   Normal BFGS step
   16    -458.3558127578      7.06e-07   Normal BFGS step
   17    -458.3558127578      4.12e-07   Normal BFGS step
   18    -458.3558127578      3.23e-07   Normal BFGS step
   19    -458.3558127578      2.39e-07   Normal BFGS step
   20    -458.3558127578      1.24e-07   Normal BFGS step
   21    -458.3558127578      3.54e-08  Convergence criterion met
 ---------------------------------------
 SCF time:   CPU 1643.39s  wall 207.00s 
<S^2> =          0.754091838
(3)  G-ENP(liq) elect-nuc-pol free energy of system     -458.355812758 a.u.
(4)  G-CDS(liq) cavity-dispersion-solvent structure 
     free energy                                                2.5599 kcal/mol
(6)  G-S(liq) free energy of system                     -458.351733321 a.u.
 SCF   energy in the final basis set =     -458.3517333213
 Total energy in the final basis set =     -458.3517333213
 
 --------------------------------------------------------------
 
                    Orbital Energies (a.u.)
 --------------------------------------------------------------
 
 Alpha MOs
 -- Occupied --
-19.4638 -19.4160 -19.3453 -10.4101 -10.4061 -10.3558 -10.3508 -10.3488
-10.3475  -1.3428  -1.1657  -1.0274  -0.9574  -0.8782  -0.8564  -0.7526
 -0.7260  -0.6578  -0.6508  -0.6398  -0.6137  -0.6017  -0.5720  -0.5540
 -0.5334  -0.5197  -0.4808  -0.4583  -0.4389  -0.4335  -0.4178  -0.4037
 -0.3779  -0.3345
 -- Virtual --
  0.0172   0.0267   0.0369   0.0391   0.0562   0.0581   0.0620   0.0831
  0.0985   0.1069   0.1093   0.1212   0.1280   0.1411   0.1438   0.1496
  0.1548   0.1581   0.1613   0.1638   0.1646   0.1717   0.1773   0.1815
  0.1872   0.1915   0.2035   0.2113   0.2128   0.2211   0.2282   0.2405
  0.2475   0.2514   0.2625   0.2765   0.2854   0.2933   0.2988   0.3074
  0.3144   0.3282   0.3329   0.3388   0.3427   0.3572   0.3678   0.3726
  0.3786   0.3858   0.3897   0.3990   0.4061   0.4193   0.4271   0.4308
  0.4424   0.4584   0.4723   0.5150   0.5301   0.5434   0.5686   0.5740
  0.5906   0.5949   0.6057   0.6079   0.6276   0.6350   0.6445   0.6550
  0.6901   0.6957   0.7016   0.7089   0.7176   0.7204   0.7367   0.7435
  0.7529   0.7765   0.7861   0.7899   0.8025   0.8169   0.8262   0.8363
  0.8462   0.8515   0.8679   0.8813   0.9022   0.9097   0.9415   0.9589
  0.9933   1.0231   1.0480   1.0659   1.0874   1.1050   1.1185   1.1292
  1.1392   1.1526   1.1688   1.1758   1.1874   1.1972   1.2047   1.2149
  1.2249   1.2395   1.2424   1.2643   1.2691   1.2874   1.3007   1.3311
  1.3430   1.3470   1.3602   1.3794   1.3837   1.4018   1.4065   1.4325
  1.4383   1.4480   1.4577   1.4691   1.4919   1.5145   1.5292   1.5404
  1.5577   1.5630   1.5763   1.5941   1.6110   1.6202   1.6348   1.6621
  1.6774   1.6996   1.7158   1.7480   1.7761   1.8038   1.8097   1.8181
  1.8607   1.9022   1.9252   1.9664   1.9992   2.0197   2.0524   2.0647
  2.1303   2.1575   2.2333   2.2548   2.2961   2.3177   2.3689   2.4063
  2.4558   2.5731   2.6050   2.6525   2.6639   2.6789   2.7253   2.7328
  2.7725   2.7929   2.8153   2.8272   2.8349   2.8599   2.8688   2.8732
  2.8914   2.9020   2.9443   2.9583   2.9658   2.9753   2.9756   2.9953
  3.0136   3.0428   3.0669   3.0863   3.1237   3.1617   3.1822   3.2167
  3.2323   3.2448   3.2689   3.2901   3.3126   3.3264   3.3483   3.3831
  3.3854   3.4018   3.4228   3.4325   3.4433   3.4768   3.4885   3.5057
  3.5127   3.5251   3.5341   3.5651   3.5858   3.6090   3.6449   3.6881
  3.7149   3.7323   3.7420   3.7590   3.7718   3.7748   3.7947   3.8243
  3.8289   3.8575   3.8642   3.8830   3.8971   3.9168   3.9192   3.9695
  3.9746   3.9936   4.0279   4.0606   4.0681   4.0834   4.1310   4.1615
  4.1959   4.2162   4.2238   4.2380   4.2793   4.2915   4.3389   4.3576
  4.3676   4.3786   4.4106   4.4292   4.4589   4.5041   4.5233   4.5521
  4.5796   4.6010   4.6245   4.6487   4.6614   4.7237   4.7260   4.7457
  4.7668   4.7883   4.8431   4.8960   4.9243   4.9574   5.0123   5.0221
  5.0407   5.0586   5.0951   5.0982   5.1098   5.1671   5.1940   5.2484
  5.2509   5.2829   5.3029   5.3328   5.3470   5.3819   5.4129   5.4379
  5.4643   5.5057   5.5249   5.5812   5.6254   5.6411   5.6891   5.7144
  5.7228   5.8114   5.8281   5.9100   5.9327   6.0320   6.1073   6.2727
  6.4236   6.4800   6.6072   6.6325   6.8342   6.8942   6.9763   7.0978
  7.1226   7.2198   7.2721   7.3144   7.3362   7.3968   7.4198   7.4569
  7.6852   7.8082   7.8219   8.0293   8.1056  24.2837  24.5560  24.7091
 24.7835  25.1414  25.3508  50.4349  50.5342  50.6196
 
 Beta MOs
 -- Occupied --
-19.4532 -19.3976 -19.3452 -10.4105 -10.4058 -10.3558 -10.3508 -10.3488
-10.3475  -1.3164  -1.1654  -1.0066  -0.9463  -0.8773  -0.8482  -0.7482
 -0.7247  -0.6512  -0.6401  -0.6269  -0.6054  -0.5734  -0.5595  -0.5438
 -0.5327  -0.4968  -0.4792  -0.4571  -0.4381  -0.4286  -0.4006  -0.3805
 -0.3344
 -- Virtual --
 -0.0318   0.0181   0.0269   0.0373   0.0392   0.0564   0.0586   0.0623
  0.0835   0.0992   0.1073   0.1100   0.1221   0.1288   0.1417   0.1446
  0.1500   0.1552   0.1584   0.1621   0.1640   0.1653   0.1720   0.1782
  0.1819   0.1883   0.1925   0.2045   0.2123   0.2135   0.2223   0.2288
  0.2413   0.2481   0.2533   0.2693   0.2821   0.2873   0.2945   0.3017
  0.3079   0.3157   0.3295   0.3341   0.3404   0.3439   0.3609   0.3691
  0.3731   0.3796   0.3862   0.3922   0.3996   0.4069   0.4200   0.4281
  0.4331   0.4430   0.4597   0.4732   0.5153   0.5303   0.5437   0.5694
  0.5741   0.5908   0.5954   0.6062   0.6089   0.6278   0.6353   0.6448
  0.6554   0.6903   0.6959   0.7018   0.7099   0.7178   0.7214   0.7369
  0.7435   0.7529   0.7768   0.7864   0.7902   0.8030   0.8174   0.8268
  0.8368   0.8464   0.8517   0.8683   0.8815   0.9028   0.9098   0.9428
  0.9610   0.9956   1.0240   1.0501   1.0694   1.0893   1.1055   1.1196
  1.1321   1.1417   1.1561   1.1712   1.1811   1.1945   1.2003   1.2202
  1.2286   1.2300   1.2426   1.2505   1.2675   1.2714   1.2888   1.3029
  1.3323   1.3448   1.3501   1.3618   1.3799   1.3846   1.4024   1.4087
  1.4336   1.4402   1.4503   1.4591   1.4726   1.4945   1.5171   1.5296
  1.5492   1.5595   1.5651   1.5781   1.5962   1.6176   1.6224   1.6441
  1.6734   1.6870   1.7087   1.7275   1.7547   1.7768   1.8059   1.8130
  1.8206   1.8643   1.9095   1.9306   1.9717   2.0008   2.0238   2.0533
  2.0657   2.1332   2.1677   2.2381   2.2655   2.3058   2.3246   2.3784
  2.4124   2.4570   2.5737   2.6053   2.6552   2.6677   2.6797   2.7290
  2.7334   2.7731   2.7937   2.8156   2.8272   2.8350   2.8604   2.8688
  2.8736   2.8918   2.9025   2.9448   2.9584   2.9661   2.9755   2.9760
  2.9959   3.0137   3.0431   3.0677   3.0870   3.1244   3.1622   3.1826
  3.2171   3.2325   3.2450   3.2692   3.2902   3.3129   3.3265   3.3489
  3.3832   3.3856   3.4019   3.4230   3.4329   3.4436   3.4773   3.4888
  3.5059   3.5129   3.5255   3.5344   3.5656   3.5867   3.6094   3.6450
  3.6885   3.7156   3.7329   3.7424   3.7596   3.7722   3.7749   3.7946
  3.8247   3.8295   3.8576   3.8645   3.8833   3.8974   3.9174   3.9196
  3.9701   3.9747   3.9939   4.0282   4.0613   4.0685   4.0841   4.1315
  4.1621   4.1962   4.2166   4.2241   4.2384   4.2797   4.2927   4.3394
  4.3586   4.3688   4.3790   4.4114   4.4299   4.4599   4.5047   4.5243
  4.5573   4.5803   4.6049   4.6441   4.6493   4.6652   4.7268   4.7349
  4.7529   4.7726   4.7915   4.8443   4.9141   4.9329   4.9616   5.0153
  5.0324   5.0458   5.0657   5.1437   5.1460   5.1825   5.1972   5.2121
  5.2685   5.2944   5.2983   5.3149   5.3368   5.3477   5.3958   5.4213
  5.4428   5.4817   5.5134   5.5374   5.5819   5.6274   5.6499   5.6907
  5.7175   5.7326   5.8298   5.8345   5.9117   5.9334   6.0326   6.1076
  6.2738   6.4378   6.5263   6.6167   6.6366   6.9184   6.9736   7.0374
  7.1246   7.1392   7.2475   7.3088   7.3166   7.3457   7.4049   7.4450
  7.4985   7.6856   7.8187   7.8255   8.0426   8.1256  24.2837  24.5560
 24.7089  24.7837  25.1414  25.3508  50.4475  50.5439  50.6198
 --------------------------------------------------------------
 
          Ground-State Mulliken Net Atomic Charges

     Atom                 Charge (a.u.)    Spin (a.u.)
  --------------------------------------------------------
      1 H                     0.286615      -0.000059
      2 C                    -0.166099       0.001423
      3 C                    -0.287424      -0.002527
      4 H                     0.279234       0.000181
      5 C                    -0.079741       0.008779
      6 H                     0.312236      -0.000470
      7 C                    -0.500818      -0.004854
      8 H                     0.281744       0.005637
      9 C                    -0.295725       0.006653
     10 H                     0.242209      -0.001701
     11 C                    -0.152635       0.002006
     12 H                     0.296403       0.000185
     13 O                    -0.398606       0.002115
     14 H                     0.332661      -0.000003
     15 O                     0.083967       0.321145
     16 O                    -0.234022       0.661492
  --------------------------------------------------------
  Sum of atomic charges =     0.000000
  Sum of spin   charges =     1.000000

 -----------------------------------------------------------------
                    Cartesian Multipole Moments
 -----------------------------------------------------------------
    Charge (ESU x 10^10)
                 0.0000
    Dipole Moment (Debye)
         X      -0.1740      Y       1.7939      Z       0.8441
       Tot       1.9902
    Quadrupole Moments (Debye-Ang)
        XX     -50.0786     XY      -9.0325     YY     -59.2177
        XZ      -2.1880     YZ      -6.4754     ZZ     -46.9607
    Octopole Moments (Debye-Ang^2)
       XXX     117.6414    XXY     -46.2007    XYY      29.7083
       YYY    -208.2305    XXZ      49.2722    XYZ      12.6403
       YYZ      39.4160    XZZ      47.4905    YZZ     -22.4564
       ZZZ     128.6816
    Hexadecapole Moments (Debye-Ang^3)
      XXXX    -580.5360   XXXY      39.5255   XXYY    -225.0795
      XYYY      54.8451   YYYY    -860.5154   XXXZ    -129.4765
      XXYZ      18.5541   XYYZ     -30.0391   YYYZ      69.9675
      XXZZ    -249.6641   XYZZ     -10.9847   YYZZ    -200.0234
      XZZZ    -163.5385   YZZZ     -14.3028   ZZZZ    -764.8237
 -----------------------------------------------------------------
 Calculating analytic gradient of the SCF energy
 Gradient of CDS energy
            1           2           3           4           5           6
    1   0.0000966   0.0003719  -0.0003475  -0.0000844  -0.0003997  -0.0001955
    2  -0.0000279  -0.0001134   0.0001287   0.0000466   0.0000820   0.0000466
    3   0.0001781   0.0003591   0.0003742   0.0001808  -0.0000681   0.0000028
            7           8           9          10          11          12
    1  -0.0000072  -0.0000605   0.0000292  -0.0000157   0.0003883   0.0001978
    2  -0.0001193   0.0000108   0.0001323  -0.0001495  -0.0000782  -0.0000388
    3  -0.0001719  -0.0001422  -0.0002217  -0.0001048  -0.0000829  -0.0000051
           13          14          15          16
    1  -0.0000965   0.0000924   0.0000517  -0.0000209
    2  -0.0001926   0.0003252  -0.0000195  -0.0000330
    3   0.0001766  -0.0003868  -0.0001026   0.0000147
 Gradient of SCF Energy
            1           2           3           4           5           6
    1   0.0028472  -0.0026806   0.0048462  -0.0031226   0.0053746  -0.0072667
    2  -0.0008243   0.0005875  -0.0021812   0.0016070   0.0014186   0.0021690
    3   0.0060694  -0.0048339  -0.0044070   0.0069276  -0.0031098  -0.0003432
            7           8           9          10          11          12
    1   0.0045046  -0.0036197  -0.0046960   0.0026933  -0.0039440   0.0044284
    2  -0.0127695   0.0056201   0.0070549  -0.0025270  -0.0002977  -0.0015172
    3   0.0085514  -0.0078158   0.0047357  -0.0047932  -0.0026089  -0.0002715
           13          14          15          16
    1   0.0060214  -0.0052395   0.0003257  -0.0004724
    2   0.0028815  -0.0004892   0.0006198  -0.0013525
    3   0.0166210  -0.0147355   0.0010552  -0.0010417
 Max gradient component =       1.662E-02
 RMS gradient           =       5.383E-03
 Computing fast CPCM-SWIG gradient
 Updating gradient with PCM contributions...
 -- total gradient after adding PCM contribution --
---------------------------------------------------
  Atom         X              Y              Z     
---------------------------------------------------
   1      -0.000082       0.000002      -0.000148
   2       0.000063       0.000062      -0.000158
   3      -0.000135      -0.000046      -0.000114
   4       0.000043      -0.000034      -0.000142
   5      -0.000033       0.000079       0.000287
   6       0.000196       0.000061       0.000016
   7      -0.000077       0.000224      -0.000260
   8       0.000092      -0.000248       0.000084
   9      -0.000051      -0.000240      -0.000059
  10      -0.000027       0.000192      -0.000001
  11       0.000068      -0.000005       0.000185
  12      -0.000177      -0.000061       0.000050
  13      -0.000295      -0.000205      -0.000239
  14       0.000149      -0.000039       0.000338
  15       0.000149       0.000279       0.000444
  16       0.000119      -0.000021      -0.000282
---------------------------------------------------
 Number of fixed atoms: 0
 Gradient time:  CPU 221.67 s  wall 31.73 s
 Geometry Optimization Parameters
   NAtoms,    NIC,     NZ,  NCons,   NDum,   NFix, NCnnct, MaxDiis
       16     113       0       0       0       0       0       0

 Cartesian Hessian Update
 Hessian updated using BFGS update


** GEOMETRY OPTIMIZATION IN DELOCALIZED INTERNAL COORDINATES **
   Searching for a Minimum

   Optimization Cycle:   3

                       Coordinates (Angstroms)
     ATOM                X               Y               Z
      1  H         0.5451724029    1.0953548489    1.8925030330
      2  C         0.0343606735    1.2428236804    0.9508579018
      3  C        -1.3933079270    1.5785638216    0.9823502175
      4  H        -1.8388496685    1.8246303716    1.9368178201
      5  C        -2.1293615830    1.5926316435   -0.1267739401
      6  H        -3.1805547562    1.8429886938   -0.1119827880
      7  C        -1.5113115833    1.2131008061   -1.4306256455
      8  H        -1.9803156420    1.7102343473   -2.2769615848
      9  C         0.0059479261    1.3976379452   -1.5084575130
     10  H         0.3775205071    0.6983891617   -2.2599396303
     11  C         0.6960305290    1.1544167055   -0.2002324260
     12  H         1.7571900858    0.9463301105   -0.2277301786
     13  O         0.3125985647    2.7352569679   -1.9039321156
     14  H         0.0584659294    2.8420523473   -2.8280767648
     15  O        -1.8066713081   -0.2254324933   -1.5980000268
     16  O        -1.6279953504   -0.6180416579   -2.8265206591
   Point Group: c1    Number of degrees of freedom:    42


   Energy is   -458.351733321

 Hessian updated using BFGS update

 42 Hessian modes will be used to form the next step
  Hessian Eigenvalues:
     0.004573    0.006058    0.011868    0.014418    0.015978    0.018351
     0.021441    0.021552    0.025372    0.043199    0.048892    0.057487
     0.066877    0.077855    0.085577    0.139684    0.159153    0.159520
     0.159959    0.159998    0.162005    0.172087    0.189177    0.212346
     0.220381    0.256323    0.283236    0.309955    0.317595    0.340599
     0.345094    0.347552    0.351978    0.352195    0.352845    0.355390
     0.356632    0.416294    0.539695    0.547220    0.574333    0.601939

 Minimum search - taking simple RFO step
 Searching for Lamda that Minimizes Along All modes
 Value Taken    Lamda =  -0.00001479
 Step Taken.  Stepsize is  0.047883

                             Maximum     Tolerance    Cnvgd?
         Gradient           0.000523      0.000300      NO
         Displacement       0.019110      0.001200      NO
         Energy change     -0.000025      0.000001      NO


 New Cartesian Coordinates Obtained by Inverse Iteration

 Displacement from previous Coordinates is:  0.067091
 ----------------------------------------------------------------
             Standard Nuclear Orientation (Angstroms)
    I     Atom           X                Y                Z
 ----------------------------------------------------------------
    1      H       0.5472356285     1.1025843532     1.8957771931
    2      C       0.0356716187     1.2465952836     0.9537077836
    3      C      -1.3935984725     1.5764873867     0.9847989530
    4      H      -1.8402499990     1.8214041342     1.9392993341
    5      C      -2.1298264089     1.5871118008    -0.1246857044
    6      H      -3.1822579284     1.8334446503    -0.1100650224
    7      C      -1.5108705732     1.2129073752    -1.4295749730
    8      H      -1.9783325309     1.7173589871    -2.2728114439
    9      C       0.0072494400     1.3957759207    -1.5068087546
   10      H       0.3785679730     0.6910241741    -2.2536297046
   11      C       0.6977393774     1.1592677179    -0.1976482552
   12      H       1.7599819543     0.9555898077    -0.2250785027
   13      O       0.3169367084     2.7306550233    -1.9102909056
   14      H       0.0614191330     2.8323528261    -2.8346734867
   15      O      -1.8113747768    -0.2237285074    -1.6069799521
   16      O      -1.6393723434    -0.6078936335    -2.8380408586
 ----------------------------------------------------------------
 Nuclear Repulsion Energy =         448.61428114 hartrees
 There are       34 alpha and       33 beta electrons
 Discretize the solute cavity surface with Lebedev spheres
	Using 110 Lebedev grid points for each H atom
	Using 194 Lebedev grid points for other atoms
	Atomic van der Waals radii will be scaled by 1.20
 Remove points where switching function is < 1.0e-08
 Keep 1231 surface tesserae and discard 1285 interior tesserae
 Molecular Surface Area = 145.356 Angst**2
 Applying Cartesian multipole field
    Component          Value
    ---------          -----
     (2,0,0)        1.00000E-11
     (0,2,0)        2.00000E-11
     (0,0,2)       -3.00000E-11
 Nucleus-field energy     =    -0.0000000038 hartrees
 Requested basis set is 6-311++G(2df,2p)
 There are 114 shells and 376 basis functions
 A cutoff of  1.0D-12 yielded   6043 shell pairs
 There are     66404 function pairs (     83261 Cartesian)
 Smallest overlap matrix eigenvalue = 2.34E-06
 Guess MOs from SCF MO coefficient file

 -----------------------------------------------------------------------
  General SCF calculation program by
  Eric Jon Sundstrom, Paul Horn, Yuezhi Mao, Dmitri Zuev, Alec White,
  David Stuck, Shaama M.S., Shane Yost, Joonho Lee, David Small,
  Daniel Levine, Susi Lehtola, Hugh Burton, Evgeny Epifanovsky,
  Bang C. Huynh
 -----------------------------------------------------------------------
 Exchange:     0.1500 Hartree-Fock + 1.0000 wB97M-V + LR-HF
 Correlation:  1.0000 wB97M-V
 Using SG-2 standard quadrature grid
 Nonlocal Correlation:  VV10 with C = 0.0100 and b = 6.00 and scale = 1.00000
 Grid used for NLC:  SG-1 standard quadrature
 
 Citation of the SMD model:
 Marenich, A.V.; Cramer, C.J.; Truhlar, D.G.
 J. Phys. Chem. B 2009, 113, 6378-6396.
 iSolventCode=           1
 Solvent: water                                                           
 
 vradii
            1           2           3           4           5           6
    1   1.2000000   1.8500000   1.8500000   1.2000000   1.8500000   1.2000000
            7           8           9          10          11          12
    1   1.8500000   1.2000000   1.8500000   1.2000000   1.8500000   1.2000000
           13          14          15          16
    1   1.5200000   1.2000000   1.5200000   1.5200000
 -------------------------------------------------------
 OpenMP BLAS3 based DFT computing Module                
 Release: version 1.0, May 2013, Q-Chem Inc. Pittsburgh 
 -------------------------------------------------------
 A unrestricted SCF calculation will be
 performed using Roothaan-Hall, DIIS, GDM
 SCF converges when RMS gradient is below 1.0e-07
 ---------------------------------------
  Cycle       Energy         DIIS error
 ---------------------------------------
    1    -458.3307137298      1.83e-04  Roothaan Step
 ---------------------------------------
  Cycle       Energy         DIIS error
 ---------------------------------------
    1    -458.3516895239      1.97e-04  
    2    -458.3547117273      1.43e-04  Done DIIS. Switching to GDM
 ---------------------------------------
  Cycle       Energy        RMS Gradient
 ---------------------------------------
    1    -458.3547117273      5.67e-03   Normal BFGS step
    2    -458.3547833263      1.19e-02   Normal BFGS step
    3    -458.3557930137      1.03e-03   Normal BFGS step
    4    -458.3558005988      2.18e-03   Normal BFGS step
    5    -458.3558224108      2.45e-04   Normal BFGS step
    6    -458.3558231435      2.77e-04   Normal BFGS step
    7    -458.3558236974      1.47e-04   Normal BFGS step
    8    -458.3558238077      6.85e-05   Normal BFGS step
    9    -458.3558238499      5.39e-05   Normal BFGS step
   10    -458.3558238619      4.43e-05   Normal BFGS step
   11    -458.3558238664      3.53e-05   Normal BFGS step
   12    -458.3558238717      1.71e-05   Normal BFGS step
   13    -458.3558238743      5.75e-06   Normal BFGS step
   14    -458.3558238752      3.07e-06   Normal BFGS step
   15    -458.3558238754      1.21e-06   Normal BFGS step
   16    -458.3558238754      5.00e-07   Normal BFGS step
   17    -458.3558238754      1.67e-07   Normal BFGS step
   18    -458.3558238753      7.09e-08  Convergence criterion met
 ---------------------------------------
 SCF time:   CPU 1463.07s  wall 185.00s 
<S^2> =          0.754087760
(3)  G-ENP(liq) elect-nuc-pol free energy of system     -458.355823875 a.u.
(4)  G-CDS(liq) cavity-dispersion-solvent structure 
     free energy                                                2.5612 kcal/mol
(6)  G-S(liq) free energy of system                     -458.351742403 a.u.
 SCF   energy in the final basis set =     -458.3517424028
 Total energy in the final basis set =     -458.3517424028
 
 --------------------------------------------------------------
 
                    Orbital Energies (a.u.)
 --------------------------------------------------------------
 
 Alpha MOs
 -- Occupied --
-19.4639 -19.4159 -19.3453 -10.4102 -10.4063 -10.3559 -10.3509 -10.3489
-10.3476  -1.3434  -1.1656  -1.0272  -0.9573  -0.8782  -0.8563  -0.7527
 -0.7261  -0.6577  -0.6507  -0.6398  -0.6138  -0.6019  -0.5721  -0.5541
 -0.5333  -0.5196  -0.4807  -0.4584  -0.4390  -0.4336  -0.4175  -0.4036
 -0.3780  -0.3344
 -- Virtual --
  0.0173   0.0267   0.0369   0.0392   0.0562   0.0581   0.0620   0.0831
  0.0986   0.1069   0.1091   0.1212   0.1280   0.1411   0.1438   0.1496
  0.1546   0.1580   0.1613   0.1638   0.1646   0.1718   0.1774   0.1814
  0.1873   0.1916   0.2036   0.2112   0.2130   0.2212   0.2282   0.2407
  0.2474   0.2512   0.2632   0.2766   0.2853   0.2925   0.2984   0.3072
  0.3139   0.3282   0.3327   0.3386   0.3431   0.3569   0.3679   0.3728
  0.3782   0.3857   0.3896   0.3987   0.4057   0.4191   0.4268   0.4311
  0.4419   0.4586   0.4719   0.5157   0.5302   0.5436   0.5690   0.5740
  0.5903   0.5950   0.6057   0.6078   0.6275   0.6346   0.6443   0.6547
[...]
  7.4980   7.6849   7.8180   7.8243   8.0419   8.1253  24.2810  24.5562
 24.7081  24.7811  25.1391  25.3517  50.4475  50.5431  50.6182
 --------------------------------------------------------------
 
          Ground-State Mulliken Net Atomic Charges

     Atom                 Charge (a.u.)    Spin (a.u.)
  --------------------------------------------------------
      1 H                     0.286790      -0.000070
      2 C                    -0.164833       0.000891
      3 C                    -0.290898      -0.002294
      4 H                     0.279242       0.000181
      5 C                    -0.070162       0.008850
      6 H                     0.312268      -0.000476
      7 C                    -0.507099      -0.005170
      8 H                     0.278625       0.005752
      9 C                    -0.296033       0.006267
     10 H                     0.239531      -0.001739
     11 C                    -0.147367       0.002675
     12 H                     0.296263       0.000189
     13 O                    -0.398500       0.002066
     14 H                     0.332698       0.000014
     15 O                     0.084604       0.321437
     16 O                    -0.235129       0.661427
  --------------------------------------------------------
  Sum of atomic charges =     0.000000
  Sum of spin   charges =     1.000000

 -----------------------------------------------------------------
                    Cartesian Multipole Moments
 -----------------------------------------------------------------
    Charge (ESU x 10^10)
                 0.0000
    Dipole Moment (Debye)
         X      -0.1635      Y       1.7560      Z       0.9083
       Tot       1.9837
    Quadrupole Moments (Debye-Ang)
        XX     -50.1684     XY      -9.0123     YY     -59.2481
        XZ      -2.2917     YZ      -6.2928     ZZ     -47.1980
    Octopole Moments (Debye-Ang^2)
       XXX     117.9921    XXY     -46.3221    XYY      29.7561
       YYY    -208.8331    XXZ      49.8913    XYZ      12.7599
       YYZ      39.9267    XZZ      48.0043    YZZ     -22.8998
       ZZZ     129.9294
    Hexadecapole Moments (Debye-Ang^3)
      XXXX    -584.4162   XXXY      39.0451   XXYY    -225.4216
      XYYY      54.3154   YYYY    -857.7855   XXXZ    -131.8158
      XXYZ      18.6965   XYYZ     -30.0647   YYYZ      72.0482
      XXZZ    -252.9382   XYZZ     -11.4071   YYZZ    -201.9154
      XZZZ    -166.8079   YZZZ     -13.3352   ZZZZ    -774.6418
 -----------------------------------------------------------------
 Calculating analytic gradient of the SCF energy
 Gradient of CDS energy
            1           2           3           4           5           6
    1   0.0000971   0.0003739  -0.0003495  -0.0000850  -0.0003998  -0.0001964
    2  -0.0000263  -0.0001088   0.0001261   0.0000458   0.0000768   0.0000448
    3   0.0001784   0.0003604   0.0003746   0.0001811  -0.0000688   0.0000029
            7           8           9          10          11          12
    1  -0.0000058  -0.0000597   0.0000310  -0.0000168   0.0003860   0.0001991
    2  -0.0001175   0.0000145   0.0001289  -0.0001501  -0.0000745  -0.0000371
    3  -0.0001725  -0.0001397  -0.0002211  -0.0001047  -0.0000800  -0.0000079
           13          14          15          16
    1  -0.0000983   0.0000942   0.0000517  -0.0000216
    2  -0.0001888   0.0003197  -0.0000199  -0.0000337
    3   0.0001774  -0.0003909  -0.0001037   0.0000145
 Gradient of SCF Energy
            1           2           3           4           5           6
    1   0.0029580  -0.0028070   0.0050067  -0.0032187   0.0053583  -0.0074865
    2  -0.0007956   0.0004820  -0.0020274   0.0016545   0.0012376   0.0020741
    3   0.0062939  -0.0046175  -0.0041346   0.0071301  -0.0036680  -0.0003776
            7           8           9          10          11          12
    1   0.0047325  -0.0036837  -0.0047645   0.0027116  -0.0039484   0.0046238
    2  -0.0129177   0.0059569   0.0074310  -0.0028522  -0.0003692  -0.0014505
    3   0.0087653  -0.0078020   0.0047438  -0.0046824  -0.0029324  -0.0002991
           13          14          15          16
    1   0.0064313  -0.0054355   0.0001527  -0.0006307
    2   0.0032192  -0.0005805   0.0002684  -0.0013304
    3   0.0167468  -0.0149807   0.0005308  -0.0007165
 Max gradient component =       1.675E-02
 RMS gradient           =       5.485E-03
 Computing fast CPCM-SWIG gradient
 Updating gradient with PCM contributions...
 -- total gradient after adding PCM contribution --
---------------------------------------------------
  Atom         X              Y              Z     
---------------------------------------------------
   1      -0.000015      -0.000008       0.000012
   2      -0.000005       0.000004       0.000011
   3      -0.000006       0.000010      -0.000020
   4      -0.000007       0.000030       0.000000
   5       0.000003      -0.000005      -0.000039
   6      -0.000007       0.000022      -0.000011
   7       0.000005       0.000004       0.000040
   8      -0.000007       0.000010      -0.000018
   9       0.000014       0.000020      -0.000000
  10       0.000010      -0.000024       0.000004
  11      -0.000014       0.000008      -0.000015
  12       0.000007      -0.000007       0.000013
  13       0.000035      -0.000007       0.000055
  14       0.000005      -0.000030      -0.000044
  15      -0.000001      -0.000055      -0.000080
  16      -0.000016       0.000029       0.000091
---------------------------------------------------
 Number of fixed atoms: 0
 Gradient time:  CPU 222.59 s  wall 31.90 s
 Geometry Optimization Parameters
   NAtoms,    NIC,     NZ,  NCons,   NDum,   NFix, NCnnct, MaxDiis
       16     113       0       0       0       0       0       0

 Cartesian Hessian Update
 Hessian updated using BFGS update


** GEOMETRY OPTIMIZATION IN DELOCALIZED INTERNAL COORDINATES **
   Searching for a Minimum

   Optimization Cycle:   6

                       Coordinates (Angstroms)
     ATOM                X               Y               Z
      1  H         0.5494870302    1.1121890970    1.8981981717
      2  C         0.0368225133    1.2510758343    0.9559882674
      3  C        -1.3937059848    1.5742808067    0.9869507899
      4  H        -1.8418405081    1.8157438377    1.9416345888
      5  C        -2.1299889353    1.5826360889   -0.1223353566
      6  H        -3.1838649876    1.8228880810   -0.1068511667
      7  C        -1.5107143611    1.2143396570   -1.4283669096
      8  H        -1.9763529213    1.7262930837   -2.2683406194
      9  C         0.0081139346    1.3928883184   -1.5053921124
     10  H         0.3779365918    0.6823609414   -2.2476299993
     11  C         0.6985687447    1.1628351551   -0.1952745688
     12  H         1.7617485246    0.9637213830   -0.2224195762
     13  O         0.3216569184    2.7243746560   -1.9170485898
     14  H         0.0636089520    2.8222509235   -2.8415479411
     15  O        -1.8180789309   -0.2197648546   -1.6153931630
     16  O        -1.6444777806   -0.5971757089   -2.8488761150
   Point Group: c1    Number of degrees of freedom:    42


   Energy is   -458.351746075

 Hessian updated using BFGS update

 42 Hessian modes will be used to form the next step
  Hessian Eigenvalues:
     0.002294    0.006569    0.011692    0.013980    0.014995    0.018405
     0.021348    0.021567    0.025354    0.043557    0.049159    0.057475
     0.067117    0.078131    0.085588    0.145327    0.159011    0.159697
     0.159918    0.159959    0.165244    0.170362    0.189185    0.211429
     0.220352    0.262297    0.285597    0.310898    0.318204    0.340849
     0.345230    0.349510    0.352005    0.352199    0.352923    0.356295
     0.359699    0.424617    0.529936    0.546117    0.553023    0.596728

 Minimum search - taking simple RFO step
 Searching for Lamda that Minimizes Along All modes
 Value Taken    Lamda =  -0.00000008
 Step Taken.  Stepsize is  0.001799

                             Maximum     Tolerance    Cnvgd?
         Gradient           0.000067      0.000300     YES
         Displacement       0.000705      0.001200     YES
         Energy change     -0.000001      0.000001     YES

 Final energy is   -458.351746075146     


 ******************************
 **  OPTIMIZATION CONVERGED  **
 ******************************

                       Coordinates (Angstroms)
     ATOM                X               Y               Z
      1  H         0.5494870302    1.1121890970    1.8981981717
      2  C         0.0368225133    1.2510758343    0.9559882674
      3  C        -1.3937059848    1.5742808067    0.9869507899
      4  H        -1.8418405081    1.8157438377    1.9416345888
      5  C        -2.1299889353    1.5826360889   -0.1223353566
      6  H        -3.1838649876    1.8228880810   -0.1068511667
      7  C        -1.5107143611    1.2143396570   -1.4283669096
      8  H        -1.9763529213    1.7262930837   -2.2683406194
      9  C         0.0081139346    1.3928883184   -1.5053921124
     10  H         0.3779365918    0.6823609414   -2.2476299993
     11  C         0.6985687447    1.1628351551   -0.1952745688
     12  H         1.7617485246    0.9637213830   -0.2224195762
     13  O         0.3216569184    2.7243746560   -1.9170485898
     14  H         0.0636089520    2.8222509235   -2.8415479411
     15  O        -1.8180789309   -0.2197648546   -1.6153931630
     16  O        -1.6444777806   -0.5971757089   -2.8488761150

Z-matrix Print:
$molecule
0 2
O 
O  1 1.301559
C  1 1.478549 2 111.925563
H  3 1.088334 1 105.645954 2 44.360535 0
C  3 1.491597 1 105.304019 2 163.564765 0
H  5 1.081025 3 118.174968 1 -82.572741 0
C  5 1.331427 3 119.891717 1 95.677242 0
H  7 1.081920 5 120.312698 3 -178.437504 0
C  7 1.466912 5 121.539328 3 2.008944 0
H  9 1.081607 7 118.172839 5 -170.842794 0
C  9 1.330827 7 121.183425 5 10.814451 0
H  11 1.082005 9 121.499930 7 177.527319 0
C  11 1.498686 9 121.128926 7 0.115156 0
H  13 1.092033 11 109.771379 9 -140.843647 0
O  13 1.428505 11 107.089880 9 100.186857 0
H  15 0.964815 13 108.178761 11 166.971293 0
$end

 
 --------------------------------------------------------------
 
                    Orbital Energies (a.u.)
 --------------------------------------------------------------
 
 Alpha MOs
 -- Occupied --
-19.4638 -19.4160 -19.3453 -10.4102 -10.4064 -10.3559 -10.3509 -10.3489
-10.3476  -1.3430  -1.1655  -1.0272  -0.9574  -0.8782  -0.8563  -0.7527
 -0.7262  -0.6576  -0.6507  -0.6396  -0.6138  -0.6018  -0.5722  -0.5543
 -0.5332  -0.5195  -0.4804  -0.4585  -0.4392  -0.4335  -0.4174  -0.4036
 -0.3781  -0.3344
 -- Virtual --
  0.0174   0.0267   0.0369   0.0392   0.0561   0.0581   0.0621   0.0831
  0.0987   0.1068   0.1088   0.1214   0.1280   0.1411   0.1439   0.1497
  0.1545   0.1580   0.1612   0.1638   0.1646   0.1718   0.1776   0.1814
  0.1872   0.1917   0.2037   0.2111   0.2132   0.2213   0.2283   0.2408
  0.2474   0.2510   0.2634   0.2767   0.2852   0.2918   0.2983   0.3070
  0.3134   0.3283   0.3326   0.3385   0.3432   0.3567   0.3680   0.3730
  0.3777   0.3857   0.3896   0.3986   0.4056   0.4190   0.4265   0.4314
  0.4415   0.4588   0.4715   0.5162   0.5302   0.5438   0.5697   0.5741
  0.5901   0.5951   0.6059   0.6079   0.6277   0.6345   0.6439   0.6543
  0.6904   0.6958   0.7014   0.7085   0.7171   0.7205   0.7364   0.7433
  0.7520   0.7757   0.7850   0.7893   0.8025   0.8158   0.8261   0.8355
  0.8459   0.8511   0.8696   0.8817   0.9023   0.9084   0.9408   0.9594
  0.9911   1.0227   1.0484   1.0665   1.0874   1.1051   1.1169   1.1282
  1.1378   1.1520   1.1687   1.1754   1.1876   1.1968   1.2056   1.2154
  1.2249   1.2391   1.2418   1.2647   1.2691   1.2883   1.3009   1.3302
  1.3419   1.3478   1.3597   1.3797   1.3843   1.4017   1.4072   1.4324
  1.4372   1.4497   1.4561   1.4679   1.4903   1.5142   1.5290   1.5384
  1.5565   1.5633   1.5758   1.5943   1.6105   1.6205   1.6352   1.6610
  1.6765   1.6982   1.7158   1.7481   1.7757   1.8028   1.8126   1.8179
  1.8587   1.8993   1.9247   1.9676   2.0000   2.0201   2.0516   2.0652
  2.1324   2.1552   2.2346   2.2517   2.2967   2.3168   2.3677   2.4058
  2.4553   2.5695   2.6046   2.6517   2.6629   2.6790   2.7251   2.7321
  2.7716   2.7920   2.8147   2.8275   2.8349   2.8604   2.8696   2.8731
  2.8915   2.9015   2.9447   2.9570   2.9655   2.9738   2.9755   2.9942
  3.0133   3.0452   3.0685   3.0859   3.1242   3.1615   3.1836   3.2170
  3.2322   3.2454   3.2690   3.2883   3.3099   3.3263   3.3465   3.3832
  3.3848   3.3982   3.4224   3.4292   3.4400   3.4780   3.4887   3.5036
  3.5117   3.5248   3.5325   3.5640   3.5841   3.6075   3.6442   3.6868
  3.7155   3.7319   3.7418   3.7566   3.7726   3.7755   3.7962   3.8234
  3.8289   3.8577   3.8635   3.8825   3.8951   3.9173   3.9203   3.9693
  3.9757   3.9936   4.0257   4.0610   4.0673   4.0867   4.1318   4.1622
  4.1981   4.2147   4.2241   4.2365   4.2774   4.2910   4.3368   4.3580
  4.3647   4.3783   4.4081   4.4276   4.4566   4.5031   4.5240   4.5502
  4.5765   4.6007   4.6218   4.6465   4.6612   4.7220   4.7268   4.7446
  4.7658   4.7858   4.8454   4.8947   4.9243   4.9594   5.0106   5.0216
  5.0406   5.0585   5.0953   5.0981   5.1086   5.1663   5.1918   5.2490
  5.2508   5.2826   5.3018   5.3317   5.3476   5.3803   5.4102   5.4384
  5.4627   5.5060   5.5235   5.5806   5.6261   5.6411   5.6884   5.7119
  5.7223   5.8119   5.8259   5.9073   5.9313   6.0307   6.1075   6.2754
  6.4218   6.4819   6.6083   6.6313   6.8335   6.8942   6.9756   7.0983
  7.1219   7.2200   7.2706   7.3125   7.3355   7.3956   7.4189   7.4569
  7.6845   7.8072   7.8210   8.0286   8.1052  24.2810  24.5562  24.7083
 24.7809  25.1391  25.3517  50.4349  50.5334  50.6180
 
 Beta MOs
 -- Occupied --
-19.4532 -19.3976 -19.3453 -10.4106 -10.4060 -10.3559 -10.3508 -10.3488
-10.3476  -1.3166  -1.1653  -1.0064  -0.9464  -0.8772  -0.8481  -0.7484
 -0.7248  -0.6508  -0.6400  -0.6268  -0.6055  -0.5734  -0.5597  -0.5437
 -0.5327  -0.4969  -0.4789  -0.4573  -0.4384  -0.4283  -0.4006  -0.3805
 -0.3343
 -- Virtual --
 -0.0317   0.0182   0.0269   0.0373   0.0393   0.0564   0.0586   0.0625
  0.0835   0.0993   0.1073   0.1095   0.1223   0.1288   0.1417   0.1447
  0.1501   0.1549   0.1583   0.1621   0.1640   0.1653   0.1722   0.1786
  0.1818   0.1882   0.1928   0.2046   0.2121   0.2138   0.2225   0.2289
  0.2416   0.2480   0.2530   0.2702   0.2820   0.2872   0.2932   0.3010
  0.3077   0.3148   0.3296   0.3338   0.3400   0.3444   0.3604   0.3692
  0.3736   0.3788   0.3862   0.3920   0.3993   0.4063   0.4197   0.4275
  0.4336   0.4421   0.4601   0.4726   0.5165   0.5304   0.5440   0.5704
  0.5742   0.5903   0.5955   0.6063   0.6089   0.6279   0.6348   0.6441
  0.6547   0.6906   0.6961   0.7016   0.7095   0.7173   0.7214   0.7366
  0.7433   0.7521   0.7760   0.7852   0.7896   0.8029   0.8165   0.8267
  0.8360   0.8461   0.8513   0.8699   0.8819   0.9028   0.9085   0.9421
  0.9617   0.9934   1.0235   1.0503   1.0698   1.0893   1.1057   1.1181
  1.1315   1.1402   1.1552   1.1711   1.1811   1.1945   1.2007   1.2205
  1.2288   1.2297   1.2418   1.2504   1.2682   1.2710   1.2897   1.3031
  1.3315   1.3441   1.3505   1.3612   1.3801   1.3851   1.4023   1.4095
  1.4336   1.4391   1.4522   1.4573   1.4712   1.4929   1.5166   1.5293
  1.5471   1.5582   1.5655   1.5777   1.5963   1.6175   1.6228   1.6440
  1.6726   1.6857   1.7078   1.7275   1.7547   1.7765   1.8050   1.8158
  1.8204   1.8622   1.9071   1.9296   1.9727   2.0018   2.0243   2.0524
  2.0662   2.1352   2.1655   2.2390   2.2623   2.3064   2.3237   2.3778
  2.4118   2.4565   2.5701   2.6049   2.6543   2.6667   2.6798   2.7287
  2.7327   2.7722   2.7928   2.8150   2.8275   2.8350   2.8609   2.8697
  2.8736   2.8918   2.9020   2.9452   2.9571   2.9657   2.9741   2.9758
  2.9948   3.0134   3.0455   3.0693   3.0866   3.1248   3.1620   3.1840
  3.2174   3.2324   3.2456   3.2692   3.2884   3.3102   3.3263   3.3470
  3.3833   3.3850   3.3983   3.4226   3.4295   3.4403   3.4784   3.4890
  3.5039   3.5119   3.5252   3.5328   3.5646   3.5849   3.6079   3.6443
  3.6871   3.7162   3.7325   3.7423   3.7572   3.7727   3.7757   3.7962
  3.8237   3.8295   3.8578   3.8638   3.8828   3.8955   3.9178   3.9208
  3.9700   3.9758   3.9938   4.0259   4.0617   4.0676   4.0874   4.1322
  4.1629   4.1984   4.2151   4.2244   4.2369   4.2777   4.2922   4.3373
  4.3590   4.3660   4.3786   4.4089   4.4283   4.4576   4.5037   4.5252
  4.5547   4.5774   4.6039   4.6417   4.6481   4.6648   4.7265   4.7340
  4.7514   4.7722   4.7891   4.8466   4.9129   4.9324   4.9640   5.0136
  5.0311   5.0467   5.0654   5.1434   5.1457   5.1808   5.1969   5.2108
  5.2674   5.2947   5.2984   5.3142   5.3358   5.3483   5.3937   5.4186
  5.4435   5.4801   5.5138   5.5360   5.5813   5.6280   5.6498   5.6901
  5.7156   5.7313   5.8278   5.8355   5.9088   5.9319   6.0313   6.1078
  6.2765   6.4360   6.5281   6.6171   6.6360   6.9177   6.9736   7.0367
  7.1239   7.1398   7.2477   7.3077   7.3147   7.3446   7.4032   7.4450
  7.4980   7.6849   7.8180   7.8243   8.0419   8.1253  24.2810  24.5562
 24.7081  24.7811  25.1391  25.3517  50.4475  50.5431  50.6182
 --------------------------------------------------------------
 
          Ground-State Mulliken Net Atomic Charges

     Atom                 Charge (a.u.)    Spin (a.u.)
  --------------------------------------------------------
      1 H                     0.286790      -0.000070
      2 C                    -0.164833       0.000891
      3 C                    -0.290898      -0.002294
      4 H                     0.279242       0.000181
      5 C                    -0.070162       0.008850
      6 H                     0.312268      -0.000476
      7 C                    -0.507099      -0.005170
      8 H                     0.278625       0.005752
      9 C                    -0.296033       0.006267
     10 H                     0.239531      -0.001739
     11 C                    -0.147367       0.002675
     12 H                     0.296263       0.000189
     13 O                    -0.398500       0.002066
     14 H                     0.332698       0.000014
     15 O                     0.084604       0.321437
     16 O                    -0.235129       0.661427
  --------------------------------------------------------
  Sum of atomic charges =     0.000000
  Sum of spin   charges =     1.000000

 -----------------------------------------------------------------
                    Cartesian Multipole Moments
 -----------------------------------------------------------------
    Charge (ESU x 10^10)
                 0.0000
    Dipole Moment (Debye)
         X      -0.1635      Y       1.7560      Z       0.9083
       Tot       1.9837
    Quadrupole Moments (Debye-Ang)
        XX     -50.1684     XY      -9.0123     YY     -59.2481
        XZ      -2.2917     YZ      -6.2928     ZZ     -47.1980
    Octopole Moments (Debye-Ang^2)
       XXX     117.9921    XXY     -46.3221    XYY      29.7561
       YYY    -208.8331    XXZ      49.8913    XYZ      12.7599
       YYZ      39.9267    XZZ      48.0043    YZZ     -22.8998
       ZZZ     129.9294
    Hexadecapole Moments (Debye-Ang^3)
      XXXX    -584.4162   XXXY      39.0451   XXYY    -225.4216
      XYYY      54.3154   YYYY    -857.7855   XXXZ    -131.8158
      XXYZ      18.6965   XYYZ     -30.0647   YYYZ      72.0482
      XXZZ    -252.9382   XYZZ     -11.4071   YYZZ    -201.9154
      XZZZ    -166.8079   YZZZ     -13.3352   ZZZZ    -774.6418
 -----------------------------------------------------------------
 Total job time:  1401.92s(wall), 10917.20s(cpu) 
 Tue Feb  6 22:15:36 2024

        *************************************************************
        *                                                           *
        *  Thank you very much for using Q-Chem.  Have a nice day.  *
        *                                                           *
        *************************************************************


