
Running Job 1 of 2 Q_in.in
qchem Q_in.in_197803.0 /scratch/ari.fischer/qChem1383877.hpc-mn1/qchem197803/ 0
/usr/local/qchem-5.4.1/exe/qcprog.exe_s Q_in.in_197803.0 /scratch/ari.fischer/qChem1383877.hpc-mn1/qchem197803/
                  Welcome to Q-Chem
     A Quantum Leap Into The Future Of Chemistry


 Q-Chem 5.4, Q-Chem, Inc., Pleasanton, CA (2021)

 License issued to: Nanyang Technological University (site)

 E. Epifanovsky,  A. T. B. Gilbert,  Xintian Feng,  Joonho Lee,  Yuezhi Mao,  
 N. Mardirossian,  P. Pokhilko,  A. White,  M. Wormit,  M. P. Coons,  
 A. L. Dempwolff,  Zhengting Gan,  D. Hait,  P. R. Horn,  L. D. Jacobson,  
 I. Kaliman,  J. Kussmann,  A. W. Lange,  Ka Un Lao,  D. S. Levine,  Jie Liu,  
 S. C. McKenzie,  A. F. Morrison,  K. Nanda,  F. Plasser,  D. R. Rehn,  
 M. L. Vidal,  Zhi-Qiang You,  Ying Zhu,  B. Alam,  B. Albrecht,  
 A. Aldossary,  E. Alguire,  J. H. Andersen,  D. Barton,  K. Begam,  A. Behn,  
 Y. A. Bernard,  E. J. Berquist,  H. Burton,  A. Carreras,  K. Carter-Fenk,  
 R. Chakraborty,  A. D. Chien,  K. D. Closser,  V. Cofer-Shabica,  
 S. Dasgupta,  Jia Deng,  M. de Wergifosse,  M. Diedenhofen,  Hainam Do,  
 S. Ehlert,  Po-Tung Fang,  S. Fatehi,  Qingguo Feng,  T. Friedhoff,  
 J. Gayvert,  Qinghui Ge,  G. Gidofalvi,  M. Goldey,  J. Gomes,  
 C. Gonzalez-Espinoza,  S. Gulania,  A. Gunina,  M. W. D. Hanson-Heine,  
 P. H. P. Harbach,  A. W. Hauser,  M. F. Herbst,  M. Hernandez Vera,  
 M. Hodecker,  Z. C. Holden,  S. Houck,  Xunkun Huang,  Kerwin Hui,  
 B. C. Huynh,  M. Ivanov,  Hyunjun Ji,  Hanjie Jiang,  B. Kaduk,  S. Kaehler,  
 K. Khistyaev,  Jaehoon Kim,  P. Klunzinger,  Z. Koczor-Benda,  
 Joong Hoon Koh,  D. Kosenkov,  L. Koulias,  T. Kowalczyk,  C. M. Krauter,  
 K. Kue,  A. Kunitsa,  T. Kus,  A. Landau,  K. V. Lawler,  D. Lefrancois,  
 S. Lehtola,  Rain Li,  Yi-Pei Li,  Jiashu Liang,  M. Liebenthal,  
 Hung-Hsuan Lin,  You-Sheng Lin,  Fenglai Liu,  Kuan-Yu Liu,  
 M. Loipersberger,  A. Luenser,  A. Manjanath,  P. Manohar,  E. Mansoor,  
 S. F. Manzer,  Shan-Ping Mao,  A. V. Marenich,  T. Markovich,  S. Mason,  
 S. A. Maurer,  P. F. McLaughlin,  M. F. S. J. Menger,  J.-M. Mewes,  
 S. A. Mewes,  P. Morgante,  J. W. Mullinax,  K. J. Oosterbaan,  G. Paran,  
 Alexander C. Paul,  Suranjan K. Paul,  F. Pavosevic,  Zheng Pei,  S. Prager,  
 E. I. Proynov,  E. Ramos,  B. Rana,  A. E. Rask,  A. Rettig,  R. M. Richard,  
 F. Rob,  E. Rossomme,  T. Scheele,  M. Scheurer,  M. Schneider,  
 N. Sergueev,  S. M. Sharada,  W. Skomorowski,  D. W. Small,  C. J. Stein,  
 Yu-Chuan Su,  E. J. Sundstrom,  Zhen Tao,  J. Thirman,  T. Tsuchimochi,  
 N. M. Tubman,  S. P. Veccham,  O. Vydrov,  J. Wenzel,  J. Witte,  A. Yamada,  
 Kun Yao,  S. Yeganeh,  S. R. Yost,  A. Zech,  Igor Ying Zhang,  Xing Zhang,  
 Yu Zhang,  D. Zuev,  A. Aspuru-Guzik,  A. T. Bell,  N. A. Besley,  
 K. B. Bravaya,  B. R. Brooks,  D. Casanova,  Jeng-Da Chai,  S. Coriani,  
 C. J. Cramer,  A. E. DePrince, III,  R. A. DiStasio Jr.,  A. Dreuw,  
 B. D. Dunietz,  T. R. Furlani,  W. A. Goddard III,  S. Grimme,  
 S. Hammes-Schiffer,  T. Head-Gordon,  W. J. Hehre,  Chao-Ping Hsu,  
 T.-C. Jagau,  Yousung Jung,  A. Klamt,  Jing Kong,  D. S. Lambrecht,  
 WanZhen Liang,  N. J. Mayhall,  C. W. McCurdy,  J. B. Neaton,  
 C. Ochsenfeld,  J. A. Parkhill,  R. Peverati,  V. A. Rassolov,  Yihan Shao,  
 L. V. Slipchenko,  T. Stauch,  R. P. Steele,  J. E. Subotnik,  
 A. J. W. Thom,  A. Tkatchenko,  D. G. Truhlar,  T. Van Voorhis,  
 T. A. Wesolowski,  K. B. Whaley,  H. L. Woodcock III,  P. M. Zimmerman,  
 S. Faraji,  P. M. W. Gill,  M. Head-Gordon,  J. M. Herbert,  A. I. Krylov

 Additional authors for Version 5.4.1: 
 S. Kotaru,  Shaozhi Li,  Xiangyuan Li,  F. Matz,  A. Molle,  Haisheng Ren,  
 Yingli Su,  Hung-Yi Tsai,  C. Utku,  Fang Wang

 Contributors to earlier versions of Q-Chem not listed above: 
 R. D. Adamson,  B. Austin,  R. Baer,  J. Baker,  G. J. O. Beran,  
 K. Brandhorst,  S. T. Brown,  E. F. C. Byrd,  A. K. Chakraborty,  
 G. K. L. Chan,  Chun-Min Chang,  Yunqing Chen,  C.-L. Cheng,  
 Siu Hung Chien,  D. M. Chipman,  D. L. Crittenden,  H. Dachsel,  
 R. J. Doerksen,  A. D. Dutoi,  R. G. Edgar,  J. Fosso-Tande,  
 L. Fusti-Molnar,  D. Ghosh,  A. Ghysels,  A. Golubeva-Zadorozhnaya,  
 J. Gonthier,  M. S. Gordon,  S. R. Gwaltney,  G. Hawkins,  J. E. Herr,  
 A. Heyden,  S. Hirata,  E. G. Hohenstein,  G. Kedziora,  F. J. Keil,  
 C. Kelley,  Jihan Kim,  R. A. King,  R. Z. Khaliullin,  P. P. Korambath,  
 W. Kurlancheek,  A. Laurent,  A. M. Lee,  M. S. Lee,  S. V. Levchenko,  
 Ching Yeh Lin,  D. Liotard,  E. Livshits,  R. C. Lochan,  I. Lotan,  
 L. A. Martinez-Martinez,  P. E. Maslen,  N. Nair,  D. P. O'Neill,  
 D. Neuhauser,  E. Neuscamman,  C. M. Oana,  R. Olivares-Amaya,  R. Olson,  
 T. M. Perrine,  B. Peters,  P. A. Pieniazek,  A. Prociuk,  Y. M. Rhee,  
 J. Ritchie,  M. A. Rohrdanz,  E. Rosta,  N. J. Russ,  H. F. Schaefer III,  
 M. W. Schmidt,  N. E. Schultz,  S. Sharma,  N. Shenvi,  C. D. Sherrill,  
 A. C. Simmonett,  A. Sodt,  T. Stein,  D. Stuck,  K. S. Thanthiriwatte,  
 V. Vanovschi,  L. Vogt,  Tao Wang,  A. Warshel,  M. A. Watson,  
 C. F. Williams,  Q. Wu,  X. Xu,  Jun Yang,  W. Zhang,  Yan Zhao

 Please cite Q-Chem as follows:
 Y. Shao et al., Mol. Phys. 113, 184-215 (2015)
 DOI: 10.1080/00268976.2014.952696

 Q-Chem 5.4.1 for Intel X86 EM64T Linux

 Parts of Q-Chem use Armadillo 9.800.1 (Horizon Scraper).
 http://arma.sourceforge.net/

 Q-Chem begins on Tue Dec 27 22:42:19 2022  

 Host: 
0

     Scratch files written to /scratch/ari.fischer/qChem1383877.hpc-mn1/qchem197803//
 Aug1521 |scratch|qcdevops|jenkins|workspace|build_RNUM 8249   
 Processing $rem in /usr/local/qchem-5.4.1/config/preferences:
 Processing $rem in /home/ari.fischer/.qchemrc:
 Now reading second FSM geometry
 Symmetry turned off for PCM/SM12/SMD calculation

 Checking the input file for inconsistencies... 	...done.

--------------------------------------------------------------
User input:
--------------------------------------------------------------
$molecule
0 2
C   -0.7178915    0.0714637    1.1392109
C   -1.1106707   -1.0574476    1.8494712
C   -1.9198338   -2.0094095    1.2456280
C   -2.3390523   -1.8302777   -0.0679615
C   -1.9456741   -0.7034066   -0.7755243
C   -1.1302371    0.2544551   -0.1791952
C   -0.6376754    1.4328250   -0.9735377
H   -0.0983056    0.8227900    1.6127494
H   -0.7873549   -1.1897628    2.8733270
H   -2.2285931   -2.8869552    1.7974306
H   -2.9749430   -2.5680574   -0.5384256
H   -2.2730743   -0.5620399   -1.7986539
H   -1.3969895    1.7743126   -1.6765894
O    0.5680171    1.1062964   -1.6933091
H   -0.3744631    2.2563665   -0.3141144
H    0.3294405    0.5116836   -2.4140953
O    1.7394402   -0.7417567    0.0872431
H    1.4562393   -0.0906463   -0.5977224
****
C   -0.2376835   -0.1868767    0.8651686
C   -0.7859464   -1.3313663    1.6487258
C   -1.8715904   -2.0334138    1.2448650
C   -2.5546564   -1.6972804    0.0520717
C   -2.1208376   -0.5979103   -0.7185345
C   -1.0463007    0.1517500   -0.3538826
C   -0.6494284    1.3756748   -1.1179177
H   -0.1902445    0.7039134    1.5074795
H   -0.2573304   -1.5961632    2.5554423
H   -2.2252945   -2.8664960    1.8380370
H   -3.4101127   -2.2755807   -0.2649304
H   -2.6706277   -0.3299508   -1.6131805
H   -1.3360621    1.5433431   -1.9482411
O    0.7069303    1.3180693   -1.5985081
H   -0.6803695    2.2480689   -0.4632103
H    0.7501081    0.6271634   -2.2696827
O    1.1301526   -0.5295022    0.5118450
H    1.4151074    0.1298612   -0.1383608
$end

$rem
BASIS = 6-311++G(2df,2p)
GUI = 2
JOB_TYPE = FSM
FSM_MODE = 2
METHOD = wB97M-v
MAX_SCF_CYCLES = 120
FSM_NGRAD = 6
FSM_NNODE = 20
SCF_CONVERGENCE = 7
THRESH = 12
SCF_ALGORITHM = DIIS_GDM
UNRESTRICTED = 1
solvent_method = SMD
$end

--------------------------------------------------------------
 ----------------------------------------------------------------
             Standard Nuclear Orientation (Angstroms)
    I     Atom           X                Y                Z
 ----------------------------------------------------------------
    1      C      -0.7178915000     0.0714637000     1.1392109000
    2      C      -1.1106707000    -1.0574476000     1.8494712000
    3      C      -1.9198338000    -2.0094095000     1.2456280000
    4      C      -2.3390523000    -1.8302777000    -0.0679615000
    5      C      -1.9456741000    -0.7034066000    -0.7755243000
    6      C      -1.1302371000     0.2544551000    -0.1791952000
    7      C      -0.6376754000     1.4328250000    -0.9735377000
    8      H      -0.0983056000     0.8227900000     1.6127494000
    9      H      -0.7873549000    -1.1897628000     2.8733270000
   10      H      -2.2285931000    -2.8869552000     1.7974306000
   11      H      -2.9749430000    -2.5680574000    -0.5384256000
   12      H      -2.2730743000    -0.5620399000    -1.7986539000
   13      H      -1.3969895000     1.7743126000    -1.6765894000
   14      O       0.5680171000     1.1062964000    -1.6933091000
   15      H      -0.3744631000     2.2563665000    -0.3141144000
   16      H       0.3294405000     0.5116836000    -2.4140953000
   17      O       1.7394402000    -0.7417567000     0.0872431000
   18      H       1.4562393000    -0.0906463000    -0.5977224000
 ----------------------------------------------------------------
 Nuclear Repulsion Energy =         428.47837134 hartrees
 There are       34 alpha and       33 beta electrons
 Requested basis set is 6-311++G(2df,2p)
 There are 126 shells and 396 basis functions

 Total QAlloc Memory Limit 288000 MB
 Mega-Array Size       188 MB
 MEM_STATIC part       192 MB
 beginning FSman 

*******************************************
*******************************************
******** Starting FSM Calculation *********
*******************************************
*******************************************
-FSM parameters:
 Maximum displacement of each coordinate during optimization (Angstrom)      0.05
 Maximum optimization steps for each new node                                6
 The scaling factor for optimization (hartrees/Angstrom^2)                   1.75
 The number of LST interpolations used for reparameterization                100
-Aligning product structure to maximum coincidence with the reactant structure
 Total R --> P Distance 1.812565
 New node interpolation distace (Angstroms): 0.09
-Performing force calculation on reactant structure in state:0
 ----------------------------------------------------------------
             Standard Nuclear Orientation (Angstroms)
    I     Atom           X                Y                Z
 ----------------------------------------------------------------
    1      C      -0.7178915000     0.0714637000     1.1392109000
    2      C      -1.1106707000    -1.0574476000     1.8494712000
    3      C      -1.9198338000    -2.0094095000     1.2456280000
    4      C      -2.3390523000    -1.8302777000    -0.0679615000
    5      C      -1.9456741000    -0.7034066000    -0.7755243000
    6      C      -1.1302371000     0.2544551000    -0.1791952000
    7      C      -0.6376754000     1.4328250000    -0.9735377000
    8      H      -0.0983056000     0.8227900000     1.6127494000
    9      H      -0.7873549000    -1.1897628000     2.8733270000
   10      H      -2.2285931000    -2.8869552000     1.7974306000
   11      H      -2.9749430000    -2.5680574000    -0.5384256000
   12      H      -2.2730743000    -0.5620399000    -1.7986539000
   13      H      -1.3969895000     1.7743126000    -1.6765894000
   14      O       0.5680171000     1.1062964000    -1.6933091000
   15      H      -0.3744631000     2.2563665000    -0.3141144000
   16      H       0.3294405000     0.5116836000    -2.4140953000
   17      O       1.7394402000    -0.7417567000     0.0872431000
   18      H       1.4562393000    -0.0906463000    -0.5977224000
 ----------------------------------------------------------------
 Nuclear Repulsion Energy =         428.47837134 hartrees
 There are       34 alpha and       33 beta electrons
 
 Citation of the SMD model:
 Marenich, A.V.; Cramer, C.J.; Truhlar, D.G.
 J. Phys. Chem. B 2009, 113, 6378-6396.
 iSolventCode=           1
 Solvent: water                                                           
 
 vradii
            1           2           3           4           5           6
    1   1.8500000   1.8500000   1.8500000   1.8500000   1.8500000   1.8500000
            7           8           9          10          11          12
    1   1.8500000   1.2000000   1.2000000   1.2000000   1.2000000   1.2000000
           13          14          15          16          17          18
    1   1.2000000   1.5200000   1.2000000   1.2000000   1.5200000   1.2000000
 Changing PCM_VDW_RADII to SMD_RADIUS
 Discretize the solute cavity surface with Lebedev spheres
	Using 110 Lebedev grid points for each H atom
	Using 194 Lebedev grid points for other atoms
	Atomic van der Waals radii will be scaled by 1.20
 Remove points where switching function is < 1.0e-08
 Keep 1351 surface tesserae and discard 1385 interior tesserae
 Molecular Surface Area = 160.456 Angst**2
 Requested basis set is 6-311++G(2df,2p)
 There are 126 shells and 396 basis functions
 A cutoff of  1.0D-12 yielded   7251 shell pairs
 There are     72384 function pairs (     89759 Cartesian)
 Smallest overlap matrix eigenvalue = 7.10E-07
 Linear dependence detected in AO basis
 Tighter screening thresholds may be required for diffuse basis sets
 Use S2THRESH > 14 and THRESH = 14 in case of SCF convergence issues
 Number of orthogonalized atomic orbitals = 395
 Maximum deviation from orthogonality = 6.539E-11

 Scale SEOQF with 1.000000e-01/1.000000e-01/1.000000e-01

 Standard Electronic Orientation quadrupole field applied
 Nucleus-field energy     =     0.0000000026 hartrees
 Guess from superposition of atomic densities
 Warning:  Energy on first SCF cycle will be non-variational
 SAD guess density has 67.000000 electrons

 -----------------------------------------------------------------------
  General SCF calculation program by
  Eric Jon Sundstrom, Paul Horn, Yuezhi Mao, Dmitri Zuev, Alec White,
  David Stuck, Shaama M.S., Shane Yost, Joonho Lee, David Small,
  Daniel Levine, Susi Lehtola, Hugh Burton, Evgeny Epifanovsky,
  Bang C. Huynh
 -----------------------------------------------------------------------
 Exchange:     0.1500 Hartree-Fock + 1.0000 wB97M-V + LR-HF
 Correlation:  1.0000 wB97M-V
 Using SG-2 standard quadrature grid
 Nonlocal Correlation:  VV10 with C = 0.0100 and b = 6.00 and scale = 1.00000
 Grid used for NLC:  SG-1 standard quadrature
 
 Citation of the SMD model:
 Marenich, A.V.; Cramer, C.J.; Truhlar, D.G.
 J. Phys. Chem. B 2009, 113, 6378-6396.
 iSolventCode=           1
 Solvent: water                                                           
 
 vradii
            1           2           3           4           5           6
    1   1.8500000   1.8500000   1.8500000   1.8500000   1.8500000   1.8500000
            7           8           9          10          11          12
    1   1.8500000   1.2000000   1.2000000   1.2000000   1.2000000   1.2000000
           13          14          15          16          17          18
    1   1.2000000   1.5200000   1.2000000   1.2000000   1.5200000   1.2000000
 using 8 threads for integral computing
 -------------------------------------------------------
 OpenMP Integral computing Module                
 Release: version 1.0, May 2013, Q-Chem Inc. Pittsburgh 
 -------------------------------------------------------
 -------------------------------------------------------
 OpenMP BLAS3 based DFT computing Module                
 Release: version 1.0, May 2013, Q-Chem Inc. Pittsburgh 
 -------------------------------------------------------
 A unrestricted SCF calculation will be
 performed using DIIS, GDM
 SCF converges when RMS gradient is below 1.0e-07
 ---------------------------------------
  Cycle       Energy         DIIS error
 ---------------------------------------
    1    -424.8210830730      1.25e-02  
    2    -422.2734465627      1.68e-03  Done DIIS. Switching to GDM
 ---------------------------------------
  Cycle       Energy        RMS Gradient
 ---------------------------------------
    1    -422.2734465627      4.28e-01   Descent step
    2    -422.4553638792      2.22e-02   Normal BFGS step
    3    -422.4789899212      7.36e-02   Normal BFGS step
    4    -422.4900340686      5.07e-02   Normal BFGS step
    5    -422.5003960322      3.29e-02   Dog-leg BFGS step
    6    -422.5009447216      5.87e-02   Normal BFGS step
    7    -422.5095114019      1.48e-02   Normal BFGS step
    8    -422.5106874870      5.96e-03   Normal BFGS step
    9    -422.5109034811      3.05e-03   Normal BFGS step
   10    -422.5109584378      1.45e-03   Normal BFGS step
   11    -422.5109686690      5.51e-04   Normal BFGS step
   12    -422.5109727477      3.45e-04   Normal BFGS step
   13    -422.5109743203      2.60e-04   Normal BFGS step
   14    -422.5109748301      1.61e-04   Normal BFGS step
   15    -422.5109750058      1.52e-04   Normal BFGS step
   16    -422.5109750615      1.47e-04   Normal BFGS step
   17    -422.5109751212      1.40e-04   Normal BFGS step
   18    -422.5109752426      1.21e-04   Normal BFGS step
   19    -422.5109754245      1.25e-04   Normal BFGS step
   20    -422.5109756172      1.06e-04   Normal BFGS step
   21    -422.5109757157      4.80e-05   Normal BFGS step
   22    -422.5109757391      2.12e-05   Normal BFGS step
   23    -422.5109757436      9.40e-06   Normal BFGS step
   24    -422.5109757443      3.90e-06   Normal BFGS step
   25    -422.5109757444      2.24e-06   Normal BFGS step
   26    -422.5109757445      1.38e-06   Normal BFGS step
   27    -422.5109757445      7.63e-07   Normal BFGS step
   28    -422.5109757445      2.60e-07   Normal BFGS step
   29    -422.5109757445      9.74e-08  Convergence criterion met
 ---------------------------------------
 SCF time:   CPU 3095.91s  wall 392.00s 
<S^2> =          0.753759287
(3)  G-ENP(liq) elect-nuc-pol free energy of system     -422.510975744 a.u.
(4)  G-CDS(liq) cavity-dispersion-solvent structure 
     free energy                                                3.3326 kcal/mol
(6)  G-S(liq) free energy of system                     -422.505664941 a.u.
 SCF   energy in the final basis set =     -422.5056649414
 Total energy in the final basis set =     -422.5056649414
 
 --------------------------------------------------------------
 
                    Orbital Energies (a.u.)
 --------------------------------------------------------------
 
 Alpha MOs
 -- Occupied --
-19.3844 -19.3470 -10.3886 -10.3529 -10.3469 -10.3456 -10.3453 -10.3445
-10.3442  -1.1625  -1.1234  -0.9895  -0.8929  -0.8721  -0.7987  -0.7250
 -0.7040  -0.6372  -0.6165  -0.5842  -0.5703  -0.5640  -0.5396  -0.5259
 -0.5204  -0.5103  -0.4786  -0.4646  -0.4510  -0.4480  -0.4328  -0.3971
 -0.3478  -0.3439
 -- Virtual --
  0.0238   0.0356   0.0369   0.0482   0.0528   0.0557   0.0581   0.0597
  0.0816   0.0859   0.0893   0.0942   0.1063   0.1256   0.1373   0.1379
  0.1491   0.1519   0.1578   0.1604   0.1613   0.1629   0.1735   0.1767
  0.1787   0.1824   0.1929   0.2036   0.2077   0.2149   0.2170   0.2187
  0.2269   0.2461   0.2469   0.2599   0.2626   0.2685   0.2780   0.2819
  0.2835   0.2969   0.3029   0.3080   0.3208   0.3258   0.3262   0.3429
  0.3477   0.3489   0.3556   0.3608   0.3703   0.3768   0.3886   0.4094
  0.4240   0.4300   0.4405   0.4512   0.4540   0.4968   0.5321   0.5368
  0.5671   0.5812   0.5946   0.6015   0.6033   0.6146   0.6163   0.6217
  0.6275   0.6332   0.6418   0.6472   0.6587   0.6779   0.6845   0.6948
  0.7042   0.7101   0.7265   0.7302   0.7342   0.7384   0.7414   0.7496
  0.7569   0.7653   0.7865   0.7932   0.8097   0.8277   0.8297   0.8399
  0.8522   0.8548   0.8709   0.8910   0.8940   0.8996   0.9065   0.9137
  0.9318   0.9491   0.9634   1.0176   1.0231   1.0453   1.0608   1.0721
  1.0841   1.0956   1.1122   1.1292   1.1384   1.1477   1.1644   1.1827
  1.1881   1.1946   1.2169   1.2198   1.2343   1.2381   1.2526   1.2647
  1.2709   1.2950   1.3036   1.3194   1.3388   1.3618   1.3691   1.3845
  1.3955   1.4014   1.4167   1.4418   1.4439   1.4465   1.4650   1.4710
  1.4837   1.4896   1.5137   1.5273   1.5507   1.5702   1.5830   1.5842
  1.5904   1.6165   1.6233   1.6442   1.6874   1.7064   1.7090   1.7283
  1.7391   1.7846   1.8063   1.8212   1.8662   1.8824   1.9164   1.9328
  1.9887   2.0198   2.0561   2.0741   2.0861   2.1071   2.1224   2.2033
  2.2396   2.2744   2.3527   2.4122   2.4738   2.5678   2.5979   2.6457
  2.6531   2.6824   2.6859   2.7110   2.7528   2.7965   2.8046   2.8236
  2.8321   2.8384   2.8533   2.8708   2.8734   2.8817   2.8929   2.9118
  2.9175   2.9381   2.9425   2.9464   2.9605   2.9688   3.0027   3.0146
  3.0350   3.0504   3.0835   3.0855   3.1481   3.1619   3.1751   3.1798
  3.1963   3.2169   3.2223   3.2442   3.2525   3.2651   3.2792   3.2894
  3.2999   3.3230   3.3401   3.3588   3.3632   3.3722   3.3843   3.4245
  3.4445   3.4570   3.4664   3.4866   3.5031   3.5184   3.5365   3.5454
  3.5549   3.5743   3.5933   3.6107   3.6200   3.6406   3.6553   3.6715
  3.7462   3.7604   3.7809   3.8049   3.8070   3.8205   3.8301   3.8442
  3.8634   3.8827   3.8926   3.9116   3.9191   3.9346   3.9531   3.9613
  3.9773   3.9814   4.0100   4.0406   4.0724   4.1081   4.1343   4.1380
  4.1565   4.1702   4.2023   4.2127   4.2272   4.2743   4.2934   4.3336
  4.3530   4.3621   4.3894   4.4011   4.4098   4.4312   4.4396   4.4497
  4.4842   4.4886   4.5218   4.5563   4.5757   4.5874   4.5950   4.6038
  4.6303   4.6432   4.7054   4.7517   4.7900   4.8132   4.8431   4.8923
  4.9578   5.0690   5.0737   5.0788   5.0817   5.0846   5.1227   5.1464
  5.1797   5.1995   5.2062   5.2274   5.2585   5.2954   5.3177   5.3608
  5.4062   5.4389   5.5147   5.5198   5.5519   5.5774   5.5916   5.6026
  5.7230   5.7521   5.7623   5.8314   5.8555   5.8886   5.9118   5.9434
  6.0118   6.2778   6.6281   6.6460   6.7940   6.8549   6.9894   6.9995
  7.1312   7.1918   7.3211   7.3454   7.4012   7.5605   7.6743   7.7934
 24.2095  24.7902  24.7988  24.8056  25.0414  25.0671  25.5313  50.3992
 50.6152
 
 Beta MOs
 -- Occupied --
-19.3605 -19.3471 -10.3886 -10.3525 -10.3467 -10.3454 -10.3451 -10.3447
-10.3443  -1.1619  -1.0558  -0.9889  -0.8925  -0.8715  -0.7986  -0.7245
 -0.7036  -0.6370  -0.6144  -0.5737  -0.5693  -0.5529  -0.5374  -0.5243
 -0.5173  -0.4834  -0.4651  -0.4477  -0.4328  -0.4196  -0.3961  -0.3492
 -0.3447
 -- Virtual --
 -0.0627   0.0240   0.0358   0.0371   0.0497   0.0534   0.0564   0.0586
  0.0613   0.0830   0.0860   0.0893   0.0945   0.1071   0.1266   0.1383
  0.1391   0.1496   0.1525   0.1580   0.1606   0.1618   0.1631   0.1737
  0.1769   0.1789   0.1832   0.1940   0.2038   0.2082   0.2161   0.2171
  0.2193   0.2271   0.2467   0.2474   0.2614   0.2640   0.2693   0.2786
  0.2828   0.2851   0.2972   0.3055   0.3125   0.3221   0.3262   0.3302
  0.3436   0.3486   0.3507   0.3575   0.3614   0.3705   0.3770   0.3902
  0.4110   0.4249   0.4303   0.4415   0.4519   0.4556   0.4976   0.5336
  0.5373   0.5679   0.5822   0.5951   0.6018   0.6047   0.6148   0.6166
  0.6232   0.6281   0.6356   0.6428   0.6477   0.6596   0.6787   0.6866
  0.6952   0.7051   0.7109   0.7268   0.7313   0.7346   0.7387   0.7416
  0.7501   0.7574   0.7655   0.7867   0.7937   0.8104   0.8282   0.8309
  0.8417   0.8528   0.8557   0.8713   0.8913   0.8947   0.9002   0.9072
  0.9147   0.9333   0.9510   0.9642   1.0195   1.0252   1.0475   1.0619
  1.0728   1.0879   1.0967   1.1163   1.1313   1.1403   1.1494   1.1656
  1.1853   1.1938   1.1984   1.2207   1.2243   1.2368   1.2419   1.2605
  1.2679   1.2858   1.2979   1.3060   1.3199   1.3458   1.3632   1.3757
  1.3855   1.3965   1.4051   1.4198   1.4426   1.4452   1.4470   1.4659
  1.4717   1.4848   1.4908   1.5146   1.5309   1.5515   1.5734   1.5832
  1.5848   1.5915   1.6214   1.6427   1.6763   1.6952   1.7100   1.7141
  1.7377   1.7659   1.7865   1.8079   1.8223   1.8704   1.8855   1.9241
  1.9436   2.0021   2.0343   2.0595   2.0751   2.0871   2.1114   2.1238
  2.2069   2.2422   2.2775   2.3585   2.4149   2.4783   2.5687   2.5984
  2.6464   2.6537   2.6831   2.6868   2.7125   2.7535   2.7970   2.8056
  2.8251   2.8355   2.8407   2.8557   2.8714   2.8754   2.8834   2.8954
  2.9126   2.9182   2.9390   2.9433   2.9477   2.9612   2.9700   3.0045
  3.0154   3.0358   3.0532   3.0846   3.0866   3.1483   3.1632   3.1755
  3.1804   3.1969   3.2174   3.2230   3.2449   3.2532   3.2662   3.2797
  3.2900   3.3007   3.3235   3.3406   3.3594   3.3647   3.3728   3.3847
  3.4248   3.4450   3.4579   3.4667   3.4871   3.5036   3.5190   3.5371
  3.5460   3.5557   3.5749   3.5940   3.6110   3.6221   3.6412   3.6560
  3.6723   3.7467   3.7627   3.7838   3.8060   3.8091   3.8215   3.8306
  3.8461   3.8649   3.8837   3.8942   3.9127   3.9203   3.9355   3.9537
  3.9624   3.9786   3.9824   4.0134   4.0428   4.0774   4.1091   4.1351
  4.1386   4.1568   4.1714   4.2029   4.2136   4.2280   4.2748   4.2943
  4.3346   4.3535   4.3639   4.3926   4.4033   4.4108   4.4318   4.4414
  4.4507   4.4855   4.4903   4.5230   4.5572   4.5763   4.5886   4.5959
  4.6046   4.6308   4.6437   4.7065   4.7526   4.7907   4.8138   4.8443
  4.8932   4.9587   5.0723   5.1302   5.1373   5.1456   5.1506   5.1740
  5.1803   5.1905   5.2050   5.2302   5.2609   5.2956   5.3019   5.3220
  5.3644   5.4070   5.4631   5.5177   5.5281   5.5529   5.5926   5.6191
  5.6389   5.7236   5.7569   5.7630   5.8324   5.8555   5.8890   5.9119
  5.9442   6.0120   6.2784   6.6296   6.6466   6.9084   6.9796   7.0266
  7.1031   7.1383   7.2338   7.3227   7.3473   7.4110   7.5924   7.6949
  7.7944  24.2096  24.7903  24.7988  24.8058  25.0416  25.0672  25.5315
 50.4158  50.6151
 --------------------------------------------------------------
 
          Ground-State Mulliken Net Atomic Charges

     Atom                 Charge (a.u.)    Spin (a.u.)
  --------------------------------------------------------
      1 C                    -0.213365       0.003021
      2 C                    -0.344866       0.019268
      3 C                    -0.460354      -0.018255
      4 C                    -0.259399       0.023394
      5 C                    -0.252620      -0.005717
      6 C                     0.354572       0.022246
      7 C                    -0.606177      -0.003143
      8 H                     0.329146       0.001505
      9 H                     0.295033      -0.000197
     10 H                     0.276931       0.000143
     11 H                     0.290869      -0.000264
     12 H                     0.283090       0.000249
     13 H                     0.209692       0.000294
     14 O                    -0.418120       0.000307
     15 H                     0.214847      -0.000442
     16 H                     0.334683      -0.000552
     17 O                    -0.405881       0.966960
     18 H                     0.371918      -0.008817
  --------------------------------------------------------
  Sum of atomic charges =     0.000000
  Sum of spin   charges =     1.000000

 -----------------------------------------------------------------
                    Cartesian Multipole Moments
 -----------------------------------------------------------------
    Charge (ESU x 10^10)
                 0.0000
    Dipole Moment (Debye)
         X      -3.5916      Y       0.9013      Z      -2.0910
       Tot       4.2526
    Quadrupole Moments (Debye-Ang)
        XX     -58.1360     XY       3.8102     YY     -53.2213
        XZ       2.5383     YZ       0.4964     ZZ     -44.9214
    Octopole Moments (Debye-Ang^2)
       XXX     129.2839    XXY      12.1202    XYY      24.9185
       YYY      55.5511    XXZ     -15.0648    XYZ       7.6471
       YYZ       5.9865    XZZ      36.9834    YZZ      11.4852
       ZZZ     -17.0596
    Hexadecapole Moments (Debye-Ang^3)
      XXXX    -825.4246   XXXY    -135.3663   XXYY    -199.5091
      XYYY    -130.0025   YYYY    -552.2685   XXXZ      75.3815
      XXYZ      48.4919   XYYZ      18.9361   YYYZ     125.9696
      XXZZ    -213.3806   XYZZ     -51.9556   YYZZ    -175.4000
      XZZZ      65.6792   YZZZ     122.1775   ZZZZ    -429.0382
 -----------------------------------------------------------------
 Calculating analytic gradient of the SCF energy
 Gradient of CDS energy
            1           2           3           4           5           6
    1  -0.0000816   0.0001560  -0.0001343  -0.0002963  -0.0001118   0.0003608
    2   0.0003103   0.0000370  -0.0004126  -0.0003317   0.0002006  -0.0001921
    3   0.0000642   0.0004278   0.0002755  -0.0002436  -0.0002301  -0.0000521
            7           8           9          10          11          12
    1  -0.0002151   0.0001406   0.0000621  -0.0000592  -0.0001220  -0.0000611
    2   0.0011319   0.0001389  -0.0000254  -0.0001682  -0.0001415   0.0000610
    3  -0.0001381   0.0000239   0.0001965   0.0001058  -0.0000902  -0.0001515
           13          14          15          16          17          18
    1  -0.0001188  -0.0002042   0.0001961   0.0002113  -0.0000279   0.0003053
    2  -0.0002411  -0.0002009  -0.0000880  -0.0000043  -0.0001715   0.0000975
    3  -0.0001553   0.0002274   0.0001975  -0.0004834   0.0002041  -0.0001784
 Gradient of SCF Energy
            1           2           3           4           5           6
    1   0.0003150  -0.0013701   0.0030449   0.0038268   0.0024607  -0.0008259
    2  -0.0060622   0.0003417   0.0053700   0.0025198  -0.0000844   0.0008442
    3   0.0025680  -0.0050877  -0.0010592   0.0044352   0.0044412   0.0024347
            7           8           9          10          11          12
    1   0.0076270   0.0008551   0.0002894  -0.0014906  -0.0039021  -0.0026211
    2  -0.0110344   0.0039035  -0.0002692  -0.0034260  -0.0041734   0.0021224
    3   0.0028858   0.0012811   0.0026150   0.0020531  -0.0030606  -0.0107497
           13          14          15          16          17          18
    1  -0.0067570   0.0050542   0.0000282  -0.0055372   0.0003297  -0.0013270
    2   0.0023338   0.0133990   0.0052203  -0.0103284  -0.0023401   0.0016633
    3  -0.0073023   0.0123516   0.0046113  -0.0109639   0.0025826  -0.0040362
 Max gradient component =       1.340E-02
 RMS gradient           =       5.065E-03
 Computing fast CPCM-SWIG gradient
 Updating gradient with PCM contributions...
 -- total gradient after adding PCM contribution --
---------------------------------------------------
  Atom         X              Y              Z     
---------------------------------------------------
   1      -0.000008       0.000004      -0.000006
   2       0.000003      -0.000020       0.000004
   3      -0.000004      -0.000018       0.000000
   4      -0.000012       0.000004      -0.000032
   5      -0.000013      -0.000003      -0.000015
   6       0.000027       0.000006       0.000033
   7      -0.000043       0.000071      -0.000019
   8       0.000016      -0.000019       0.000007
   9      -0.000002      -0.000028      -0.000004
  10      -0.000010      -0.000014      -0.000020
  11      -0.000009       0.000008      -0.000020
  12      -0.000002       0.000018      -0.000005
  13       0.000014       0.000003       0.000018
  14      -0.000006      -0.000095       0.000098
  15       0.000021      -0.000002       0.000007
  16       0.000003       0.000047       0.000022
  17      -0.000067      -0.000045       0.000012
  18       0.000091       0.000082      -0.000079
---------------------------------------------------
 Number of fixed atoms: 0
 Gradient time:  CPU 296.35 s  wall 43.62 s
-Performing force calculation on product structure in state0
 ----------------------------------------------------------------
             Standard Nuclear Orientation (Angstroms)
    I     Atom           X                Y                Z
 ----------------------------------------------------------------
    1      C      -0.2542596760    -0.1569151992     0.8710836570
    2      C      -0.8036155710    -1.2923149211     1.6670020635
    3      C      -1.8644672355    -2.0242194152     1.2504607206
    4      C      -2.5194833084    -1.7298572797     0.0311881683
    5      C      -2.0840542602    -0.6413998786    -0.7538655327
    6      C      -1.0340578794     0.1369409775    -0.3779875803
    7      C      -0.6380017293     1.3493571057    -1.1605703751
    8      H      -0.2412024968     0.7498310146     1.4923417089
    9      H      -0.2961588760    -1.5251779196     2.5943367451
   10      H      -2.2196384613    -2.8492802655     1.8538789483
   11      H      -3.3549829241    -2.3316426759    -0.2951885752
   12      H      -2.6130721911    -0.4054837742    -1.6698057783
   13      H      -1.3037859454     1.4840010367    -2.0135755537
   14      O       0.7322403084     1.3057494936    -1.6016254552
   15      H      -0.7032972619     2.2365380501    -0.5286549834
   16      H       0.8069368767     0.5998055030    -2.2541238334
   17      O       1.1290250675    -0.4821261663     0.5645440325
   18      H       1.4202542639     0.1666275142    -0.0935069768
 ----------------------------------------------------------------
 Nuclear Repulsion Energy =         442.72433142 hartrees
 There are       34 alpha and       33 beta electrons
 Discretize the solute cavity surface with Lebedev spheres
	Using 110 Lebedev grid points for each H atom
	Using 194 Lebedev grid points for other atoms
	Atomic van der Waals radii will be scaled by 1.20
 Remove points where switching function is < 1.0e-08
 Keep 1292 surface tesserae and discard 1444 interior tesserae
 Molecular Surface Area = 151.012 Angst**2
 Applying Cartesian multipole field
    Component          Value
    ---------          -----
     (2,0,0)        1.00000E-11
     (0,2,0)        2.00000E-11
     (0,0,2)       -3.00000E-11
 Nucleus-field energy     =     0.0000000029 hartrees
 Requested basis set is 6-311++G(2df,2p)
 There are 126 shells and 396 basis functions
 A cutoff of  1.0D-12 yielded   7279 shell pairs
 There are     72837 function pairs (     90443 Cartesian)
 Smallest overlap matrix eigenvalue = 1.25E-06
 Guess from superposition of atomic densities
 Warning:  Energy on first SCF cycle will be non-variational
 SAD guess density has 67.000000 electrons

 -----------------------------------------------------------------------
  General SCF calculation program by
  Eric Jon Sundstrom, Paul Horn, Yuezhi Mao, Dmitri Zuev, Alec White,
  David Stuck, Shaama M.S., Shane Yost, Joonho Lee, David Small,
  Daniel Levine, Susi Lehtola, Hugh Burton, Evgeny Epifanovsky,
  Bang C. Huynh
 -----------------------------------------------------------------------
 Exchange:     0.1500 Hartree-Fock + 1.0000 wB97M-V + LR-HF
 Correlation:  1.0000 wB97M-V
 Using SG-2 standard quadrature grid
 Nonlocal Correlation:  VV10 with C = 0.0100 and b = 6.00 and scale = 1.00000
 Grid used for NLC:  SG-1 standard quadrature
 
 Citation of the SMD model:
 Marenich, A.V.; Cramer, C.J.; Truhlar, D.G.
 J. Phys. Chem. B 2009, 113, 6378-6396.
 iSolventCode=           1
 Solvent: water                                                           
 
 vradii
            1           2           3           4           5           6
    1   1.8500000   1.8500000   1.8500000   1.8500000   1.8500000   1.8500000
            7           8           9          10          11          12
    1   1.8500000   1.2000000   1.2000000   1.2000000   1.2000000   1.2000000
           13          14          15          16          17          18
    1   1.2000000   1.5200000   1.2000000   1.2000000   1.5200000   1.2000000
 -------------------------------------------------------
 OpenMP BLAS3 based DFT computing Module                
 Release: version 1.0, May 2013, Q-Chem Inc. Pittsburgh 
 -------------------------------------------------------
 A unrestricted SCF calculation will be
 performed using DIIS, GDM
 SCF converges when RMS gradient is below 1.0e-07
 ---------------------------------------
  Cycle       Energy         DIIS error
 ---------------------------------------
    1    -425.1305558903      1.27e-02  
    2    -422.4325510493      1.19e-03  Done DIIS. Switching to GDM
 ---------------------------------------
  Cycle       Energy        RMS Gradient
 ---------------------------------------
    1    -422.4325510493      3.88e-02   Descent step
    2    -422.5212801491      1.76e-02   Normal BFGS step
    3    -422.5332567231      9.09e-03   Normal BFGS step
    4    -422.5350085883      6.66e-03   Normal BFGS step
    5    -422.5354629032      4.30e-03   Normal BFGS step
    6    -422.5356074499      1.32e-03   Normal BFGS step
    7    -422.5356237200      5.09e-04   Normal BFGS step
    8    -422.5356289265      4.48e-04   Normal BFGS step
    9    -422.5356298009      3.28e-04   Normal BFGS step
   10    -422.5356301806      1.09e-04   Normal BFGS step
   11    -422.5356302770      3.37e-05   Normal BFGS step
   12    -422.5356302887      3.17e-05   Normal BFGS step
   13    -422.5356302919      1.29e-05   Normal BFGS step
   14    -422.5356302927      8.82e-06   Normal BFGS step
   15    -422.5356302931      3.29e-06   Normal BFGS step
   16    -422.5356302932      1.38e-06   Normal BFGS step
   17    -422.5356302932      3.42e-07   Normal BFGS step
   18    -422.5356302933      1.73e-07   Normal BFGS step
   19    -422.5356302933      4.54e-08  Convergence criterion met
 ---------------------------------------
 SCF time:   CPU 2108.04s  wall 267.00s 
<S^2> =          0.789117470
(3)  G-ENP(liq) elect-nuc-pol free energy of system     -422.535630293 a.u.
(4)  G-CDS(liq) cavity-dispersion-solvent structure 
     free energy                                                3.3771 kcal/mol
(6)  G-S(liq) free energy of system                     -422.530248614 a.u.
 SCF   energy in the final basis set =     -422.5302486142
 Total energy in the final basis set =     -422.5302486142
 
 --------------------------------------------------------------
 
                    Orbital Energies (a.u.)
 --------------------------------------------------------------
 
 Alpha MOs
 -- Occupied --
-19.3429 -19.3320 -10.3983 -10.3877 -10.3547 -10.3524 -10.3476 -10.3438
-10.3427  -1.1630  -1.1447  -0.9776  -0.8966  -0.8653  -0.7979  -0.7368
 -0.7083  -0.6392  -0.6227  -0.6025  -0.5858  -0.5606  -0.5457  -0.5279
 -0.5222  -0.4981  -0.4787  -0.4529  -0.4418  -0.4399  -0.3941  -0.3826
 -0.3646  -0.2698
 -- Virtual --
  0.0239   0.0356   0.0374   0.0457   0.0562   0.0568   0.0648   0.0730
  0.0800   0.0864   0.0958   0.1054   0.1197   0.1312   0.1380   0.1392
  0.1422   0.1529   0.1593   0.1607   0.1612   0.1668   0.1727   0.1770
  0.1792   0.1853   0.1996   0.2006   0.2068   0.2084   0.2162   0.2170
  0.2253   0.2354   0.2410   0.2577   0.2617   0.2688   0.2723   0.2801
  0.2883   0.2952   0.3029   0.3159   0.3186   0.3280   0.3299   0.3362
  0.3519   0.3616   0.3663   0.3719   0.3768   0.3805   0.3874   0.3986
  0.4013   0.4066   0.4303   0.4467   0.4498   0.4638   0.5028   0.5310
  0.5522   0.5619   0.5752   0.5835   0.5907   0.6042   0.6095   0.6133
  0.6175   0.6225   0.6288   0.6387   0.6630   0.6669   0.6759   0.6782
  0.6868   0.7007   0.7075   0.7186   0.7268   0.7298   0.7380   0.7463
  0.7568   0.7645   0.7652   0.7802   0.7935   0.8120   0.8184   0.8277
  0.8320   0.8381   0.8399   0.8520   0.8717   0.8844   0.8998   0.9137
  0.9445   0.9459   0.9707   1.0147   1.0363   1.0546   1.0583   1.0648
  1.0837   1.0886   1.1151   1.1204   1.1487   1.1508   1.1587   1.1693
  1.1989   1.2191   1.2273   1.2334   1.2566   1.2581   1.2678   1.2819
  1.2916   1.3045   1.3105   1.3319   1.3466   1.3487   1.3702   1.3901
  1.3963   1.4019   1.4179   1.4300   1.4351   1.4517   1.4580   1.4736
  1.4857   1.5001   1.5067   1.5176   1.5249   1.5354   1.5571   1.5686
  1.5912   1.6057   1.6210   1.6280   1.6453   1.6789   1.6945   1.7188
  1.7610   1.7851   1.7978   1.8175   1.8755   1.8857   1.9058   1.9609
  2.0089   2.0506   2.0691   2.0748   2.1094   2.1242   2.1564   2.1936
  2.2645   2.2799   2.3360   2.3711   2.4203   2.4616   2.5691   2.5993
  2.6045   2.6487   2.6759   2.7081   2.7431   2.7594   2.7921   2.8036
  2.8222   2.8302   2.8372   2.8570   2.8664   2.8849   2.8978   2.9095
  2.9223   2.9262   2.9385   2.9592   2.9621   2.9858   2.9962   3.0060
  3.0293   3.0649   3.0834   3.0960   3.1056   3.1209   3.1734   3.1985
  3.2078   3.2158   3.2335   3.2481   3.2686   3.2723   3.2970   3.3007
  3.3134   3.3356   3.3388   3.3668   3.3757   3.3895   3.4115   3.4226
  3.4449   3.4548   3.4747   3.4792   3.4961   3.5027   3.5273   3.5336
  3.5532   3.5760   3.5995   3.6130   3.6426   3.6625   3.6749   3.7040
  3.7243   3.7498   3.7687   3.7827   3.7967   3.8044   3.8311   3.8345
  3.8470   3.8627   3.8695   3.8956   3.8986   3.9259   3.9357   3.9628
  3.9685   3.9786   4.0056   4.0157   4.0490   4.0594   4.0820   4.1099
  4.1500   4.1579   4.1663   4.2022   4.2132   4.2433   4.2670   4.2683
  4.3076   4.3126   4.3431   4.3563   4.3790   4.3937   4.4091   4.4208
  4.4298   4.4507   4.4678   4.4898   4.4976   4.5406   4.5519   4.5704
  4.6094   4.6122   4.6353   4.6735   4.6871   4.7148   4.7831   4.8009
  4.8522   4.8820   4.9792   5.0337   5.1382   5.1504   5.1833   5.2123
  5.2517   5.2803   5.3058   5.3211   5.3398   5.3691   5.3816   5.4134
  5.4972   5.5250   5.5533   5.5624   5.6148   5.6185   5.6765   5.7027
  5.7205   5.7319   5.7789   5.8213   5.8692   5.9108   5.9316   5.9940
  6.0215   6.1515   6.4299   6.5556   6.5990   7.0927   7.1517   7.2824
  7.3073   7.3672   7.3731   7.3830   7.4449   7.6467   7.6832   7.7733
  7.8420  24.2482  24.6205  24.7765  24.8175  24.8718  25.0983  25.4000
 50.6102  50.6380
 
 Beta MOs
 -- Occupied --
-19.3423 -19.3303 -10.3990 -10.3881 -10.3494 -10.3463 -10.3453 -10.3448
-10.3423  -1.1610  -1.1416  -0.9709  -0.8907  -0.8560  -0.7972  -0.7276
 -0.7034  -0.6366  -0.6178  -0.6001  -0.5786  -0.5557  -0.5418  -0.5247
 -0.5194  -0.4933  -0.4753  -0.4390  -0.4382  -0.4249  -0.3905  -0.3792
 -0.3468
 -- Virtual --
 -0.0265   0.0238   0.0354   0.0375   0.0455   0.0559   0.0569   0.0723
  0.0774   0.0837   0.0863   0.0950   0.1055   0.1191   0.1335   0.1390
  0.1404   0.1440   0.1537   0.1596   0.1604   0.1619   0.1665   0.1737
  0.1772   0.1799   0.1856   0.1992   0.2013   0.2064   0.2084   0.2168
  0.2205   0.2301   0.2358   0.2424   0.2566   0.2619   0.2690   0.2730
  0.2797   0.2880   0.2962   0.3045   0.3163   0.3206   0.3298   0.3309
  0.3376   0.3527   0.3632   0.3698   0.3740   0.3777   0.3817   0.3901
  0.4005   0.4045   0.4086   0.4306   0.4489   0.4522   0.4667   0.5033
  0.5326   0.5538   0.5657   0.5788   0.5869   0.5942   0.6087   0.6120
  0.6183   0.6224   0.6236   0.6298   0.6418   0.6656   0.6681   0.6793
  0.6839   0.6892   0.7042   0.7116   0.7212   0.7304   0.7344   0.7410
  0.7492   0.7583   0.7673   0.7676   0.7823   0.7980   0.8164   0.8236
  0.8311   0.8348   0.8387   0.8460   0.8555   0.8747   0.8866   0.9028
  0.9153   0.9477   0.9480   0.9725   1.0173   1.0378   1.0566   1.0606
  1.0663   1.0852   1.0891   1.1170   1.1220   1.1509   1.1525   1.1610
  1.1715   1.2012   1.2208   1.2287   1.2346   1.2575   1.2604   1.2690
  1.2833   1.2937   1.3058   1.3141   1.3356   1.3496   1.3517   1.3722
  1.3930   1.3988   1.4065   1.4221   1.4337   1.4394   1.4563   1.4610
  1.4780   1.4876   1.5019   1.5125   1.5201   1.5282   1.5378   1.5606
  1.5734   1.5953   1.6074   1.6232   1.6306   1.6475   1.6814   1.6976
  1.7235   1.7632   1.7896   1.8040   1.8273   1.8780   1.8895   1.9107
  1.9640   2.0138   2.0550   2.0740   2.0807   2.1124   2.1272   2.1598
  2.1954   2.2675   2.2829   2.3381   2.3733   2.4216   2.4635   2.5779
  2.6057   2.6145   2.6542   2.6825   2.7121   2.7505   2.7665   2.8010
  2.8224   2.8347   2.8381   2.8452   2.8702   2.8752   2.8954   2.9040
  2.9204   2.9318   2.9436   2.9546   2.9674   2.9777   3.0030   3.0116
  3.0228   3.0395   3.0796   3.0947   3.1057   3.1205   3.1301   3.1793
  3.2057   3.2165   3.2261   3.2386   3.2571   3.2765   3.2823   3.3069
  3.3099   3.3249   3.3413   3.3437   3.3731   3.3881   3.3968   3.4163
  3.4311   3.4525   3.4607   3.4839   3.4869   3.5059   3.5140   3.5327
  3.5426   3.5672   3.5850   3.6164   3.6288   3.6476   3.6728   3.6838
  3.7110   3.7323   3.7573   3.7776   3.7904   3.8060   3.8107   3.8335
  3.8392   3.8578   3.8764   3.8801   3.9040   3.9076   3.9350   3.9425
  3.9696   3.9768   3.9872   4.0126   4.0236   4.0559   4.0663   4.0862
  4.1148   4.1603   4.1654   4.1747   4.2071   4.2193   4.2511   4.2754
  4.2773   4.3113   4.3210   4.3496   4.3625   4.3836   4.4001   4.4183
  4.4264   4.4405   4.4605   4.4750   4.4988   4.5094   4.5511   4.5617
  4.5797   4.6194   4.6229   4.6502   4.6867   4.6990   4.7234   4.7913
  4.8105   4.8621   4.8917   4.9947   5.0468   5.1514   5.1623   5.1954
  5.2220   5.2617   5.2828   5.3082   5.3250   5.3430   5.3738   5.3844
  5.4176   5.5007   5.5296   5.5578   5.5692   5.6224   5.6269   5.6794
  5.7040   5.7275   5.7348   5.7806   5.8370   5.8730   5.9197   5.9398
  5.9992   6.0239   6.1626   6.4397   6.5603   6.6014   7.0943   7.1538
  7.2847   7.3090   7.3699   7.3770   7.3872   7.4481   7.6490   7.6863
  7.7758   7.8472  24.2499  24.6221  24.7769  24.8192  24.8758  25.0998
 25.4026  50.6109  50.6393
 --------------------------------------------------------------
 
          Ground-State Mulliken Net Atomic Charges

     Atom                 Charge (a.u.)    Spin (a.u.)
  --------------------------------------------------------
      1 C                    -0.751910       0.023445
      2 C                     0.187199       0.341769
      3 C                    -0.554847      -0.127614
      4 C                    -0.262923       0.495737
      5 C                    -0.883143      -0.123718
      6 C                     0.972678       0.322105
      7 C                    -0.387187      -0.008698
      8 H                     0.213712       0.037238
      9 H                     0.312096      -0.009674
     10 H                     0.290253       0.005487
     11 H                     0.310280      -0.011700
     12 H                     0.268185       0.006800
     13 H                     0.241736       0.000133
     14 O                    -0.402117       0.005049
     15 H                     0.212910       0.014077
     16 H                     0.332889       0.000461
     17 O                    -0.437218       0.024494
     18 H                     0.337407       0.004609
  --------------------------------------------------------
  Sum of atomic charges =     0.000000
  Sum of spin   charges =     1.000000

 -----------------------------------------------------------------
                    Cartesian Multipole Moments
 -----------------------------------------------------------------
    Charge (ESU x 10^10)
                 0.0000
    Dipole Moment (Debye)
         X      -3.4136      Y       0.5444      Z      -1.7664
       Tot       3.8819
    Quadrupole Moments (Debye-Ang)
        XX     -53.5147     XY       2.4757     YY     -55.2685
        XZ       0.9005     YZ       0.8020     ZZ     -47.8071
    Octopole Moments (Debye-Ang^2)
       XXX     120.8202    XXY       8.7238    XYY      25.3058
       YYY      54.9463    XXZ     -14.7688    XYZ       8.2426
       YYZ       9.7965    XZZ      39.9867    YZZ      13.0772
       ZZZ     -15.7097
    Hexadecapole Moments (Debye-Ang^3)
      XXXX    -733.4787   XXXY    -140.8715   XXYY    -192.9531
      XYYY    -164.2814   YYYY    -571.5257   XXXZ      46.5569
      XXYZ      56.6314   XYYZ       5.2206   YYYZ     155.2242
      XXZZ    -201.1962   XYZZ     -63.9094   YYZZ    -173.8066
      XZZZ      29.6037   YZZZ     149.3245   ZZZZ    -430.5380
 -----------------------------------------------------------------
 Calculating analytic gradient of the SCF energy
 Gradient of CDS energy
            1           2           3           4           5           6
    1   0.0001759   0.0001890  -0.0000995  -0.0004367  -0.0000227   0.0002457
    2   0.0000677  -0.0000335  -0.0003521  -0.0003113   0.0001917  -0.0000301
    3  -0.0000280   0.0003353   0.0003276  -0.0001847  -0.0003151   0.0001148
            7           8           9          10          11          12
    1  -0.0002776  -0.0000004   0.0001448  -0.0000685  -0.0001556  -0.0000549
    2   0.0009652   0.0002015  -0.0000240  -0.0001591  -0.0001121   0.0000915
    3  -0.0004337   0.0000785   0.0001607   0.0001163  -0.0000608  -0.0001658
           13          14          15          16          17          18
    1  -0.0000904  -0.0001716   0.0001504   0.0002824  -0.0002529   0.0004427
    2  -0.0002190  -0.0002029  -0.0000212  -0.0000805  -0.0000657   0.0000939
    3  -0.0000765   0.0002071   0.0002746  -0.0004227   0.0000688   0.0000035
 Gradient of SCF Energy
            1           2           3           4           5           6
    1   0.0024802  -0.0068113   0.0046857   0.0047900   0.0009300   0.0017032
    2  -0.0029845   0.0031889   0.0038366   0.0006344  -0.0084287   0.0082502
    3  -0.0085530  -0.0015734  -0.0003661   0.0044926   0.0064959   0.0058877
            7           8           9          10          11          12
    1   0.0115051  -0.0011615  -0.0007825  -0.0018709  -0.0055139  -0.0043356
    2  -0.0088301   0.0031101   0.0001475  -0.0033483  -0.0037602   0.0025624
    3   0.0024274   0.0010223   0.0011155   0.0023186  -0.0022529  -0.0082721
           13          14          15          16          17          18
    1  -0.0056261  -0.0001216  -0.0024816  -0.0004651   0.0046129  -0.0015368
    2   0.0002788   0.0136948   0.0050006  -0.0102042  -0.0057269   0.0025785
    3  -0.0070957   0.0084979   0.0041709  -0.0085001   0.0024451  -0.0022604
 Max gradient component =       1.369E-02
 RMS gradient           =       5.239E-03
 Computing fast CPCM-SWIG gradient
 Updating gradient with PCM contributions...
 -- total gradient after adding PCM contribution --
---------------------------------------------------
  Atom         X              Y              Z     
---------------------------------------------------
   1      -0.000096       0.000016       0.000057
   2      -0.000004      -0.000048      -0.000018
   3       0.000041       0.000016       0.000017
   4       0.000040       0.000040      -0.000035
   5      -0.000030      -0.000003       0.000029
   6      -0.000063      -0.000031      -0.000009
   7      -0.000013       0.000084       0.000018
   8      -0.000033      -0.000020      -0.000005
   9      -0.000018      -0.000023      -0.000011
  10       0.000000      -0.000023      -0.000028
  11       0.000014      -0.000021      -0.000030
  12       0.000017       0.000027      -0.000007
  13       0.000009      -0.000010       0.000026
  14      -0.000025       0.000019      -0.000002
  15      -0.000002      -0.000009       0.000011
  16      -0.000001       0.000026      -0.000003
  17       0.000104      -0.000003       0.000037
  18       0.000060      -0.000039      -0.000048
---------------------------------------------------
 Number of fixed atoms: 0
 Gradient time:  CPU 310.71 s  wall 44.70 s

STARTING FREEZING STRING ITERATION # 1
 The distance between the innermost nodes (Angstroms): 1.813
-Adding two new nodes
 The distance between the previous and current R_nodes (Angstroms): 0.0897
 The distance between the previous and current P_nodes (Angstroms): 0.0932
-Optimizing new reactant side node
 Using BFGS, step: 2 E_tol 0.0246
 max_steps 6, node_spacing 0.0906, sigma 0.7000
 ----------------------------------------------------------------
             Standard Nuclear Orientation (Angstroms)
    I     Atom           X                Y                Z
 ----------------------------------------------------------------
    1      C      -0.6949793598     0.0576627600     1.1258615681
    2      C      -1.0946766960    -1.0695337093     1.8419239602
    3      C      -1.9178450010    -2.0113659816     1.2458968139
    4      C      -2.3490159690    -1.8259330923    -0.0639744451
    5      C      -1.9534994850    -0.7010894672    -0.7753731429
    6      C      -1.1260997709     0.2497761786    -0.1893799591
    7      C      -0.6388846393     1.4294287610    -0.9828603507
    8      H      -0.1015699242     0.8240247276     1.6085654197
    9      H      -0.7614391121    -1.2062016207     2.8619638318
   10      H      -2.2291588023    -2.8862634549     1.8003974304
   11      H      -2.9959668687    -2.5578563249    -0.5281225107
   12      H      -2.2916416796    -0.5554468116    -1.7943005335
   13      H      -1.3945317283     1.7616587836    -1.6943185011
   14      O       0.5775896796     1.1172527298    -1.6903092346
   15      H      -0.3912588808     2.2580610563    -0.3234411795
   16      H       0.3534402283     0.5144836144    -2.4089410937
   17      O       1.7109407067    -0.7327765607     0.1155074825
   18      H       1.4564028629    -0.0774072476    -0.5749828392
 ----------------------------------------------------------------
 Nuclear Repulsion Energy =         428.93901212 hartrees
 There are       34 alpha and       33 beta electrons
 Discretize the solute cavity surface with Lebedev spheres
	Using 110 Lebedev grid points for each H atom
	Using 194 Lebedev grid points for other atoms
	Atomic van der Waals radii will be scaled by 1.20
 Remove points where switching function is < 1.0e-08
 Keep 1344 surface tesserae and discard 1392 interior tesserae
 Molecular Surface Area = 159.901 Angst**2
 Applying Cartesian multipole field
    Component          Value
    ---------          -----
     (2,0,0)        1.00000E-11
     (0,2,0)        2.00000E-11
     (0,0,2)       -3.00000E-11
 Nucleus-field energy     =     0.0000000026 hartrees
 Requested basis set is 6-311++G(2df,2p)
 There are 126 shells and 396 basis functions
 A cutoff of  1.0D-12 yielded   7253 shell pairs
 There are     72421 function pairs (     89803 Cartesian)
 Smallest overlap matrix eigenvalue = 7.02E-07
 Linear dependence detected in AO basis
 Tighter screening thresholds may be required for diffuse basis sets
 Use S2THRESH > 14 and THRESH = 14 in case of SCF convergence issues
 Number of orthogonalized atomic orbitals = 395
 Maximum deviation from orthogonality = 6.957E-11
 Guess from superposition of atomic densities
 Warning:  Energy on first SCF cycle will be non-variational
 SAD guess density has 67.000000 electrons

 -----------------------------------------------------------------------
  General SCF calculation program by
  Eric Jon Sundstrom, Paul Horn, Yuezhi Mao, Dmitri Zuev, Alec White,
  David Stuck, Shaama M.S., Shane Yost, Joonho Lee, David Small,
  Daniel Levine, Susi Lehtola, Hugh Burton, Evgeny Epifanovsky,
  Bang C. Huynh
 -----------------------------------------------------------------------
 Exchange:     0.1500 Hartree-Fock + 1.0000 wB97M-V + LR-HF
 Correlation:  1.0000 wB97M-V
 Using SG-2 standard quadrature grid
 Nonlocal Correlation:  VV10 with C = 0.0100 and b = 6.00 and scale = 1.00000
 Grid used for NLC:  SG-1 standard quadrature
 
 Citation of the SMD model:
 Marenich, A.V.; Cramer, C.J.; Truhlar, D.G.
 J. Phys. Chem. B 2009, 113, 6378-6396.
 iSolventCode=           1
 Solvent: water                                                           
 
 vradii
            1           2           3           4           5           6
    1   1.8500000   1.8500000   1.8500000   1.8500000   1.8500000   1.8500000
            7           8           9          10          11          12
    1   1.8500000   1.2000000   1.2000000   1.2000000   1.2000000   1.2000000
           13          14          15          16          17          18
    1   1.2000000   1.5200000   1.2000000   1.2000000   1.5200000   1.2000000
 -------------------------------------------------------
 OpenMP BLAS3 based DFT computing Module                
 Release: version 1.0, May 2013, Q-Chem Inc. Pittsburgh 
 -------------------------------------------------------
 A unrestricted SCF calculation will be
 performed using DIIS, GDM
 SCF converges when RMS gradient is below 1.0e-07
 ---------------------------------------
  Cycle       Energy         DIIS error
 ---------------------------------------
    1    -424.8182936313      1.25e-02  
    2    -422.2821164742      1.66e-03  Done DIIS. Switching to GDM
 ---------------------------------------
  Cycle       Energy        RMS Gradient
 ---------------------------------------
    1    -422.2821164742      4.59e-01   Descent step
    2    -422.4593655236      2.92e-02   Normal BFGS step
    3    -422.4838977924      7.35e-02   Normal BFGS step
    4    -422.4952886539      4.88e-02   Normal BFGS step
    5    -422.5037425989      2.55e-02   Normal BFGS step
    6    -422.5037899922      4.79e-02   Normal BFGS step
    7    -422.5099751972      6.09e-03   Normal BFGS step
    8    -422.5106469654      3.06e-03   Normal BFGS step
    9    -422.5107861092      1.88e-03   Normal BFGS step
   10    -422.5108113035      1.33e-03   Normal BFGS step
   11    -422.5108198283      6.02e-04   Normal BFGS step
   12    -422.5108242160      3.26e-04   Normal BFGS step
   13    -422.5108255971      3.18e-04   Normal BFGS step
   14    -422.5108260633      3.03e-04   Normal BFGS step
   15    -422.5108263114      2.89e-04   Normal BFGS step
   16    -422.5108265725      2.68e-04   Normal BFGS step
   17    -422.5108269916      2.23e-04   Normal BFGS step
   18    -422.5108276127      1.58e-04   Normal BFGS step
   19    -422.5108281765      1.29e-04   Normal BFGS step
   20    -422.5108284149      8.42e-05   Normal BFGS step
   21    -422.5108284574      2.64e-05   Normal BFGS step
   22    -422.5108284642      1.41e-05   Normal BFGS step
   23    -422.5108284658      7.65e-06   Normal BFGS step
   24    -422.5108284663      4.42e-06   Normal BFGS step
   25    -422.5108284664      1.91e-06   Normal BFGS step
   26    -422.5108284664      1.01e-06   Normal BFGS step
   27    -422.5108284664      4.69e-07   Normal BFGS step
   28    -422.5108284664      1.37e-07   Normal BFGS step
   29    -422.5108284664      7.77e-08  Convergence criterion met
 ---------------------------------------
 SCF time:   CPU 3095.59s  wall 392.00s 
<S^2> =          0.754194921
(3)  G-ENP(liq) elect-nuc-pol free energy of system     -422.510828466 a.u.
(4)  G-CDS(liq) cavity-dispersion-solvent structure 
     free energy                                                3.3301 kcal/mol
(6)  G-S(liq) free energy of system                     -422.505521557 a.u.
 SCF   energy in the final basis set =     -422.5055215570
 Total energy in the final basis set =     -422.5055215570
 
 --------------------------------------------------------------
 
                    Orbital Energies (a.u.)
 --------------------------------------------------------------
 
 Alpha MOs
 -- Occupied --
-19.3829 -19.3469 -10.3886 -10.3537 -10.3483 -10.3462 -10.3460 -10.3447
-10.3444  -1.1624  -1.1224  -0.9895  -0.8935  -0.8720  -0.7989  -0.7256
 -0.7040  -0.6373  -0.6163  -0.5839  -0.5699  -0.5644  -0.5403  -0.5257
 -0.5208  -0.5103  -0.4780  -0.4642  -0.4500  -0.4477  -0.4331  -0.3972
 -0.3481  -0.3434
 -- Virtual --
  0.0238   0.0356   0.0369   0.0480   0.0528   0.0558   0.0582   0.0592
  0.0816   0.0858   0.0893   0.0941   0.1062   0.1255   0.1377   0.1382
  0.1484   0.1519   0.1584   0.1605   0.1611   0.1628   0.1734   0.1767
  0.1790   0.1822   0.1929   0.2033   0.2067   0.2149   0.2169   0.2184
  0.2267   0.2458   0.2467   0.2606   0.2625   0.2676   0.2781   0.2828
  0.2840   0.2981   0.3035   0.3098   0.3232   0.3242   0.3269   0.3443
  0.3475   0.3485   0.3554   0.3608   0.3703   0.3765   0.3884   0.4102
  0.4246   0.4298   0.4401   0.4515   0.4546   0.4984   0.5317   0.5360
  0.5660   0.5811   0.5939   0.6017   0.6034   0.6144   0.6162   0.6219
  0.6275   0.6326   0.6409   0.6468   0.6581   0.6780   0.6840   0.6941
  0.7033   0.7100   0.7259   0.7298   0.7332   0.7369   0.7417   0.7487
  0.7550   0.7657   0.7865   0.7928   0.8094   0.8257   0.8298   0.8413
  0.8520   0.8548   0.8687   0.8907   0.8930   0.8982   0.9073   0.9139
  0.9304   0.9504   0.9629   1.0149   1.0249   1.0470   1.0601   1.0736
  1.0878   1.0978   1.1151   1.1288   1.1408   1.1500   1.1629   1.1865
  1.1902   1.1931   1.2151   1.2198   1.2346   1.2393   1.2524   1.2649
  1.2741   1.2951   1.3059   1.3182   1.3382   1.3587   1.3706   1.3841
  1.3958   1.4022   1.4153   1.4408   1.4438   1.4469   1.4636   1.4720
  1.4812   1.4911   1.5129   1.5292   1.5505   1.5698   1.5812   1.5841
  1.5918   1.6199   1.6287   1.6519   1.6936   1.7060   1.7096   1.7338
  1.7520   1.7837   1.8073   1.8219   1.8638   1.8771   1.9125   1.9327
  1.9861   2.0187   2.0582   2.0732   2.0857   2.1070   2.1252   2.1963
  2.2416   2.2761   2.3532   2.4106   2.4708   2.5681   2.5976   2.6455
  2.6531   2.6784   2.6868   2.7105   2.7551   2.7959   2.8042   2.8231
  2.8328   2.8398   2.8508   2.8707   2.8735   2.8825   2.8922   2.9135
  2.9177   2.9382   2.9448   2.9491   2.9641   2.9673   3.0049   3.0171
  3.0345   3.0494   3.0803   3.0886   3.1491   3.1613   3.1740   3.1793
  3.1938   3.2145   3.2235   3.2436   3.2546   3.2669   3.2800   3.2890
  3.3017   3.3208   3.3393   3.3572   3.3626   3.3722   3.3844   3.4260
  3.4443   3.4590   3.4648   3.4854   3.5049   3.5156   3.5394   3.5465
  3.5556   3.5737   3.5932   3.6120   3.6176   3.6350   3.6592   3.6721
  3.7454   3.7589   3.7804   3.7978   3.8070   3.8205   3.8292   3.8406
  3.8654   3.8827   3.8921   3.9105   3.9211   3.9330   3.9512   3.9620
  3.9726   3.9855   4.0149   4.0404   4.0736   4.1034   4.1332   4.1397
  4.1576   4.1677   4.2011   4.2186   4.2270   4.2718   4.2959   4.3310
  4.3559   4.3614   4.3863   4.3976   4.4097   4.4278   4.4393   4.4487
  4.4843   4.4914   4.5153   4.5529   4.5741   4.5841   4.5952   4.6017
  4.6282   4.6419   4.7042   4.7494   4.7891   4.8111   4.8389   4.8917
  4.9549   5.0670   5.0748   5.0812   5.0852   5.0875   5.1239   5.1529
  5.1787   5.1989   5.2132   5.2264   5.2563   5.2942   5.3170   5.3592
  5.4046   5.4383   5.5116   5.5184   5.5527   5.5817   5.5924   5.6063
  5.7229   5.7502   5.7633   5.8291   5.8546   5.8847   5.9127   5.9393
  6.0118   6.2733   6.6274   6.6397   6.8038   6.8664   6.9936   7.0053
  7.1295   7.1980   7.3191   7.3469   7.4023   7.5618   7.6730   7.7942
 24.2087  24.7830  24.7985  24.8075  25.0365  25.0635  25.5262  50.4041
 50.6147
 
 Beta MOs
 -- Occupied --
-19.3591 -19.3470 -10.3887 -10.3532 -10.3480 -10.3459 -10.3456 -10.3449
-10.3446  -1.1618  -1.0557  -0.9888  -0.8929  -0.8713  -0.7988  -0.7249
 -0.7035  -0.6370  -0.6143  -0.5741  -0.5690  -0.5525  -0.5379  -0.5239
 -0.5179  -0.4836  -0.4650  -0.4475  -0.4331  -0.4186  -0.3962  -0.3489
 -0.3453
 -- Virtual --
 -0.0626   0.0240   0.0358   0.0371   0.0496   0.0536   0.0565   0.0588
  0.0612   0.0831   0.0859   0.0893   0.0945   0.1070   0.1264   0.1385
  0.1396   0.1490   0.1524   0.1586   0.1607   0.1616   0.1629   0.1737
  0.1768   0.1792   0.1830   0.1939   0.2036   0.2073   0.2160   0.2171
  0.2190   0.2269   0.2463   0.2474   0.2620   0.2638   0.2686   0.2785
  0.2831   0.2864   0.2987   0.3067   0.3132   0.3240   0.3269   0.3289
  0.3448   0.3483   0.3507   0.3571   0.3617   0.3704   0.3767   0.3901
  0.4116   0.4256   0.4301   0.4410   0.4522   0.4565   0.4992   0.5332
  0.5365   0.5667   0.5823   0.5944   0.6022   0.6050   0.6146   0.6167
  0.6234   0.6280   0.6346   0.6421   0.6473   0.6592   0.6789   0.6862
  0.6946   0.7042   0.7111   0.7263   0.7311   0.7336   0.7371   0.7421
  0.7492   0.7555   0.7659   0.7869   0.7934   0.8102   0.8264   0.8307
  0.8438   0.8530   0.8556   0.8692   0.8911   0.8937   0.8988   0.9079
  0.9150   0.9320   0.9523   0.9639   1.0171   1.0268   1.0491   1.0612
  1.0742   1.0912   1.0990   1.1193   1.1310   1.1430   1.1513   1.1643
  1.1872   1.1953   1.1999   1.2211   1.2222   1.2381   1.2420   1.2597
  1.2686   1.2869   1.2990   1.3092   1.3189   1.3453   1.3596   1.3776
  1.3850   1.3974   1.4057   1.4178   1.4415   1.4450   1.4475   1.4645
  1.4728   1.4822   1.4922   1.5139   1.5320   1.5511   1.5733   1.5813
  1.5848   1.5930   1.6214   1.6481   1.6848   1.6974   1.7114   1.7141
  1.7409   1.7817   1.7873   1.8104   1.8233   1.8690   1.8796   1.9203
  1.9418   2.0003   2.0331   2.0625   2.0742   2.0870   2.1108   2.1265
  2.2003   2.2439   2.2798   2.3587   2.4132   2.4753   2.5692   2.5981
  2.6463   2.6538   2.6792   2.6877   2.7122   2.7560   2.7964   2.8055
  2.8253   2.8354   2.8420   2.8531   2.8717   2.8754   2.8848   2.8948
  2.9143   2.9186   2.9391   2.9460   2.9504   2.9651   2.9688   3.0069
  3.0181   3.0355   3.0521   3.0815   3.0897   3.1493   3.1627   3.1745
  3.1801   3.1946   3.2151   3.2243   3.2445   3.2553   3.2680   3.2806
  3.2898   3.3026   3.3215   3.3398   3.3579   3.3642   3.3730   3.3848
  3.4265   3.4447   3.4601   3.4653   3.4860   3.5055   3.5163   3.5399
  3.5473   3.5564   3.5743   3.5940   3.6122   3.6201   3.6359   3.6599
  3.6730   3.7459   3.7610   3.7834   3.7992   3.8090   3.8215   3.8302
  3.8425   3.8671   3.8837   3.8938   3.9115   3.9225   3.9341   3.9517
  3.9630   3.9737   3.9869   4.0188   4.0421   4.0792   4.1045   4.1341
  4.1404   4.1580   4.1689   4.2017   4.2195   4.2280   4.2725   4.2966
  4.3321   4.3562   4.3632   4.3905   4.3995   4.4105   4.4285   4.4412
  4.4497   4.4862   4.4926   4.5168   4.5540   4.5749   4.5854   4.5961
  4.6026   4.6289   4.6425   4.7054   4.7506   4.7898   4.8119   4.8403
  4.8929   4.9561   5.0699   5.1294   5.1385   5.1482   5.1529   5.1743
  5.1802   5.1952   5.2058   5.2303   5.2588   5.2950   5.3073   5.3222
  5.3633   5.4054   5.4631   5.5149   5.5256   5.5539   5.5931   5.6227
  5.6431   5.7235   5.7552   5.7642   5.8303   5.8547   5.8853   5.9129
  5.9402   6.0120   6.2740   6.6290   6.6405   6.9173   6.9886   7.0306
  7.1091   7.1367   7.2397   7.3207   7.3490   7.4123   7.5939   7.6933
  7.7952  24.2088  24.7831  24.7985  24.8077  25.0367  25.0636  25.5264
 50.4206  50.6146
 --------------------------------------------------------------
 
          Ground-State Mulliken Net Atomic Charges

     Atom                 Charge (a.u.)    Spin (a.u.)
  --------------------------------------------------------
      1 C                    -0.177721      -0.001791
      2 C                    -0.350645       0.024562
      3 C                    -0.463559      -0.020059
      4 C                    -0.249022       0.028911
      5 C                    -0.283451      -0.008492
      6 C                     0.337194       0.029730
      7 C                    -0.594849      -0.002622
      8 H                     0.337185       0.001361
      9 H                     0.293719      -0.000392
     10 H                     0.277402       0.000233
     11 H                     0.291168      -0.000440
     12 H                     0.281325       0.000329
     13 H                     0.208278       0.000304
     14 O                    -0.415604       0.000437
     15 H                     0.213792      -0.000300
     16 H                     0.334528      -0.000553
     17 O                    -0.407163       0.957366
     18 H                     0.367423      -0.008586
  --------------------------------------------------------
  Sum of atomic charges =     0.000000
  Sum of spin   charges =     1.000000

 -----------------------------------------------------------------
                    Cartesian Multipole Moments
 -----------------------------------------------------------------
    Charge (ESU x 10^10)
                 0.0000
    Dipole Moment (Debye)
         X      -3.6433      Y       0.8839      Z      -2.0740
       Tot       4.2845
    Quadrupole Moments (Debye-Ang)
        XX     -57.8113     XY       3.7930     YY     -53.2252
        XZ       2.4077     YZ       0.4895     ZZ     -44.9474
    Octopole Moments (Debye-Ang^2)
       XXX     128.7431    XXY      11.7528    XYY      24.7269
       YYY      55.5215    XXZ     -15.0835    XYZ       7.7419
       YYZ       6.3181    XZZ      36.9326    YZZ      11.4897
       ZZZ     -16.8091
    Hexadecapole Moments (Debye-Ang^3)
      XXXX    -819.2998   XXXY    -135.7000   XXYY    -198.4994
      XYYY    -131.5649   YYYY    -552.6748   XXXZ      73.3708
      XXYZ      49.0531   XYYZ      17.8875   YYYZ     127.6242
      XXZZ    -212.5687   XYZZ     -52.4836   YYZZ    -174.9058
      XZZZ      63.0303   YZZZ     123.6302   ZZZZ    -427.8348
 -----------------------------------------------------------------
 Calculating analytic gradient of the SCF energy
 Gradient of CDS energy
            1           2           3           4           5           6
    1  -0.0000751   0.0001600  -0.0001329  -0.0003027  -0.0001109   0.0003637
    2   0.0002985   0.0000355  -0.0004091  -0.0003303   0.0002021  -0.0001903
    3   0.0000624   0.0004220   0.0002782  -0.0002412  -0.0002303  -0.0000483
            7           8           9          10          11          12
    1  -0.0002294   0.0001386   0.0000639  -0.0000597  -0.0001239  -0.0000634
    2   0.0011241   0.0001425  -0.0000262  -0.0001678  -0.0001402   0.0000620
    3  -0.0001448   0.0000251   0.0001956   0.0001063  -0.0000889  -0.0001533
           13          14          15          16          17          18
    1  -0.0001121  -0.0002031   0.0001953   0.0002169  -0.0000414   0.0003161
    2  -0.0002403  -0.0002032  -0.0000843  -0.0000058  -0.0001673   0.0001001
    3  -0.0001559   0.0002252   0.0002019  -0.0004833   0.0001994  -0.0001702
 Gradient of SCF Energy
            1           2           3           4           5           6
    1   0.0054524  -0.0037707   0.0037623   0.0035052   0.0031983  -0.0029027
    2  -0.0062624  -0.0022426   0.0062403   0.0022821   0.0010406   0.0014304
    3   0.0017444  -0.0037280   0.0004254   0.0039486   0.0050650  -0.0005724
            7           8           9          10          11          12
    1   0.0074396  -0.0011510   0.0004321  -0.0013894  -0.0039003  -0.0026060
    2  -0.0119886   0.0049053  -0.0005734  -0.0034161  -0.0042328   0.0022795
    3   0.0030754   0.0019345   0.0024615   0.0022487  -0.0029685  -0.0105835
           13          14          15          16          17          18
    1  -0.0065425   0.0049377  -0.0000672  -0.0053623  -0.0000556  -0.0009800
    2   0.0024206   0.0136247   0.0052846  -0.0103116  -0.0019437   0.0014633
    3  -0.0074938   0.0121474   0.0046181  -0.0107880   0.0021100  -0.0036447
 Max gradient component =       1.362E-02
 RMS gradient           =       5.192E-03
 Computing fast CPCM-SWIG gradient
 Updating gradient with PCM contributions...
 -- total gradient after adding PCM contribution --
---------------------------------------------------
  Atom         X              Y              Z     
---------------------------------------------------
   1       0.004642      -0.000394      -0.000418
   2      -0.002365      -0.002848       0.001393
   3       0.000545       0.000857       0.001474
   4      -0.000378      -0.000189      -0.000396
   5       0.000768       0.001492       0.000552
   6      -0.001966       0.000692      -0.003434
   7      -0.000189      -0.001062       0.000169
   8      -0.001725       0.000945       0.000675
   9       0.000197      -0.000318      -0.000113
  10       0.000125       0.000043       0.000116
  11       0.000110      -0.000027       0.000057
  12       0.000147       0.000157       0.000034
  13       0.000176       0.000178      -0.000111
  14       0.000063       0.000186      -0.000006
  15       0.000062       0.000041       0.000003
  16      -0.000099       0.000035       0.000094
  17      -0.000432       0.000319      -0.000333
  18       0.000318      -0.000106       0.000242
---------------------------------------------------
 Number of fixed atoms: 0
 Gradient time:  CPU 295.72 s  wall 43.16 s
 ----------------------------------------------------------------
             Standard Nuclear Orientation (Angstroms)
    I     Atom           X                Y                Z
 ----------------------------------------------------------------
    1      C      -0.7199793598     0.0584143971     1.1268703887
    2      C      -1.0787748856    -1.0539792291     1.8327691788
    3      C      -1.9209153867    -2.0167099967     1.2370488917
    4      C      -2.3479510400    -1.8242763204    -0.0612558416
    5      C      -1.9589852629    -0.7096405470    -0.7786972919
    6      C      -1.1139196722     0.2451788281    -0.1700006657
    7      C      -0.6378703267     1.4354973213    -0.9848570562
    8      H      -0.0916193762     0.8184824466     1.6040845122
    9      H      -0.7596792770    -1.2062616420     2.8613441251
   10      H      -2.2300549528    -2.8864872815     1.7998781914
   11      H      -2.9990885136    -2.5564469960    -0.5274483313
   12      H      -2.2946402423    -0.5555182875    -1.7940470924
   13      H      -1.3952984397     1.7593182336    -1.6955383109
   14      O       0.5782980834     1.1174673321    -1.6899080333
   15      H      -0.3935007875     2.2580666663    -0.3244019226
   16      H       0.3567695974     0.5147272723    -2.4089246274
   17      O       1.7102808941    -0.7336981200     0.1207225753
   18      H       1.4546187061    -0.0753002344    -0.5737863573
 ----------------------------------------------------------------
 Nuclear Repulsion Energy =         429.16174376 hartrees
 There are       34 alpha and       33 beta electrons
 Discretize the solute cavity surface with Lebedev spheres
	Using 110 Lebedev grid points for each H atom
	Using 194 Lebedev grid points for other atoms
	Atomic van der Waals radii will be scaled by 1.20
 Remove points where switching function is < 1.0e-08
 Keep 1343 surface tesserae and discard 1393 interior tesserae
 Molecular Surface Area = 160.063 Angst**2
 Applying Cartesian multipole field
    Component          Value
    ---------          -----
     (2,0,0)        1.00000E-11
     (0,2,0)        2.00000E-11
     (0,0,2)       -3.00000E-11
 Nucleus-field energy     =     0.0000000026 hartrees
 Requested basis set is 6-311++G(2df,2p)
 There are 126 shells and 396 basis functions
 A cutoff of  1.0D-12 yielded   7251 shell pairs
 There are     72396 function pairs (     89772 Cartesian)
 Smallest overlap matrix eigenvalue = 7.09E-07
 Linear dependence detected in AO basis
 Tighter screening thresholds may be required for diffuse basis sets
 Use S2THRESH > 14 and THRESH = 14 in case of SCF convergence issues
 Number of orthogonalized atomic orbitals = 395
 Maximum deviation from orthogonality = 7.789E-11
 Guess from superposition of atomic densities
 Warning:  Energy on first SCF cycle will be non-variational
 SAD guess density has 67.000000 electrons

 -----------------------------------------------------------------------
  General SCF calculation program by
  Eric Jon Sundstrom, Paul Horn, Yuezhi Mao, Dmitri Zuev, Alec White,
  David Stuck, Shaama M.S., Shane Yost, Joonho Lee, David Small,
  Daniel Levine, Susi Lehtola, Hugh Burton, Evgeny Epifanovsky,
  Bang C. Huynh
 -----------------------------------------------------------------------
 Exchange:     0.1500 Hartree-Fock + 1.0000 wB97M-V + LR-HF
 Correlation:  1.0000 wB97M-V
 Using SG-2 standard quadrature grid
 Nonlocal Correlation:  VV10 with C = 0.0100 and b = 6.00 and scale = 1.00000
 Grid used for NLC:  SG-1 standard quadrature
 
 Citation of the SMD model:
 Marenich, A.V.; Cramer, C.J.; Truhlar, D.G.
 J. Phys. Chem. B 2009, 113, 6378-6396.
 iSolventCode=           1
 Solvent: water                                                           
 
 vradii
            1           2           3           4           5           6
    1   1.8500000   1.8500000   1.8500000   1.8500000   1.8500000   1.8500000
            7           8           9          10          11          12
    1   1.8500000   1.2000000   1.2000000   1.2000000   1.2000000   1.2000000
           13          14          15          16          17          18
    1   1.2000000   1.5200000   1.2000000   1.2000000   1.5200000   1.2000000
 -------------------------------------------------------
 OpenMP BLAS3 based DFT computing Module                
 Release: version 1.0, May 2013, Q-Chem Inc. Pittsburgh 
 -------------------------------------------------------
 A unrestricted SCF calculation will be
 performed using DIIS, GDM
 SCF converges when RMS gradient is below 1.0e-07
 ---------------------------------------
  Cycle       Energy         DIIS error
 ---------------------------------------
    1    -424.8336318718      1.26e-02  
    2    -422.2481985770      1.75e-03  Done DIIS. Switching to GDM
 ---------------------------------------
  Cycle       Energy        RMS Gradient
 ---------------------------------------
    1    -422.2481985770      1.90e-01   Descent step
    2    -422.4377188929      4.52e-02   Normal BFGS step
    3    -422.4582119086      4.36e-02   Normal BFGS step
    4    -422.4631934897      3.03e-02   Normal BFGS step
    5    -422.4675690967      4.89e-02   Dog-leg BFGS step
    6    -422.4842999693      7.41e-02   Dog-leg BFGS step
    7    -422.4917935683      6.35e-02   Normal BFGS step
    8    -422.4992291493      2.33e-02   Normal BFGS step
    9    -422.5070564833      9.79e-03   Normal BFGS step
   10    -422.5080402965      1.15e-02   Normal BFGS step
   11    -422.5083528282      4.68e-03   Normal BFGS step
   12    -422.5084092037      1.12e-03   Normal BFGS step
   13    -422.5084191257      9.96e-04   Normal BFGS step
   14    -422.5084222129      9.82e-04   Normal BFGS step
   15    -422.5084255200      9.37e-04   Normal BFGS step
   16    -422.5084289235      8.59e-04   Normal BFGS step
   17    -422.5084350039      6.66e-04   Normal BFGS step
   18    -422.5084414058      8.37e-04   Normal BFGS step
   19    -422.5084472157      7.72e-04   Normal BFGS step
   20    -422.5084503007      4.44e-04   Normal BFGS step
   21    -422.5084513529      1.51e-04   Normal BFGS step
   22    -422.5084516231      6.39e-05   Normal BFGS step
   23    -422.5084516790      2.41e-05   Normal BFGS step
   24    -422.5084516915      9.62e-06   Normal BFGS step
   25    -422.5084516927      4.76e-06   Normal BFGS step
   26    -422.5084516929      2.45e-06   Normal BFGS step
   27    -422.5084516930      1.62e-06   Normal BFGS step
   28    -422.5084516930      9.30e-07   Normal BFGS step
   29    -422.5084516930      5.63e-07   Normal BFGS step
   30    -422.5084516930      2.04e-07   Normal BFGS step
   31    -422.5084516930      8.80e-08  Convergence criterion met
 ---------------------------------------
 SCF time:   CPU 3363.02s  wall 426.00s 
<S^2> =          0.753756834
(3)  G-ENP(liq) elect-nuc-pol free energy of system     -422.508451693 a.u.
(4)  G-CDS(liq) cavity-dispersion-solvent structure 
     free energy                                                3.3482 kcal/mol
(6)  G-S(liq) free energy of system                     -422.503115922 a.u.
 SCF   energy in the final basis set =     -422.5031159225
 Total energy in the final basis set =     -422.5031159225
 
 --------------------------------------------------------------
 
                    Orbital Energies (a.u.)
 --------------------------------------------------------------
 
 Alpha MOs
 -- Occupied --
-19.3843 -19.3471 -10.3892 -10.3530 -10.3455 -10.3453 -10.3450 -10.3436
-10.3431  -1.1624  -1.1223  -0.9912  -0.8911  -0.8742  -0.7987  -0.7231
 -0.7056  -0.6365  -0.6171  -0.5834  -0.5704  -0.5626  -0.5370  -0.5285
 -0.5205  -0.5110  -0.4783  -0.4660  -0.4519  -0.4486  -0.4276  -0.3968
 -0.3508  -0.3417
 -- Virtual --
  0.0237   0.0356   0.0369   0.0479   0.0512   0.0560   0.0571   0.0644
  0.0817   0.0857   0.0896   0.0934   0.1065   0.1252   0.1378   0.1380
[...]
 -----------------------------------------------------------------
    Charge (ESU x 10^10)
                 0.0000
    Dipole Moment (Debye)
         X      -5.2743      Y       0.8319      Z      -1.6641
       Tot       5.5928
    Quadrupole Moments (Debye-Ang)
        XX     -55.0711     XY       5.0027     YY     -53.2492
        XZ       1.6723     YZ       0.8513     ZZ     -44.6396
    Octopole Moments (Debye-Ang^2)
       XXX     119.6763    XXY       8.0717    XYY      20.5618
       YYY      53.1686    XXZ     -14.7434    XYZ       8.9518
       YYZ       8.0022    XZZ      35.8934    YZZ      10.9248
       ZZZ     -14.2008
    Hexadecapole Moments (Debye-Ang^3)
      XXXX    -730.1525   XXXY    -122.5993   XXYY    -183.7674
      XYYY    -126.6856   YYYY    -557.3853   XXXZ      57.2323
      XXYZ      53.9559   XYYZ      10.4850   YYYZ     139.0964
      XXZZ    -197.9302   XYZZ     -51.9152   YYZZ    -173.3557
      XZZZ      41.7293   YZZZ     132.3952   ZZZZ    -416.0476
 -----------------------------------------------------------------
 Calculating analytic gradient of the SCF energy
 Gradient of CDS energy
            1           2           3           4           5           6
    1  -0.0000562   0.0001756  -0.0001065  -0.0003290  -0.0001538   0.0003931
    2   0.0002395   0.0000391  -0.0003801  -0.0003303   0.0002269  -0.0002164
    3   0.0000676   0.0003648   0.0003032  -0.0002222  -0.0002417  -0.0000203
            7           8           9          10          11          12
    1  -0.0002930   0.0001372   0.0000744  -0.0000609  -0.0001335  -0.0000617
    2   0.0010910   0.0001301  -0.0000271  -0.0001650  -0.0001347   0.0000746
    3  -0.0002302   0.0000363   0.0001901   0.0001091  -0.0000807  -0.0001643
           13          14          15          16          17          18
    1  -0.0000843  -0.0001772   0.0001876   0.0002490  -0.0001485   0.0003877
    2  -0.0002429  -0.0002014  -0.0000632  -0.0000205  -0.0000620   0.0000425
    3  -0.0001310   0.0002018   0.0002359  -0.0004738   0.0001697  -0.0001142
 Gradient of SCF Energy
            1           2           3           4           5           6
    1   0.0039919  -0.0033197   0.0031101   0.0059705   0.0019651  -0.0009456
    2  -0.0038837   0.0025094   0.0058100   0.0023683  -0.0032045   0.0023252
    3  -0.0006093  -0.0033116  -0.0013158   0.0047360   0.0050906   0.0051143
            7           8           9          10          11          12
    1   0.0083392  -0.0013602  -0.0001530  -0.0023207  -0.0060678  -0.0044497
    2  -0.0091992   0.0044518  -0.0001441  -0.0047268  -0.0056382   0.0022305
    3   0.0021400   0.0014660   0.0030657   0.0030045  -0.0037281  -0.0111835
           13          14          15          16          17          18
    1  -0.0068906   0.0049703  -0.0015427  -0.0043816   0.0053295  -0.0022450
    2   0.0014258   0.0119376   0.0053939  -0.0094105  -0.0027055   0.0004602
    3  -0.0076929   0.0109433   0.0049410  -0.0099270  -0.0016779  -0.0010555
 Max gradient component =       1.194E-02
 RMS gradient           =       5.101E-03
 Computing fast CPCM-SWIG gradient
 Updating gradient with PCM contributions...
 -- total gradient after adding PCM contribution --
---------------------------------------------------
  Atom         X              Y              Z     
---------------------------------------------------
   1      -0.000043      -0.000002       0.000000
   2      -0.000001      -0.000017      -0.000037
   3      -0.000017       0.000003      -0.000006
   4      -0.000021       0.000011      -0.000038
   5      -0.000053       0.000040       0.000028
   6       0.000069      -0.000006      -0.000030
   7      -0.000008      -0.000022       0.000118
   8       0.000011      -0.000037       0.000026
   9      -0.000022      -0.000013      -0.000006
  10      -0.000018      -0.000002      -0.000036
  11       0.000001       0.000012      -0.000034
  12       0.000007       0.000015      -0.000012
  13       0.000054      -0.000014      -0.000024
  14       0.000075       0.000045      -0.000107
  15      -0.000044      -0.000002       0.000025
  16       0.000002       0.000020       0.000019
  17       0.000114       0.000036       0.000049
  18      -0.000104      -0.000067       0.000066
---------------------------------------------------
 Number of fixed atoms: 0
 Gradient time:  CPU 319.87 s  wall 46.43 s
 Geometry Optimization Parameters
   NAtoms,    NIC,     NZ,  NCons,   NDum,   NFix, NCnnct, MaxDiis
       18     123       0       0       0       0       0       0

 Cartesian Hessian Update
 Hessian updated using Powell/Murtagh-Sargent update
  Mixing factors:     0.988072 Powell                      0.011928 Murtagh-Sargent


** GEOMETRY OPTIMIZATION IN DELOCALIZED INTERNAL COORDINATES **
   Searching for a Transition State

   Optimization Cycle:  30

                       Coordinates (Angstroms)
     ATOM                X               Y               Z
      1  C        -0.5326998320    0.0025343068    1.0230088974
      2  C        -0.9680983888   -1.1061386779    1.7802259216
      3  C        -1.8563513933   -2.0070854607    1.2371255274
      4  C        -2.3613365522   -1.7976328415   -0.0475638954
      5  C        -1.9848859224   -0.6759702028   -0.7817255910
      6  C        -1.0941960923    0.2408942012   -0.2544839734
      7  C        -0.6553643282    1.4407344335   -1.0471337767
      8  H         0.0088051725    0.7990370438    1.5126621360
      9  H        -0.5776116754   -1.2486966183    2.7783292608
     10  H        -2.1743327329   -2.8689676202    1.8069610373
     11  H        -3.0620138259   -2.5040952834   -0.4709461863
     12  H        -2.4004170344   -0.5102610904   -1.7676878666
     13  H        -1.3991398974    1.6865071802   -1.8048774205
     14  O         0.6226437233    1.2217845646   -1.6668666842
     15  H        -0.5244143939    2.3000984831   -0.3928305391
     16  H         0.5012626424    0.5717335151   -2.3685592532
     17  O         1.2768960978   -0.8001235469    0.3787212566
     18  H         1.3346013948   -0.1633912668   -0.3545236837
   Point Group: c1    Number of degrees of freedom:    48


   Energy is   -422.502763001

 Hessian updated using Powell/Murtagh-Sargent update
  Mixing factors:     0.992923 Powell                      0.007077 Murtagh-Sargent

 48 Hessian modes will be used to form the next step
  Hessian Eigenvalues:
    -0.012929    0.002523    0.016320    0.018110    0.020042    0.021603
     0.022622    0.024031    0.024845    0.025179    0.029601    0.032619
     0.052200    0.068099    0.077798    0.088509    0.117030    0.117483
     0.132040    0.156961    0.159877    0.161499    0.163453    0.164429
     0.182993    0.217021    0.220638    0.229176    0.249437    0.300102
     0.340439    0.345152    0.351580    0.356911    0.358041    0.358821
     0.366105    0.373631    0.392627    0.412645    0.445579    0.450378
     0.475127    0.486102    0.497412    0.573578    0.595622    1.090214

 Transition state search - taking P-RFO step
 Searching for Lamda that Maximizes Along the Lowest mode
 Value Taken    Lamda =   0.00000000
 Searching for Lamda that Minimizes Along All other modes
 Value Taken    Lamda =  -0.00000087
 Step Taken.  Stepsize is  0.013357

                             Maximum     Tolerance    Cnvgd?
         Gradient           0.000197      0.000300     YES
         Displacement       0.006775      0.001200      NO
         Energy change     -0.000001      0.000001     YES

 Final energy is   -422.502763001111     


 ******************************
 **  OPTIMIZATION CONVERGED  **
 ******************************

                       Coordinates (Angstroms)
     ATOM                X               Y               Z
      1  C        -0.5326998320    0.0025343068    1.0230088974
      2  C        -0.9680983888   -1.1061386779    1.7802259216
      3  C        -1.8563513933   -2.0070854607    1.2371255274
      4  C        -2.3613365522   -1.7976328415   -0.0475638954
      5  C        -1.9848859224   -0.6759702028   -0.7817255910
      6  C        -1.0941960923    0.2408942012   -0.2544839734
      7  C        -0.6553643282    1.4407344335   -1.0471337767
      8  H         0.0088051725    0.7990370438    1.5126621360
      9  H        -0.5776116754   -1.2486966183    2.7783292608
     10  H        -2.1743327329   -2.8689676202    1.8069610373
     11  H        -3.0620138259   -2.5040952834   -0.4709461863
     12  H        -2.4004170344   -0.5102610904   -1.7676878666
     13  H        -1.3991398974    1.6865071802   -1.8048774205
     14  O         0.6226437233    1.2217845646   -1.6668666842
     15  H        -0.5244143939    2.3000984831   -0.3928305391
     16  H         0.5012626424    0.5717335151   -2.3685592532
     17  O         1.2768960978   -0.8001235469    0.3787212566
     18  H         1.3346013948   -0.1633912668   -0.3545236837

Z-matrix Print:
$molecule
0 2
C 
C  1 1.382734
H  2 1.082704 1 119.535804
C  2 1.392421 1 120.480840 3 -179.194485 0
H  4 1.081337 2 119.671589 1 179.743293 0
C  4 1.396176 2 120.545014 1 0.659408 0
H  6 1.081048 4 119.883577 2 178.515743 0
C  6 1.376828 4 119.876756 2 -0.664767 0
H  8 1.081209 6 120.721038 4 179.266492 0
C  8 1.411420 6 120.092416 4 -2.189976 0
H  10 1.080465 8 119.375626 6 168.385059 0
C  1 1.503490 2 121.074279 3 -2.159518 0
H  12 1.088011 1 110.389997 2 144.149944 0
H  12 1.089854 1 110.323767 2 23.874441 0
O  12 1.437120 1 111.427606 2 -98.570505 0
H  15 0.964195 12 107.733729 1 70.060309 0
H  15 2.036625 12 97.852310 1 -25.780679 0
O  17 0.972834 15 155.518631 12 11.410082 0
$end

 
 --------------------------------------------------------------
 
                    Orbital Energies (a.u.)
 --------------------------------------------------------------
 
 Alpha MOs
 -- Occupied --
-19.3445 -19.3371 -10.3900 -10.3740 -10.3649 -10.3589 -10.3569 -10.3488
-10.3483  -1.1604  -1.0921  -0.9958  -0.9007  -0.8801  -0.8022  -0.7351
 -0.7112  -0.6417  -0.6160  -0.5821  -0.5718  -0.5504  -0.5484  -0.5315
 -0.5268  -0.5068  -0.4734  -0.4524  -0.4446  -0.4390  -0.4124  -0.3960
 -0.3570  -0.3212
 -- Virtual --
  0.0238   0.0359   0.0367   0.0477   0.0525   0.0563   0.0574   0.0583
  0.0817   0.0852   0.0899   0.0933   0.1062   0.1251   0.1377   0.1393
  0.1443   0.1505   0.1590   0.1597   0.1615   0.1631   0.1728   0.1773
  0.1792   0.1823   0.1923   0.1968   0.2038   0.2154   0.2159   0.2175
  0.2285   0.2406   0.2451   0.2562   0.2622   0.2707   0.2744   0.2874
  0.2905   0.3014   0.3105   0.3152   0.3189   0.3293   0.3394   0.3451
  0.3462   0.3561   0.3561   0.3598   0.3694   0.3733   0.3905   0.4089
  0.4207   0.4265   0.4358   0.4497   0.4607   0.5087   0.5290   0.5332
  0.5458   0.5777   0.5869   0.6028   0.6061   0.6106   0.6151   0.6174
  0.6214   0.6278   0.6355   0.6455   0.6644   0.6796   0.6880   0.6945
  0.6962   0.7098   0.7181   0.7245   0.7307   0.7322   0.7418   0.7463
  0.7523   0.7661   0.7844   0.7921   0.8127   0.8176   0.8274   0.8389
  0.8459   0.8605   0.8700   0.8810   0.8961   0.8993   0.9074   0.9168
  0.9246   0.9642   0.9878   1.0223   1.0387   1.0554   1.0752   1.0848
  1.1053   1.1082   1.1231   1.1416   1.1582   1.1627   1.1659   1.1906
  1.2002   1.2115   1.2266   1.2313   1.2376   1.2537   1.2671   1.2770
  1.2983   1.3102   1.3171   1.3226   1.3395   1.3577   1.3783   1.3866
  1.3967   1.4126   1.4181   1.4326   1.4457   1.4491   1.4541   1.4682
  1.4805   1.4935   1.5073   1.5426   1.5469   1.5688   1.5756   1.5789
  1.5939   1.6209   1.6621   1.6761   1.6908   1.7204   1.7449   1.7671
  1.7797   1.8087   1.8394   1.8515   1.8693   1.9003   1.9395   1.9696
  1.9933   2.0403   2.0627   2.0668   2.0841   2.1239   2.1331   2.1530
  2.2253   2.2651   2.3434   2.4111   2.4603   2.5742   2.5981   2.6437
  2.6515   2.6671   2.6874   2.7119   2.7513   2.7935   2.8049   2.8136
  2.8183   2.8303   2.8469   2.8614   2.8663   2.8712   2.8911   2.9105
  2.9190   2.9261   2.9463   2.9653   2.9721   2.9938   2.9993   3.0266
  3.0367   3.0603   3.0944   3.1411   3.1488   3.1634   3.1726   3.1859
  3.1920   3.2061   3.2213   3.2395   3.2566   3.2694   3.2840   3.2901
  3.3082   3.3256   3.3489   3.3635   3.3696   3.3881   3.4076   3.4342
  3.4365   3.4551   3.4631   3.4762   3.5080   3.5170   3.5359   3.5601
  3.5652   3.5697   3.5922   3.6102   3.6208   3.6579   3.6668   3.6835
  3.7341   3.7460   3.7646   3.7876   3.7991   3.8187   3.8262   3.8427
  3.8553   3.8832   3.8862   3.9001   3.9180   3.9278   3.9387   3.9546
  3.9661   3.9876   4.0294   4.0417   4.0819   4.1054   4.1421   4.1554
  4.1660   4.1855   4.1935   4.2063   4.2558   4.2787   4.2882   4.3179
  4.3479   4.3680   4.3778   4.3940   4.4051   4.4225   4.4480   4.4666
  4.4712   4.4843   4.4919   4.5318   4.5480   4.5662   4.5881   4.5999
  4.6153   4.6287   4.6902   4.7414   4.7715   4.7999   4.8214   4.8720
  4.9373   5.0412   5.1209   5.1407   5.1479   5.1813   5.1984   5.2055
  5.2242   5.2489   5.2580   5.2842   5.2931   5.3074   5.3324   5.3538
  5.3993   5.4669   5.4882   5.5095   5.5527   5.5929   5.6651   5.6844
  5.7063   5.7208   5.7550   5.8138   5.8548   5.8583   5.9058   5.9296
  6.0169   6.2361   6.5847   6.6135   7.0020   7.0506   7.1136   7.1347
  7.1929   7.2886   7.3105   7.3594   7.4025   7.6125   7.6595   7.7967
 24.1989  24.7404  24.7951  24.8083  24.9925  25.0589  25.4897  50.5208
 50.6046
 
 Beta MOs
 -- Occupied --
-19.3442 -19.3197 -10.3902 -10.3740 -10.3619 -10.3559 -10.3541 -10.3503
-10.3497  -1.1596  -1.0523  -0.9908  -0.8976  -0.8753  -0.8019  -0.7317
 -0.7084  -0.6402  -0.6148  -0.5788  -0.5690  -0.5437  -0.5383  -0.5277
 -0.5212  -0.4847  -0.4688  -0.4503  -0.4376  -0.3949  -0.3924  -0.3667
 -0.3497
 -- Virtual --
 -0.0615   0.0240   0.0360   0.0369   0.0486   0.0552   0.0570   0.0638
  0.0701   0.0851   0.0856   0.0916   0.0938   0.1069   0.1254   0.1380
  0.1409   0.1445   0.1506   0.1592   0.1597   0.1614   0.1635   0.1737
  0.1772   0.1800   0.1827   0.1936   0.1977   0.2040   0.2154   0.2162
  0.2174   0.2284   0.2405   0.2489   0.2574   0.2634   0.2716   0.2742
  0.2874   0.2925   0.3025   0.3117   0.3173   0.3203   0.3297   0.3405
  0.3455   0.3475   0.3562   0.3593   0.3612   0.3710   0.3736   0.3932
  0.4097   0.4218   0.4275   0.4377   0.4515   0.4622   0.5094   0.5302
  0.5340   0.5482   0.5793   0.5888   0.6048   0.6085   0.6122   0.6163
  0.6204   0.6248   0.6300   0.6364   0.6464   0.6681   0.6817   0.6892
  0.6962   0.6974   0.7116   0.7196   0.7265   0.7313   0.7333   0.7430
  0.7474   0.7534   0.7676   0.7864   0.7932   0.8151   0.8198   0.8287
  0.8414   0.8475   0.8609   0.8718   0.8835   0.8988   0.9007   0.9089
  0.9187   0.9264   0.9658   0.9905   1.0236   1.0407   1.0568   1.0768
  1.0863   1.1080   1.1104   1.1264   1.1430   1.1600   1.1647   1.1683
  1.1932   1.2054   1.2147   1.2314   1.2337   1.2411   1.2556   1.2717
  1.2797   1.2999   1.3129   1.3236   1.3277   1.3424   1.3647   1.3813
  1.3884   1.4007   1.4153   1.4208   1.4347   1.4474   1.4538   1.4561
  1.4707   1.4827   1.4960   1.5100   1.5435   1.5486   1.5708   1.5767
  1.5819   1.5953   1.6214   1.6652   1.6783   1.6943   1.7256   1.7558
  1.7736   1.7812   1.8113   1.8474   1.8575   1.8807   1.9057   1.9471
  1.9758   2.0023   2.0492   2.0654   2.0700   2.0873   2.1310   2.1386
  2.1623   2.2287   2.2698   2.3448   2.4124   2.4650   2.5798   2.6008
  2.6471   2.6556   2.6696   2.6898   2.7150   2.7556   2.7951   2.8127
  2.8194   2.8234   2.8332   2.8497   2.8686   2.8723   2.8745   2.8957
  2.9158   2.9235   2.9284   2.9518   2.9713   2.9804   3.0006   3.0071
  3.0314   3.0437   3.0648   3.0976   3.1442   3.1505   3.1664   3.1762
  3.1911   3.1950   3.2094   3.2252   3.2450   3.2597   3.2730   3.2879
  3.2953   3.3104   3.3288   3.3519   3.3665   3.3741   3.3902   3.4123
  3.4369   3.4394   3.4589   3.4679   3.4807   3.5111   3.5221   3.5386
  3.5637   3.5672   3.5731   3.5957   3.6167   3.6274   3.6577   3.6711
  3.6856   3.7358   3.7502   3.7701   3.7922   3.8021   3.8221   3.8300
  3.8484   3.8609   3.8868   3.8895   3.9044   3.9225   3.9320   3.9419
  3.9577   3.9694   3.9920   4.0353   4.0444   4.0833   4.1097   4.1451
  4.1600   4.1684   4.1895   4.1960   4.2094   4.2595   4.2826   4.2914
  4.3198   4.3531   4.3720   4.3815   4.3971   4.4087   4.4246   4.4514
  4.4708   4.4760   4.4919   4.4947   4.5380   4.5543   4.5703   4.5938
  4.6049   4.6199   4.6324   4.6956   4.7483   4.7757   4.8041   4.8281
  4.8786   4.9411   5.0480   5.1403   5.1530   5.1589   5.2036   5.2187
  5.2349   5.2446   5.2729   5.2860   5.2890   5.3102   5.3318   5.3466
  5.3940   5.4265   5.4802   5.4981   5.5163   5.5571   5.5956   5.6783
  5.6987   5.7196   5.7367   5.7645   5.8214   5.8580   5.8586   5.9092
  5.9322   6.0180   6.2407   6.5887   6.6156   7.0640   7.0869   7.1221
  7.2076   7.2406   7.3089   7.3262   7.3748   7.4159   7.6328   7.6863
  7.7995  24.1995  24.7412  24.7951  24.8096  24.9940  25.0596  25.4911
 50.5331  50.6049
 --------------------------------------------------------------
 
          Ground-State Mulliken Net Atomic Charges

     Atom                 Charge (a.u.)    Spin (a.u.)
  --------------------------------------------------------
      1 C                     0.028979      -0.051417
      2 C                    -0.306817       0.191321
      3 C                    -0.453830      -0.090044
      4 C                    -0.199421       0.210140
      5 C                    -0.494221      -0.082657
      6 C                     0.298766       0.195531
      7 C                    -0.514379      -0.003510
      8 H                     0.370652       0.011704
      9 H                     0.293751      -0.004088
     10 H                     0.280836       0.002263
     11 H                     0.295697      -0.003742
     12 H                     0.272107       0.002413
     13 H                     0.201608       0.000633
     14 O                    -0.398146       0.006760
     15 H                     0.216720       0.002418
     16 H                     0.328724      -0.000260
     17 O                    -0.535371       0.617077
     18 H                     0.314343      -0.004542
  --------------------------------------------------------
  Sum of atomic charges =    -0.000000
  Sum of spin   charges =     1.000000

 -----------------------------------------------------------------
                    Cartesian Multipole Moments
 -----------------------------------------------------------------
    Charge (ESU x 10^10)
                 0.0000
    Dipole Moment (Debye)
         X      -5.2743      Y       0.8319      Z      -1.6641
       Tot       5.5928
    Quadrupole Moments (Debye-Ang)
        XX     -55.0711     XY       5.0027     YY     -53.2492
        XZ       1.6723     YZ       0.8513     ZZ     -44.6396
    Octopole Moments (Debye-Ang^2)
       XXX     119.6763    XXY       8.0717    XYY      20.5618
       YYY      53.1686    XXZ     -14.7434    XYZ       8.9518
       YYZ       8.0022    XZZ      35.8934    YZZ      10.9248
       ZZZ     -14.2008
    Hexadecapole Moments (Debye-Ang^3)
      XXXX    -730.1525   XXXY    -122.5993   XXYY    -183.7674
      XYYY    -126.6856   YYYY    -557.3853   XXXZ      57.2323
      XXYZ      53.9559   XYYZ      10.4850   YYYZ     139.0964
      XXZZ    -197.9302   XYZZ     -51.9152   YYZZ    -173.3557
      XZZZ      41.7293   YZZZ     132.3952   ZZZZ    -416.0476
 -----------------------------------------------------------------
 Total job time:  9906.48s(wall), 76932.20s(cpu) 
 Wed Dec 28 08:17:39 2022

        *************************************************************
        *                                                           *
        *  Thank you very much for using Q-Chem.  Have a nice day.  *
        *                                                           *
        *************************************************************


