
Running Job 1 of 2 Q_in.in
qchem Q_in.in_108132.0 /scratch/ari.fischer/qChem2275095.hpc-mn1/qchem108132/ 0
/usr/local/qchem-5.4.1/exe/qcprog.exe_s Q_in.in_108132.0 /scratch/ari.fischer/qChem2275095.hpc-mn1/qchem108132/
                  Welcome to Q-Chem
     A Quantum Leap Into The Future Of Chemistry


 Q-Chem 5.4, Q-Chem, Inc., Pleasanton, CA (2021)

 License issued to: Nanyang Technological University (site)

 E. Epifanovsky,  A. T. B. Gilbert,  Xintian Feng,  Joonho Lee,  Yuezhi Mao,  
 N. Mardirossian,  P. Pokhilko,  A. White,  M. Wormit,  M. P. Coons,  
 A. L. Dempwolff,  Zhengting Gan,  D. Hait,  P. R. Horn,  L. D. Jacobson,  
 I. Kaliman,  J. Kussmann,  A. W. Lange,  Ka Un Lao,  D. S. Levine,  Jie Liu,  
 S. C. McKenzie,  A. F. Morrison,  K. Nanda,  F. Plasser,  D. R. Rehn,  
 M. L. Vidal,  Zhi-Qiang You,  Ying Zhu,  B. Alam,  B. Albrecht,  
 A. Aldossary,  E. Alguire,  J. H. Andersen,  D. Barton,  K. Begam,  A. Behn,  
 Y. A. Bernard,  E. J. Berquist,  H. Burton,  A. Carreras,  K. Carter-Fenk,  
 R. Chakraborty,  A. D. Chien,  K. D. Closser,  V. Cofer-Shabica,  
 S. Dasgupta,  Jia Deng,  M. de Wergifosse,  M. Diedenhofen,  Hainam Do,  
 S. Ehlert,  Po-Tung Fang,  S. Fatehi,  Qingguo Feng,  T. Friedhoff,  
 J. Gayvert,  Qinghui Ge,  G. Gidofalvi,  M. Goldey,  J. Gomes,  
 C. Gonzalez-Espinoza,  S. Gulania,  A. Gunina,  M. W. D. Hanson-Heine,  
 P. H. P. Harbach,  A. W. Hauser,  M. F. Herbst,  M. Hernandez Vera,  
 M. Hodecker,  Z. C. Holden,  S. Houck,  Xunkun Huang,  Kerwin Hui,  
 B. C. Huynh,  M. Ivanov,  Hyunjun Ji,  Hanjie Jiang,  B. Kaduk,  S. Kaehler,  
 K. Khistyaev,  Jaehoon Kim,  P. Klunzinger,  Z. Koczor-Benda,  
 Joong Hoon Koh,  D. Kosenkov,  L. Koulias,  T. Kowalczyk,  C. M. Krauter,  
 K. Kue,  A. Kunitsa,  T. Kus,  A. Landau,  K. V. Lawler,  D. Lefrancois,  
 S. Lehtola,  Rain Li,  Yi-Pei Li,  Jiashu Liang,  M. Liebenthal,  
 Hung-Hsuan Lin,  You-Sheng Lin,  Fenglai Liu,  Kuan-Yu Liu,  
 M. Loipersberger,  A. Luenser,  A. Manjanath,  P. Manohar,  E. Mansoor,  
 S. F. Manzer,  Shan-Ping Mao,  A. V. Marenich,  T. Markovich,  S. Mason,  
 S. A. Maurer,  P. F. McLaughlin,  M. F. S. J. Menger,  J.-M. Mewes,  
 S. A. Mewes,  P. Morgante,  J. W. Mullinax,  K. J. Oosterbaan,  G. Paran,  
 Alexander C. Paul,  Suranjan K. Paul,  F. Pavosevic,  Zheng Pei,  S. Prager,  
 E. I. Proynov,  E. Ramos,  B. Rana,  A. E. Rask,  A. Rettig,  R. M. Richard,  
 F. Rob,  E. Rossomme,  T. Scheele,  M. Scheurer,  M. Schneider,  
 N. Sergueev,  S. M. Sharada,  W. Skomorowski,  D. W. Small,  C. J. Stein,  
 Yu-Chuan Su,  E. J. Sundstrom,  Zhen Tao,  J. Thirman,  T. Tsuchimochi,  
 N. M. Tubman,  S. P. Veccham,  O. Vydrov,  J. Wenzel,  J. Witte,  A. Yamada,  
 Kun Yao,  S. Yeganeh,  S. R. Yost,  A. Zech,  Igor Ying Zhang,  Xing Zhang,  
 Yu Zhang,  D. Zuev,  A. Aspuru-Guzik,  A. T. Bell,  N. A. Besley,  
 K. B. Bravaya,  B. R. Brooks,  D. Casanova,  Jeng-Da Chai,  S. Coriani,  
 C. J. Cramer,  A. E. DePrince, III,  R. A. DiStasio Jr.,  A. Dreuw,  
 B. D. Dunietz,  T. R. Furlani,  W. A. Goddard III,  S. Grimme,  
 S. Hammes-Schiffer,  T. Head-Gordon,  W. J. Hehre,  Chao-Ping Hsu,  
 T.-C. Jagau,  Yousung Jung,  A. Klamt,  Jing Kong,  D. S. Lambrecht,  
 WanZhen Liang,  N. J. Mayhall,  C. W. McCurdy,  J. B. Neaton,  
 C. Ochsenfeld,  J. A. Parkhill,  R. Peverati,  V. A. Rassolov,  Yihan Shao,  
 L. V. Slipchenko,  T. Stauch,  R. P. Steele,  J. E. Subotnik,  
 A. J. W. Thom,  A. Tkatchenko,  D. G. Truhlar,  T. Van Voorhis,  
 T. A. Wesolowski,  K. B. Whaley,  H. L. Woodcock III,  P. M. Zimmerman,  
 S. Faraji,  P. M. W. Gill,  M. Head-Gordon,  J. M. Herbert,  A. I. Krylov

 Additional authors for Version 5.4.1: 
 S. Kotaru,  Shaozhi Li,  Xiangyuan Li,  F. Matz,  A. Molle,  Haisheng Ren,  
 Yingli Su,  Hung-Yi Tsai,  C. Utku,  Fang Wang

 Contributors to earlier versions of Q-Chem not listed above: 
 R. D. Adamson,  B. Austin,  R. Baer,  J. Baker,  G. J. O. Beran,  
 K. Brandhorst,  S. T. Brown,  E. F. C. Byrd,  A. K. Chakraborty,  
 G. K. L. Chan,  Chun-Min Chang,  Yunqing Chen,  C.-L. Cheng,  
 Siu Hung Chien,  D. M. Chipman,  D. L. Crittenden,  H. Dachsel,  
 R. J. Doerksen,  A. D. Dutoi,  R. G. Edgar,  J. Fosso-Tande,  
 L. Fusti-Molnar,  D. Ghosh,  A. Ghysels,  A. Golubeva-Zadorozhnaya,  
 J. Gonthier,  M. S. Gordon,  S. R. Gwaltney,  G. Hawkins,  J. E. Herr,  
 A. Heyden,  S. Hirata,  E. G. Hohenstein,  G. Kedziora,  F. J. Keil,  
 C. Kelley,  Jihan Kim,  R. A. King,  R. Z. Khaliullin,  P. P. Korambath,  
 W. Kurlancheek,  A. Laurent,  A. M. Lee,  M. S. Lee,  S. V. Levchenko,  
 Ching Yeh Lin,  D. Liotard,  E. Livshits,  R. C. Lochan,  I. Lotan,  
 L. A. Martinez-Martinez,  P. E. Maslen,  N. Nair,  D. P. O'Neill,  
 D. Neuhauser,  E. Neuscamman,  C. M. Oana,  R. Olivares-Amaya,  R. Olson,  
 T. M. Perrine,  B. Peters,  P. A. Pieniazek,  A. Prociuk,  Y. M. Rhee,  
 J. Ritchie,  M. A. Rohrdanz,  E. Rosta,  N. J. Russ,  H. F. Schaefer III,  
 M. W. Schmidt,  N. E. Schultz,  S. Sharma,  N. Shenvi,  C. D. Sherrill,  
 A. C. Simmonett,  A. Sodt,  T. Stein,  D. Stuck,  K. S. Thanthiriwatte,  
 V. Vanovschi,  L. Vogt,  Tao Wang,  A. Warshel,  M. A. Watson,  
 C. F. Williams,  Q. Wu,  X. Xu,  Jun Yang,  W. Zhang,  Yan Zhao

 Please cite Q-Chem as follows:
 Y. Shao et al., Mol. Phys. 113, 184-215 (2015)
 DOI: 10.1080/00268976.2014.952696

 Q-Chem 5.4.1 for Intel X86 EM64T Linux

 Parts of Q-Chem use Armadillo 9.800.1 (Horizon Scraper).
 http://arma.sourceforge.net/

 Q-Chem begins on Thu Aug 15 19:39:52 2024  

 Host: 
0

     Scratch files written to /scratch/ari.fischer/qChem2275095.hpc-mn1/qchem108132//
 Aug1521 |scratch|qcdevops|jenkins|workspace|build_RNUM 8249   
 Processing $rem in /usr/local/qchem-5.4.1/config/preferences:
 Processing $rem in /home/ari.fischer/.qchemrc:
 Symmetry turned off for PCM/SM12/SMD calculation


!!********************************************.
!!******************Warning*******************.
!!Desired Analytical derivatives not available.
!!Finite difference job might take a long time.
!!********************************************.
!!********************************************.


 2-order derivative to be evaluated numerically with 1-order analytical derivatives

 Checking the input file for inconsistencies... 	...done.

--------------------------------------------------------------
User input:
--------------------------------------------------------------
$molecule
0 2
C    2.4557920   -0.8515009   -1.0069010
O    1.8782109    0.3818961   -1.3619737
C    3.5718563   -0.5544407    0.0043107
O    2.9607001   -0.1503609    1.1887488
C    4.5880691    0.4444655   -0.5216427
C    5.6202889    0.8650275    0.4913802
O    5.5902475    0.5186205    1.6741532
C    4.9267224    3.1957539    0.9213163
O    3.6428684    3.0289096    1.3421202
O    5.8009921    3.4030333    1.9313031
H    2.8716440   -1.3526603   -1.8787452
H    1.2885150    0.2275950   -2.1087658
H    4.0669132    1.3264136   -0.8907124
H    5.1115020    0.0273524   -1.3837383
H    6.5070196    1.3667438    0.0855572
H    5.1040625    3.7940754    0.0352098
H    3.0622954    2.9488569    0.5735081
H    5.7326731    2.6675891    2.5614761
O    1.5065436   -1.7325769   -0.4618863
H    1.2409780   -1.3887319    0.4019213
O    4.2015375   -1.8044851    0.3721708
O    4.8799960   -2.3539461   -0.7546043
H    3.6731693    0.1448872    1.7817888
H    5.8005027   -2.1040531   -0.5846392
$end

$rem
BASIS = 6-311++G(2df,2p)
GUI = 2
JOB_TYPE = Frequency
METHOD = wB97M-V
SOLVENT_METHOD = SMD
SCF_ALGORITHM = DIIS_GDM
MAX_SCF_CYCLES = 400
SCF_CONVERGENCE = 7
THRESH = 12
$end

--------------------------------------------------------------
 ----------------------------------------------------------------
             Standard Nuclear Orientation (Angstroms)
    I     Atom           X                Y                Z
 ----------------------------------------------------------------
    1      C       2.4557920000    -0.8515009000    -1.0069010000
    2      O       1.8782109000     0.3818961000    -1.3619737000
    3      C       3.5718563000    -0.5544407000     0.0043107000
    4      O       2.9607001000    -0.1503609000     1.1887488000
    5      C       4.5880691000     0.4444655000    -0.5216427000
    6      C       5.6202889000     0.8650275000     0.4913802000
    7      O       5.5902475000     0.5186205000     1.6741532000
    8      C       4.9267224000     3.1957539000     0.9213163000
    9      O       3.6428684000     3.0289096000     1.3421202000
   10      O       5.8009921000     3.4030333000     1.9313031000
   11      H       2.8716440000    -1.3526603000    -1.8787452000
   12      H       1.2885150000     0.2275950000    -2.1087658000
   13      H       4.0669132000     1.3264136000    -0.8907124000
   14      H       5.1115020000     0.0273524000    -1.3837383000
   15      H       6.5070196000     1.3667438000     0.0855572000
   16      H       5.1040625000     3.7940754000     0.0352098000
   17      H       3.0622954000     2.9488569000     0.5735081000
   18      H       5.7326731000     2.6675891000     2.5614761000
   19      O       1.5065436000    -1.7325769000    -0.4618863000
   20      H       1.2409780000    -1.3887319000     0.4019213000
   21      O       4.2015375000    -1.8044851000     0.3721708000
   22      O       4.8799960000    -2.3539461000    -0.7546043000
   23      H       3.6731693000     0.1448872000     1.7817888000
   24      H       5.8005027000    -2.1040531000    -0.5846392000
 ----------------------------------------------------------------
 Nuclear Repulsion Energy =         940.37827824 hartrees
 There are       53 alpha and       52 beta electrons
 Requested basis set is 6-311++G(2df,2p)
 There are 170 shells and 552 basis functions

 Total QAlloc Memory Limit 288000 MB
 Mega-Array Size       188 MB
 MEM_STATIC part       192 MB
 
 Citation of the SMD model:
 Marenich, A.V.; Cramer, C.J.; Truhlar, D.G.
 J. Phys. Chem. B 2009, 113, 6378-6396.
 iSolventCode=           1
 Solvent: water                                                           
 
 vradii
            1           2           3           4           5           6
    1   1.8500000   1.5200000   1.8500000   1.5200000   1.8500000   1.8500000
            7           8           9          10          11          12
    1   1.5200000   1.8500000   1.5200000   1.5200000   1.2000000   1.2000000
           13          14          15          16          17          18
    1   1.2000000   1.2000000   1.2000000   1.2000000   1.2000000   1.2000000
           19          20          21          22          23          24
    1   1.5200000   1.2000000   1.5200000   1.5200000   1.2000000   1.2000000
 Changing PCM_VDW_RADII to SMD_RADIUS
 Discretize the solute cavity surface with Lebedev spheres
	Using 110 Lebedev grid points for each H atom
	Using 194 Lebedev grid points for other atoms
	Atomic van der Waals radii will be scaled by 1.20
 Remove points where switching function is < 1.0e-08
 Keep 1871 surface tesserae and discard 1861 interior tesserae
 Molecular Surface Area = 206.000 Angst**2
 A cutoff of  1.0D-12 yielded  12081 shell pairs
 There are    124840 function pairs (    154155 Cartesian)
 Smallest overlap matrix eigenvalue = 4.42E-06
 Guess from superposition of atomic densities
 Warning:  Energy on first SCF cycle will be non-variational
 SAD guess density has 105.000000 electrons

 -----------------------------------------------------------------------
  General SCF calculation program by
  Eric Jon Sundstrom, Paul Horn, Yuezhi Mao, Dmitri Zuev, Alec White,
  David Stuck, Shaama M.S., Shane Yost, Joonho Lee, David Small,
  Daniel Levine, Susi Lehtola, Hugh Burton, Evgeny Epifanovsky,
  Bang C. Huynh
 -----------------------------------------------------------------------
 Exchange:     0.1500 Hartree-Fock + 1.0000 wB97M-V + LR-HF
 Correlation:  1.0000 wB97M-V
 Using SG-2 standard quadrature grid
 Nonlocal Correlation:  VV10 with C = 0.0100 and b = 6.00 and scale = 1.00000
 Grid used for NLC:  SG-1 standard quadrature
 using 16 threads for integral computing
 -------------------------------------------------------
 OpenMP Integral computing Module                
 Release: version 1.0, May 2013, Q-Chem Inc. Pittsburgh 
 -------------------------------------------------------
 
 Citation of the SMD model:
 Marenich, A.V.; Cramer, C.J.; Truhlar, D.G.
 J. Phys. Chem. B 2009, 113, 6378-6396.
 iSolventCode=           1
 Solvent: water                                                           
 
 vradii
            1           2           3           4           5           6
    1   1.8500000   1.5200000   1.8500000   1.5200000   1.8500000   1.8500000
            7           8           9          10          11          12
    1   1.5200000   1.8500000   1.5200000   1.5200000   1.2000000   1.2000000
           13          14          15          16          17          18
    1   1.2000000   1.2000000   1.2000000   1.2000000   1.2000000   1.2000000
           19          20          21          22          23          24
    1   1.5200000   1.2000000   1.5200000   1.5200000   1.2000000   1.2000000
 -------------------------------------------------------
 OpenMP BLAS3 based DFT computing Module                
 Release: version 1.0, May 2013, Q-Chem Inc. Pittsburgh 
 -------------------------------------------------------
 A unrestricted SCF calculation will be
 performed using DIIS, GDM
 SCF converges when RMS gradient is below 1.0e-07
 ---------------------------------------
  Cycle       Energy         DIIS error
 ---------------------------------------
    1    -801.3052445736      1.06e-02  
    2    -798.5870841414      1.48e-03  Done DIIS. Switching to GDM
 ---------------------------------------
  Cycle       Energy        RMS Gradient
 ---------------------------------------
    1    -798.5870841414      1.58e-01   Descent step
    2    -798.8049363627      6.59e-02   Normal BFGS step
    3    -798.8560693810      2.49e-02   Normal BFGS step
    4    -798.8589453182      1.37e-02   Normal BFGS step
    5    -798.8608827956      8.72e-03   Normal BFGS step
    6    -798.8612841482      4.06e-03   Normal BFGS step
    7    -798.8614234493      8.61e-04   Normal BFGS step
    8    -798.8614385401      2.13e-04   Normal BFGS step
    9    -798.8614403541      1.70e-04   Normal BFGS step
   10    -798.8614408032      7.03e-05   Normal BFGS step
   11    -798.8614408867      3.56e-05   Normal BFGS step
   12    -798.8614409097      1.59e-05   Normal BFGS step
   13    -798.8614409192      9.23e-06   Normal BFGS step
   14    -798.8614409205      3.14e-06   Normal BFGS step
   15    -798.8614409209      1.40e-06   Normal BFGS step
   16    -798.8614409210      6.69e-07   Normal BFGS step
   17    -798.8614409210      2.82e-07   Normal BFGS step
   18    -798.8614409210      1.47e-07   Normal BFGS step
   19    -798.8614409209      5.55e-08  Convergence criterion met
 ---------------------------------------
 SCF time:   CPU 4147.29s  wall 287.00s 
<S^2> =          0.753293803
(3)  G-ENP(liq) elect-nuc-pol free energy of system     -798.861440921 a.u.
(4)  G-CDS(liq) cavity-dispersion-solvent structure 
     free energy                                                5.8035 kcal/mol
(6)  G-S(liq) free energy of system                     -798.852192379 a.u.
 SCF   energy in the final basis set =     -798.8521923790
 Total energy in the final basis set =     -798.8521923790
 
 --------------------------------------------------------------
 
                    Orbital Energies (a.u.)
 --------------------------------------------------------------
 
 Alpha MOs
 -- Occupied --
-19.4030 -19.3980 -19.3736 -19.3695 -19.3549 -19.3480 -19.3468 -19.3367
-10.4653 -10.4504 -10.4481 -10.4411 -10.3493  -1.2783  -1.2327  -1.2119
 -1.1884  -1.1735  -1.1653  -1.1375  -1.0372  -0.9086  -0.8354  -0.7930
 -0.7440  -0.7132  -0.6916  -0.6854  -0.6523  -0.6352  -0.6302  -0.6148
 -0.5952  -0.5893  -0.5788  -0.5689  -0.5569  -0.5444  -0.5294  -0.5204
 -0.5087  -0.4964  -0.4828  -0.4717  -0.4580  -0.4523  -0.4413  -0.4323
 -0.4135  -0.4096  -0.3962  -0.3659  -0.2653
 -- Virtual --
  0.0239   0.0347   0.0388   0.0401   0.0559   0.0570   0.0582   0.0668
  0.0698   0.0785   0.0844   0.0935   0.1075   0.1129   0.1160   0.1283
  0.1293   0.1392   0.1414   0.1446   0.1544   0.1562   0.1588   0.1634
  0.1656   0.1734   0.1773   0.1819   0.1980   0.2019   0.2031   0.2088
  0.2232   0.2278   0.2337   0.2440   0.2537   0.2570   0.2621   0.2714
  0.2747   0.2766   0.2824   0.2905   0.2923   0.2996   0.3065   0.3084
  0.3244   0.3261   0.3282   0.3322   0.3364   0.3387   0.3455   0.3492
  0.3553   0.3577   0.3592   0.3664   0.3748   0.3758   0.3834   0.3879
  0.3881   0.3945   0.4006   0.4019   0.4042   0.4117   0.4181   0.4222
  0.4293   0.4407   0.4484   0.4516   0.4526   0.4606   0.4691   0.4814
  0.4853   0.4968   0.5059   0.5282   0.5307   0.5576   0.5723   0.5915
  0.5987   0.6048   0.6197   0.6243   0.6318   0.6370   0.6438   0.6521
  0.6603   0.6675   0.6741   0.6823   0.6972   0.7121   0.7162   0.7178
  0.7329   0.7418   0.7544   0.7597   0.7674   0.7820   0.7900   0.8052
  0.8116   0.8134   0.8275   0.8399   0.8620   0.8668   0.8815   0.8923
  0.9021   0.9195   0.9256   0.9601   0.9704   0.9837   0.9969   1.0046
  1.0208   1.0264   1.0509   1.0589   1.0664   1.0855   1.0865   1.1034
  1.1205   1.1324   1.1363   1.1504   1.1532   1.1650   1.1677   1.1785
  1.1874   1.1888   1.2029   1.2041   1.2110   1.2182   1.2249   1.2281
  1.2353   1.2504   1.2571   1.2664   1.2688   1.2802   1.2985   1.2998
  1.3050   1.3181   1.3255   1.3363   1.3483   1.3563   1.3660   1.3716
  1.3836   1.3909   1.4018   1.4068   1.4234   1.4314   1.4384   1.4509
  1.4558   1.4678   1.4875   1.4929   1.4999   1.5137   1.5159   1.5400
  1.5475   1.5606   1.5687   1.5843   1.5945   1.6174   1.6192   1.6259
  1.6414   1.6504   1.6873   1.6943   1.7024   1.7112   1.7280   1.7372
  1.7792   1.7930   1.8031   1.8241   1.8448   1.8698   1.8785   1.9115
  1.9210   1.9282   1.9447   1.9648   1.9801   1.9919   1.9990   2.0187
  2.0324   2.0618   2.0742   2.0777   2.1008   2.1280   2.1411   2.1902
  2.2254   2.2414   2.2657   2.2746   2.2922   2.3133   2.3439   2.3627
  2.3696   2.3862   2.4021   2.4120   2.4324   2.4544   2.4716   2.4870
  2.4988   2.5035   2.5441   2.5647   2.5982   2.6135   2.6343   2.6867
  2.7005   2.7543   2.7790   2.7875   2.8190   2.8353   2.8465   2.8626
  2.8825   2.9059   2.9314   2.9426   2.9692   2.9927   3.0217   3.0578
  3.0626   3.0877   3.1053   3.1171   3.1464   3.1600   3.1952   3.2267
  3.2481   3.2599   3.2742   3.2896   3.3045   3.3223   3.3304   3.3434
  3.3749   3.3902   3.4004   3.4038   3.4222   3.4518   3.4622   3.4831
  3.4900   3.5171   3.5254   3.5373   3.5643   3.5933   3.6084   3.6284
  3.6447   3.6638   3.6734   3.6778   3.7044   3.7096   3.7268   3.7544
  3.7655   3.7806   3.8021   3.8106   3.8276   3.8371   3.8464   3.8606
  3.8673   3.8868   3.8996   3.9077   3.9171   3.9311   3.9342   3.9459
  3.9681   3.9750   3.9965   4.0092   4.0196   4.0708   4.0921   4.1119
  4.1240   4.1331   4.1547   4.1666   4.1729   4.1964   4.2468   4.2564
  4.2651   4.2704   4.2833   4.2962   4.3100   4.3169   4.3613   4.3774
  4.3905   4.4131   4.4337   4.4403   4.4528   4.4668   4.4762   4.4931
  4.5689   4.5893   4.6147   4.6364   4.6974   4.7471   4.7566   4.7644
  4.8505   4.8797   4.9024   5.0352   5.0545   5.1002   5.1656   5.1843
  5.2042   5.2145   5.2234   5.2339   5.2347   5.2575   5.2617   5.2636
  5.2775   5.2837   5.2850   5.2963   5.3067   5.3234   5.3417   5.3475
  5.3645   5.3761   5.3848   5.3880   5.4043   5.4113   5.4240   5.4265
  5.4388   5.4649   5.4804   5.4954   5.5072   5.5199   5.5395   5.5608
  5.5717   5.5856   5.5862   5.6097   5.6143   5.6225   5.6289   5.6448
  5.6593   5.6790   5.7025   5.7206   5.7470   5.7923   5.7950   5.8080
  5.8194   5.8659   5.9253   5.9588   5.9741   5.9822   6.0291   6.0548
  6.0724   6.0975   6.1360   6.1588   6.2563   6.3308   6.3578   6.5012
  6.5395   6.5903   6.6544   6.7577   6.8310   6.8637   6.8745   7.0068
  7.0283   7.0374   7.0535   7.0807   7.0856   7.1014   7.1048   7.1438
  7.1736   7.1944   7.2257   7.2591   7.2686   7.2737   7.2804   7.3060
  7.3080   7.3225   7.3248   7.3369   7.3481   7.3728   7.3908   7.4162
  7.4229   7.4334   7.4773   7.5008   7.5214   7.5799   7.5900   7.6067
  7.6225   7.6678   7.6931   7.7208   7.7705   7.7816   7.8173   7.8488
  7.8545   7.8742   7.8945   7.9182   8.0339   8.2119  24.6706  24.7989
 24.8554  24.8596  25.0061  50.4990  50.5549  50.5970  50.6265  50.6365
 50.6562  50.6960  50.7432
 
 Beta MOs
 -- Occupied --
-19.4030 -19.3979 -19.3701 -19.3672 -19.3549 -19.3480 -19.3468 -19.3340
-10.4653 -10.4481 -10.4409 -10.4392 -10.3492  -1.2783  -1.2240  -1.2119
 -1.1866  -1.1706  -1.1584  -1.1374  -1.0371  -0.9077  -0.8345  -0.7765
 -0.7430  -0.7101  -0.6914  -0.6784  -0.6521  -0.6347  -0.6194  -0.6114
 -0.5888  -0.5829  -0.5750  -0.5673  -0.5510  -0.5420  -0.5282  -0.5150
 -0.4956  -0.4867  -0.4816  -0.4644  -0.4540  -0.4461  -0.4326  -0.4319
 -0.4132  -0.4090  -0.3957  -0.3636
 -- Virtual --
  0.0119   0.0249   0.0346   0.0390   0.0399   0.0559   0.0576   0.0636
  0.0676   0.0780   0.0842   0.0906   0.0994   0.1079   0.1130   0.1209
  0.1285   0.1312   0.1399   0.1417   0.1447   0.1547   0.1567   0.1591
  0.1640   0.1675   0.1735   0.1772   0.1821   0.1986   0.2023   0.2033
  0.2090   0.2238   0.2293   0.2343   0.2443   0.2550   0.2581   0.2625
  0.2719   0.2756   0.2770   0.2827   0.2909   0.2935   0.3011   0.3071
  0.3090   0.3265   0.3272   0.3303   0.3338   0.3375   0.3397   0.3461
  0.3496   0.3564   0.3594   0.3614   0.3682   0.3753   0.3766   0.3843
  0.3880   0.3890   0.3957   0.4013   0.4022   0.4079   0.4133   0.4185
  0.4265   0.4319   0.4410   0.4494   0.4526   0.4540   0.4621   0.4705
  0.4825   0.4866   0.4976   0.5063   0.5286   0.5319   0.5600   0.5752
  0.5926   0.6009   0.6069   0.6213   0.6256   0.6338   0.6418   0.6448
  0.6552   0.6631   0.6735   0.6755   0.6838   0.7024   0.7134   0.7183
  0.7203   0.7358   0.7451   0.7572   0.7636   0.7719   0.7844   0.7911
  0.8067   0.8145   0.8194   0.8285   0.8414   0.8663   0.8716   0.8836
  0.8956   0.9029   0.9233   0.9283   0.9613   0.9718   0.9849   0.9986
  1.0070   1.0245   1.0301   1.0523   1.0598   1.0672   1.0863   1.0886
  1.1049   1.1215   1.1332   1.1411   1.1522   1.1564   1.1677   1.1701
  1.1806   1.1897   1.1905   1.2040   1.2061   1.2124   1.2195   1.2256
  1.2298   1.2381   1.2512   1.2594   1.2689   1.2704   1.2827   1.3001
  1.3019   1.3082   1.3190   1.3305   1.3383   1.3501   1.3574   1.3694
  1.3736   1.3848   1.3936   1.4054   1.4086   1.4266   1.4333   1.4416
  1.4526   1.4582   1.4703   1.4880   1.4981   1.5015   1.5160   1.5186
  1.5412   1.5513   1.5614   1.5694   1.5863   1.5979   1.6189   1.6269
  1.6318   1.6432   1.6516   1.6883   1.6953   1.7031   1.7120   1.7308
  1.7381   1.7806   1.7950   1.8085   1.8258   1.8463   1.8741   1.8816
  1.9128   1.9241   1.9298   1.9465   1.9689   1.9828   1.9927   2.0045
  2.0208   2.0363   2.0621   2.0765   2.0847   2.1033   2.1294   2.1426
  2.1982   2.2261   2.2432   2.2698   2.2751   2.2967   2.3139   2.3463
  2.3676   2.3751   2.3881   2.4030   2.4132   2.4388   2.4616   2.4732
  2.4905   2.5000   2.5039   2.5453   2.5649   2.6044   2.6146   2.6536
  2.6882   2.7018   2.7565   2.7899   2.7953   2.8200   2.8387   2.8545
  2.8700   2.8848   2.9085   2.9351   2.9457   2.9830   3.0002   3.0415
  3.0679   3.0921   3.1015   3.1148   3.1317   3.1594   3.1828   3.1973
  3.2293   3.2642   3.2673   3.2874   3.2997   3.3150   3.3321   3.3425
  3.3587   3.3875   3.4037   3.4077   3.4173   3.4352   3.4566   3.4731
  3.4925   3.5068   3.5283   3.5325   3.5575   3.5740   3.6084   3.6140
  3.6397   3.6508   3.6688   3.6809   3.6985   3.7091   3.7124   3.7351
  3.7649   3.7768   3.7836   3.8066   3.8134   3.8382   3.8436   3.8485
  3.8624   3.8696   3.8932   3.9048   3.9126   3.9225   3.9390   3.9423
  3.9582   3.9729   3.9819   3.9978   4.0146   4.0212   4.0746   4.0968
  4.1170   4.1284   4.1367   4.1586   4.1689   4.1780   4.1991   4.2480
  4.2626   4.2674   4.2746   4.2843   4.3012   4.3162   4.3189   4.3637
  4.3789   4.3939   4.4160   4.4394   4.4440   4.4641   4.4727   4.4783
  4.5061   4.5699   4.5903   4.6155   4.6382   4.6979   4.7485   4.7576
  4.7652   4.8516   4.8804   4.9043   5.0367   5.0546   5.1020   5.1883
  5.1910   5.2129   5.2170   5.2253   5.2404   5.2446   5.2594   5.2640
  5.2710   5.2826   5.2889   5.2931   5.2999   5.3090   5.3264   5.3428
  5.3543   5.3654   5.3773   5.3871   5.4053   5.4075   5.4189   5.4264
  5.4323   5.4428   5.4672   5.4822   5.4957   5.5110   5.5280   5.5405
  5.5653   5.5719   5.5864   5.5914   5.6114   5.6191   5.6269   5.6311
  5.6458   5.6602   5.6792   5.7036   5.7212   5.7645   5.7927   5.7953
  5.8087   5.8208   5.8686   5.9259   5.9708   5.9760   5.9919   6.0293
  6.0549   6.0870   6.0976   6.1362   6.1589   6.2564   6.3375   6.3675
  6.5013   6.5537   6.5906   6.6564   6.7577   6.8315   6.8698   6.8789
  7.0139   7.0327   7.0414   7.0639   7.0831   7.0918   7.1049   7.1080
  7.1463   7.1753   7.1968   7.2333   7.2615   7.2708   7.2766   7.2813
  7.3098   7.3177   7.3246   7.3308   7.3459   7.3527   7.3816   7.3913
  7.4186   7.4265   7.4377   7.4784   7.5012   7.5219   7.5832   7.5918
  7.6100   7.6248   7.6678   7.6932   7.7273   7.7750   7.7840   7.8229
  7.8496   7.8592   7.8750   7.8947   7.9182   8.0339   8.2119  24.6707
 24.7989  24.8554  24.8694  25.0063  50.4990  50.5575  50.5971  50.6284
 50.6370  50.6563  50.6963  50.7449
 --------------------------------------------------------------
 
          Ground-State Mulliken Net Atomic Charges

     Atom                 Charge (a.u.)    Spin (a.u.)
  --------------------------------------------------------
      1 C                    -0.069730      -0.000099
      2 O                    -0.426414       0.000538
      3 C                     0.013768       0.010090
      4 O                    -0.392306       0.003264
      5 C                    -0.207895      -0.029539
      6 C                    -0.197532       0.086946
      7 O                    -0.442952       0.085100
      8 C                    -0.152212       0.689809
      9 O                    -0.294265       0.089433
     10 O                    -0.343039       0.057584
     11 H                     0.300212       0.000088
     12 H                     0.341647       0.000122
     13 H                     0.223040       0.002125
     14 H                     0.285425       0.004245
     15 H                     0.309798      -0.002709
     16 H                     0.297112       0.000302
     17 H                     0.320095      -0.003068
     18 H                     0.338489       0.007452
     19 O                    -0.461262       0.000148
     20 H                     0.350093      -0.000303
     21 O                    -0.159231      -0.000566
     22 O                    -0.288434       0.000789
     23 H                     0.316916      -0.001537
     24 H                     0.338677      -0.000214
  --------------------------------------------------------
  Sum of atomic charges =    -0.000000
  Sum of spin   charges =     1.000000

 -----------------------------------------------------------------
                    Cartesian Multipole Moments
 -----------------------------------------------------------------
    Charge (ESU x 10^10)
                -0.0000
    Dipole Moment (Debye)
         X       1.9768      Y       4.2512      Z      -5.9852
       Tot       7.6028
    Quadrupole Moments (Debye-Ang)
        XX     -58.0765     XY       8.8943     YY     -88.7174
        XZ     -26.5270     YZ      -7.4742     ZZ     -75.9151
    Octopole Moments (Debye-Ang^2)
       XXX    -785.7890    XXY     -32.3859    XYY    -350.8476
       YYY     -63.1056    XXZ    -160.3072    XYZ     -29.2039
       YYZ     -50.9148    XZZ    -319.8133    YZZ     -37.7993
       ZZZ     -77.2424
    Hexadecapole Moments (Debye-Ang^3)
      XXXX   -7461.7945   XXXY    -858.3043   XXYY   -1887.2204
      XYYY    -603.5633   YYYY   -1890.2734   XXXZ   -1242.1451
      XXYZ    -248.8675   XYYZ    -315.2411   YYYZ    -456.2279
      XXZZ   -1586.6846   XYZZ    -227.9793   YYZZ    -455.4020
      XZZZ    -448.1414   YZZZ    -287.3507   ZZZZ    -574.1616
 -----------------------------------------------------------------
 Calculating analytic gradient of the SCF energy
 Gradient of CDS energy
            1           2           3           4           5           6
    1  -0.0028949   0.0008547  -0.0014712   0.0015605  -0.0000796   0.0006165
    2  -0.0002775  -0.0018930   0.0009199  -0.0009946   0.0000658  -0.0004890
    3   0.0003244   0.0006940   0.0028506  -0.0030406  -0.0002138   0.0014100
            7           8           9          10          11          12
    1   0.0000161  -0.0005407   0.0039958  -0.0031088   0.0001908  -0.0002976
    2   0.0002319   0.0016484   0.0001682  -0.0010067  -0.0001636   0.0002791
    3  -0.0011323   0.0042958  -0.0012466  -0.0033780   0.0000241  -0.0003195
           13          14          15          16          17          18
    1  -0.0001173  -0.0000380  -0.0000464  -0.0000873  -0.0003721   0.0001021
    2  -0.0001113  -0.0001373   0.0001033  -0.0000944   0.0002115   0.0000550
    3   0.0000723  -0.0000793  -0.0000030   0.0000161   0.0000584   0.0003532
           19          20          21          22          23          24
    1   0.0022054  -0.0003731  -0.0001186  -0.0002469  -0.0001268   0.0003773
    2   0.0019457  -0.0001283  -0.0000227   0.0001250  -0.0000724  -0.0003629
    3  -0.0011655   0.0002987  -0.0001070   0.0000807   0.0003144  -0.0001073
 Gradient of SCF Energy
            1           2           3           4           5           6
    1  -0.0029283   0.0055938   0.0043562  -0.0022548   0.0007483  -0.0114037
    2   0.0051633   0.0011972  -0.0044208  -0.0017194   0.0008059  -0.0092784
    3   0.0039913   0.0128254  -0.0010668   0.0021482   0.0243952  -0.0024794
            7           8           9          10          11          12
    1   0.0017535  -0.0018817   0.0091506   0.0014707   0.0017948  -0.0067445
    2  -0.0052896  -0.0065011   0.0003913   0.0071885   0.0013319  -0.0012978
    3   0.0057125   0.0156095   0.0156205  -0.0038807  -0.0068143  -0.0127859
           13          14          15          16          17          18
    1  -0.0051870   0.0083927   0.0086693   0.0007555  -0.0088215  -0.0003850
    2   0.0128018  -0.0056290   0.0069162   0.0062029   0.0004470  -0.0044608
    3  -0.0060493  -0.0123335  -0.0074468  -0.0144853  -0.0165879   0.0038343
           19          20          21          22          23          24
    1   0.0003711  -0.0017906  -0.0031065  -0.0147592   0.0000506   0.0161557
    2  -0.0064428   0.0020166  -0.0005664  -0.0080114   0.0017208   0.0074341
    3   0.0013302  -0.0007061   0.0046126  -0.0029741  -0.0014885  -0.0009811
 Max gradient component =       2.440E-02
 RMS gradient           =       7.568E-03
 Computing fast CPCM-SWIG gradient
 Updating gradient with PCM contributions...
 -- total gradient after adding PCM contribution --
---------------------------------------------------
  Atom         X              Y              Z     
---------------------------------------------------
   1       0.000045      -0.000121       0.000001
   2       0.000238       0.000028      -0.000326
   3      -0.000004       0.000084       0.000139
   4      -0.000270      -0.000017      -0.000170
   5      -0.000027      -0.000224      -0.000121
   6      -0.000008       0.000169      -0.000442
   7       0.000146      -0.000164       0.000767
   8       0.000062       0.000105       0.000256
   9       0.000162       0.000148      -0.000080
  10      -0.000279       0.000227      -0.000056
  11       0.000039      -0.000197       0.000131
  12      -0.000118      -0.000028       0.000099
  13       0.000052       0.000053       0.000079
  14      -0.000218       0.000088      -0.000158
  15      -0.000031       0.000104       0.000027
  16       0.000009      -0.000006      -0.000014
  17      -0.000043       0.000057       0.000060
  18       0.000156      -0.000428      -0.000210
  19      -0.000264       0.000224      -0.000082
  20       0.000128      -0.000087       0.000076
  21       0.000033       0.000008      -0.000032
  22       0.000110       0.000079       0.000007
  23       0.000095      -0.000129       0.000023
  24      -0.000013       0.000026       0.000027
---------------------------------------------------
 Number of fixed atoms: 0
 Gradient time:  CPU 582.54 s  wall 49.22 s
 ######################################################
 ######################################################
 # Starting finite difference calculation for IDERIV  #
 Finite diff step size:  1.88973e-03 a.u.
 ----------------------------------------------------------------
             Standard Nuclear Orientation (Angstroms)
    I     Atom           X                Y                Z
 ----------------------------------------------------------------
    1      C       2.4567920000    -0.8515009000    -1.0069010000
    2      O       1.8782109000     0.3818961000    -1.3619737000
    3      C       3.5718563000    -0.5544407000     0.0043107000
    4      O       2.9607001000    -0.1503609000     1.1887488000
    5      C       4.5880691000     0.4444655000    -0.5216427000
    6      C       5.6202889000     0.8650275000     0.4913802000
    7      O       5.5902475000     0.5186205000     1.6741532000
    8      C       4.9267224000     3.1957539000     0.9213163000
    9      O       3.6428684000     3.0289096000     1.3421202000
   10      O       5.8009921000     3.4030333000     1.9313031000
   11      H       2.8716440000    -1.3526603000    -1.8787452000
   12      H       1.2885150000     0.2275950000    -2.1087658000
   13      H       4.0669132000     1.3264136000    -0.8907124000
   14      H       5.1115020000     0.0273524000    -1.3837383000
   15      H       6.5070196000     1.3667438000     0.0855572000
   16      H       5.1040625000     3.7940754000     0.0352098000
   17      H       3.0622954000     2.9488569000     0.5735081000
   18      H       5.7326731000     2.6675891000     2.5614761000
   19      O       1.5065436000    -1.7325769000    -0.4618863000
   20      H       1.2409780000    -1.3887319000     0.4019213000
   21      O       4.2015375000    -1.8044851000     0.3721708000
   22      O       4.8799960000    -2.3539461000    -0.7546043000
   23      H       3.6731693000     0.1448872000     1.7817888000
   24      H       5.8005027000    -2.1040531000    -0.5846392000
 ----------------------------------------------------------------
 Nuclear Repulsion Energy =         940.38360527 hartrees
 There are       53 alpha and       52 beta electrons
 Discretize the solute cavity surface with Lebedev spheres
	Using 110 Lebedev grid points for each H atom
	Using 194 Lebedev grid points for other atoms
	Atomic van der Waals radii will be scaled by 1.20
 Remove points where switching function is < 1.0e-08
 Keep 1870 surface tesserae and discard 1862 interior tesserae
 Molecular Surface Area = 205.999 Angst**2
 Requested basis set is 6-311++G(2df,2p)
 There are 170 shells and 552 basis functions
 A cutoff of  1.0D-12 yielded  12081 shell pairs
 There are    124840 function pairs (    154155 Cartesian)
 Smallest overlap matrix eigenvalue = 4.42E-06
 Guess MOs from SCF MO coefficient file

 -----------------------------------------------------------------------
  General SCF calculation program by
  Eric Jon Sundstrom, Paul Horn, Yuezhi Mao, Dmitri Zuev, Alec White,
  David Stuck, Shaama M.S., Shane Yost, Joonho Lee, David Small,
  Daniel Levine, Susi Lehtola, Hugh Burton, Evgeny Epifanovsky,
  Bang C. Huynh
 -----------------------------------------------------------------------
 Exchange:     0.1500 Hartree-Fock + 1.0000 wB97M-V + LR-HF
 Correlation:  1.0000 wB97M-V
 Using SG-2 standard quadrature grid
 Nonlocal Correlation:  VV10 with C = 0.0100 and b = 6.00 and scale = 1.00000
 Grid used for NLC:  SG-1 standard quadrature
 
 Citation of the SMD model:
 Marenich, A.V.; Cramer, C.J.; Truhlar, D.G.
 J. Phys. Chem. B 2009, 113, 6378-6396.
 iSolventCode=           1
 Solvent: water                                                           
 
 vradii
            1           2           3           4           5           6
    1   1.8500000   1.5200000   1.8500000   1.5200000   1.8500000   1.8500000
            7           8           9          10          11          12
    1   1.5200000   1.8500000   1.5200000   1.5200000   1.2000000   1.2000000
           13          14          15          16          17          18
    1   1.2000000   1.2000000   1.2000000   1.2000000   1.2000000   1.2000000
           19          20          21          22          23          24
    1   1.5200000   1.2000000   1.5200000   1.5200000   1.2000000   1.2000000
 -------------------------------------------------------
 OpenMP BLAS3 based DFT computing Module                
 Release: version 1.0, May 2013, Q-Chem Inc. Pittsburgh 
 -------------------------------------------------------
 A unrestricted SCF calculation will be
 performed using Roothaan-Hall, DIIS, GDM
 SCF converges when RMS gradient is below 1.0e-07
 ---------------------------------------
  Cycle       Energy         DIIS error
 ---------------------------------------
    1    -798.7940205522      2.19e-04  Roothaan Step
 ---------------------------------------
  Cycle       Energy         DIIS error
 ---------------------------------------
    1    -798.8470603934      2.54e-04  
    2    -798.8553926706      2.38e-04  Done DIIS. Switching to GDM
 ---------------------------------------
  Cycle       Energy        RMS Gradient
 ---------------------------------------
    1    -798.8553926706      1.73e-02   Normal BFGS step
    2    -798.8534681027      2.57e-02  Line search: overstep
    3    -798.8610715372      2.69e-03   Normal BFGS step
    4    -798.8613652809      6.87e-04   Normal BFGS step
    5    -798.8614222266      5.99e-04   Normal BFGS step
    6    -798.8614332440      1.23e-04   Normal BFGS step
    7    -798.8614340901      7.22e-05   Normal BFGS step
    8    -798.8614343759      5.99e-05   Normal BFGS step
    9    -798.8614344058      2.25e-05   Normal BFGS step
   10    -798.8614344190      8.17e-06   Normal BFGS step
   11    -798.8614344213      4.66e-06   Normal BFGS step
   12    -798.8614344218      1.70e-06   Normal BFGS step
   13    -798.8614344219      8.37e-07   Normal BFGS step
   14    -798.8614344220      2.78e-07   Normal BFGS step
   15    -798.8614344220      1.39e-07   Normal BFGS step
   16    -798.8614344220      1.15e-07   Normal BFGS step
   17    -798.8614344221      3.16e-08  Convergence criterion met
 ---------------------------------------
 SCF time:   CPU 4017.36s  wall 276.00s 
<S^2> =          0.753293869
(3)  G-ENP(liq) elect-nuc-pol free energy of system     -798.861434422 a.u.
(4)  G-CDS(liq) cavity-dispersion-solvent structure 
     free energy                                                5.8002 kcal/mol
(6)  G-S(liq) free energy of system                     -798.852191215 a.u.
 SCF   energy in the final basis set =     -798.8521912151
 Total energy in the final basis set =     -798.8521912151
 
 --------------------------------------------------------------
 
                    Orbital Energies (a.u.)
 --------------------------------------------------------------
 
 Alpha MOs
 -- Occupied --
-19.4030 -19.3980 -19.3736 -19.3695 -19.3549 -19.3480 -19.3468 -19.3367
-10.4654 -10.4504 -10.4481 -10.4411 -10.3493  -1.2783  -1.2327  -1.2118
 -1.1884  -1.1735  -1.1653  -1.1373  -1.0372  -0.9087  -0.8356  -0.7930
 -0.7440  -0.7132  -0.6916  -0.6854  -0.6522  -0.6352  -0.6303  -0.6148
 -0.5952  -0.5894  -0.5787  -0.5689  -0.5569  -0.5444  -0.5294  -0.5204
 -0.5087  -0.4964  -0.4828  -0.4717  -0.4581  -0.4523  -0.4413  -0.4323
 -0.4135  -0.4096  -0.3962  -0.3659  -0.2653
 -- Virtual --
  0.0239   0.0347   0.0388   0.0401   0.0559   0.0570   0.0582   0.0668
  0.0698   0.0785   0.0844   0.0935   0.1075   0.1130   0.1160   0.1283
  0.1293   0.1392   0.1414   0.1446   0.1544   0.1562   0.1588   0.1634
  0.1656   0.1734   0.1773   0.1819   0.1980   0.2018   0.2031   0.2087
  0.2232   0.2277   0.2337   0.2440   0.2537   0.2570   0.2621   0.2713
  0.2747   0.2766   0.2824   0.2905   0.2923   0.2996   0.3065   0.3084
  0.3244   0.3262   0.3282   0.3322   0.3364   0.3387   0.3454   0.3492
  0.3553   0.3577   0.3592   0.3664   0.3748   0.3758   0.3834   0.3879
  0.3881   0.3945   0.4006   0.4019   0.4042   0.4117   0.4181   0.4221
  0.4293   0.4406   0.4484   0.4516   0.4526   0.4606   0.4691   0.4814
  0.4853   0.4968   0.5058   0.5282   0.5307   0.5576   0.5724   0.5916
  0.5987   0.6048   0.6197   0.6243   0.6317   0.6370   0.6439   0.6521
  0.6603   0.6675   0.6741   0.6823   0.6972   0.7122   0.7162   0.7178
  0.7329   0.7418   0.7544   0.7597   0.7674   0.7821   0.7900   0.8052
  0.8116   0.8134   0.8275   0.8400   0.8620   0.8668   0.8815   0.8923
  0.9021   0.9196   0.9256   0.9600   0.9703   0.9837   0.9969   1.0045
  1.0208   1.0264   1.0509   1.0590   1.0664   1.0855   1.0865   1.1035
  1.1205   1.1324   1.1363   1.1504   1.1532   1.1650   1.1677   1.1785
  1.1874   1.1888   1.2028   1.2040   1.2111   1.2182   1.2249   1.2281
  1.2353   1.2505   1.2571   1.2664   1.2687   1.2801   1.2985   1.2998
  1.3050   1.3182   1.3255   1.3363   1.3483   1.3563   1.3660   1.3716
  1.3837   1.3909   1.4018   1.4068   1.4234   1.4314   1.4384   1.4509
  1.4558   1.4678   1.4874   1.4929   1.4999   1.5137   1.5159   1.5401
  1.5475   1.5606   1.5687   1.5843   1.5945   1.6174   1.6192   1.6259
  1.6415   1.6505   1.6874   1.6944   1.7025   1.7113   1.7280   1.7373
  1.7792   1.7930   1.8031   1.8241   1.8450   1.8699   1.8786   1.9114
  1.9210   1.9282   1.9447   1.9649   1.9801   1.9918   1.9990   2.0187
  2.0324   2.0616   2.0742   2.0777   2.1008   2.1280   2.1411   2.1902
  2.2253   2.2412   2.2657   2.2745   2.2923   2.3131   2.3438   2.3627
  2.3695   2.3862   2.4019   2.4121   2.4323   2.4544   2.4715   2.4869
  2.4987   2.5034   2.5442   2.5646   2.5982   2.6136   2.6343   2.6865
  2.7005   2.7543   2.7790   2.7875   2.8189   2.8354   2.8465   2.8626
  2.8822   2.9059   2.9314   2.9427   2.9692   2.9928   3.0217   3.0578
  3.0627   3.0877   3.1052   3.1172   3.1465   3.1601   3.1952   3.2268
  3.2481   3.2598   3.2742   3.2896   3.3044   3.3224   3.3303   3.3432
  3.3749   3.3903   3.4005   3.4037   3.4221   3.4518   3.4621   3.4831
  3.4899   3.5171   3.5253   3.5373   3.5642   3.5931   3.6085   3.6284
  3.6446   3.6638   3.6734   3.6778   3.7044   3.7095   3.7269   3.7544
  3.7655   3.7806   3.8020   3.8106   3.8276   3.8370   3.8465   3.8606
  3.8674   3.8868   3.8996   3.9077   3.9171   3.9312   3.9342   3.9459
  3.9681   3.9750   3.9965   4.0092   4.0197   4.0712   4.0922   4.1120
  4.1240   4.1332   4.1546   4.1667   4.1730   4.1964   4.2468   4.2564
  4.2652   4.2705   4.2836   4.2963   4.3101   4.3171   4.3615   4.3774
  4.3905   4.4132   4.4338   4.4406   4.4529   4.4671   4.4764   4.4931
  4.5691   4.5897   4.6149   4.6364   4.6976   4.7471   4.7567   4.7645
  4.8506   4.8799   4.9025   5.0352   5.0545   5.1004   5.1656   5.1843
  5.2042   5.2145   5.2234   5.2339   5.2347   5.2574   5.2618   5.2636
  5.2775   5.2836   5.2850   5.2962   5.3067   5.3234   5.3417   5.3475
  5.3644   5.3760   5.3849   5.3880   5.4043   5.4113   5.4241   5.4267
  5.4389   5.4649   5.4805   5.4952   5.5072   5.5199   5.5395   5.5608
  5.5715   5.5858   5.5864   5.6098   5.6144   5.6225   5.6289   5.6447
  5.6593   5.6788   5.7025   5.7208   5.7470   5.7923   5.7950   5.8079
  5.8193   5.8658   5.9252   5.9588   5.9738   5.9822   6.0291   6.0543
  6.0724   6.0972   6.1358   6.1564   6.2563   6.3308   6.3578   6.5013
  6.5395   6.5899   6.6544   6.7561   6.8310   6.8637   6.8745   7.0068
  7.0283   7.0374   7.0535   7.0807   7.0856   7.1014   7.1048   7.1438
  7.1736   7.1944   7.2257   7.2590   7.2686   7.2737   7.2803   7.3060
  7.3080   7.3224   7.3248   7.3369   7.3480   7.3728   7.3908   7.4161
  7.4228   7.4333   7.4773   7.5007   7.5214   7.5799   7.5899   7.6067
  7.6225   7.6676   7.6930   7.7208   7.7705   7.7815   7.8173   7.8488
  7.8545   7.8742   7.8945   7.9180   8.0338   8.2119  24.6703  24.7985
 24.8558  24.8596  25.0061  50.4990  50.5549  50.5969  50.6265  50.6364
 50.6562  50.6960  50.7432
 
 Beta MOs
 -- Occupied --
-19.4030 -19.3980 -19.3701 -19.3672 -19.3549 -19.3480 -19.3468 -19.3340
-10.4654 -10.4481 -10.4409 -10.4392 -10.3492  -1.2783  -1.2240  -1.2117
 -1.1866  -1.1706  -1.1584  -1.1373  -1.0372  -0.9078  -0.8346  -0.7765
 -0.7430  -0.7102  -0.6914  -0.6784  -0.6521  -0.6347  -0.6194  -0.6115
 -0.5888  -0.5828  -0.5749  -0.5673  -0.5510  -0.5420  -0.5282  -0.5150
 -0.4956  -0.4867  -0.4816  -0.4644  -0.4540  -0.4461  -0.4326  -0.4319
 -0.4132  -0.4090  -0.3957  -0.3636
 -- Virtual --
  0.0119   0.0249   0.0346   0.0390   0.0399   0.0559   0.0576   0.0636
  0.0676   0.0780   0.0842   0.0906   0.0993   0.1079   0.1130   0.1209
  0.1285   0.1312   0.1399   0.1417   0.1447   0.1547   0.1567   0.1591
  0.1640   0.1675   0.1735   0.1772   0.1821   0.1986   0.2023   0.2033
  0.2089   0.2238   0.2293   0.2343   0.2443   0.2550   0.2581   0.2625
  0.2719   0.2756   0.2771   0.2826   0.2909   0.2935   0.3011   0.3071
  0.3090   0.3266   0.3273   0.3304   0.3338   0.3375   0.3397   0.3461
  0.3496   0.3564   0.3594   0.3614   0.3682   0.3753   0.3765   0.3843
  0.3881   0.3890   0.3957   0.4013   0.4022   0.4079   0.4133   0.4185
  0.4265   0.4318   0.4409   0.4494   0.4526   0.4539   0.4621   0.4705
  0.4824   0.4866   0.4976   0.5063   0.5286   0.5319   0.5600   0.5752
  0.5927   0.6009   0.6069   0.6213   0.6256   0.6338   0.6418   0.6448
  0.6552   0.6631   0.6735   0.6755   0.6838   0.7024   0.7134   0.7183
  0.7203   0.7358   0.7451   0.7573   0.7636   0.7719   0.7845   0.7912
  0.8067   0.8145   0.8194   0.8286   0.8415   0.8663   0.8716   0.8837
  0.8956   0.9030   0.9233   0.9283   0.9612   0.9718   0.9849   0.9986
  1.0070   1.0245   1.0301   1.0522   1.0599   1.0672   1.0863   1.0886
  1.1049   1.1215   1.1332   1.1411   1.1522   1.1563   1.1677   1.1701
  1.1806   1.1897   1.1905   1.2040   1.2061   1.2124   1.2195   1.2256
  1.2298   1.2380   1.2513   1.2594   1.2689   1.2704   1.2827   1.3001
  1.3019   1.3082   1.3190   1.3305   1.3383   1.3502   1.3574   1.3693
  1.3737   1.3848   1.3936   1.4054   1.4086   1.4266   1.4333   1.4416
  1.4526   1.4582   1.4703   1.4879   1.4981   1.5015   1.5160   1.5186
  1.5412   1.5513   1.5614   1.5694   1.5863   1.5979   1.6189   1.6270
  1.6318   1.6432   1.6517   1.6884   1.6954   1.7032   1.7120   1.7308
  1.7382   1.7806   1.7951   1.8086   1.8258   1.8464   1.8741   1.8816
  1.9127   1.9240   1.9299   1.9465   1.9689   1.9829   1.9926   2.0045
  2.0208   2.0364   2.0619   2.0765   2.0847   2.1033   2.1294   2.1426
  2.1981   2.2260   2.2431   2.2698   2.2751   2.2967   2.3138   2.3462
  2.3675   2.3751   2.3880   2.4029   2.4133   2.4388   2.4616   2.4732
  2.4904   2.4999   2.5038   2.5453   2.5648   2.6044   2.6147   2.6536
  2.6881   2.7017   2.7565   2.7899   2.7953   2.8199   2.8388   2.8545
  2.8700   2.8846   2.9084   2.9351   2.9458   2.9830   3.0003   3.0415
  3.0680   3.0921   3.1015   3.1147   3.1318   3.1594   3.1828   3.1973
  3.2294   3.2641   3.2674   3.2874   3.2997   3.3149   3.3322   3.3424
  3.3586   3.3875   3.4037   3.4077   3.4173   3.4351   3.4567   3.4730
  3.4924   3.5068   3.5283   3.5326   3.5575   3.5739   3.6083   3.6141
  3.6399   3.6507   3.6688   3.6808   3.6984   3.7089   3.7126   3.7352
  3.7650   3.7768   3.7836   3.8065   3.8134   3.8382   3.8436   3.8485
  3.8625   3.8696   3.8932   3.9048   3.9127   3.9225   3.9390   3.9423
  3.9583   3.9729   3.9819   3.9978   4.0146   4.0213   4.0751   4.0969
  4.1170   4.1284   4.1368   4.1585   4.1691   4.1780   4.1992   4.2480
  4.2627   4.2676   4.2747   4.2846   4.3013   4.3163   4.3190   4.3640
  4.3789   4.3939   4.4161   4.4397   4.4440   4.4644   4.4728   4.4785
  4.5061   4.5702   4.5907   4.6158   4.6382   4.6980   4.7485   4.7577
  4.7653   4.8517   4.8805   4.9044   5.0367   5.0546   5.1022   5.1883
  5.1910   5.2129   5.2169   5.2253   5.2404   5.2446   5.2593   5.2641
  5.2710   5.2825   5.2889   5.2931   5.2999   5.3090   5.3264   5.3427
  5.3543   5.3654   5.3772   5.3872   5.4053   5.4075   5.4188   5.4266
  5.4323   5.4428   5.4672   5.4822   5.4955   5.5110   5.5280   5.5404
  5.5654   5.5718   5.5867   5.5914   5.6115   5.6191   5.6269   5.6311
  5.6457   5.6602   5.6790   5.7035   5.7214   5.7645   5.7927   5.7954
  5.8085   5.8207   5.8686   5.9259   5.9707   5.9759   5.9919   6.0292
  6.0544   6.0870   6.0972   6.1359   6.1564   6.2564   6.3375   6.3675
  6.5014   6.5537   6.5902   6.6564   6.7562   6.8316   6.8698   6.8789
  7.0139   7.0327   7.0414   7.0639   7.0830   7.0919   7.1049   7.1080
  7.1463   7.1753   7.1968   7.2333   7.2614   7.2708   7.2765   7.2812
  7.3098   7.3177   7.3245   7.3308   7.3458   7.3527   7.3816   7.3913
  7.4184   7.4265   7.4376   7.4784   7.5011   7.5219   7.5831   7.5918
  7.6100   7.6248   7.6676   7.6932   7.7273   7.7750   7.7840   7.8229
  7.8497   7.8592   7.8750   7.8947   7.9181   8.0339   8.2120  24.6704
 24.7985  24.8558  24.8694  25.0064  50.4990  50.5575  50.5970  50.6284
 50.6369  50.6563  50.6962  50.7449
 --------------------------------------------------------------
 
          Ground-State Mulliken Net Atomic Charges

     Atom                 Charge (a.u.)    Spin (a.u.)
  --------------------------------------------------------
      1 C                    -0.069912      -0.000100
      2 O                    -0.426555       0.000538
      3 C                     0.013629       0.010096
      4 O                    -0.392253       0.003265
      5 C                    -0.207705      -0.029550
      6 C                    -0.197583       0.086957
      7 O                    -0.442938       0.085104
      8 C                    -0.152211       0.689798
      9 O                    -0.294255       0.089433
     10 O                    -0.343038       0.057585
     11 H                     0.300577       0.000088
     12 H                     0.341649       0.000122
     13 H                     0.223056       0.002124
     14 H                     0.285461       0.004245
     15 H                     0.309805      -0.002710
     16 H                     0.297114       0.000302
     17 H                     0.320097      -0.003068
     18 H                     0.338488       0.007452
     19 O                    -0.461577       0.000148
     20 H                     0.350069      -0.000303
     21 O                    -0.159195      -0.000566
     22 O                    -0.288333       0.000789
     23 H                     0.316923      -0.001538
     24 H                     0.338684      -0.000214
  --------------------------------------------------------
  Sum of atomic charges =    -0.000000
  Sum of spin   charges =     1.000000

 -----------------------------------------------------------------
                    Cartesian Multipole Moments
 -----------------------------------------------------------------
    Charge (ESU x 10^10)
                -0.0000
    Dipole Moment (Debye)
         X       1.9823      Y       4.2516      Z      -5.9856
       Tot       7.6048
    Quadrupole Moments (Debye-Ang)
        XX     -58.0478     XY       8.8902     YY     -88.7185
        XZ     -26.5312     YZ      -7.4708     ZZ     -75.9102
    Octopole Moments (Debye-Ang^2)
       XXX    -785.6727    XXY     -32.4061    XYY    -350.8407
       YYY     -63.0980    XXZ    -160.3240    XYZ     -29.1911
       YYZ     -50.9172    XZZ    -319.7972    YZZ     -37.8068
       ZZZ     -77.2478
    Hexadecapole Moments (Debye-Ang^3)
      XXXX   -7461.3203   XXXY    -858.3694   XXYY   -1887.1674
      XYYY    -603.5529   YYYY   -1890.2828   XXXZ   -1242.1886
      XXYZ    -248.8238   XYYZ    -315.2464   YYYZ    -456.2139
      XXZZ   -1586.6256   XYZZ    -227.9999   YYZZ    -455.3898
      XZZZ    -448.1462   YZZZ    -287.3271   ZZZZ    -574.1270
 -----------------------------------------------------------------
 Calculating analytic gradient of the SCF energy
 Gradient of CDS energy
            1           2           3           4           5           6
    1  -0.0027508   0.0008214  -0.0014713   0.0015605  -0.0000796   0.0006165
    2  -0.0002474  -0.0018192   0.0009199  -0.0009945   0.0000658  -0.0004890
    3   0.0002811   0.0006733   0.0028505  -0.0030407  -0.0002138   0.0014100
            7           8           9          10          11          12
    1   0.0000161  -0.0005407   0.0039958  -0.0031088   0.0001903  -0.0002978
    2   0.0002319   0.0016484   0.0001682  -0.0010067  -0.0001641   0.0002791
    3  -0.0011323   0.0042958  -0.0012466  -0.0033780   0.0000243  -0.0003196
           13          14          15          16          17          18
    1  -0.0001174  -0.0000379  -0.0000464  -0.0000873  -0.0003722   0.0001021
    2  -0.0001113  -0.0001372   0.0001033  -0.0000944   0.0002114   0.0000550
    3   0.0000723  -0.0000792  -0.0000030   0.0000161   0.0000583   0.0003532
           19          20          21          22          23          24
    1   0.0020962  -0.0003736  -0.0001188  -0.0002468  -0.0001268   0.0003773
    2   0.0018428  -0.0001287  -0.0000228   0.0001250  -0.0000724  -0.0003629
    3  -0.0011015   0.0002988  -0.0001070   0.0000807   0.0003144  -0.0001073
 Gradient of SCF Energy
            1           2           3           4           5           6
    1  -0.0017761   0.0053316   0.0040978  -0.0022380   0.0007237  -0.0114136
    2   0.0051290   0.0013713  -0.0044705  -0.0017151   0.0007886  -0.0092882
    3   0.0038816   0.0127338  -0.0011900   0.0021718   0.0243925  -0.0024834
            7           8           9          10          11          12
    1   0.0017565  -0.0018815   0.0091491   0.0014710   0.0016290  -0.0067625
    2  -0.0052877  -0.0065016   0.0003923   0.0071908   0.0014131  -0.0012374
    3   0.0057167   0.0156114   0.0156207  -0.0038815  -0.0066874  -0.0127931
           13          14          15          16          17          18
    1  -0.0051861   0.0083974   0.0086738   0.0007562  -0.0088207  -0.0003847
    2   0.0128056  -0.0056321   0.0069195   0.0062040   0.0004465  -0.0044631
    3  -0.0060514  -0.0123407  -0.0074483  -0.0144874  -0.0165879   0.0038357
           19          20          21          22          23          24
    1  -0.0000256  -0.0018108  -0.0031304  -0.0147639   0.0000478   0.0161600
    2  -0.0066488   0.0019931  -0.0005532  -0.0080141   0.0017212   0.0074366
    3   0.0015211  -0.0006964   0.0045963  -0.0029753  -0.0014775  -0.0009813
 Max gradient component =       2.439E-02
 RMS gradient           =       7.559E-03
 Computing fast CPCM-SWIG gradient
 Updating gradient with PCM contributions...
 -- total gradient after adding PCM contribution --
---------------------------------------------------
  Atom         X              Y              Z     
---------------------------------------------------
   1       0.001188      -0.000165      -0.000115
   2      -0.000010       0.000201      -0.000412
   3      -0.000257       0.000038       0.000009
   4      -0.000246      -0.000009      -0.000140
   5      -0.000055      -0.000243      -0.000136
   6      -0.000010       0.000166      -0.000443
   7       0.000149      -0.000163       0.000767
   8       0.000063       0.000105       0.000255
   9       0.000161       0.000148      -0.000079
  10      -0.000278       0.000227      -0.000055
  11      -0.000127      -0.000112       0.000272
  12      -0.000143       0.000030       0.000089
  13       0.000053       0.000054       0.000078
  14      -0.000218       0.000089      -0.000159
  15      -0.000031       0.000105       0.000027
  16       0.000009      -0.000006      -0.000014
  17      -0.000042       0.000057       0.000060
  18       0.000156      -0.000428      -0.000210
  19      -0.000654       0.000014       0.000095
  20       0.000101      -0.000108       0.000094
  21       0.000010       0.000023      -0.000047
  22       0.000109       0.000079       0.000004
  23       0.000089      -0.000130       0.000031
  24      -0.000014       0.000026       0.000027
---------------------------------------------------
 Number of fixed atoms: 0
 Gradient time:  CPU 585.10 s  wall 49.68 s
 ----------------------------------------------------------------
             Standard Nuclear Orientation (Angstroms)
    I     Atom           X                Y                Z
 ----------------------------------------------------------------
    1      C       2.4547920000    -0.8515009000    -1.0069010000
    2      O       1.8782109000     0.3818961000    -1.3619737000
    3      C       3.5718563000    -0.5544407000     0.0043107000
    4      O       2.9607001000    -0.1503609000     1.1887488000
    5      C       4.5880691000     0.4444655000    -0.5216427000
    6      C       5.6202889000     0.8650275000     0.4913802000
    7      O       5.5902475000     0.5186205000     1.6741532000
    8      C       4.9267224000     3.1957539000     0.9213163000
    9      O       3.6428684000     3.0289096000     1.3421202000
   10      O       5.8009921000     3.4030333000     1.9313031000
   11      H       2.8716440000    -1.3526603000    -1.8787452000
   12      H       1.2885150000     0.2275950000    -2.1087658000
   13      H       4.0669132000     1.3264136000    -0.8907124000
   14      H       5.1115020000     0.0273524000    -1.3837383000
   15      H       6.5070196000     1.3667438000     0.0855572000
   16      H       5.1040625000     3.7940754000     0.0352098000
   17      H       3.0622954000     2.9488569000     0.5735081000
   18      H       5.7326731000     2.6675891000     2.5614761000
   19      O       1.5065436000    -1.7325769000    -0.4618863000
   20      H       1.2409780000    -1.3887319000     0.4019213000
   21      O       4.2015375000    -1.8044851000     0.3721708000
   22      O       4.8799960000    -2.3539461000    -0.7546043000
   23      H       3.6731693000     0.1448872000     1.7817888000
   24      H       5.8005027000    -2.1040531000    -0.5846392000
 ----------------------------------------------------------------
 Nuclear Repulsion Energy =         940.37295429 hartrees
 There are       53 alpha and       52 beta electrons
 Discretize the solute cavity surface with Lebedev spheres
	Using 110 Lebedev grid points for each H atom
	Using 194 Lebedev grid points for other atoms
	Atomic van der Waals radii will be scaled by 1.20
 Remove points where switching function is < 1.0e-08
 Keep 1871 surface tesserae and discard 1861 interior tesserae
 Molecular Surface Area = 206.001 Angst**2
 Requested basis set is 6-311++G(2df,2p)
 There are 170 shells and 552 basis functions
 A cutoff of  1.0D-12 yielded  12081 shell pairs
 There are    124840 function pairs (    154155 Cartesian)
 Smallest overlap matrix eigenvalue = 4.43E-06
 Guess MOs from SCF MO coefficient file

 -----------------------------------------------------------------------
  General SCF calculation program by
  Eric Jon Sundstrom, Paul Horn, Yuezhi Mao, Dmitri Zuev, Alec White,
  David Stuck, Shaama M.S., Shane Yost, Joonho Lee, David Small,
  Daniel Levine, Susi Lehtola, Hugh Burton, Evgeny Epifanovsky,
  Bang C. Huynh
 -----------------------------------------------------------------------
 Exchange:     0.1500 Hartree-Fock + 1.0000 wB97M-V + LR-HF
 Correlation:  1.0000 wB97M-V
 Using SG-2 standard quadrature grid
 Nonlocal Correlation:  VV10 with C = 0.0100 and b = 6.00 and scale = 1.00000
 Grid used for NLC:  SG-1 standard quadrature
 
 Citation of the SMD model:
 Marenich, A.V.; Cramer, C.J.; Truhlar, D.G.
 J. Phys. Chem. B 2009, 113, 6378-6396.
 iSolventCode=           1
 Solvent: water                                                           
 
 vradii
            1           2           3           4           5           6
    1   1.8500000   1.5200000   1.8500000   1.5200000   1.8500000   1.8500000
            7           8           9          10          11          12
    1   1.5200000   1.8500000   1.5200000   1.5200000   1.2000000   1.2000000
           13          14          15          16          17          18
    1   1.2000000   1.2000000   1.2000000   1.2000000   1.2000000   1.2000000
           19          20          21          22          23          24
    1   1.5200000   1.2000000   1.5200000   1.5200000   1.2000000   1.2000000
 -------------------------------------------------------
 OpenMP BLAS3 based DFT computing Module                
 Release: version 1.0, May 2013, Q-Chem Inc. Pittsburgh 
 -------------------------------------------------------
 A unrestricted SCF calculation will be
 performed using Roothaan-Hall, DIIS, GDM
 SCF converges when RMS gradient is below 1.0e-07
 ---------------------------------------
  Cycle       Energy         DIIS error
 ---------------------------------------
    1    -798.7940276963      2.19e-04  Roothaan Step
 ---------------------------------------
  Cycle       Energy         DIIS error
 ---------------------------------------
    1    -798.8470885256      2.53e-04  
    2    -798.8554191971      2.38e-04  Done DIIS. Switching to GDM
 ---------------------------------------
  Cycle       Energy        RMS Gradient
 ---------------------------------------
    1    -798.8554191971      1.72e-02   Normal BFGS step
    2    -798.8534967879      2.57e-02  Line search: overstep
    3    -798.8610829384      2.67e-03   Normal BFGS step
    4    -798.8613765029      6.89e-04   Normal BFGS step
    5    -798.8614333921      5.94e-04   Normal BFGS step
    6    -798.8614443552      1.22e-04   Normal BFGS step
    7    -798.8614452014      7.21e-05   Normal BFGS step
    8    -798.8614454868      5.99e-05   Normal BFGS step
    9    -798.8614455167      2.23e-05   Normal BFGS step
   10    -798.8614455298      8.16e-06   Normal BFGS step
   11    -798.8614455321      4.66e-06   Normal BFGS step
   12    -798.8614455326      1.70e-06   Normal BFGS step
   13    -798.8614455328      8.33e-07   Normal BFGS step
   14    -798.8614455328      2.76e-07   Normal BFGS step
   15    -798.8614455328      1.40e-07   Normal BFGS step
   16    -798.8614455328      1.15e-07   Normal BFGS step
   17    -798.8614455329      3.19e-08  Convergence criterion met
 ---------------------------------------
 SCF time:   CPU 4012.20s  wall 277.00s 
<S^2> =          0.753293745
(3)  G-ENP(liq) elect-nuc-pol free energy of system     -798.861445533 a.u.
(4)  G-CDS(liq) cavity-dispersion-solvent structure 
     free energy                                                5.8071 kcal/mol
(6)  G-S(liq) free energy of system                     -798.852191387 a.u.
 SCF   energy in the final basis set =     -798.8521913870
 Total energy in the final basis set =     -798.8521913870
 
 --------------------------------------------------------------
 
                    Orbital Energies (a.u.)
 --------------------------------------------------------------
 
 Alpha MOs
 -- Occupied --
-19.4030 -19.3979 -19.3736 -19.3695 -19.3549 -19.3480 -19.3469 -19.3367
-10.4653 -10.4504 -10.4481 -10.4411 -10.3493  -1.2783  -1.2327  -1.2121
 -1.1885  -1.1735  -1.1653  -1.1376  -1.0371  -0.9086  -0.8353  -0.7930
 -0.7440  -0.7131  -0.6916  -0.6854  -0.6523  -0.6352  -0.6302  -0.6148
 -0.5952  -0.5893  -0.5788  -0.5689  -0.5569  -0.5444  -0.5295  -0.5204
 -0.5087  -0.4964  -0.4828  -0.4717  -0.4580  -0.4522  -0.4413  -0.4322
 -0.4135  -0.4095  -0.3962  -0.3659  -0.2653
 -- Virtual --
  0.0239   0.0347   0.0388   0.0401   0.0559   0.0570   0.0582   0.0668
  0.0698   0.0785   0.0845   0.0935   0.1075   0.1129   0.1160   0.1283
  0.1293   0.1392   0.1414   0.1446   0.1543   0.1562   0.1588   0.1634
  0.1656   0.1734   0.1773   0.1819   0.1980   0.2019   0.2031   0.2089
  0.2232   0.2278   0.2337   0.2440   0.2537   0.2570   0.2621   0.2714
  0.2747   0.2765   0.2824   0.2905   0.2923   0.2997   0.3065   0.3084
  0.3244   0.3261   0.3282   0.3321   0.3364   0.3387   0.3455   0.3492
  0.3553   0.3577   0.3592   0.3664   0.3748   0.3758   0.3834   0.3879
  0.3881   0.3945   0.4006   0.4019   0.4042   0.4117   0.4181   0.4222
  0.4293   0.4407   0.4483   0.4516   0.4527   0.4606   0.4692   0.4814
  0.4853   0.4968   0.5059   0.5282   0.5307   0.5576   0.5723   0.5914
  0.5987   0.6048   0.6197   0.6243   0.6318   0.6370   0.6438   0.6521
  0.6604   0.6675   0.6741   0.6823   0.6972   0.7121   0.7162   0.7178
  0.7329   0.7418   0.7545   0.7597   0.7674   0.7820   0.7899   0.8052
  0.8116   0.8134   0.8275   0.8399   0.8620   0.8667   0.8815   0.8922
  0.9021   0.9195   0.9257   0.9601   0.9704   0.9837   0.9970   1.0046
  1.0208   1.0264   1.0510   1.0589   1.0664   1.0855   1.0865   1.1034
  1.1205   1.1323   1.1363   1.1503   1.1532   1.1649   1.1677   1.1785
  1.1874   1.1888   1.2029   1.2041   1.2110   1.2182   1.2249   1.2281
  1.2353   1.2504   1.2571   1.2664   1.2688   1.2802   1.2985   1.2998
  1.3050   1.3181   1.3255   1.3363   1.3482   1.3563   1.3660   1.3716
  1.3836   1.3909   1.4018   1.4068   1.4233   1.4314   1.4384   1.4509
  1.4558   1.4678   1.4875   1.4929   1.4999   1.5137   1.5159   1.5400
  1.5474   1.5606   1.5687   1.5843   1.5945   1.6174   1.6192   1.6258
  1.6414   1.6503   1.6872   1.6943   1.7023   1.7112   1.7280   1.7372
  1.7791   1.7929   1.8030   1.8241   1.8447   1.8698   1.8785   1.9116
  1.9210   1.9281   1.9447   1.9648   1.9800   1.9919   1.9990   2.0187
  2.0323   2.0619   2.0742   2.0777   2.1009   2.1280   2.1411   2.1902
  2.2255   2.2415   2.2657   2.2746   2.2922   2.3134   2.3440   2.3628
  2.3696   2.3863   2.4022   2.4120   2.4324   2.4545   2.4716   2.4870
  2.4988   2.5037   2.5441   2.5648   2.5982   2.6135   2.6343   2.6868
  2.7005   2.7543   2.7790   2.7875   2.8191   2.8352   2.8465   2.8627
  2.8827   2.9060   2.9314   2.9425   2.9692   2.9926   3.0217   3.0578
  3.0626   3.0877   3.1054   3.1171   3.1463   3.1600   3.1952   3.2267
  3.2480   3.2599   3.2742   3.2895   3.3045   3.3222   3.3304   3.3436
  3.3750   3.3902   3.4004   3.4039   3.4223   3.4518   3.4623   3.4832
  3.4900   3.5171   3.5254   3.5373   3.5644   3.5934   3.6083   3.6284
  3.6448   3.6637   3.6734   3.6779   3.7044   3.7096   3.7268   3.7543
  3.7656   3.7806   3.8021   3.8106   3.8276   3.8371   3.8464   3.8605
  3.8673   3.8868   3.8995   3.9076   3.9171   3.9311   3.9341   3.9458
  3.9682   3.9751   3.9964   4.0093   4.0194   4.0703   4.0921   4.1119
  4.1240   4.1331   4.1548   4.1664   4.1729   4.1964   4.2468   4.2564
  4.2650   4.2702   4.2831   4.2961   4.3099   4.3168   4.3611   4.3774
  4.3905   4.4131   4.4336   4.4401   4.4528   4.4665   4.4761   4.4930
  4.5686   4.5888   4.6144   4.6363   4.6973   4.7471   4.7566   4.7644
  4.8504   4.8796   4.9023   5.0352   5.0545   5.1000   5.1655   5.1843
  5.2042   5.2146   5.2234   5.2339   5.2347   5.2576   5.2616   5.2636
  5.2775   5.2837   5.2850   5.2963   5.3067   5.3234   5.3418   5.3475
  5.3645   5.3761   5.3848   5.3880   5.4043   5.4114   5.4240   5.4263
  5.4388   5.4649   5.4803   5.4955   5.5072   5.5199   5.5396   5.5607
  5.5718   5.5854   5.5860   5.6097   5.6143   5.6225   5.6289   5.6448
  5.6593   5.6792   5.7026   5.7205   5.7470   5.7923   5.7950   5.8082
  5.8195   5.8660   5.9254   5.9589   5.9744   5.9822   6.0292   6.0553
  6.0724   6.0978   6.1362   6.1613   6.2563   6.3308   6.3578   6.5011
  6.5395   6.5907   6.6544   6.7593   6.8309   6.8637   6.8745   7.0068
  7.0283   7.0374   7.0535   7.0807   7.0857   7.1014   7.1047   7.1438
  7.1736   7.1944   7.2257   7.2592   7.2687   7.2738   7.2804   7.3060
  7.3080   7.3225   7.3248   7.3369   7.3481   7.3728   7.3908   7.4164
  7.4229   7.4334   7.4773   7.5009   7.5214   7.5799   7.5901   7.6067
  7.6225   7.6679   7.6931   7.7208   7.7706   7.7817   7.8173   7.8488
  7.8545   7.8742   7.8946   7.9183   8.0339   8.2119  24.6708  24.7993
 24.8550  24.8596  25.0060  50.4990  50.5550  50.5971  50.6266  50.6366
 50.6562  50.6961  50.7432
 
 Beta MOs
 -- Occupied --
-19.4030 -19.3979 -19.3701 -19.3672 -19.3548 -19.3480 -19.3469 -19.3340
-10.4653 -10.4481 -10.4409 -10.4392 -10.3492  -1.2782  -1.2240  -1.2120
 -1.1866  -1.1706  -1.1584  -1.1376  -1.0371  -0.9077  -0.8343  -0.7765
 -0.7430  -0.7101  -0.6914  -0.6784  -0.6522  -0.6347  -0.6194  -0.6114
 -0.5888  -0.5829  -0.5750  -0.5673  -0.5510  -0.5420  -0.5283  -0.5150
 -0.4956  -0.4867  -0.4816  -0.4643  -0.4539  -0.4461  -0.4326  -0.4319
 -0.4132  -0.4090  -0.3957  -0.3636
 -- Virtual --
  0.0119   0.0249   0.0346   0.0390   0.0399   0.0559   0.0576   0.0636
  0.0676   0.0780   0.0842   0.0906   0.0994   0.1079   0.1130   0.1209
  0.1285   0.1312   0.1399   0.1417   0.1447   0.1547   0.1567   0.1591
  0.1640   0.1675   0.1735   0.1773   0.1821   0.1986   0.2023   0.2033
  0.2091   0.2238   0.2294   0.2344   0.2443   0.2550   0.2581   0.2625
  0.2719   0.2756   0.2770   0.2827   0.2909   0.2935   0.3011   0.3071
  0.3090   0.3265   0.3272   0.3303   0.3338   0.3375   0.3397   0.3462
  0.3496   0.3564   0.3594   0.3614   0.3682   0.3753   0.3766   0.3843
  0.3880   0.3890   0.3957   0.4013   0.4021   0.4079   0.4133   0.4185
  0.4265   0.4319   0.4410   0.4494   0.4526   0.4540   0.4621   0.4705
  0.4825   0.4866   0.4976   0.5063   0.5286   0.5319   0.5600   0.5752
  0.5926   0.6009   0.6069   0.6213   0.6256   0.6338   0.6418   0.6448
  0.6552   0.6632   0.6735   0.6755   0.6839   0.7024   0.7133   0.7183
  0.7203   0.7358   0.7451   0.7572   0.7636   0.7719   0.7844   0.7911
  0.8067   0.8145   0.8194   0.8285   0.8414   0.8663   0.8716   0.8836
  0.8956   0.9029   0.9233   0.9283   0.9613   0.9718   0.9849   0.9986
  1.0070   1.0245   1.0301   1.0523   1.0597   1.0672   1.0863   1.0886
  1.1049   1.1215   1.1332   1.1411   1.1522   1.1564   1.1676   1.1701
  1.1806   1.1897   1.1905   1.2041   1.2061   1.2123   1.2195   1.2256
  1.2298   1.2381   1.2512   1.2594   1.2689   1.2705   1.2828   1.3000
  1.3019   1.3082   1.3189   1.3305   1.3383   1.3501   1.3574   1.3694
  1.3736   1.3848   1.3936   1.4054   1.4087   1.4266   1.4333   1.4416
  1.4525   1.4582   1.4703   1.4881   1.4981   1.5015   1.5160   1.5186
  1.5412   1.5513   1.5614   1.5694   1.5863   1.5978   1.6189   1.6269
  1.6317   1.6432   1.6515   1.6882   1.6952   1.7030   1.7120   1.7307
  1.7381   1.7806   1.7950   1.8085   1.8257   1.8461   1.8741   1.8815
  1.9129   1.9241   1.9298   1.9465   1.9689   1.9827   1.9927   2.0044
  2.0207   2.0363   2.0622   2.0765   2.0847   2.1033   2.1294   2.1426
  2.1982   2.2262   2.2433   2.2697   2.2752   2.2967   2.3140   2.3464
  2.3677   2.3751   2.3882   2.4031   2.4132   2.4388   2.4617   2.4733
  2.4906   2.5000   2.5041   2.5453   2.5651   2.6044   2.6145   2.6536
  2.6883   2.7018   2.7565   2.7899   2.7953   2.8200   2.8385   2.8546
  2.8700   2.8850   2.9086   2.9351   2.9457   2.9830   3.0002   3.0416
  3.0678   3.0921   3.1014   3.1150   3.1315   3.1594   3.1827   3.1973
  3.2293   3.2642   3.2673   3.2875   3.2998   3.3150   3.3321   3.3426
  3.3589   3.3876   3.4038   3.4076   3.4173   3.4353   3.4566   3.4731
  3.4925   3.5069   3.5283   3.5325   3.5575   3.5742   3.6085   3.6139
  3.6396   3.6509   3.6687   3.6810   3.6985   3.7092   3.7123   3.7351
  3.7648   3.7768   3.7837   3.8066   3.8134   3.8382   3.8436   3.8484
  3.8623   3.8695   3.8932   3.9047   3.9126   3.9226   3.9389   3.9423
  3.9582   3.9730   3.9818   3.9978   4.0147   4.0211   4.0742   4.0967
  4.1170   4.1284   4.1367   4.1587   4.1688   4.1780   4.1991   4.2479
  4.2626   4.2672   4.2745   4.2841   4.3010   4.3161   4.3188   4.3635
  4.3789   4.3939   4.4159   4.4390   4.4440   4.4639   4.4726   4.4782
  4.5060   4.5697   4.5899   4.6153   4.6382   4.6977   4.7485   4.7576
  4.7652   4.8515   4.8803   4.9042   5.0366   5.0546   5.1018   5.1883
  5.1910   5.2129   5.2170   5.2253   5.2404   5.2446   5.2595   5.2639
  5.2710   5.2827   5.2889   5.2931   5.2999   5.3090   5.3264   5.3428
  5.3543   5.3654   5.3773   5.3870   5.4052   5.4075   5.4189   5.4261
  5.4322   5.4428   5.4672   5.4821   5.4958   5.5110   5.5280   5.5405
  5.5653   5.5720   5.5860   5.5914   5.6114   5.6191   5.6269   5.6311
  5.6458   5.6602   5.6793   5.7036   5.7211   5.7645   5.7927   5.7953
  5.8088   5.8208   5.8687   5.9260   5.9710   5.9762   5.9919   6.0294
  6.0554   6.0870   6.0979   6.1364   6.1613   6.2565   6.3375   6.3675
  6.5012   6.5537   6.5909   6.6564   6.7593   6.8315   6.8698   6.8789
  7.0139   7.0327   7.0414   7.0639   7.0832   7.0918   7.1049   7.1080
  7.1462   7.1753   7.1968   7.2333   7.2616   7.2709   7.2766   7.2813
  7.3098   7.3177   7.3246   7.3308   7.3459   7.3527   7.3816   7.3913
  7.4188   7.4265   7.4377   7.4784   7.5013   7.5218   7.5832   7.5919
  7.6100   7.6248   7.6680   7.6932   7.7273   7.7751   7.7841   7.8229
  7.8496   7.8592   7.8750   7.8947   7.9184   8.0339   8.2119  24.6709
 24.7993  24.8550  24.8694  25.0063  50.4990  50.5575  50.5972  50.6285
 50.6371  50.6563  50.6964  50.7449
 --------------------------------------------------------------
 
          Ground-State Mulliken Net Atomic Charges

     Atom                 Charge (a.u.)    Spin (a.u.)
  --------------------------------------------------------
      1 C                    -0.069550      -0.000098
      2 O                    -0.426273       0.000539
      3 C                     0.013908       0.010084
      4 O                    -0.392358       0.003264
      5 C                    -0.208085      -0.029529
      6 C                    -0.197481       0.086934
      7 O                    -0.442966       0.085096
      8 C                    -0.152214       0.689821
      9 O                    -0.294274       0.089432
     10 O                    -0.343041       0.057584
     11 H                     0.299847       0.000087
     12 H                     0.341645       0.000122
     13 H                     0.223023       0.002126
     14 H                     0.285389       0.004245
     15 H                     0.309790      -0.002709
     16 H                     0.297110       0.000301
     17 H                     0.320093      -0.003068
     18 H                     0.338490       0.007452
     19 O                    -0.460946       0.000148
     20 H                     0.350117      -0.000303
     21 O                    -0.159266      -0.000566
     22 O                    -0.288535       0.000790
     23 H                     0.316908      -0.001537
     24 H                     0.338671      -0.000214
  --------------------------------------------------------
  Sum of atomic charges =    -0.000000
  Sum of spin   charges =     1.000000

 -----------------------------------------------------------------
                    Cartesian Multipole Moments
 -----------------------------------------------------------------
    Charge (ESU x 10^10)
                -0.0000
    Dipole Moment (Debye)
         X       1.9713      Y       4.2508      Z      -5.9848
       Tot       7.6009
    Quadrupole Moments (Debye-Ang)
        XX     -58.1052     XY       8.8984     YY     -88.7163
        XZ     -26.5228     YZ      -7.4777     ZZ     -75.9199
    Octopole Moments (Debye-Ang^2)
       XXX    -785.9053    XXY     -32.3656    XYY    -350.8544
       YYY     -63.1132    XXZ    -160.2903    XYZ     -29.2168
       YYZ     -50.9125    XZZ    -319.8294    YZZ     -37.7918
       ZZZ     -77.2370
    Hexadecapole Moments (Debye-Ang^3)
      XXXX   -7462.2690   XXXY    -858.2390   XXYY   -1887.2734
      XYYY    -603.5736   YYYY   -1890.2639   XXXZ   -1242.1015
      XXYZ    -248.9113   XYYZ    -315.2358   YYYZ    -456.2418
      XXZZ   -1586.7436   XYZZ    -227.9585   YYZZ    -455.4142
      XZZZ    -448.1365   YZZZ    -287.3744   ZZZZ    -574.1962
 -----------------------------------------------------------------
 Calculating analytic gradient of the SCF energy
 Gradient of CDS energy
            1           2           3           4           5           6
    1  -0.0030355   0.0008875  -0.0014711   0.0015606  -0.0000796   0.0006165
    2  -0.0003056  -0.0019662   0.0009199  -0.0009947   0.0000658  -0.0004890
    3   0.0003662   0.0007145   0.0028506  -0.0030406  -0.0002139   0.0014100
            7           8           9          10          11          12
    1   0.0000161  -0.0005407   0.0039958  -0.0031088   0.0001914  -0.0002974
    2   0.0002319   0.0016484   0.0001682  -0.0010067  -0.0001632   0.0002792
    3  -0.0011323   0.0042958  -0.0012466  -0.0033780   0.0000238  -0.0003194
           13          14          15          16          17          18
    1  -0.0001172  -0.0000380  -0.0000464  -0.0000873  -0.0003720   0.0001021
    2  -0.0001114  -0.0001373   0.0001033  -0.0000944   0.0002116   0.0000550
    3   0.0000724  -0.0000793  -0.0000030   0.0000161   0.0000585   0.0003532
           19          20          21          22          23          24
    1   0.0023114  -0.0003725  -0.0001184  -0.0002470  -0.0001268   0.0003773
    2   0.0020459  -0.0001279  -0.0000226   0.0001250  -0.0000724  -0.0003629
    3  -0.0012277   0.0002986  -0.0001070   0.0000808   0.0003144  -0.0001073
 Gradient of SCF Energy
            1           2           3           4           5           6
    1  -0.0040772   0.0058558   0.0046137  -0.0022714   0.0007728  -0.0113939
    2   0.0051993   0.0010233  -0.0043714  -0.0017237   0.0008232  -0.0092687
    3   0.0041008   0.0129169  -0.0009444   0.0021247   0.0243978  -0.0024754
            7           8           9          10          11          12
    1   0.0017505  -0.0018819   0.0091521   0.0014705   0.0019607  -0.0067265
    2  -0.0052914  -0.0065007   0.0003903   0.0071862   0.0012508  -0.0013583
    3   0.0057083   0.0156076   0.0156202  -0.0038799  -0.0069409  -0.0127786
           13          14          15          16          17          18
    1  -0.0051878   0.0083880   0.0086648   0.0007547  -0.0088223  -0.0003853
    2   0.0127981  -0.0056259   0.0069129   0.0062017   0.0004475  -0.0044586
    3  -0.0060473  -0.0123262  -0.0074453  -0.0144831  -0.0165880   0.0038329
           19          20          21          22          23          24
    1   0.0007655  -0.0017704  -0.0030826  -0.0147545   0.0000535   0.0161514
    2  -0.0062387   0.0020402  -0.0005795  -0.0080087   0.0017204   0.0074317
    3   0.0011403  -0.0007158   0.0046287  -0.0029728  -0.0014995  -0.0009809
 Max gradient component =       2.440E-02
 RMS gradient           =       7.581E-03
 Computing fast CPCM-SWIG gradient
 Updating gradient with PCM contributions...
 -- total gradient after adding PCM contribution --
---------------------------------------------------
  Atom         X              Y              Z     
---------------------------------------------------
   1      -0.001094      -0.000075       0.000116
   2       0.000486      -0.000145      -0.000240
   3       0.000248       0.000130       0.000267
   4      -0.000295      -0.000025      -0.000201
   5       0.000002      -0.000205      -0.000107
   6      -0.000005       0.000171      -0.000441
   7       0.000144      -0.000165       0.000766
   8       0.000062       0.000105       0.000257
   9       0.000163       0.000147      -0.000080
  10      -0.000279       0.000226      -0.000056
  11       0.000205      -0.000281      -0.000010
  12      -0.000093      -0.000085       0.000109
  13       0.000051       0.000052       0.000079
[...]
 performed using Roothaan-Hall, DIIS, GDM
 SCF converges when RMS gradient is below 1.0e-07
 ---------------------------------------
  Cycle       Energy         DIIS error
 ---------------------------------------
    1    -798.7940964458      2.19e-04  Roothaan Step
 ---------------------------------------
  Cycle       Energy         DIIS error
 ---------------------------------------
    1    -798.8470833961      2.54e-04  
    2    -798.8554146856      2.38e-04  Done DIIS. Switching to GDM
 ---------------------------------------
  Cycle       Energy        RMS Gradient
 ---------------------------------------
    1    -798.8554146856      1.76e-02   Normal BFGS step
    2    -798.8535012826      2.64e-02  Line search: overstep
    3    -798.8610808676      2.63e-03   Normal BFGS step
    4    -798.8613749593      6.71e-04   Normal BFGS step
    5    -798.8614321395      5.74e-04   Normal BFGS step
    6    -798.8614432209      1.71e-04   Normal BFGS step
    7    -798.8614440911      8.02e-05   Normal BFGS step
    8    -798.8614443857      6.93e-05   Normal BFGS step
    9    -798.8614444196      3.46e-05   Normal BFGS step
   10    -798.8614444337      9.28e-06   Normal BFGS step
   11    -798.8614444362      4.36e-06   Normal BFGS step
   12    -798.8614444367      1.75e-06   Normal BFGS step
   13    -798.8614444369      6.59e-07   Normal BFGS step
   14    -798.8614444369      3.04e-07   Normal BFGS step
   15    -798.8614444369      1.08e-07   Normal BFGS step
   16    -798.8614444370      8.04e-08  Convergence criterion met
 ---------------------------------------
 SCF time:   CPU 3883.01s  wall 266.00s 
<S^2> =          0.753262076
(3)  G-ENP(liq) elect-nuc-pol free energy of system     -798.861444437 a.u.
(4)  G-CDS(liq) cavity-dispersion-solvent structure 
     free energy                                                5.8073 kcal/mol
(6)  G-S(liq) free energy of system                     -798.852189984 a.u.
 SCF   energy in the final basis set =     -798.8521899840
 Total energy in the final basis set =     -798.8521899840
 
 --------------------------------------------------------------
 
                    Orbital Energies (a.u.)
 --------------------------------------------------------------
 
 Alpha MOs
 -- Occupied --
-19.4031 -19.3980 -19.3734 -19.3693 -19.3550 -19.3480 -19.3469 -19.3370
-10.4654 -10.4499 -10.4481 -10.4413 -10.3494  -1.2783  -1.2324  -1.2120
 -1.1886  -1.1737  -1.1651  -1.1375  -1.0372  -0.9087  -0.8355  -0.7928
 -0.7441  -0.7132  -0.6916  -0.6851  -0.6523  -0.6353  -0.6300  -0.6148
 -0.5951  -0.5894  -0.5788  -0.5689  -0.5570  -0.5445  -0.5295  -0.5205
 -0.5086  -0.4962  -0.4828  -0.4718  -0.4580  -0.4522  -0.4413  -0.4323
 -0.4135  -0.4096  -0.3962  -0.3660  -0.2652
 -- Virtual --
  0.0239   0.0347   0.0388   0.0401   0.0558   0.0569   0.0581   0.0668
  0.0697   0.0785   0.0844   0.0935   0.1075   0.1129   0.1160   0.1283
  0.1293   0.1392   0.1414   0.1446   0.1543   0.1563   0.1588   0.1634
  0.1657   0.1734   0.1773   0.1819   0.1980   0.2019   0.2031   0.2088
  0.2231   0.2278   0.2337   0.2439   0.2537   0.2569   0.2621   0.2713
  0.2747   0.2766   0.2824   0.2904   0.2923   0.2996   0.3065   0.3084
  0.3244   0.3261   0.3282   0.3321   0.3364   0.3386   0.3454   0.3492
  0.3552   0.3576   0.3591   0.3663   0.3748   0.3757   0.3834   0.3878
  0.3881   0.3945   0.4005   0.4019   0.4041   0.4116   0.4181   0.4221
  0.4293   0.4407   0.4483   0.4516   0.4526   0.4605   0.4691   0.4814
  0.4853   0.4968   0.5058   0.5282   0.5308   0.5577   0.5723   0.5915
  0.5987   0.6048   0.6197   0.6242   0.6317   0.6369   0.6438   0.6520
  0.6603   0.6675   0.6741   0.6823   0.6973   0.7121   0.7160   0.7178
  0.7327   0.7417   0.7545   0.7598   0.7671   0.7819   0.7899   0.8053
  0.8119   0.8134   0.8274   0.8399   0.8618   0.8663   0.8814   0.8923
  0.9020   0.9193   0.9256   0.9599   0.9701   0.9835   0.9967   1.0043
  1.0203   1.0260   1.0508   1.0588   1.0664   1.0854   1.0864   1.1033
  1.1205   1.1323   1.1363   1.1501   1.1529   1.1649   1.1675   1.1783
  1.1871   1.1887   1.2027   1.2039   1.2110   1.2180   1.2249   1.2279
  1.2352   1.2504   1.2570   1.2662   1.2686   1.2802   1.2985   1.2997
  1.3048   1.3181   1.3250   1.3362   1.3482   1.3563   1.3658   1.3716
  1.3834   1.3908   1.4017   1.4065   1.4232   1.4312   1.4383   1.4507
  1.4557   1.4675   1.4874   1.4927   1.4998   1.5137   1.5159   1.5400
  1.5474   1.5606   1.5687   1.5840   1.5945   1.6171   1.6189   1.6256
  1.6412   1.6504   1.6873   1.6943   1.7023   1.7113   1.7279   1.7371
  1.7791   1.7930   1.8027   1.8240   1.8447   1.8696   1.8785   1.9116
  1.9210   1.9281   1.9447   1.9646   1.9799   1.9917   1.9989   2.0184
  2.0321   2.0617   2.0741   2.0775   2.1009   2.1278   2.1410   2.1901
  2.2253   2.2411   2.2656   2.2745   2.2921   2.3131   2.3438   2.3624
  2.3689   2.3862   2.4020   2.4119   2.4321   2.4540   2.4714   2.4869
  2.4986   2.5034   2.5441   2.5646   2.5984   2.6135   2.6336   2.6863
  2.7004   2.7539   2.7791   2.7875   2.8190   2.8354   2.8461   2.8623
  2.8823   2.9058   2.9313   2.9421   2.9695   2.9929   3.0210   3.0580
  3.0629   3.0874   3.1056   3.1173   3.1468   3.1594   3.1948   3.2265
  3.2477   3.2598   3.2733   3.2891   3.3041   3.3223   3.3302   3.3434
  3.3748   3.3896   3.4001   3.4035   3.4220   3.4517   3.4621   3.4829
  3.4897   3.5165   3.5252   3.5368   3.5640   3.5926   3.6081   3.6278
  3.6444   3.6636   3.6736   3.6775   3.7039   3.7092   3.7263   3.7537
  3.7652   3.7806   3.8019   3.8102   3.8273   3.8367   3.8461   3.8603
  3.8673   3.8866   3.8990   3.9075   3.9168   3.9309   3.9339   3.9457
  3.9678   3.9747   3.9965   4.0090   4.0196   4.0707   4.0915   4.1118
  4.1237   4.1331   4.1546   4.1663   4.1728   4.1963   4.2466   4.2564
  4.2649   4.2700   4.2831   4.2963   4.3095   4.3169   4.3611   4.3774
  4.3905   4.4130   4.4334   4.4402   4.4522   4.4667   4.4759   4.4926
  4.5687   4.5893   4.6147   4.6357   4.6973   4.7471   4.7566   4.7644
  4.8504   4.8796   4.9024   5.0351   5.0545   5.1002   5.1655   5.1841
  5.2042   5.2145   5.2233   5.2336   5.2345   5.2575   5.2615   5.2635
  5.2774   5.2836   5.2850   5.2962   5.3067   5.3233   5.3416   5.3474
  5.3644   5.3760   5.3848   5.3879   5.4042   5.4111   5.4239   5.4265
  5.4389   5.4648   5.4804   5.4954   5.5073   5.5199   5.5396   5.5608
  5.5716   5.5857   5.5862   5.6095   5.6142   5.6226   5.6288   5.6447
  5.6592   5.6790   5.7023   5.7205   5.7464   5.7923   5.7949   5.8080
  5.8194   5.8663   5.9253   5.9585   5.9742   5.9814   6.0292   6.0549
  6.0720   6.0975   6.1360   6.1589   6.2563   6.3314   6.3565   6.5012
  6.5389   6.5903   6.6560   6.7577   6.8309   6.8631   6.8743   7.0065
  7.0282   7.0375   7.0535   7.0805   7.0855   7.1012   7.1047   7.1438
  7.1734   7.1947   7.2255   7.2591   7.2687   7.2737   7.2803   7.3059
  7.3079   7.3223   7.3248   7.3368   7.3481   7.3724   7.3908   7.4160
  7.4227   7.4332   7.4771   7.5008   7.5213   7.5797   7.5899   7.6065
  7.6223   7.6678   7.6930   7.7205   7.7702   7.7815   7.8172   7.8487
  7.8544   7.8742   7.8945   7.9182   8.0338   8.2119  24.6707  24.7988
 24.8554  24.8586  25.0065  50.4990  50.5547  50.5970  50.6264  50.6365
 50.6561  50.6961  50.7431
 
 Beta MOs
 -- Occupied --
-19.4030 -19.3980 -19.3699 -19.3671 -19.3549 -19.3480 -19.3469 -19.3344
-10.4654 -10.4481 -10.4412 -10.4388 -10.3493  -1.2783  -1.2237  -1.2119
 -1.1868  -1.1709  -1.1582  -1.1375  -1.0372  -0.9078  -0.8345  -0.7762
 -0.7431  -0.7102  -0.6914  -0.6781  -0.6522  -0.6348  -0.6192  -0.6114
 -0.5889  -0.5828  -0.5749  -0.5673  -0.5510  -0.5421  -0.5283  -0.5151
 -0.4955  -0.4865  -0.4816  -0.4645  -0.4542  -0.4461  -0.4326  -0.4318
 -0.4132  -0.4090  -0.3958  -0.3637
 -- Virtual --
  0.0122   0.0249   0.0346   0.0390   0.0399   0.0560   0.0576   0.0636
  0.0676   0.0780   0.0842   0.0905   0.0992   0.1078   0.1129   0.1208
  0.1285   0.1311   0.1399   0.1417   0.1447   0.1547   0.1567   0.1591
  0.1640   0.1675   0.1735   0.1772   0.1821   0.1986   0.2023   0.2033
  0.2090   0.2238   0.2293   0.2343   0.2442   0.2550   0.2581   0.2624
  0.2719   0.2755   0.2770   0.2827   0.2909   0.2934   0.3010   0.3071
  0.3090   0.3265   0.3272   0.3303   0.3338   0.3375   0.3397   0.3461
  0.3496   0.3564   0.3594   0.3613   0.3681   0.3753   0.3765   0.3843
  0.3880   0.3890   0.3956   0.4013   0.4021   0.4078   0.4132   0.4185
  0.4265   0.4318   0.4410   0.4494   0.4526   0.4539   0.4621   0.4704
  0.4824   0.4866   0.4976   0.5062   0.5286   0.5319   0.5600   0.5752
  0.5927   0.6009   0.6069   0.6212   0.6255   0.6338   0.6418   0.6448
  0.6552   0.6631   0.6735   0.6754   0.6838   0.7025   0.7134   0.7183
  0.7202   0.7357   0.7449   0.7572   0.7637   0.7717   0.7843   0.7911
  0.8067   0.8144   0.8198   0.8285   0.8414   0.8661   0.8712   0.8835
  0.8955   0.9028   0.9231   0.9282   0.9611   0.9716   0.9847   0.9983
  1.0067   1.0241   1.0297   1.0521   1.0597   1.0672   1.0862   1.0885
  1.1048   1.1215   1.1332   1.1411   1.1520   1.1561   1.1675   1.1699
  1.1804   1.1896   1.1902   1.2039   1.2059   1.2123   1.2193   1.2255
  1.2296   1.2380   1.2512   1.2593   1.2688   1.2702   1.2827   1.3000
  1.3018   1.3079   1.3189   1.3300   1.3382   1.3500   1.3574   1.3692
  1.3736   1.3846   1.3934   1.4053   1.4082   1.4264   1.4331   1.4415
  1.4524   1.4580   1.4700   1.4879   1.4980   1.5014   1.5160   1.5185
  1.5412   1.5512   1.5614   1.5694   1.5860   1.5978   1.6186   1.6267
  1.6315   1.6429   1.6516   1.6884   1.6952   1.7030   1.7120   1.7306
  1.7380   1.7806   1.7950   1.8082   1.8256   1.8461   1.8737   1.8815
  1.9130   1.9240   1.9297   1.9466   1.9687   1.9826   1.9926   2.0044
  2.0205   2.0360   2.0620   2.0764   2.0845   2.1033   2.1292   2.1424
  2.1980   2.2260   2.2429   2.2697   2.2751   2.2966   2.3137   2.3463
  2.3672   2.3745   2.3881   2.4030   2.4131   2.4386   2.4612   2.4730
  2.4904   2.4998   2.5038   2.5452   2.5648   2.6046   2.6146   2.6530
  2.6878   2.7017   2.7560   2.7900   2.7952   2.8199   2.8387   2.8544
  2.8695   2.8846   2.9083   2.9350   2.9452   2.9831   3.0007   3.0409
  3.0683   3.0918   3.1015   3.1146   3.1319   3.1595   3.1826   3.1969
  3.2291   3.2637   3.2672   3.2869   3.2991   3.3149   3.3319   3.3422
  3.3586   3.3875   3.4031   3.4073   3.4170   3.4350   3.4565   3.4730
  3.4921   3.5066   3.5276   3.5323   3.5570   3.5739   3.6080   3.6137
  3.6393   3.6502   3.6684   3.6807   3.6989   3.7086   3.7123   3.7344
  3.7648   3.7761   3.7835   3.8063   3.8130   3.8378   3.8432   3.8482
  3.8622   3.8695   3.8930   3.9043   3.9125   3.9223   3.9388   3.9421
  3.9580   3.9725   3.9815   3.9977   4.0144   4.0211   4.0746   4.0962
  4.1168   4.1282   4.1366   4.1584   4.1687   4.1779   4.1990   4.2478
  4.2626   4.2674   4.2741   4.2841   4.3012   4.3159   4.3185   4.3636
  4.3789   4.3938   4.4159   4.4393   4.4439   4.4639   4.4720   4.4779
  4.5057   4.5698   4.5903   4.6155   4.6375   4.6977   4.7484   4.7575
  4.7652   4.8515   4.8803   4.9042   5.0366   5.0546   5.1020   5.1881
  5.1909   5.2128   5.2169   5.2252   5.2401   5.2444   5.2594   5.2638
  5.2709   5.2825   5.2889   5.2931   5.2998   5.3090   5.3263   5.3426
  5.3541   5.3654   5.3772   5.3871   5.4052   5.4075   5.4187   5.4263
  5.4321   5.4429   5.4671   5.4821   5.4957   5.5110   5.5281   5.5406
  5.5653   5.5719   5.5863   5.5915   5.6114   5.6189   5.6269   5.6311
  5.6457   5.6601   5.6792   5.7034   5.7211   5.7638   5.7927   5.7952
  5.8086   5.8207   5.8690   5.9259   5.9707   5.9760   5.9911   6.0294
  6.0550   6.0866   6.0975   6.1362   6.1589   6.2564   6.3380   6.3662
  6.5013   6.5532   6.5905   6.6580   6.7578   6.8315   6.8696   6.8784
  7.0136   7.0325   7.0414   7.0639   7.0831   7.0915   7.1048   7.1078
  7.1462   7.1751   7.1971   7.2331   7.2615   7.2708   7.2766   7.2812
  7.3098   7.3176   7.3245   7.3305   7.3458   7.3526   7.3812   7.3913
  7.4185   7.4263   7.4373   7.4782   7.5012   7.5218   7.5829   7.5917
  7.6098   7.6245   7.6678   7.6932   7.7270   7.7749   7.7838   7.8227
  7.8495   7.8591   7.8749   7.8947   7.9182   8.0339   8.2119  24.6707
 24.7989  24.8554  24.8684  25.0068  50.4990  50.5573  50.5971  50.6283
 50.6369  50.6562  50.6963  50.7448
 --------------------------------------------------------------
 
          Ground-State Mulliken Net Atomic Charges

     Atom                 Charge (a.u.)    Spin (a.u.)
  --------------------------------------------------------
      1 C                    -0.069830      -0.000128
      2 O                    -0.426364       0.000538
      3 C                     0.014225       0.010254
      4 O                    -0.392031       0.003232
      5 C                    -0.206936      -0.029795
      6 C                    -0.199121       0.086075
      7 O                    -0.441305       0.083219
      8 C                    -0.152621       0.693210
      9 O                    -0.294663       0.089334
     10 O                    -0.343521       0.057602
     11 H                     0.300234       0.000088
     12 H                     0.341650       0.000121
     13 H                     0.223121       0.001993
     14 H                     0.285585       0.004202
     15 H                     0.309874      -0.002904
     16 H                     0.296527       0.000350
     17 H                     0.319927      -0.003085
     18 H                     0.338397       0.007365
     19 O                    -0.461232       0.000147
     20 H                     0.350093      -0.000302
     21 O                    -0.159260      -0.000558
     22 O                    -0.288336       0.000787
     23 H                     0.316913      -0.001530
     24 H                     0.338674      -0.000215
  --------------------------------------------------------
  Sum of atomic charges =    -0.000000
  Sum of spin   charges =     1.000000

 -----------------------------------------------------------------
                    Cartesian Multipole Moments
 -----------------------------------------------------------------
    Charge (ESU x 10^10)
                -0.0000
    Dipole Moment (Debye)
         X       1.9841      Y       4.2170      Z      -5.9888
       Tot       7.5885
    Quadrupole Moments (Debye-Ang)
        XX     -58.0010     XY       8.7241     YY     -88.8207
        XZ     -26.5379     YZ      -7.5203     ZZ     -75.9282
    Octopole Moments (Debye-Ang^2)
       XXX    -785.1821    XXY     -33.2522    XYY    -351.3428
       YYY     -63.4513    XXZ    -160.3174    XYZ     -29.4207
       YYZ     -51.1179    XZZ    -319.8767    YZZ     -37.9437
       ZZZ     -77.3213
    Hexadecapole Moments (Debye-Ang^3)
      XXXX   -7457.4118   XXXY    -862.8099   XXYY   -1890.0747
      XYYY    -605.3856   YYYY   -1893.3012   XXXZ   -1241.9770
      XXYZ    -250.0285   XYYZ    -316.2224   YYYZ    -457.2170
      XXZZ   -1587.0278   XYZZ    -228.6925   YYZZ    -456.2853
      XZZZ    -448.5089   YZZZ    -287.9630   ZZZZ    -574.4305
 -----------------------------------------------------------------
 Calculating analytic gradient of the SCF energy
 Gradient of CDS energy
            1           2           3           4           5           6
    1  -0.0028968   0.0008539  -0.0014711   0.0015605  -0.0000798   0.0006177
    2  -0.0002767  -0.0018944   0.0009210  -0.0009957   0.0000661  -0.0004859
    3   0.0003246   0.0006945   0.0028497  -0.0030398  -0.0002139   0.0014064
            7           8           9          10          11          12
    1   0.0000164  -0.0005453   0.0040060  -0.0031184   0.0001909  -0.0002974
    2   0.0002289   0.0016366   0.0001755  -0.0010041  -0.0001636   0.0002793
    3  -0.0011290   0.0042932  -0.0012516  -0.0033886   0.0000241  -0.0003196
           13          14          15          16          17          18
    1  -0.0001211  -0.0000383  -0.0000464  -0.0000791  -0.0003732   0.0001025
    2  -0.0001214  -0.0001375   0.0001033  -0.0000816   0.0002109   0.0000548
    3   0.0000739  -0.0000794  -0.0000028   0.0000317   0.0000600   0.0003532
           19          20          21          22          23          24
    1   0.0022077  -0.0003731  -0.0001186  -0.0002468  -0.0001270   0.0003769
    2   0.0019458  -0.0001281  -0.0000227   0.0001251  -0.0000724  -0.0003633
    3  -0.0011661   0.0002986  -0.0001070   0.0000807   0.0003145  -0.0001072
 Gradient of SCF Energy
            1           2           3           4           5           6
    1  -0.0029232   0.0055971   0.0043199  -0.0022798   0.0007500  -0.0114238
    2   0.0051614   0.0012026  -0.0043689  -0.0017092   0.0007876  -0.0092916
    3   0.0040147   0.0128304  -0.0010687   0.0021257   0.0244168  -0.0025289
            7           8           9          10          11          12
    1   0.0017438  -0.0018470   0.0091249   0.0014533   0.0018073  -0.0067475
    2  -0.0052521  -0.0065312   0.0004214   0.0072194   0.0013208  -0.0013002
    3   0.0057422   0.0155152   0.0155904  -0.0038615  -0.0068273  -0.0127907
           13          14          15          16          17          18
    1  -0.0051785   0.0083953   0.0086866   0.0007285  -0.0087803  -0.0003736
    2   0.0128027  -0.0056425   0.0069267   0.0061814   0.0004257  -0.0044925
    3  -0.0060361  -0.0123621  -0.0074442  -0.0143867  -0.0165562   0.0038074
           19          20          21          22          23          24
    1   0.0003690  -0.0017899  -0.0031065  -0.0148008   0.0000815   0.0161935
    2  -0.0064429   0.0020180  -0.0005771  -0.0080141   0.0017106   0.0074440
    3   0.0013155  -0.0006911   0.0045957  -0.0029765  -0.0014590  -0.0009649
 Max gradient component =       2.442E-02
 RMS gradient           =       7.565E-03
 Computing fast CPCM-SWIG gradient
 Updating gradient with PCM contributions...
 -- total gradient after adding PCM contribution --
---------------------------------------------------
  Atom         X              Y              Z     
---------------------------------------------------
   1       0.000045      -0.000120       0.000001
   2       0.000237       0.000028      -0.000326
   3      -0.000004       0.000085       0.000139
   4      -0.000270      -0.000016      -0.000170
   5      -0.000028      -0.000222      -0.000120
   6      -0.000008       0.000169      -0.000439
   7       0.000145      -0.000161       0.000765
   8       0.000063       0.000099       0.000254
   9       0.000161       0.000146      -0.000079
  10      -0.000277       0.000226      -0.000057
  11       0.000039      -0.000196       0.000131
  12      -0.000119      -0.000028       0.000099
  13       0.000049       0.000052       0.000077
  14      -0.000218       0.000090      -0.000157
  15      -0.000033       0.000107       0.000028
  16       0.000013      -0.000011      -0.000017
  17      -0.000042       0.000056       0.000059
  18       0.000156      -0.000431      -0.000206
  19      -0.000264       0.000223      -0.000081
  20       0.000129      -0.000088       0.000076
  21       0.000034       0.000009      -0.000032
  22       0.000110       0.000080       0.000006
  23       0.000096      -0.000129       0.000023
  24      -0.000013       0.000029       0.000026
---------------------------------------------------
 Number of fixed atoms: 0
 Gradient time:  CPU 585.60 s  wall 49.53 s
rPathMan2.  file_steps = 951
 IRC --- Status = 2.  Assess steepest descent step
 IRC --- Previous SD length =   0.018750
 IRC --- Point 1 E =     -798.852192 |G| =   0.001467 G.D1 =   0.000134
 IRC --- Point 2 E =     -798.852190 |G| =   0.001464 G.D1 =   0.000122
 IRC --- Angle(G1/G2) =   94.80 Deg.  Curvature =  -0.0006
  IRC --- SD step rejected. Backing up half way.
  IRC --- This is backup attempt number            4
 IRC -- too many backups (>3)
 IRC -- please re-run with smaller step, or
 IRC -- run a geom opt from this point

 Q-Chem fatal error occurred in module 0, line  259:

 IRC backup failure

