
Running Job 1 of 2 Q_in.in
qchem Q_in.in_207704.0 /scratch/ari.fischer/qChem1828105.hpc-mn1/qchem207704/ 0
/usr/local/qchem-5.4.1/exe/qcprog.exe_s Q_in.in_207704.0 /scratch/ari.fischer/qChem1828105.hpc-mn1/qchem207704/
                  Welcome to Q-Chem
     A Quantum Leap Into The Future Of Chemistry


 Q-Chem 5.4, Q-Chem, Inc., Pleasanton, CA (2021)

 License issued to: Nanyang Technological University (site)

 E. Epifanovsky,  A. T. B. Gilbert,  Xintian Feng,  Joonho Lee,  Yuezhi Mao,  
 N. Mardirossian,  P. Pokhilko,  A. White,  M. Wormit,  M. P. Coons,  
 A. L. Dempwolff,  Zhengting Gan,  D. Hait,  P. R. Horn,  L. D. Jacobson,  
 I. Kaliman,  J. Kussmann,  A. W. Lange,  Ka Un Lao,  D. S. Levine,  Jie Liu,  
 S. C. McKenzie,  A. F. Morrison,  K. Nanda,  F. Plasser,  D. R. Rehn,  
 M. L. Vidal,  Zhi-Qiang You,  Ying Zhu,  B. Alam,  B. Albrecht,  
 A. Aldossary,  E. Alguire,  J. H. Andersen,  D. Barton,  K. Begam,  A. Behn,  
 Y. A. Bernard,  E. J. Berquist,  H. Burton,  A. Carreras,  K. Carter-Fenk,  
 R. Chakraborty,  A. D. Chien,  K. D. Closser,  V. Cofer-Shabica,  
 S. Dasgupta,  Jia Deng,  M. de Wergifosse,  M. Diedenhofen,  Hainam Do,  
 S. Ehlert,  Po-Tung Fang,  S. Fatehi,  Qingguo Feng,  T. Friedhoff,  
 J. Gayvert,  Qinghui Ge,  G. Gidofalvi,  M. Goldey,  J. Gomes,  
 C. Gonzalez-Espinoza,  S. Gulania,  A. Gunina,  M. W. D. Hanson-Heine,  
 P. H. P. Harbach,  A. W. Hauser,  M. F. Herbst,  M. Hernandez Vera,  
 M. Hodecker,  Z. C. Holden,  S. Houck,  Xunkun Huang,  Kerwin Hui,  
 B. C. Huynh,  M. Ivanov,  Hyunjun Ji,  Hanjie Jiang,  B. Kaduk,  S. Kaehler,  
 K. Khistyaev,  Jaehoon Kim,  P. Klunzinger,  Z. Koczor-Benda,  
 Joong Hoon Koh,  D. Kosenkov,  L. Koulias,  T. Kowalczyk,  C. M. Krauter,  
 K. Kue,  A. Kunitsa,  T. Kus,  A. Landau,  K. V. Lawler,  D. Lefrancois,  
 S. Lehtola,  Rain Li,  Yi-Pei Li,  Jiashu Liang,  M. Liebenthal,  
 Hung-Hsuan Lin,  You-Sheng Lin,  Fenglai Liu,  Kuan-Yu Liu,  
 M. Loipersberger,  A. Luenser,  A. Manjanath,  P. Manohar,  E. Mansoor,  
 S. F. Manzer,  Shan-Ping Mao,  A. V. Marenich,  T. Markovich,  S. Mason,  
 S. A. Maurer,  P. F. McLaughlin,  M. F. S. J. Menger,  J.-M. Mewes,  
 S. A. Mewes,  P. Morgante,  J. W. Mullinax,  K. J. Oosterbaan,  G. Paran,  
 Alexander C. Paul,  Suranjan K. Paul,  F. Pavosevic,  Zheng Pei,  S. Prager,  
 E. I. Proynov,  E. Ramos,  B. Rana,  A. E. Rask,  A. Rettig,  R. M. Richard,  
 F. Rob,  E. Rossomme,  T. Scheele,  M. Scheurer,  M. Schneider,  
 N. Sergueev,  S. M. Sharada,  W. Skomorowski,  D. W. Small,  C. J. Stein,  
 Yu-Chuan Su,  E. J. Sundstrom,  Zhen Tao,  J. Thirman,  T. Tsuchimochi,  
 N. M. Tubman,  S. P. Veccham,  O. Vydrov,  J. Wenzel,  J. Witte,  A. Yamada,  
 Kun Yao,  S. Yeganeh,  S. R. Yost,  A. Zech,  Igor Ying Zhang,  Xing Zhang,  
 Yu Zhang,  D. Zuev,  A. Aspuru-Guzik,  A. T. Bell,  N. A. Besley,  
 K. B. Bravaya,  B. R. Brooks,  D. Casanova,  Jeng-Da Chai,  S. Coriani,  
 C. J. Cramer,  A. E. DePrince, III,  R. A. DiStasio Jr.,  A. Dreuw,  
 B. D. Dunietz,  T. R. Furlani,  W. A. Goddard III,  S. Grimme,  
 S. Hammes-Schiffer,  T. Head-Gordon,  W. J. Hehre,  Chao-Ping Hsu,  
 T.-C. Jagau,  Yousung Jung,  A. Klamt,  Jing Kong,  D. S. Lambrecht,  
 WanZhen Liang,  N. J. Mayhall,  C. W. McCurdy,  J. B. Neaton,  
 C. Ochsenfeld,  J. A. Parkhill,  R. Peverati,  V. A. Rassolov,  Yihan Shao,  
 L. V. Slipchenko,  T. Stauch,  R. P. Steele,  J. E. Subotnik,  
 A. J. W. Thom,  A. Tkatchenko,  D. G. Truhlar,  T. Van Voorhis,  
 T. A. Wesolowski,  K. B. Whaley,  H. L. Woodcock III,  P. M. Zimmerman,  
 S. Faraji,  P. M. W. Gill,  M. Head-Gordon,  J. M. Herbert,  A. I. Krylov

 Additional authors for Version 5.4.1: 
 S. Kotaru,  Shaozhi Li,  Xiangyuan Li,  F. Matz,  A. Molle,  Haisheng Ren,  
 Yingli Su,  Hung-Yi Tsai,  C. Utku,  Fang Wang

 Contributors to earlier versions of Q-Chem not listed above: 
 R. D. Adamson,  B. Austin,  R. Baer,  J. Baker,  G. J. O. Beran,  
 K. Brandhorst,  S. T. Brown,  E. F. C. Byrd,  A. K. Chakraborty,  
 G. K. L. Chan,  Chun-Min Chang,  Yunqing Chen,  C.-L. Cheng,  
 Siu Hung Chien,  D. M. Chipman,  D. L. Crittenden,  H. Dachsel,  
 R. J. Doerksen,  A. D. Dutoi,  R. G. Edgar,  J. Fosso-Tande,  
 L. Fusti-Molnar,  D. Ghosh,  A. Ghysels,  A. Golubeva-Zadorozhnaya,  
 J. Gonthier,  M. S. Gordon,  S. R. Gwaltney,  G. Hawkins,  J. E. Herr,  
 A. Heyden,  S. Hirata,  E. G. Hohenstein,  G. Kedziora,  F. J. Keil,  
 C. Kelley,  Jihan Kim,  R. A. King,  R. Z. Khaliullin,  P. P. Korambath,  
 W. Kurlancheek,  A. Laurent,  A. M. Lee,  M. S. Lee,  S. V. Levchenko,  
 Ching Yeh Lin,  D. Liotard,  E. Livshits,  R. C. Lochan,  I. Lotan,  
 L. A. Martinez-Martinez,  P. E. Maslen,  N. Nair,  D. P. O'Neill,  
 D. Neuhauser,  E. Neuscamman,  C. M. Oana,  R. Olivares-Amaya,  R. Olson,  
 T. M. Perrine,  B. Peters,  P. A. Pieniazek,  A. Prociuk,  Y. M. Rhee,  
 J. Ritchie,  M. A. Rohrdanz,  E. Rosta,  N. J. Russ,  H. F. Schaefer III,  
 M. W. Schmidt,  N. E. Schultz,  S. Sharma,  N. Shenvi,  C. D. Sherrill,  
 A. C. Simmonett,  A. Sodt,  T. Stein,  D. Stuck,  K. S. Thanthiriwatte,  
 V. Vanovschi,  L. Vogt,  Tao Wang,  A. Warshel,  M. A. Watson,  
 C. F. Williams,  Q. Wu,  X. Xu,  Jun Yang,  W. Zhang,  Yan Zhao

 Please cite Q-Chem as follows:
 Y. Shao et al., Mol. Phys. 113, 184-215 (2015)
 DOI: 10.1080/00268976.2014.952696

 Q-Chem 5.4.1 for Intel X86 EM64T Linux

 Parts of Q-Chem use Armadillo 9.800.1 (Horizon Scraper).
 http://arma.sourceforge.net/

 Q-Chem begins on Wed Nov  1 16:06:57 2023  

 Host: 
0

     Scratch files written to /scratch/ari.fischer/qChem1828105.hpc-mn1/qchem207704//
 Aug1521 |scratch|qcdevops|jenkins|workspace|build_RNUM 8249   
 Processing $rem in /usr/local/qchem-5.4.1/config/preferences:
 Processing $rem in /home/ari.fischer/.qchemrc:
 Symmetry turned off for PCM/SM12/SMD calculation


!!********************************************.
!!******************Warning*******************.
!!Desired Analytical derivatives not available.
!!Finite difference job might take a long time.
!!********************************************.
!!********************************************.


 2-order derivative to be evaluated numerically with 1-order analytical derivatives

 Checking the input file for inconsistencies... 	...done.

--------------------------------------------------------------
User input:
--------------------------------------------------------------
$molecule
0 2
C        -0.5828554556    0.0079620555    1.0047328224
C        -0.9715256668   -1.0946461671    1.7337512514
C        -1.9009861576   -2.0089829137    1.1929078323
C        -2.5007924987   -1.7212688885   -0.0500854555
C        -2.1026382871   -0.6149735070   -0.7679815329
C        -1.1353558085    0.2539201170   -0.2550974631
C        -0.6690463045    1.4379569720   -1.0573606203
H         0.1458182125    0.6986400714    1.4094684260
H        -0.5568644134   -1.2780887273    2.7156925213
H        -2.3210258708   -2.7776337888    1.8229663574
H        -3.2533927601   -2.3898016079   -0.4440437548
H        -2.5433219524   -0.4051147494   -1.7342941574
H        -1.3539312003    1.6249483970   -1.8853478598
O         0.6639403614    1.2528810526   -1.5450546710
H        -0.6338478206    2.3266910189   -0.4298197470
H         0.6536943155    0.5087240125   -2.1571198136
O        -0.4933327975   -3.4032687968    0.4557014232
H         0.1079827044   -3.3015171503    1.2081860416
$end

$rem
BASIS = 6-311++G(2df,2p)
GUI = 2
JOB_TYPE = Frequency
METHOD = wB97M-V
SOLVENT_METHOD = SMD
SCF_ALGORITHM = DIIS_GDM
MAX_SCF_CYCLES = 400
SCF_CONVERGENCE = 7
THRESH = 12
$end

--------------------------------------------------------------
 ----------------------------------------------------------------
             Standard Nuclear Orientation (Angstroms)
    I     Atom           X                Y                Z
 ----------------------------------------------------------------
    1      C      -0.5828554556     0.0079620555     1.0047328224
    2      C      -0.9715256668    -1.0946461671     1.7337512514
    3      C      -1.9009861576    -2.0089829137     1.1929078323
    4      C      -2.5007924987    -1.7212688885    -0.0500854555
    5      C      -2.1026382871    -0.6149735070    -0.7679815329
    6      C      -1.1353558085     0.2539201170    -0.2550974631
    7      C      -0.6690463045     1.4379569720    -1.0573606203
    8      H       0.1458182125     0.6986400714     1.4094684260
    9      H      -0.5568644134    -1.2780887273     2.7156925213
   10      H      -2.3210258708    -2.7776337888     1.8229663574
   11      H      -3.2533927601    -2.3898016079    -0.4440437548
   12      H      -2.5433219524    -0.4051147494    -1.7342941574
   13      H      -1.3539312003     1.6249483970    -1.8853478598
   14      O       0.6639403614     1.2528810526    -1.5450546710
   15      H      -0.6338478206     2.3266910189    -0.4298197470
   16      H       0.6536943155     0.5087240125    -2.1571198136
   17      O      -0.4933327975    -3.4032687968     0.4557014232
   18      H       0.1079827044    -3.3015171503     1.2081860416
 ----------------------------------------------------------------
 Nuclear Repulsion Energy =         427.03710628 hartrees
 There are       34 alpha and       33 beta electrons
 Requested basis set is 6-311++G(2df,2p)
 There are 126 shells and 396 basis functions

 Total QAlloc Memory Limit 288000 MB
 Mega-Array Size       188 MB
 MEM_STATIC part       192 MB
 
 Citation of the SMD model:
 Marenich, A.V.; Cramer, C.J.; Truhlar, D.G.
 J. Phys. Chem. B 2009, 113, 6378-6396.
 iSolventCode=           1
 Solvent: water                                                           
 
 vradii
            1           2           3           4           5           6
    1   1.8500000   1.8500000   1.8500000   1.8500000   1.8500000   1.8500000
            7           8           9          10          11          12
    1   1.8500000   1.2000000   1.2000000   1.2000000   1.2000000   1.2000000
           13          14          15          16          17          18
    1   1.2000000   1.5200000   1.2000000   1.2000000   1.5200000   1.2000000
 Changing PCM_VDW_RADII to SMD_RADIUS
 Discretize the solute cavity surface with Lebedev spheres
	Using 110 Lebedev grid points for each H atom
	Using 194 Lebedev grid points for other atoms
	Atomic van der Waals radii will be scaled by 1.20
 Remove points where switching function is < 1.0e-08
 Keep 1337 surface tesserae and discard 1399 interior tesserae
 Molecular Surface Area = 159.313 Angst**2
 A cutoff of  1.0D-12 yielded   7186 shell pairs
 There are     71546 function pairs (     88667 Cartesian)
 Smallest overlap matrix eigenvalue = 7.48E-07
 Linear dependence detected in AO basis
 Tighter screening thresholds may be required for diffuse basis sets
 Use S2THRESH > 14 and THRESH = 14 in case of SCF convergence issues
 Number of orthogonalized atomic orbitals = 395
 Maximum deviation from orthogonality = 4.539E-11
 Guess from superposition of atomic densities
 Warning:  Energy on first SCF cycle will be non-variational
 SAD guess density has 67.000000 electrons

 -----------------------------------------------------------------------
  General SCF calculation program by
  Eric Jon Sundstrom, Paul Horn, Yuezhi Mao, Dmitri Zuev, Alec White,
  David Stuck, Shaama M.S., Shane Yost, Joonho Lee, David Small,
  Daniel Levine, Susi Lehtola, Hugh Burton, Evgeny Epifanovsky,
  Bang C. Huynh
 -----------------------------------------------------------------------
 Exchange:     0.1500 Hartree-Fock + 1.0000 wB97M-V + LR-HF
 Correlation:  1.0000 wB97M-V
 Using SG-2 standard quadrature grid
 Nonlocal Correlation:  VV10 with C = 0.0100 and b = 6.00 and scale = 1.00000
 Grid used for NLC:  SG-1 standard quadrature
 using 32 threads for integral computing
 -------------------------------------------------------
 OpenMP Integral computing Module                
 Release: version 1.0, May 2013, Q-Chem Inc. Pittsburgh 
 -------------------------------------------------------
 
 Citation of the SMD model:
 Marenich, A.V.; Cramer, C.J.; Truhlar, D.G.
 J. Phys. Chem. B 2009, 113, 6378-6396.
 iSolventCode=           1
 Solvent: water                                                           
 
 vradii
            1           2           3           4           5           6
    1   1.8500000   1.8500000   1.8500000   1.8500000   1.8500000   1.8500000
            7           8           9          10          11          12
    1   1.8500000   1.2000000   1.2000000   1.2000000   1.2000000   1.2000000
           13          14          15          16          17          18
    1   1.2000000   1.5200000   1.2000000   1.2000000   1.5200000   1.2000000
 -------------------------------------------------------
 OpenMP BLAS3 based DFT computing Module                
 Release: version 1.0, May 2013, Q-Chem Inc. Pittsburgh 
 -------------------------------------------------------
 A unrestricted SCF calculation will be
 performed using DIIS, GDM
 SCF converges when RMS gradient is below 1.0e-07
 ---------------------------------------
  Cycle       Energy         DIIS error
 ---------------------------------------
    1    -424.8511736516      1.25e-02  
    2    -422.3532968154      1.44e-03  Done DIIS. Switching to GDM
 ---------------------------------------
  Cycle       Energy        RMS Gradient
 ---------------------------------------
    1    -422.3532968154      2.39e-01   Descent step
    2    -422.4821522858      2.67e-02   Normal BFGS step
    3    -422.4989237418      3.51e-02   Normal BFGS step
    4    -422.5032017309      1.56e-02   Normal BFGS step
    5    -422.5046157260      1.27e-02   Normal BFGS step
    6    -422.5055910918      8.12e-03   Normal BFGS step
    7    -422.5059484278      3.38e-03   Normal BFGS step
    8    -422.5060248501      1.35e-03   Normal BFGS step
    9    -422.5060488735      1.14e-03   Normal BFGS step
   10    -422.5060567951      5.86e-04   Normal BFGS step
   11    -422.5060605487      2.55e-04   Normal BFGS step
   12    -422.5060615085      1.65e-04   Normal BFGS step
   13    -422.5060617488      1.17e-04   Normal BFGS step
   14    -422.5060618225      8.87e-05   Normal BFGS step
   15    -422.5060618593      5.61e-05   Normal BFGS step
   16    -422.5060618770      3.09e-05   Normal BFGS step
   17    -422.5060618876      1.98e-05   Normal BFGS step
   18    -422.5060618906      8.72e-06   Normal BFGS step
   19    -422.5060618910      2.40e-06   Normal BFGS step
   20    -422.5060618911      1.50e-06   Normal BFGS step
   21    -422.5060618911      7.95e-07   Normal BFGS step
   22    -422.5060618911      2.89e-07   Normal BFGS step
   23    -422.5060618911      1.09e-07   Normal BFGS step
   24    -422.5060618911      4.14e-08  Convergence criterion met
 ---------------------------------------
 SCF time:   CPU 3190.19s  wall 121.00s 
<S^2> =          0.780448375
(3)  G-ENP(liq) elect-nuc-pol free energy of system     -422.506061891 a.u.
(4)  G-CDS(liq) cavity-dispersion-solvent structure 
     free energy                                                3.5079 kcal/mol
(6)  G-S(liq) free energy of system                     -422.500471633 a.u.
 SCF   energy in the final basis set =     -422.5004716333
 Total energy in the final basis set =     -422.5004716333
 
 --------------------------------------------------------------
 
                    Orbital Energies (a.u.)
 --------------------------------------------------------------
 
 Alpha MOs
 -- Occupied --
-19.3432 -19.3397 -10.3877 -10.3730 -10.3656 -10.3582 -10.3570 -10.3484
-10.3480  -1.1562  -1.0971  -0.9960  -0.8988  -0.8816  -0.8012  -0.7316
 -0.7130  -0.6413  -0.6122  -0.5806  -0.5664  -0.5524  -0.5472  -0.5334
 -0.5269  -0.5105  -0.4768  -0.4496  -0.4437  -0.4342  -0.4164  -0.3945
 -0.3592  -0.3222
 -- Virtual --
  0.0232   0.0344   0.0371   0.0449   0.0519   0.0546   0.0581   0.0596
  0.0659   0.0838   0.0869   0.0958   0.1108   0.1258   0.1393   0.1434
  0.1470   0.1498   0.1531   0.1589   0.1616   0.1628   0.1680   0.1772
  0.1782   0.1814   0.1826   0.1986   0.2054   0.2137   0.2166   0.2207
  0.2283   0.2373   0.2480   0.2485   0.2597   0.2624   0.2724   0.2829
  0.2909   0.2954   0.3042   0.3155   0.3210   0.3296   0.3361   0.3382
  0.3450   0.3526   0.3552   0.3633   0.3684   0.3817   0.3860   0.4011
  0.4134   0.4235   0.4297   0.4396   0.4491   0.4726   0.5335   0.5404
  0.5476   0.5789   0.5830   0.5936   0.5974   0.6017   0.6137   0.6163
  0.6257   0.6307   0.6375   0.6441   0.6571   0.6727   0.6794   0.6867
  0.7005   0.7049   0.7138   0.7197   0.7306   0.7338   0.7446   0.7487
  0.7547   0.7625   0.7693   0.7723   0.8034   0.8151   0.8322   0.8372
  0.8389   0.8508   0.8716   0.8815   0.8878   0.8970   0.9027   0.9121
  0.9502   0.9554   0.9891   1.0010   1.0288   1.0412   1.0417   1.0751
  1.0834   1.0949   1.1242   1.1356   1.1451   1.1649   1.1688   1.1821
  1.1944   1.2040   1.2211   1.2238   1.2508   1.2627   1.2667   1.2816
  1.2860   1.2999   1.3020   1.3207   1.3460   1.3520   1.3732   1.3903
  1.3943   1.4122   1.4245   1.4328   1.4483   1.4501   1.4527   1.4599
  1.4758   1.4946   1.5052   1.5358   1.5405   1.5477   1.5647   1.5772
  1.5853   1.6017   1.6302   1.6507   1.6782   1.7106   1.7326   1.7511
  1.7911   1.8039   1.8134   1.8538   1.8684   1.8745   1.8999   1.9335
  1.9679   1.9923   2.0369   2.0574   2.0945   2.0967   2.1216   2.1276
  2.1844   2.2442   2.3469   2.3567   2.3726   2.5677   2.6178   2.6369
  2.6471   2.6521   2.6797   2.7347   2.7589   2.7739   2.7942   2.7985
  2.8159   2.8312   2.8517   2.8567   2.8640   2.8756   2.8984   2.9182
  2.9275   2.9343   2.9514   2.9563   2.9658   2.9770   3.0000   3.0081
  3.0488   3.0704   3.0887   3.1027   3.1421   3.1641   3.1698   3.1803
  3.1963   3.2189   3.2199   3.2404   3.2430   3.2595   3.2774   3.3101
  3.3107   3.3233   3.3445   3.3592   3.3673   3.4009   3.4064   3.4129
  3.4236   3.4467   3.4675   3.4763   3.4931   3.5071   3.5316   3.5517
  3.5604   3.5683   3.5721   3.6131   3.6292   3.6402   3.6484   3.6923
  3.7170   3.7449   3.7654   3.7755   3.7964   3.7969   3.8129   3.8367
  3.8387   3.8617   3.8875   3.8938   3.9101   3.9161   3.9382   3.9580
  3.9688   3.9832   4.0079   4.0282   4.0801   4.1088   4.1274   4.1463
  4.1763   4.1776   4.1999   4.2073   4.2457   4.2817   4.2905   4.3011
  4.3178   4.3458   4.3553   4.3791   4.3948   4.4143   4.4386   4.4572
  4.4713   4.4908   4.5202   4.5332   4.5486   4.5621   4.5851   4.6011
  4.6149   4.6232   4.6853   4.7262   4.7746   4.7924   4.8468   4.8688
  4.9698   5.0369   5.1069   5.1212   5.1397   5.1741   5.1870   5.2019
  5.2311   5.2420   5.2467   5.2818   5.2849   5.3123   5.3150   5.3216
  5.4134   5.4201   5.4553   5.4881   5.5511   5.5997   5.6660   5.6764
  5.6816   5.7123   5.7488   5.8013   5.8544   5.8851   5.9153   5.9312
  6.0288   6.2307   6.5823   6.6098   6.9829   7.0385   7.0978   7.1000
  7.1507   7.2990   7.3062   7.3192   7.3616   7.5742   7.6393   7.7787
 24.1947  24.7527  24.7992  24.8162  24.9875  25.0773  25.4893  50.4973
 50.5906
 
 Beta MOs
 -- Occupied --
-19.3393 -19.3255 -10.3879 -10.3728 -10.3627 -10.3555 -10.3543 -10.3497
-10.3494  -1.1554  -1.0557  -0.9915  -0.8933  -0.8796  -0.8005  -0.7291
 -0.7100  -0.6398  -0.6112  -0.5776  -0.5633  -0.5442  -0.5352  -0.5309
 -0.5241  -0.4817  -0.4739  -0.4481  -0.4329  -0.3972  -0.3936  -0.3623
 -0.3510
 -- Virtual --
 -0.0638   0.0232   0.0352   0.0374   0.0455   0.0550   0.0559   0.0649
  0.0668   0.0739   0.0840   0.0869   0.0958   0.1110   0.1252   0.1399
  0.1439   0.1487   0.1503   0.1535   0.1590   0.1617   0.1639   0.1698
  0.1779   0.1785   0.1816   0.1836   0.1992   0.2053   0.2142   0.2166
  0.2212   0.2293   0.2379   0.2479   0.2505   0.2619   0.2644   0.2728
  0.2845   0.2928   0.2961   0.3052   0.3174   0.3212   0.3297   0.3377
  0.3388   0.3458   0.3532   0.3560   0.3644   0.3703   0.3835   0.3879
  0.4020   0.4143   0.4242   0.4313   0.4413   0.4503   0.4741   0.5339
  0.5432   0.5486   0.5825   0.5842   0.5945   0.5987   0.6044   0.6156
  0.6190   0.6273   0.6322   0.6406   0.6458   0.6599   0.6766   0.6830
  0.6884   0.7015   0.7065   0.7163   0.7215   0.7312   0.7348   0.7449
  0.7502   0.7564   0.7634   0.7695   0.7733   0.8053   0.8172   0.8331
  0.8386   0.8406   0.8531   0.8736   0.8838   0.8893   0.8980   0.9042
  0.9137   0.9543   0.9590   0.9914   1.0047   1.0302   1.0418   1.0429
  1.0762   1.0853   1.0984   1.1259   1.1370   1.1474   1.1672   1.1707
  1.1889   1.1964   1.2061   1.2241   1.2260   1.2525   1.2650   1.2679
  1.2884   1.2891   1.3009   1.3079   1.3356   1.3485   1.3541   1.3760
  1.3915   1.3955   1.4137   1.4272   1.4361   1.4504   1.4519   1.4548
  1.4628   1.4780   1.4967   1.5084   1.5365   1.5463   1.5493   1.5671
  1.5787   1.5867   1.6028   1.6310   1.6523   1.6852   1.7156   1.7415
  1.7594   1.7990   1.8049   1.8199   1.8634   1.8732   1.8774   1.9053
  1.9400   1.9747   2.0041   2.0531   2.0604   2.0997   2.1057   2.1232
  2.1317   2.1856   2.2467   2.3476   2.3586   2.3771   2.5722   2.6214
  2.6404   2.6512   2.6551   2.6824   2.7384   2.7627   2.7804   2.7968
  2.8013   2.8194   2.8371   2.8568   2.8621   2.8673   2.8795   2.9015
  2.9204   2.9308   2.9411   2.9594   2.9613   2.9704   2.9858   3.0058
  3.0154   3.0565   3.0741   3.0916   3.1052   3.1443   3.1669   3.1757
  3.1829   3.1995   3.2211   3.2240   3.2440   3.2466   3.2632   3.2814
  3.3131   3.3169   3.3264   3.3486   3.3640   3.3713   3.4042   3.4083
  3.4154   3.4271   3.4492   3.4720   3.4794   3.4970   3.5104   3.5347
  3.5544   3.5637   3.5703   3.5786   3.6215   3.6283   3.6432   3.6516
  3.6954   3.7189   3.7483   3.7686   3.7815   3.8005   3.8022   3.8157
  3.8391   3.8428   3.8663   3.8901   3.8996   3.9159   3.9194   3.9439
  3.9614   3.9743   3.9855   4.0115   4.0319   4.0827   4.1125   4.1319
  4.1494   4.1777   4.1804   4.2040   4.2097   4.2481   4.2866   4.2972
  4.3036   4.3209   4.3487   4.3579   4.3824   4.3965   4.4177   4.4412
  4.4612   4.4748   4.4951   4.5261   4.5387   4.5540   4.5686   4.5903
  4.6062   4.6190   4.6272   4.6900   4.7326   4.7780   4.7969   4.8535
  4.8747   4.9721   5.0433   5.1158   5.1408   5.1616   5.2086   5.2137
  5.2237   5.2561   5.2574   5.2784   5.2880   5.3112   5.3239   5.3340
  5.3678   5.4210   5.4516   5.4584   5.4921   5.5544   5.6009   5.6791
  5.6812   5.7128   5.7240   5.7537   5.8087   5.8555   5.8871   5.9196
  5.9335   6.0297   6.2348   6.5855   6.6121   7.0586   7.0701   7.0993
  7.1816   7.2149   7.3068   7.3202   7.3425   7.3631   7.6248   7.6401
  7.7800  24.1953  24.7538  24.7999  24.8164  24.9893  25.0777  25.4907
 50.5101  50.5910
 --------------------------------------------------------------
 
          Ground-State Mulliken Net Atomic Charges

     Atom                 Charge (a.u.)    Spin (a.u.)
  --------------------------------------------------------
      1 C                    -0.042407      -0.086282
      2 C                    -0.302406       0.175852
      3 C                    -0.345343      -0.023942
      4 C                    -0.326492       0.181597
      5 C                    -0.566216      -0.078518
      6 C                     0.484523       0.185834
      7 C                    -0.571062       0.002870
      8 H                     0.277788       0.001671
      9 H                     0.313316      -0.003526
     10 H                     0.357781       0.009744
     11 H                     0.294559      -0.003542
     12 H                     0.274694       0.002064
     13 H                     0.212427       0.000320
     14 O                    -0.395412       0.009101
     15 H                     0.212823       0.004378
     16 H                     0.330607      -0.000786
     17 O                    -0.515317       0.632039
     18 H                     0.306137      -0.008875
  --------------------------------------------------------
  Sum of atomic charges =    -0.000000
  Sum of spin   charges =     1.000000

 -----------------------------------------------------------------
                    Cartesian Multipole Moments
 -----------------------------------------------------------------
    Charge (ESU x 10^10)
                 0.0000
    Dipole Moment (Debye)
         X      -2.3631      Y       1.8732      Z       1.3064
       Tot       3.2863
    Quadrupole Moments (Debye-Ang)
        XX     -50.6785     XY      -2.4431     YY     -67.2841
        XZ       4.2047     YZ      -3.9616     ZZ     -43.3742
    Octopole Moments (Debye-Ang^2)
       XXX     157.9453    XXY      17.8303    XYY      55.8465
       YYY     162.3873    XXZ      -9.8776    XYZ       6.9466
       YYZ      17.2754    XZZ      50.9611    YZZ      17.7390
       ZZZ      -9.9952
    Hexadecapole Moments (Debye-Ang^3)
      XXXX    -702.3665   XXXY    -164.9464   XXYY    -252.4162
      XYYY    -260.1763   YYYY   -1233.1979   XXXZ      67.8743
      XXYZ      54.8878   XYYZ      23.2359   YYYZ     143.0767
      XXZZ    -185.5730   XYZZ     -68.7425   YYZZ    -218.7585
      XZZZ      49.1482   YZZZ     145.9086   ZZZZ    -408.9939
 -----------------------------------------------------------------
 Calculating analytic gradient of the SCF energy
 Gradient of CDS energy
            1           2           3           4           5           6
    1   0.0001597  -0.0000160  -0.0001271  -0.0002867  -0.0001515   0.0002232
    2   0.0002379  -0.0000119  -0.0001690  -0.0002727   0.0001403  -0.0000672
    3   0.0000738   0.0003327   0.0001640  -0.0000743  -0.0002289  -0.0000768
            7           8           9          10          11          12
    1  -0.0002684   0.0001218   0.0000736  -0.0000272  -0.0001432  -0.0000493
    2   0.0010574   0.0001440  -0.0000286  -0.0002004  -0.0001272   0.0000872
    3  -0.0004376   0.0000288   0.0001816   0.0000909  -0.0000750  -0.0001666
           13          14          15          16          17          18
    1  -0.0001099  -0.0001117   0.0001715   0.0003722  -0.0002175   0.0003867
    2  -0.0002221  -0.0000872  -0.0000409  -0.0002304   0.0000763  -0.0002855
    3  -0.0000679   0.0002522   0.0002660  -0.0003062  -0.0000949   0.0001381
 Gradient of SCF Energy
            1           2           3           4           5           6
    1  -0.0037910  -0.0037857   0.0009158   0.0020724   0.0038277  -0.0010802
    2   0.0008325   0.0025232  -0.0005587   0.0024625  -0.0058927   0.0037508
    3  -0.0040819  -0.0073694  -0.0057355   0.0038956   0.0071361   0.0002974
            7           8           9          10          11          12
    1   0.0073956   0.0033009   0.0037969  -0.0026416  -0.0042358  -0.0034904
    2  -0.0074515   0.0036774  -0.0020894  -0.0021396  -0.0020199   0.0023775
    3   0.0021679   0.0029276   0.0089690   0.0048198  -0.0016689  -0.0082490
           13          14          15          16          17          18
    1  -0.0051150   0.0055187  -0.0023088  -0.0034500  -0.0002174   0.0032879
    2   0.0005191   0.0094630   0.0042507  -0.0077636  -0.0034108   0.0014695
    3  -0.0059304   0.0071227   0.0036627  -0.0072914  -0.0085807   0.0079085
 Max gradient component =       9.463E-03
 RMS gradient           =       4.772E-03
 Computing fast CPCM-SWIG gradient
 Updating gradient with PCM contributions...
 -- total gradient after adding PCM contribution --
---------------------------------------------------
  Atom         X              Y              Z     
---------------------------------------------------
   1       0.000039      -0.000000      -0.000037
   2      -0.000048       0.000008       0.000049
   3       0.000005       0.000064      -0.000046
   4      -0.000007      -0.000036      -0.000016
   5      -0.000005       0.000024      -0.000013
   6      -0.000002       0.000011       0.000030
   7       0.000022      -0.000008      -0.000000
   8      -0.000033       0.000007       0.000028
   9      -0.000019      -0.000011      -0.000001
  10      -0.000026       0.000011       0.000006
  11      -0.000001       0.000006      -0.000029
  12       0.000014       0.000008      -0.000012
  13       0.000026       0.000004       0.000001
  14       0.000023      -0.000006       0.000025
  15       0.000017      -0.000001       0.000006
  16       0.000025       0.000000       0.000011
  17      -0.000036      -0.000058      -0.000015
  18       0.000006      -0.000022       0.000013
---------------------------------------------------
 Number of fixed atoms: 0
 Gradient time:  CPU 348.07 s  wall 16.48 s
 ######################################################
 ######################################################
 # Starting finite difference calculation for IDERIV  #
 Finite diff step size:  1.88973e-03 a.u.
 ----------------------------------------------------------------
             Standard Nuclear Orientation (Angstroms)
    I     Atom           X                Y                Z
 ----------------------------------------------------------------
    1      C      -0.5818554556     0.0079620555     1.0047328224
    2      C      -0.9715256668    -1.0946461671     1.7337512514
    3      C      -1.9009861576    -2.0089829137     1.1929078323
    4      C      -2.5007924987    -1.7212688885    -0.0500854555
    5      C      -2.1026382871    -0.6149735070    -0.7679815329
    6      C      -1.1353558085     0.2539201170    -0.2550974631
    7      C      -0.6690463045     1.4379569720    -1.0573606203
    8      H       0.1458182125     0.6986400714     1.4094684260
    9      H      -0.5568644134    -1.2780887273     2.7156925213
   10      H      -2.3210258708    -2.7776337888     1.8229663574
   11      H      -3.2533927601    -2.3898016079    -0.4440437548
   12      H      -2.5433219524    -0.4051147494    -1.7342941574
   13      H      -1.3539312003     1.6249483970    -1.8853478598
   14      O       0.6639403614     1.2528810526    -1.5450546710
   15      H      -0.6338478206     2.3266910189    -0.4298197470
   16      H       0.6536943155     0.5087240125    -2.1571198136
   17      O      -0.4933327975    -3.4032687968     0.4557014232
   18      H       0.1079827044    -3.3015171503     1.2081860416
 ----------------------------------------------------------------
 Nuclear Repulsion Energy =         427.02738259 hartrees
 There are       34 alpha and       33 beta electrons
 Discretize the solute cavity surface with Lebedev spheres
	Using 110 Lebedev grid points for each H atom
	Using 194 Lebedev grid points for other atoms
	Atomic van der Waals radii will be scaled by 1.20
 Remove points where switching function is < 1.0e-08
 Keep 1336 surface tesserae and discard 1400 interior tesserae
 Molecular Surface Area = 159.313 Angst**2
 Requested basis set is 6-311++G(2df,2p)
 There are 126 shells and 396 basis functions
 A cutoff of  1.0D-12 yielded   7186 shell pairs
 There are     71546 function pairs (     88667 Cartesian)
 Smallest overlap matrix eigenvalue = 7.50E-07
 Linear dependence detected in AO basis
 Tighter screening thresholds may be required for diffuse basis sets
 Use S2THRESH > 14 and THRESH = 14 in case of SCF convergence issues
 Number of orthogonalized atomic orbitals = 395
 Maximum deviation from orthogonality = 1.055E-10
 Guess MOs from SCF MO coefficient file

 -----------------------------------------------------------------------
  General SCF calculation program by
  Eric Jon Sundstrom, Paul Horn, Yuezhi Mao, Dmitri Zuev, Alec White,
  David Stuck, Shaama M.S., Shane Yost, Joonho Lee, David Small,
  Daniel Levine, Susi Lehtola, Hugh Burton, Evgeny Epifanovsky,
  Bang C. Huynh
 -----------------------------------------------------------------------
 Exchange:     0.1500 Hartree-Fock + 1.0000 wB97M-V + LR-HF
 Correlation:  1.0000 wB97M-V
 Using SG-2 standard quadrature grid
 Nonlocal Correlation:  VV10 with C = 0.0100 and b = 6.00 and scale = 1.00000
 Grid used for NLC:  SG-1 standard quadrature
 
 Citation of the SMD model:
 Marenich, A.V.; Cramer, C.J.; Truhlar, D.G.
 J. Phys. Chem. B 2009, 113, 6378-6396.
 iSolventCode=           1
 Solvent: water                                                           
 
 vradii
            1           2           3           4           5           6
    1   1.8500000   1.8500000   1.8500000   1.8500000   1.8500000   1.8500000
            7           8           9          10          11          12
    1   1.8500000   1.2000000   1.2000000   1.2000000   1.2000000   1.2000000
           13          14          15          16          17          18
    1   1.2000000   1.5200000   1.2000000   1.2000000   1.5200000   1.2000000
 -------------------------------------------------------
 OpenMP BLAS3 based DFT computing Module                
 Release: version 1.0, May 2013, Q-Chem Inc. Pittsburgh 
 -------------------------------------------------------
 A unrestricted SCF calculation will be
 performed using Roothaan-Hall, DIIS, GDM
 SCF converges when RMS gradient is below 1.0e-07
 ---------------------------------------
  Cycle       Energy         DIIS error
 ---------------------------------------
    1    -422.4712096758      2.07e-04  Roothaan Step
 ---------------------------------------
  Cycle       Energy         DIIS error
 ---------------------------------------
    1    -422.4988099286      2.53e-04  
    2    -422.5024996226      2.54e-04  Done DIIS. Switching to GDM
 ---------------------------------------
  Cycle       Energy        RMS Gradient
 ---------------------------------------
    1    -422.5024996226      1.86e-02   Normal BFGS step
    2    -422.5017377379      3.00e-02  Line search: overstep
    3    -422.5058421517      5.78e-03   Normal BFGS step
    4    -422.5059908914      2.41e-03   Normal BFGS step
    5    -422.5060366682      2.20e-03   Normal BFGS step
    6    -422.5060487771      1.42e-03   Normal BFGS step
    7    -422.5060584287      5.12e-04   Normal BFGS step
    8    -422.5060606576      1.65e-04   Normal BFGS step
    9    -422.5060611322      1.08e-04   Normal BFGS step
   10    -422.5060612779      6.89e-05   Normal BFGS step
   11    -422.5060613397      3.59e-05   Normal BFGS step
   12    -422.5060613638      2.49e-05   Normal BFGS step
   13    -422.5060613689      2.05e-05   Normal BFGS step
   14    -422.5060613713      1.63e-05   Normal BFGS step
   15    -422.5060613727      9.28e-06   Normal BFGS step
   16    -422.5060613732      5.14e-06   Normal BFGS step
   17    -422.5060613734      2.69e-06   Normal BFGS step
   18    -422.5060613735      1.53e-06   Normal BFGS step
   19    -422.5060613735      5.43e-07   Normal BFGS step
   20    -422.5060613735      2.46e-07   Normal BFGS step
   21    -422.5060613735      4.31e-08  Convergence criterion met
 ---------------------------------------
 SCF time:   CPU 2984.91s  wall 113.00s 
<S^2> =          0.780462006
(3)  G-ENP(liq) elect-nuc-pol free energy of system     -422.506061373 a.u.
(4)  G-CDS(liq) cavity-dispersion-solvent structure 
     free energy                                                3.5081 kcal/mol
(6)  G-S(liq) free energy of system                     -422.500470812 a.u.
 SCF   energy in the final basis set =     -422.5004708125
 Total energy in the final basis set =     -422.5004708125
 
 --------------------------------------------------------------
 
                    Orbital Energies (a.u.)
 --------------------------------------------------------------
 
 Alpha MOs
 -- Occupied --
-19.3432 -19.3397 -10.3877 -10.3730 -10.3657 -10.3582 -10.3570 -10.3484
-10.3481  -1.1562  -1.0971  -0.9960  -0.8987  -0.8816  -0.8012  -0.7317
 -0.7130  -0.6413  -0.6122  -0.5806  -0.5664  -0.5524  -0.5472  -0.5335
 -0.5269  -0.5105  -0.4768  -0.4496  -0.4437  -0.4343  -0.4164  -0.3945
 -0.3591  -0.3222
 -- Virtual --
  0.0232   0.0344   0.0371   0.0449   0.0519   0.0546   0.0581   0.0596
  0.0659   0.0838   0.0869   0.0958   0.1108   0.1258   0.1393   0.1434
  0.1471   0.1498   0.1531   0.1589   0.1616   0.1628   0.1680   0.1771
  0.1782   0.1814   0.1826   0.1986   0.2054   0.2137   0.2166   0.2207
  0.2283   0.2373   0.2479   0.2485   0.2597   0.2623   0.2724   0.2830
  0.2909   0.2954   0.3042   0.3155   0.3210   0.3296   0.3361   0.3382
  0.3450   0.3526   0.3552   0.3633   0.3684   0.3817   0.3860   0.4011
  0.4133   0.4235   0.4297   0.4395   0.4491   0.4726   0.5334   0.5403
  0.5474   0.5789   0.5831   0.5935   0.5974   0.6017   0.6137   0.6162
  0.6257   0.6308   0.6375   0.6441   0.6571   0.6727   0.6794   0.6866
  0.7005   0.7050   0.7138   0.7196   0.7306   0.7339   0.7445   0.7487
  0.7548   0.7625   0.7693   0.7723   0.8034   0.8151   0.8322   0.8372
  0.8388   0.8508   0.8716   0.8814   0.8877   0.8970   0.9027   0.9121
  0.9502   0.9554   0.9891   1.0010   1.0288   1.0412   1.0417   1.0751
  1.0834   1.0949   1.1242   1.1356   1.1450   1.1649   1.1687   1.1820
  1.1944   1.2040   1.2212   1.2238   1.2508   1.2628   1.2667   1.2816
  1.2860   1.2998   1.3020   1.3206   1.3460   1.3519   1.3731   1.3903
  1.3943   1.4122   1.4244   1.4328   1.4483   1.4501   1.4526   1.4599
  1.4758   1.4946   1.5052   1.5357   1.5405   1.5477   1.5647   1.5773
  1.5854   1.6018   1.6302   1.6507   1.6782   1.7105   1.7327   1.7511
  1.7910   1.8038   1.8135   1.8536   1.8684   1.8744   1.9000   1.9335
  1.9679   1.9923   2.0369   2.0574   2.0944   2.0966   2.1214   2.1275
  2.1844   2.2438   2.3469   2.3567   2.3726   2.5679   2.6176   2.6369
  2.6470   2.6521   2.6797   2.7347   2.7589   2.7739   2.7941   2.7984
  2.8159   2.8312   2.8517   2.8568   2.8639   2.8758   2.8984   2.9182
  2.9275   2.9344   2.9514   2.9564   2.9658   2.9770   3.0001   3.0079
  3.0488   3.0702   3.0887   3.1026   3.1421   3.1640   3.1698   3.1802
  3.1962   3.2189   3.2198   3.2403   3.2431   3.2594   3.2774   3.3102
  3.3108   3.3235   3.3443   3.3592   3.3673   3.4008   3.4063   3.4129
  3.4235   3.4468   3.4675   3.4763   3.4930   3.5070   3.5315   3.5518
  3.5604   3.5683   3.5721   3.6132   3.6292   3.6403   3.6482   3.6923
  3.7169   3.7449   3.7654   3.7754   3.7963   3.7968   3.8126   3.8368
  3.8386   3.8617   3.8876   3.8937   3.9099   3.9159   3.9383   3.9579
  3.9686   3.9831   4.0079   4.0282   4.0801   4.1088   4.1274   4.1462
  4.1763   4.1777   4.1999   4.2077   4.2456   4.2818   4.2905   4.3012
  4.3177   4.3457   4.3554   4.3791   4.3947   4.4142   4.4387   4.4573
  4.4714   4.4908   4.5199   4.5330   4.5482   4.5619   4.5848   4.6012
  4.6148   4.6231   4.6853   4.7261   4.7744   4.7925   4.8464   4.8688
  4.9697   5.0366   5.1069   5.1213   5.1397   5.1741   5.1870   5.2016
  5.2312   5.2420   5.2467   5.2818   5.2849   5.3123   5.3151   5.3215
  5.4134   5.4201   5.4553   5.4881   5.5511   5.5997   5.6660   5.6764
  5.6816   5.7122   5.7487   5.8013   5.8543   5.8856   5.9150   5.9311
  6.0288   6.2309   6.5818   6.6095   6.9829   7.0385   7.0978   7.1000
  7.1507   7.2990   7.3062   7.3192   7.3616   7.5742   7.6393   7.7787
 24.1950  24.7526  24.7990  24.8161  24.9871  25.0769  25.4887  50.4973
 50.5906
 
 Beta MOs
 -- Occupied --
-19.3393 -19.3255 -10.3879 -10.3728 -10.3627 -10.3556 -10.3544 -10.3497
-10.3494  -1.1554  -1.0557  -0.9914  -0.8933  -0.8796  -0.8004  -0.7291
 -0.7100  -0.6398  -0.6112  -0.5777  -0.5633  -0.5442  -0.5352  -0.5309
 -0.5240  -0.4817  -0.4739  -0.4481  -0.4329  -0.3972  -0.3936  -0.3623
 -0.3510
 -- Virtual --
 -0.0638   0.0232   0.0352   0.0374   0.0455   0.0550   0.0559   0.0649
  0.0668   0.0739   0.0840   0.0869   0.0958   0.1110   0.1252   0.1399
  0.1439   0.1487   0.1504   0.1535   0.1590   0.1617   0.1639   0.1698
  0.1779   0.1785   0.1816   0.1836   0.1992   0.2053   0.2142   0.2166
  0.2212   0.2293   0.2379   0.2478   0.2505   0.2619   0.2644   0.2728
  0.2846   0.2928   0.2961   0.3052   0.3174   0.3212   0.3297   0.3378
  0.3387   0.3458   0.3531   0.3560   0.3644   0.3703   0.3835   0.3879
  0.4020   0.4142   0.4242   0.4313   0.4413   0.4504   0.4741   0.5338
  0.5431   0.5484   0.5826   0.5843   0.5944   0.5988   0.6044   0.6156
  0.6190   0.6273   0.6323   0.6406   0.6458   0.6599   0.6766   0.6830
  0.6883   0.7014   0.7066   0.7163   0.7214   0.7312   0.7349   0.7449
  0.7502   0.7564   0.7634   0.7695   0.7734   0.8053   0.8172   0.8331
  0.8385   0.8406   0.8531   0.8736   0.8837   0.8892   0.8980   0.9041
  0.9136   0.9542   0.9590   0.9915   1.0047   1.0302   1.0418   1.0429
  1.0763   1.0853   1.0984   1.1259   1.1370   1.1473   1.1672   1.1706
  1.1888   1.1964   1.2061   1.2242   1.2260   1.2525   1.2650   1.2678
  1.2884   1.2891   1.3008   1.3079   1.3355   1.3485   1.3541   1.3760
  1.3915   1.3955   1.4137   1.4271   1.4361   1.4504   1.4518   1.4548
  1.4627   1.4780   1.4967   1.5084   1.5364   1.5463   1.5493   1.5672
  1.5787   1.5867   1.6029   1.6310   1.6523   1.6851   1.7155   1.7416
  1.7593   1.7989   1.8048   1.8199   1.8632   1.8731   1.8775   1.9054
  1.9400   1.9746   2.0041   2.0531   2.0603   2.0997   2.1056   2.1230
  2.1316   2.1855   2.2463   2.3476   2.3587   2.3770   2.5724   2.6212
  2.6403   2.6511   2.6551   2.6824   2.7385   2.7627   2.7804   2.7968
  2.8011   2.8193   2.8371   2.8568   2.8621   2.8672   2.8796   2.9015
  2.9204   2.9308   2.9412   2.9595   2.9613   2.9704   2.9858   3.0059
  3.0153   3.0565   3.0740   3.0916   3.1052   3.1443   3.1667   3.1757
  3.1829   3.1995   3.2211   3.2239   3.2440   3.2466   3.2630   3.2815
  3.3133   3.3170   3.3267   3.3485   3.3640   3.3713   3.4042   3.4082
  3.4154   3.4270   3.4493   3.4721   3.4794   3.4969   3.5103   3.5346
  3.5545   3.5638   3.5703   3.5786   3.6216   3.6283   3.6433   3.6514
  3.6954   3.7188   3.7483   3.7686   3.7814   3.8004   3.8021   3.8155
  3.8391   3.8428   3.8663   3.8902   3.8995   3.9157   3.9193   3.9440
  3.9614   3.9741   3.9853   4.0115   4.0318   4.0827   4.1125   4.1319
  4.1494   4.1778   4.1803   4.2041   4.2100   4.2480   4.2867   4.2972
  4.3036   4.3208   4.3487   4.3580   4.3824   4.3964   4.4176   4.4413
  4.4612   4.4749   4.4952   4.5258   4.5384   4.5536   4.5684   4.5901
  4.6063   4.6189   4.6271   4.6900   4.7324   4.7778   4.7971   4.8531
  4.8747   4.9720   5.0430   5.1159   5.1408   5.1616   5.2086   5.2134
  5.2237   5.2560   5.2574   5.2784   5.2881   5.3113   5.3238   5.3340
  5.3678   5.4210   5.4515   5.4584   5.4921   5.5544   5.6009   5.6791
  5.6812   5.7128   5.7239   5.7536   5.8087   5.8555   5.8875   5.9193
  5.9333   6.0298   6.2350   6.5850   6.6118   7.0586   7.0701   7.0993
  7.1816   7.2149   7.3068   7.3202   7.3425   7.3631   7.6248   7.6401
  7.7800  24.1956  24.7537  24.7997  24.8162  24.9890  25.0773  25.4901
 50.5101  50.5910
 --------------------------------------------------------------
 
          Ground-State Mulliken Net Atomic Charges

     Atom                 Charge (a.u.)    Spin (a.u.)
  --------------------------------------------------------
      1 C                    -0.043379      -0.086375
      2 C                    -0.302591       0.175884
      3 C                    -0.345871      -0.023911
      4 C                    -0.326145       0.181599
      5 C                    -0.565457      -0.078511
      6 C                     0.484617       0.185879
      7 C                    -0.570985       0.002866
      8 H                     0.278151       0.001665
      9 H                     0.313303      -0.003524
     10 H                     0.357809       0.009736
     11 H                     0.294583      -0.003542
     12 H                     0.274732       0.002066
     13 H                     0.212395       0.000318
     14 O                    -0.395467       0.009106
     15 H                     0.212884       0.004383
     16 H                     0.330605      -0.000785
     17 O                    -0.515343       0.632022
     18 H                     0.306161      -0.008878
  --------------------------------------------------------
  Sum of atomic charges =    -0.000000
  Sum of spin   charges =     1.000000

 -----------------------------------------------------------------
                    Cartesian Multipole Moments
 -----------------------------------------------------------------
    Charge (ESU x 10^10)
                -0.0000
    Dipole Moment (Debye)
         X      -2.3635      Y       1.8742      Z       1.3067
       Tot       3.2873
    Quadrupole Moments (Debye-Ang)
        XX     -50.6774     XY      -2.4412     YY     -67.2850
        XZ       4.2054     YZ      -3.9583     ZZ     -43.3750
    Octopole Moments (Debye-Ang^2)
       XXX     157.9255    XXY      17.8259    XYY      55.8388
       YYY     162.3928    XXZ      -9.8787    XYZ       6.9457
       YYZ      17.2760    XZZ      50.9565    YZZ      17.7436
       ZZZ      -9.9979
    Hexadecapole Moments (Debye-Ang^3)
      XXXX    -702.3150   XXXY    -164.9315   XXYY    -252.4021
      XYYY    -260.1661   YYYY   -1233.2168   XXXZ      67.8630
      XXYZ      54.8904   XYYZ      23.2289   YYYZ     143.0892
      XXZZ    -185.5650   XYZZ     -68.7402   YYZZ    -218.7622
      XZZZ      49.1385   YZZZ     145.9293   ZZZZ    -409.0078
 -----------------------------------------------------------------
 Calculating analytic gradient of the SCF energy
 Gradient of CDS energy
            1           2           3           4           5           6
    1   0.0001612  -0.0000166  -0.0001271  -0.0002867  -0.0001516   0.0002229
    2   0.0002383  -0.0000122  -0.0001690  -0.0002727   0.0001403  -0.0000671
    3   0.0000745   0.0003329   0.0001639  -0.0000743  -0.0002288  -0.0000772
            7           8           9          10          11          12
    1  -0.0002683   0.0001211   0.0000736  -0.0000272  -0.0001432  -0.0000493
    2   0.0010574   0.0001436  -0.0000286  -0.0002004  -0.0001272   0.0000872
    3  -0.0004377   0.0000284   0.0001815   0.0000909  -0.0000750  -0.0001666
           13          14          15          16          17          18
    1  -0.0001099  -0.0001117   0.0001715   0.0003722  -0.0002175   0.0003867
    2  -0.0002221  -0.0000871  -0.0000409  -0.0002303   0.0000762  -0.0002855
    3  -0.0000679   0.0002521   0.0002660  -0.0003062  -0.0000949   0.0001381
 Gradient of SCF Energy
            1           2           3           4           5           6
    1  -0.0029719  -0.0040061   0.0009051   0.0020733   0.0037892  -0.0013426
    2   0.0012894   0.0023343  -0.0005952   0.0024682  -0.0058961   0.0037567
    3  -0.0037737  -0.0073065  -0.0057117   0.0038942   0.0070875   0.0001060
            7           8           9          10          11          12
    1   0.0074179   0.0029703   0.0038124  -0.0026415  -0.0042369  -0.0034895
    2  -0.0074540   0.0034431  -0.0020690  -0.0021489  -0.0020196   0.0023681
    3   0.0021818   0.0027858   0.0089505   0.0048140  -0.0016691  -0.0082553
           13          14          15          16          17          18
    1  -0.0051145   0.0055194  -0.0023081  -0.0034497  -0.0002133   0.0032864
    2   0.0005140   0.0094612   0.0042507  -0.0077622  -0.0034091   0.0014685
    3  -0.0059268   0.0071208   0.0036655  -0.0072910  -0.0085792   0.0079072
 Max gradient component =       9.461E-03
 RMS gradient           =       4.749E-03
 Computing fast CPCM-SWIG gradient
 Updating gradient with PCM contributions...
 -- total gradient after adding PCM contribution --
---------------------------------------------------
  Atom         X              Y              Z     
---------------------------------------------------
   1       0.000827       0.000473       0.000284
   2      -0.000264      -0.000176       0.000112
   3      -0.000001       0.000023      -0.000024
   4      -0.000012      -0.000026      -0.000019
   5      -0.000028       0.000010      -0.000063
   6      -0.000246       0.000017      -0.000171
   7       0.000041      -0.000011       0.000016
   8      -0.000365      -0.000235      -0.000118
   9      -0.000002       0.000007      -0.000016
  10      -0.000025       0.000001       0.000000
  11      -0.000002       0.000007      -0.000028
  12       0.000016      -0.000001      -0.000018
  13       0.000026      -0.000001       0.000003
  14       0.000022      -0.000007       0.000025
  15       0.000017      -0.000002       0.000007
  16       0.000025       0.000000       0.000011
  17      -0.000035      -0.000057      -0.000015
  18       0.000006      -0.000022       0.000013
---------------------------------------------------
 Number of fixed atoms: 0
 Gradient time:  CPU 347.98 s  wall 16.30 s
 ----------------------------------------------------------------
             Standard Nuclear Orientation (Angstroms)
    I     Atom           X                Y                Z
 ----------------------------------------------------------------
    1      C      -0.5838554556     0.0079620555     1.0047328224
    2      C      -0.9715256668    -1.0946461671     1.7337512514
    3      C      -1.9009861576    -2.0089829137     1.1929078323
    4      C      -2.5007924987    -1.7212688885    -0.0500854555
    5      C      -2.1026382871    -0.6149735070    -0.7679815329
    6      C      -1.1353558085     0.2539201170    -0.2550974631
    7      C      -0.6690463045     1.4379569720    -1.0573606203
    8      H       0.1458182125     0.6986400714     1.4094684260
    9      H      -0.5568644134    -1.2780887273     2.7156925213
   10      H      -2.3210258708    -2.7776337888     1.8229663574
   11      H      -3.2533927601    -2.3898016079    -0.4440437548
   12      H      -2.5433219524    -0.4051147494    -1.7342941574
   13      H      -1.3539312003     1.6249483970    -1.8853478598
   14      O       0.6639403614     1.2528810526    -1.5450546710
   15      H      -0.6338478206     2.3266910189    -0.4298197470
   16      H       0.6536943155     0.5087240125    -2.1571198136
   17      O      -0.4933327975    -3.4032687968     0.4557014232
   18      H       0.1079827044    -3.3015171503     1.2081860416
 ----------------------------------------------------------------
 Nuclear Repulsion Energy =         427.04681919 hartrees
 There are       34 alpha and       33 beta electrons
 Discretize the solute cavity surface with Lebedev spheres
	Using 110 Lebedev grid points for each H atom
	Using 194 Lebedev grid points for other atoms
	Atomic van der Waals radii will be scaled by 1.20
 Remove points where switching function is < 1.0e-08
 Keep 1337 surface tesserae and discard 1399 interior tesserae
 Molecular Surface Area = 159.312 Angst**2
 Requested basis set is 6-311++G(2df,2p)
 There are 126 shells and 396 basis functions
 A cutoff of  1.0D-12 yielded   7186 shell pairs
 There are     71546 function pairs (     88667 Cartesian)
 Smallest overlap matrix eigenvalue = 7.47E-07
 Linear dependence detected in AO basis
 Tighter screening thresholds may be required for diffuse basis sets
 Use S2THRESH > 14 and THRESH = 14 in case of SCF convergence issues
 Number of orthogonalized atomic orbitals = 395
 Maximum deviation from orthogonality = 5.621E-11
 Guess MOs from SCF MO coefficient file

 -----------------------------------------------------------------------
  General SCF calculation program by
  Eric Jon Sundstrom, Paul Horn, Yuezhi Mao, Dmitri Zuev, Alec White,
  David Stuck, Shaama M.S., Shane Yost, Joonho Lee, David Small,
  Daniel Levine, Susi Lehtola, Hugh Burton, Evgeny Epifanovsky,
  Bang C. Huynh
 -----------------------------------------------------------------------
 Exchange:     0.1500 Hartree-Fock + 1.0000 wB97M-V + LR-HF
 Correlation:  1.0000 wB97M-V
 Using SG-2 standard quadrature grid
 Nonlocal Correlation:  VV10 with C = 0.0100 and b = 6.00 and scale = 1.00000
 Grid used for NLC:  SG-1 standard quadrature
 
 Citation of the SMD model:
 Marenich, A.V.; Cramer, C.J.; Truhlar, D.G.
 J. Phys. Chem. B 2009, 113, 6378-6396.
 iSolventCode=           1
 Solvent: water                                                           
 
 vradii
            1           2           3           4           5           6
    1   1.8500000   1.8500000   1.8500000   1.8500000   1.8500000   1.8500000
            7           8           9          10          11          12
    1   1.8500000   1.2000000   1.2000000   1.2000000   1.2000000   1.2000000
           13          14          15          16          17          18
    1   1.2000000   1.5200000   1.2000000   1.2000000   1.5200000   1.2000000
 -------------------------------------------------------
 OpenMP BLAS3 based DFT computing Module                
 Release: version 1.0, May 2013, Q-Chem Inc. Pittsburgh 
 -------------------------------------------------------
 A unrestricted SCF calculation will be
 performed using Roothaan-Hall, DIIS, GDM
 SCF converges when RMS gradient is below 1.0e-07
 ---------------------------------------
  Cycle       Energy         DIIS error
 ---------------------------------------
    1    -422.4712020174      2.07e-04  Roothaan Step
 ---------------------------------------
  Cycle       Energy         DIIS error
 ---------------------------------------
    1    -422.4988129830      2.53e-04  
    2    -422.5024963753      2.55e-04  Done DIIS. Switching to GDM
 ---------------------------------------
  Cycle       Energy        RMS Gradient
 ---------------------------------------
    1    -422.5024963753      1.86e-02   Normal BFGS step
    2    -422.5017319124      3.01e-02  Line search: overstep
    3    -422.5058421036      5.77e-03   Normal BFGS step
    4    -422.5059906205      2.41e-03   Normal BFGS step
    5    -422.5060362956      2.20e-03   Normal BFGS step
    6    -422.5060483745      1.42e-03   Normal BFGS step
    7    -422.5060579853      5.14e-04   Normal BFGS step
    8    -422.5060602108      1.63e-04   Normal BFGS step
    9    -422.5060606845      1.08e-04   Normal BFGS step
   10    -422.5060608300      6.87e-05   Normal BFGS step
   11    -422.5060608915      3.53e-05   Normal BFGS step
   12    -422.5060609154      2.45e-05   Normal BFGS step
   13    -422.5060609204      2.03e-05   Normal BFGS step
   14    -422.5060609228      1.61e-05   Normal BFGS step
   15    -422.5060609242      9.31e-06   Normal BFGS step
   16    -422.5060609247      5.14e-06   Normal BFGS step
   17    -422.5060609249      2.70e-06   Normal BFGS step
   18    -422.5060609250      1.52e-06   Normal BFGS step
   19    -422.5060609250      5.43e-07   Normal BFGS step
   20    -422.5060609250      2.44e-07   Normal BFGS step
   21    -422.5060609250      4.15e-08  Convergence criterion met
 ---------------------------------------
 SCF time:   CPU 3000.16s  wall 114.00s 
<S^2> =          0.780434865
(3)  G-ENP(liq) elect-nuc-pol free energy of system     -422.506060925 a.u.
(4)  G-CDS(liq) cavity-dispersion-solvent structure 
     free energy                                                3.5078 kcal/mol
(6)  G-S(liq) free energy of system                     -422.500470968 a.u.
 SCF   energy in the final basis set =     -422.5004709676
 Total energy in the final basis set =     -422.5004709676
 
 --------------------------------------------------------------
 
                    Orbital Energies (a.u.)
 --------------------------------------------------------------
 
 Alpha MOs
 -- Occupied --
-19.3433 -19.3397 -10.3877 -10.3730 -10.3656 -10.3581 -10.3570 -10.3484
-10.3480  -1.1563  -1.0971  -0.9961  -0.8988  -0.8817  -0.8012  -0.7316
 -0.7131  -0.6413  -0.6122  -0.5805  -0.5664  -0.5524  -0.5472  -0.5334
 -0.5269  -0.5105  -0.4768  -0.4496  -0.4438  -0.4342  -0.4164  -0.3945
 -0.3592  -0.3223
 -- Virtual --
  0.0232   0.0344   0.0371   0.0449   0.0520   0.0546   0.0581   0.0596
  0.0659   0.0838   0.0869   0.0958   0.1107   0.1258   0.1393   0.1434
  0.1470   0.1498   0.1531   0.1589   0.1616   0.1628   0.1680   0.1772
  0.1782   0.1814   0.1826   0.1986   0.2054   0.2137   0.2166   0.2207
  0.2283   0.2373   0.2481   0.2486   0.2597   0.2624   0.2724   0.2829
  0.2908   0.2954   0.3042   0.3155   0.3211   0.3296   0.3361   0.3382
  0.3450   0.3526   0.3552   0.3633   0.3684   0.3817   0.3860   0.4010
  0.4135   0.4235   0.4297   0.4396   0.4491   0.4726   0.5336   0.5405
  0.5477   0.5789   0.5830   0.5936   0.5973   0.6018   0.6137   0.6163
  0.6257   0.6307   0.6375   0.6441   0.6570   0.6727   0.6794   0.6868
  0.7006   0.7048   0.7138   0.7197   0.7305   0.7338   0.7447   0.7487
  0.7547   0.7624   0.7693   0.7722   0.8034   0.8151   0.8322   0.8372
  0.8389   0.8508   0.8717   0.8816   0.8879   0.8970   0.9028   0.9121
  0.9502   0.9555   0.9891   1.0010   1.0288   1.0412   1.0416   1.0750
  1.0834   1.0950   1.1242   1.1357   1.1452   1.1649   1.1689   1.1822
  1.1944   1.2040   1.2211   1.2238   1.2508   1.2627   1.2668   1.2817
  1.2860   1.2999   1.3021   1.3207   1.3460   1.3520   1.3732   1.3903
  1.3943   1.4122   1.4246   1.4328   1.4483   1.4501   1.4528   1.4600
  1.4759   1.4946   1.5053   1.5358   1.5405   1.5477   1.5647   1.5772
  1.5853   1.6016   1.6302   1.6507   1.6783   1.7106   1.7326   1.7512
  1.7912   1.8039   1.8134   1.8540   1.8683   1.8745   1.8998   1.9335
  1.9680   1.9923   2.0369   2.0575   2.0946   2.0967   2.1219   2.1277
  2.1844   2.2446   2.3470   2.3567   2.3727   2.5675   2.6179   2.6370
  2.6472   2.6521   2.6798   2.7346   2.7589   2.7738   2.7943   2.7986
  2.8159   2.8313   2.8517   2.8567   2.8642   2.8755   2.8983   2.9181
  2.9276   2.9342   2.9513   2.9562   2.9658   2.9770   2.9999   3.0082
  3.0489   3.0705   3.0887   3.1028   3.1421   3.1642   3.1698   3.1803
  3.1963   3.2189   3.2199   3.2404   3.2430   3.2597   3.2774   3.3099
  3.3106   3.3231   3.3446   3.3591   3.3673   3.4009   3.4065   3.4129
  3.4237   3.4466   3.4674   3.4763   3.4932   3.5073   3.5317   3.5517
  3.5604   3.5683   3.5721   3.6131   3.6291   3.6401   3.6486   3.6922
  3.7171   3.7449   3.7654   3.7757   3.7965   3.7970   3.8131   3.8367
  3.8387   3.8617   3.8874   3.8939   3.9104   3.9162   3.9382   3.9580
  3.9690   3.9834   4.0079   4.0283   4.0802   4.1088   4.1274   4.1463
  4.1761   4.1776   4.1998   4.2070   4.2458   4.2816   4.2904   4.3011
  4.3179   4.3458   4.3552   4.3791   4.3948   4.4144   4.4385   4.4572
  4.4712   4.4907   4.5205   4.5335   4.5490   4.5623   4.5853   4.6011
  4.6150   4.6233   4.6853   4.7264   4.7748   4.7922   4.8473   4.8689
  4.9699   5.0372   5.1069   5.1211   5.1398   5.1741   5.1870   5.2021
  5.2311   5.2419   5.2467   5.2818   5.2848   5.3124   5.3149   5.3217
  5.4134   5.4201   5.4554   5.4882   5.5511   5.5997   5.6660   5.6764
  5.6816   5.7123   5.7490   5.8013   5.8544   5.8846   5.9155   5.9313
  6.0287   6.2305   6.5828   6.6101   6.9829   7.0385   7.0978   7.1000
  7.1507   7.2990   7.3062   7.3192   7.3616   7.5742   7.6393   7.7787
 24.1943  24.7528  24.7993  24.8163  24.9879  25.0778  25.4899  50.4973
 50.5906
 
 Beta MOs
 -- Occupied --
-19.3393 -19.3255 -10.3879 -10.3728 -10.3626 -10.3555 -10.3543 -10.3497
-10.3494  -1.1554  -1.0557  -0.9916  -0.8934  -0.8796  -0.8005  -0.7291
 -0.7100  -0.6398  -0.6112  -0.5776  -0.5633  -0.5442  -0.5352  -0.5308
 -0.5241  -0.4817  -0.4739  -0.4482  -0.4328  -0.3973  -0.3936  -0.3623
 -0.3510
 -- Virtual --
 -0.0638   0.0232   0.0352   0.0374   0.0455   0.0550   0.0560   0.0649
  0.0668   0.0739   0.0840   0.0869   0.0958   0.1110   0.1252   0.1399
  0.1439   0.1487   0.1503   0.1535   0.1590   0.1617   0.1639   0.1698
  0.1779   0.1785   0.1816   0.1836   0.1992   0.2053   0.2141   0.2166
  0.2212   0.2293   0.2379   0.2480   0.2506   0.2619   0.2644   0.2728
  0.2845   0.2928   0.2960   0.3052   0.3174   0.3213   0.3297   0.3377
  0.3388   0.3458   0.3532   0.3560   0.3644   0.3703   0.3835   0.3879
  0.4019   0.4144   0.4242   0.4313   0.4413   0.4503   0.4741   0.5340
  0.5433   0.5488   0.5825   0.5842   0.5945   0.5987   0.6044   0.6156
  0.6190   0.6274   0.6322   0.6406   0.6459   0.6599   0.6766   0.6830
  0.6885   0.7015   0.7065   0.7163   0.7215   0.7311   0.7348   0.7450
  0.7502   0.7563   0.7634   0.7695   0.7733   0.8053   0.8171   0.8331
  0.8386   0.8406   0.8532   0.8736   0.8839   0.8894   0.8980   0.9042
  0.9137   0.9544   0.9591   0.9914   1.0047   1.0302   1.0418   1.0429
  1.0762   1.0853   1.0985   1.1259   1.1370   1.1475   1.1672   1.1708
  1.1890   1.1964   1.2061   1.2241   1.2261   1.2525   1.2649   1.2679
  1.2884   1.2891   1.3009   1.3080   1.3357   1.3485   1.3542   1.3760
  1.3915   1.3955   1.4137   1.4273   1.4361   1.4504   1.4520   1.4549
  1.4628   1.4781   1.4967   1.5085   1.5365   1.5463   1.5493   1.5671
  1.5786   1.5867   1.6027   1.6310   1.6523   1.6852   1.7157   1.7415
  1.7594   1.7991   1.8049   1.8199   1.8635   1.8733   1.8773   1.9053
  1.9400   1.9747   2.0041   2.0531   2.0604   2.0998   2.1058   2.1234
  2.1318   2.1856   2.2471   2.3477   2.3586   2.3771   2.5720   2.6216
  2.6404   2.6513   2.6551   2.6824   2.7383   2.7627   2.7803   2.7968
  2.8015   2.8195   2.8371   2.8568   2.8621   2.8674   2.8794   2.9015
  2.9203   2.9309   2.9409   2.9594   2.9612   2.9704   2.9858   3.0057
  3.0155   3.0566   3.0743   3.0917   3.1053   3.1443   3.1670   3.1757
  3.1830   3.1996   3.2210   3.2241   3.2440   3.2465   3.2633   3.2814
  3.3130   3.3169   3.3262   3.3487   3.3639   3.3712   3.4042   3.4084
  3.4154   3.4272   3.4491   3.4720   3.4794   3.4971   3.5105   3.5348
  3.5544   3.5637   3.5704   3.5785   3.6213   3.6283   3.6431   3.6518
  3.6954   3.7190   3.7483   3.7686   3.7816   3.8005   3.8023   3.8160
  3.8390   3.8428   3.8664   3.8901   3.8997   3.9162   3.9195   3.9439
  3.9614   3.9745   3.9857   4.0115   4.0320   4.0828   4.1125   4.1319
  4.1495   4.1775   4.1804   4.2040   4.2093   4.2482   4.2865   4.2972
  4.3035   4.3210   4.3488   4.3577   4.3824   4.3965   4.4178   4.4411
  4.4612   4.4747   4.4951   4.5264   4.5390   4.5544   4.5688   4.5905
  4.6062   4.6191   4.6273   4.6901   4.7328   4.7782   4.7968   4.8539
  4.8748   4.9722   5.0436   5.1157   5.1407   5.1617   5.2086   5.2139
  5.2238   5.2561   5.2573   5.2783   5.2880   5.3112   5.3239   5.3340
  5.3678   5.4210   5.4516   5.4585   5.4922   5.5544   5.6009   5.6791
  5.6812   5.7129   5.7240   5.7538   5.8087   5.8556   5.8866   5.9198
  5.9336   6.0297   6.2347   6.5859   6.6124   7.0586   7.0701   7.0993
  7.1816   7.2149   7.3068   7.3202   7.3425   7.3631   7.6248   7.6401
  7.7801  24.1949  24.7539  24.8001  24.8165  24.9897  25.0782  25.4913
 50.5101  50.5910
 --------------------------------------------------------------
 
          Ground-State Mulliken Net Atomic Charges

     Atom                 Charge (a.u.)    Spin (a.u.)
  --------------------------------------------------------
      1 C                    -0.041434      -0.086190
      2 C                    -0.302222       0.175820
      3 C                    -0.344807      -0.023972
      4 C                    -0.326841       0.181595
      5 C                    -0.566974      -0.078526
      6 C                     0.484423       0.185788
      7 C                    -0.571135       0.002874
      8 H                     0.277421       0.001677
      9 H                     0.313331      -0.003528
     10 H                     0.357754       0.009752
     11 H                     0.294534      -0.003541
     12 H                     0.274657       0.002063
     13 H                     0.212459       0.000322
     14 O                    -0.395356       0.009096
     15 H                     0.212760       0.004373
     16 H                     0.330609      -0.000786
     17 O                    -0.515290       0.632055
     18 H                     0.306113      -0.008873
  --------------------------------------------------------
  Sum of atomic charges =    -0.000000
  Sum of spin   charges =     1.000000

 -----------------------------------------------------------------
                    Cartesian Multipole Moments
 -----------------------------------------------------------------
    Charge (ESU x 10^10)
                 0.0000
    Dipole Moment (Debye)
         X      -2.3628      Y       1.8723      Z       1.3061
       Tot       3.2854
    Quadrupole Moments (Debye-Ang)
        XX     -50.6797     XY      -2.4451     YY     -67.2832
        XZ       4.2040     YZ      -3.9649     ZZ     -43.3735
    Octopole Moments (Debye-Ang^2)
       XXX     157.9652    XXY      17.8347    XYY      55.8542
       YYY     162.3817    XXZ      -9.8765    XYZ       6.9475
       YYZ      17.2748    XZZ      50.9657    YZZ      17.7343
       ZZZ      -9.9926
    Hexadecapole Moments (Debye-Ang^3)
      XXXX    -702.4179   XXXY    -164.9613   XXYY    -252.4302
      XYYY    -260.1865   YYYY   -1233.1788   XXXZ      67.8855
      XXYZ      54.8852   XYYZ      23.2430   YYYZ     143.0641
      XXZZ    -185.5809   XYZZ     -68.7447   YYZZ    -218.7549
      XZZZ      49.1579   YZZZ     145.8880   ZZZZ    -408.9800
 -----------------------------------------------------------------
 Calculating analytic gradient of the SCF energy
 Gradient of CDS energy
            1           2           3           4           5           6
    1   0.0001582  -0.0000155  -0.0001272  -0.0002867  -0.0001515   0.0002234
    2   0.0002374  -0.0000117  -0.0001690  -0.0002727   0.0001403  -0.0000673
    3   0.0000731   0.0003325   0.0001640  -0.0000743  -0.0002289  -0.0000763
            7           8           9          10          11          12
    1  -0.0002684   0.0001224   0.0000736  -0.0000272  -0.0001432  -0.0000493
    2   0.0010574   0.0001443  -0.0000285  -0.0002004  -0.0001272   0.0000872
    3  -0.0004376   0.0000291   0.0001816   0.0000909  -0.0000750  -0.0001666
           13          14          15          16          17          18
    1  -0.0001099  -0.0001117   0.0001715   0.0003722  -0.0002175   0.0003867
    2  -0.0002221  -0.0000873  -0.0000409  -0.0002304   0.0000763  -0.0002855
    3  -0.0000679   0.0002522   0.0002660  -0.0003062  -0.0000949   0.0001381
 Gradient of SCF Energy
            1           2           3           4           5           6
    1  -0.0046094  -0.0035656   0.0009265   0.0020715   0.0038663  -0.0008178
    2   0.0003768   0.0027123  -0.0005221   0.0024567  -0.0058891   0.0037449
    3  -0.0043897  -0.0074323  -0.0057593   0.0038969   0.0071848   0.0004891
            7           8           9          10          11          12
    1   0.0073734   0.0036307   0.0037814  -0.0026416  -0.0042348  -0.0034913
    2  -0.0074490   0.0039103  -0.0021098  -0.0021304  -0.0020203   0.0023869
    3   0.0021540   0.0030685   0.0089875   0.0048256  -0.0016687  -0.0082428
           13          14          15          16          17          18
    1  -0.0051155   0.0055180  -0.0023094  -0.0034502  -0.0002215   0.0032894
    2   0.0005243   0.0094647   0.0042508  -0.0077650  -0.0034125   0.0014706
    3  -0.0059339   0.0071245   0.0036599  -0.0072917  -0.0085823   0.0079098
 Max gradient component =       9.465E-03
 RMS gradient           =       4.801E-03
 Computing fast CPCM-SWIG gradient
 Updating gradient with PCM contributions...
 -- total gradient after adding PCM contribution --
---------------------------------------------------
  Atom         X              Y              Z     
---------------------------------------------------
   1      -0.000747      -0.000472      -0.000358
   2       0.000168       0.000193      -0.000014
   3       0.000010       0.000105      -0.000068
   4      -0.000002      -0.000046      -0.000013
   5       0.000019       0.000039       0.000036
   6       0.000241       0.000005       0.000232
   7       0.000003      -0.000005      -0.000017
   8       0.000298       0.000247       0.000174
   9      -0.000035      -0.000028       0.000014
  10      -0.000027       0.000020       0.000012
  11      -0.000001       0.000005      -0.000029
  12       0.000013       0.000017      -0.000007
  13       0.000026       0.000009      -0.000002
  14       0.000023      -0.000006       0.000025
  15       0.000018       0.000001       0.000005
  16       0.000025      -0.000000       0.000012
  17      -0.000036      -0.000060      -0.000015
  18       0.000005      -0.000021       0.000012
---------------------------------------------------
 Number of fixed atoms: 0
 Gradient time:  CPU 347.16 s  wall 16.42 s
 ----------------------------------------------------------------
             Standard Nuclear Orientation (Angstroms)
    I     Atom           X                Y                Z
 ----------------------------------------------------------------
    1      C      -0.5828554556     0.0089620555     1.0047328224
    2      C      -0.9715256668    -1.0946461671     1.7337512514
    3      C      -1.9009861576    -2.0089829137     1.1929078323
    4      C      -2.5007924987    -1.7212688885    -0.0500854555
    5      C      -2.1026382871    -0.6149735070    -0.7679815329
    6      C      -1.1353558085     0.2539201170    -0.2550974631
    7      C      -0.6690463045     1.4379569720    -1.0573606203
    8      H       0.1458182125     0.6986400714     1.4094684260
    9      H      -0.5568644134    -1.2780887273     2.7156925213
   10      H      -2.3210258708    -2.7776337888     1.8229663574
   11      H      -3.2533927601    -2.3898016079    -0.4440437548
   12      H      -2.5433219524    -0.4051147494    -1.7342941574
   13      H      -1.3539312003     1.6249483970    -1.8853478598
   14      O       0.6639403614     1.2528810526    -1.5450546710
   15      H      -0.6338478206     2.3266910189    -0.4298197470
   16      H       0.6536943155     0.5087240125    -2.1571198136
   17      O      -0.4933327975    -3.4032687968     0.4557014232
   18      H       0.1079827044    -3.3015171503     1.2081860416
 ----------------------------------------------------------------
 Nuclear Repulsion Energy =         427.02757901 hartrees
 There are       34 alpha and       33 beta electrons
 Discretize the solute cavity surface with Lebedev spheres
	Using 110 Lebedev grid points for each H atom
	Using 194 Lebedev grid points for other atoms
	Atomic van der Waals radii will be scaled by 1.20
 Remove points where switching function is < 1.0e-08
 Keep 1337 surface tesserae and discard 1399 interior tesserae
 Molecular Surface Area = 159.314 Angst**2
 Requested basis set is 6-311++G(2df,2p)
 There are 126 shells and 396 basis functions
 A cutoff of  1.0D-12 yielded   7186 shell pairs
 There are     71546 function pairs (     88667 Cartesian)
 Smallest overlap matrix eigenvalue = 7.49E-07
 Linear dependence detected in AO basis
 Tighter screening thresholds may be required for diffuse basis sets
 Use S2THRESH > 14 and THRESH = 14 in case of SCF convergence issues
 Number of orthogonalized atomic orbitals = 395
 Maximum deviation from orthogonality = 4.648E-11
 Guess MOs from SCF MO coefficient file

 -----------------------------------------------------------------------
  General SCF calculation program by
  Eric Jon Sundstrom, Paul Horn, Yuezhi Mao, Dmitri Zuev, Alec White,
  David Stuck, Shaama M.S., Shane Yost, Joonho Lee, David Small,
  Daniel Levine, Susi Lehtola, Hugh Burton, Evgeny Epifanovsky,
  Bang C. Huynh
 -----------------------------------------------------------------------
 Exchange:     0.1500 Hartree-Fock + 1.0000 wB97M-V + LR-HF
 Correlation:  1.0000 wB97M-V
 Using SG-2 standard quadrature grid
 Nonlocal Correlation:  VV10 with C = 0.0100 and b = 6.00 and scale = 1.00000
 Grid used for NLC:  SG-1 standard quadrature
 
 Citation of the SMD model:
 Marenich, A.V.; Cramer, C.J.; Truhlar, D.G.
 J. Phys. Chem. B 2009, 113, 6378-6396.
 iSolventCode=           1
 Solvent: water                                                           
 
 vradii
            1           2           3           4           5           6
    1   1.8500000   1.8500000   1.8500000   1.8500000   1.8500000   1.8500000
            7           8           9          10          11          12
    1   1.8500000   1.2000000   1.2000000   1.2000000   1.2000000   1.2000000
           13          14          15          16          17          18
    1   1.2000000   1.5200000   1.2000000   1.2000000   1.5200000   1.2000000
 -------------------------------------------------------
 OpenMP BLAS3 based DFT computing Module                
 Release: version 1.0, May 2013, Q-Chem Inc. Pittsburgh 
 -------------------------------------------------------
 A unrestricted SCF calculation will be
 performed using Roothaan-Hall, DIIS, GDM
 SCF converges when RMS gradient is below 1.0e-07
 ---------------------------------------
  Cycle       Energy         DIIS error
 ---------------------------------------
    1    -422.4712136549      2.07e-04  Roothaan Step
 ---------------------------------------
  Cycle       Energy         DIIS error
 ---------------------------------------
    1    -422.4988137073      2.52e-04  
    2    -422.5025048806      2.54e-04  Done DIIS. Switching to GDM
 ---------------------------------------
  Cycle       Energy        RMS Gradient
 ---------------------------------------
    1    -422.5025048806      1.86e-02   Normal BFGS step
    2    -422.5017450829      3.02e-02  Line search: overstep
    3    -422.5058426895      5.78e-03   Normal BFGS step
    4    -422.5059912889      2.41e-03   Normal BFGS step
    5    -422.5060368808      2.20e-03   Normal BFGS step
    6    -422.5060488821      1.42e-03   Normal BFGS step
    7    -422.5060584202      5.15e-04   Normal BFGS step
    8    -422.5060606365      1.65e-04   Normal BFGS step
    9    -422.5060611072      1.09e-04   Normal BFGS step
   10    -422.5060612521      6.88e-05   Normal BFGS step
   11    -422.5060613133      3.50e-05   Normal BFGS step
   12    -422.5060613370      2.45e-05   Normal BFGS step
   13    -422.5060613419      2.03e-05   Normal BFGS step
   14    -422.5060613443      1.61e-05   Normal BFGS step
   15    -422.5060613457      9.28e-06   Normal BFGS step
   16    -422.5060613461      5.03e-06   Normal BFGS step
   17    -422.5060613463      2.65e-06   Normal BFGS step
   18    -422.5060613464      1.54e-06   Normal BFGS step
   19    -422.5060613464      5.50e-07   Normal BFGS step
   20    -422.5060613464      2.52e-07   Normal BFGS step
   21    -422.5060613464      4.27e-08  Convergence criterion met
 ---------------------------------------
 SCF time:   CPU 2995.50s  wall 113.00s 
<S^2> =          0.780427432
(3)  G-ENP(liq) elect-nuc-pol free energy of system     -422.506061346 a.u.
(4)  G-CDS(liq) cavity-dispersion-solvent structure 
     free energy                                                3.5082 kcal/mol
(6)  G-S(liq) free energy of system                     -422.500470638 a.u.
 SCF   energy in the final basis set =     -422.5004706377
 Total energy in the final basis set =     -422.5004706377
 
 --------------------------------------------------------------
 
                    Orbital Energies (a.u.)
 --------------------------------------------------------------
 
 Alpha MOs
 -- Occupied --
-19.3433 -19.3397 -10.3877 -10.3730 -10.3656 -10.3582 -10.3570 -10.3484
-10.3481  -1.1562  -1.0972  -0.9960  -0.8988  -0.8816  -0.8012  -0.7317
 -0.7130  -0.6413  -0.6122  -0.5806  -0.5664  -0.5524  -0.5472  -0.5335
 -0.5268  -0.5105  -0.4768  -0.4496  -0.4437  -0.4343  -0.4164  -0.3945
 -0.3591  -0.3223
 -- Virtual --
  0.0232   0.0344   0.0371   0.0449   0.0519   0.0546   0.0581   0.0596
  0.0659   0.0838   0.0869   0.0958   0.1107   0.1258   0.1393   0.1434
  0.1470   0.1498   0.1531   0.1589   0.1616   0.1628   0.1680   0.1772
  0.1782   0.1814   0.1826   0.1986   0.2054   0.2137   0.2166   0.2207
  0.2283   0.2373   0.2481   0.2485   0.2597   0.2624   0.2724   0.2829
  0.2908   0.2954   0.3042   0.3155   0.3210   0.3296   0.3361   0.3382
  0.3450   0.3526   0.3552   0.3633   0.3684   0.3817   0.3860   0.4010
  0.4134   0.4235   0.4297   0.4396   0.4491   0.4726   0.5336   0.5405
  0.5476   0.5788   0.5830   0.5936   0.5974   0.6018   0.6137   0.6163
  0.6258   0.6308   0.6375   0.6441   0.6570   0.6727   0.6794   0.6867
  0.7005   0.7048   0.7138   0.7197   0.7305   0.7338   0.7446   0.7487
  0.7547   0.7624   0.7692   0.7722   0.8034   0.8150   0.8322   0.8372
  0.8388   0.8508   0.8716   0.8813   0.8878   0.8970   0.9027   0.9121
  0.9503   0.9554   0.9891   1.0009   1.0288   1.0412   1.0416   1.0751
  1.0833   1.0949   1.1242   1.1357   1.1452   1.1649   1.1688   1.1822
  1.1944   1.2039   1.2211   1.2238   1.2508   1.2627   1.2667   1.2817
  1.2860   1.2999   1.3021   1.3207   1.3460   1.3520   1.3730   1.3903
  1.3943   1.4122   1.4244   1.4327   1.4482   1.4501   1.4527   1.4599
  1.4759   1.4946   1.5053   1.5358   1.5404   1.5477   1.5647   1.5772
  1.5854   1.6017   1.6302   1.6507   1.6783   1.7105   1.7326   1.7511
  1.7911   1.8038   1.8135   1.8539   1.8683   1.8744   1.8998   1.9334
  1.9679   1.9923   2.0368   2.0574   2.0945   2.0966   2.1218   2.1274
  2.1844   2.2439   2.3469   2.3567   2.3726   2.5675   2.6177   2.6370
  2.6469   2.6521   2.6799   2.7347   2.7590   2.7738   2.7942   2.7984
  2.8160   2.8311   2.8517   2.8566   2.8642   2.8756   2.8984   2.9183
  2.9276   2.9343   2.9513   2.9563   2.9659   2.9771   2.9999   3.0081
  3.0487   3.0703   3.0887   3.1028   3.1421   3.1640   3.1699   3.1802
  3.1962   3.2190   3.2198   3.2404   3.2430   3.2594   3.2773   3.3100
  3.3107   3.3233   3.3445   3.3592   3.3673   3.4009   3.4065   3.4129
  3.4235   3.4468   3.4674   3.4763   3.4932   3.5072   3.5314   3.5516
  3.5604   3.5681   3.5721   3.6131   3.6292   3.6403   3.6484   3.6923
  3.7171   3.7449   3.7653   3.7754   3.7964   3.7968   3.8129   3.8368
  3.8386   3.8617   3.8875   3.8938   3.9101   3.9160   3.9383   3.9578
  3.9688   3.9832   4.0078   4.0281   4.0803   4.1087   4.1272   4.1463
  4.1763   4.1776   4.2000   4.2077   4.2457   4.2815   4.2904   4.3011
  4.3178   4.3457   4.3554   4.3792   4.3950   4.4142   4.4385   4.4572
  4.4713   4.4907   4.5199   4.5331   4.5482   4.5618   4.5847   4.6011
  4.6148   4.6234   4.6852   4.7263   4.7743   4.7925   4.8465   4.8687
  4.9696   5.0366   5.1071   5.1212   5.1398   5.1741   5.1870   5.2017
  5.2311   5.2420   5.2467   5.2817   5.2849   5.3122   5.3150   5.3217
  5.4134   5.4202   5.4554   5.4882   5.5509   5.5997   5.6660   5.6764
  5.6816   5.7124   5.7489   5.8014   5.8542   5.8857   5.9149   5.9311
  6.0288   6.2309   6.5821   6.6096   6.9828   7.0385   7.0978   7.1000
  7.1507   7.2990   7.3062   7.3192   7.3617   7.5742   7.6393   7.7787
 24.1950  24.7530  24.7988  24.8160  24.9877  25.0764  25.4888  50.4973
 50.5907
 
 Beta MOs
 -- Occupied --
-19.3393 -19.3255 -10.3879 -10.3728 -10.3626 -10.3556 -10.3543 -10.3497
-10.3494  -1.1553  -1.0557  -0.9915  -0.8933  -0.8795  -0.8004  -0.7291
 -0.7099  -0.6398  -0.6112  -0.5777  -0.5633  -0.5442  -0.5353  -0.5309
 -0.5240  -0.4817  -0.4739  -0.4482  -0.4329  -0.3973  -0.3936  -0.3623
 -0.3510
 -- Virtual --
 -0.0638   0.0232   0.0352   0.0374   0.0455   0.0550   0.0559   0.0648
  0.0668   0.0739   0.0840   0.0869   0.0958   0.1110   0.1252   0.1399
  0.1439   0.1487   0.1503   0.1535   0.1590   0.1617   0.1639   0.1698
  0.1779   0.1785   0.1816   0.1836   0.1992   0.2053   0.2142   0.2166
  0.2212   0.2293   0.2379   0.2480   0.2506   0.2619   0.2644   0.2728
  0.2845   0.2928   0.2960   0.3053   0.3174   0.3212   0.3297   0.3378
  0.3388   0.3458   0.3531   0.3560   0.3644   0.3703   0.3835   0.3879
  0.4019   0.4143   0.4241   0.4313   0.4413   0.4503   0.4741   0.5339
  0.5433   0.5487   0.5824   0.5842   0.5945   0.5987   0.6044   0.6156
  0.6190   0.6274   0.6323   0.6406   0.6458   0.6599   0.6767   0.6830
  0.6884   0.7015   0.7065   0.7163   0.7215   0.7311   0.7348   0.7450
  0.7502   0.7564   0.7634   0.7694   0.7732   0.8053   0.8171   0.8331
  0.8386   0.8405   0.8531   0.8736   0.8837   0.8893   0.8980   0.9042
  0.9137   0.9543   0.9590   0.9914   1.0047   1.0302   1.0418   1.0429
  1.0762   1.0852   1.0984   1.1259   1.1370   1.1475   1.1672   1.1707
[...]
    ---------          -----
     (2,0,0)        1.00000E-11
     (0,2,0)        2.00000E-11
     (0,0,2)       -3.00000E-11
 Nucleus-field energy     =     0.0000000094 hartrees
 Requested basis set is 6-311++G(2df,2p)
 There are 126 shells and 396 basis functions
 A cutoff of  1.0D-12 yielded   7209 shell pairs
 There are     71802 function pairs (     89002 Cartesian)
 Smallest overlap matrix eigenvalue = 1.85E-06
 Guess MOs from SCF MO coefficient file

 -----------------------------------------------------------------------
  General SCF calculation program by
  Eric Jon Sundstrom, Paul Horn, Yuezhi Mao, Dmitri Zuev, Alec White,
  David Stuck, Shaama M.S., Shane Yost, Joonho Lee, David Small,
  Daniel Levine, Susi Lehtola, Hugh Burton, Evgeny Epifanovsky,
  Bang C. Huynh
 -----------------------------------------------------------------------
 Exchange:     0.1500 Hartree-Fock + 1.0000 wB97M-V + LR-HF
 Correlation:  1.0000 wB97M-V
 Using SG-2 standard quadrature grid
 Nonlocal Correlation:  VV10 with C = 0.0100 and b = 6.00 and scale = 1.00000
 Grid used for NLC:  SG-1 standard quadrature
 
 Citation of the SMD model:
 Marenich, A.V.; Cramer, C.J.; Truhlar, D.G.
 J. Phys. Chem. B 2009, 113, 6378-6396.
 iSolventCode=           1
 Solvent: water                                                           
 
 vradii
            1           2           3           4           5           6
    1   1.8500000   1.8500000   1.8500000   1.8500000   1.8500000   1.8500000
            7           8           9          10          11          12
    1   1.8500000   1.2000000   1.2000000   1.2000000   1.2000000   1.2000000
           13          14          15          16          17          18
    1   1.2000000   1.5200000   1.2000000   1.2000000   1.5200000   1.2000000
 -------------------------------------------------------
 OpenMP BLAS3 based DFT computing Module                
 Release: version 1.0, May 2013, Q-Chem Inc. Pittsburgh 
 -------------------------------------------------------
 A unrestricted SCF calculation will be
 performed using Roothaan-Hall, DIIS, GDM
 SCF converges when RMS gradient is below 1.0e-07
 ---------------------------------------
  Cycle       Energy         DIIS error
 ---------------------------------------
    1    -422.5004302060      1.91e-04  Roothaan Step
 ---------------------------------------
  Cycle       Energy         DIIS error
 ---------------------------------------
    1    -422.5249087784      2.15e-04  
    2    -422.5284241010      1.78e-04  Done DIIS. Switching to GDM
 ---------------------------------------
  Cycle       Energy        RMS Gradient
 ---------------------------------------
    1    -422.5284241010      5.45e-03   Normal BFGS step
    2    -422.5284654200      6.67e-03   Normal BFGS step
    3    -422.5302233175      8.58e-04   Normal BFGS step
    4    -422.5302386360      4.67e-04   Normal BFGS step
    5    -422.5302457698      2.17e-04   Normal BFGS step
    6    -422.5302461304      8.51e-05   Normal BFGS step
    7    -422.5302462559      8.31e-05   Normal BFGS step
    8    -422.5302462918      5.36e-05   Normal BFGS step
    9    -422.5302463039      2.10e-05   Normal BFGS step
   10    -422.5302463069      1.28e-05   Normal BFGS step
   11    -422.5302463077      6.80e-06   Normal BFGS step
   12    -422.5302463080      2.54e-06   Normal BFGS step
   13    -422.5302463080      1.22e-06   Normal BFGS step
   14    -422.5302463080      7.06e-07   Normal BFGS step
   15    -422.5302463080      5.22e-07   Normal BFGS step
   16    -422.5302463080      1.84e-07   Normal BFGS step
   17    -422.5302463081      6.49e-08  Convergence criterion met
 ---------------------------------------
 SCF time:   CPU 2483.26s  wall 93.00s 
<S^2> =          0.788588218
(3)  G-ENP(liq) elect-nuc-pol free energy of system     -422.530246308 a.u.
(4)  G-CDS(liq) cavity-dispersion-solvent structure 
     free energy                                                3.5530 kcal/mol
(6)  G-S(liq) free energy of system                     -422.524584228 a.u.
 SCF   energy in the final basis set =     -422.5245842280
 Total energy in the final basis set =     -422.5245842280
 
 --------------------------------------------------------------
 
                    Orbital Energies (a.u.)
 --------------------------------------------------------------
 
 Alpha MOs
 -- Occupied --
-19.3383 -19.3373 -10.3977 -10.3854 -10.3612 -10.3488 -10.3485 -10.3427
-10.3427  -1.1541  -1.1509  -0.9790  -0.8837  -0.8784  -0.7980  -0.7242
 -0.7185  -0.6356  -0.6206  -0.6096  -0.5744  -0.5641  -0.5471  -0.5287
 -0.5207  -0.5025  -0.4829  -0.4475  -0.4434  -0.4203  -0.3954  -0.3918
 -0.3635  -0.2755
 -- Virtual --
  0.0235   0.0355   0.0379   0.0440   0.0559   0.0572   0.0617   0.0657
  0.0803   0.0879   0.0973   0.1074   0.1137   0.1231   0.1422   0.1435
  0.1493   0.1517   0.1522   0.1584   0.1618   0.1633   0.1670   0.1774
  0.1791   0.1818   0.1945   0.1981   0.1987   0.2039   0.2133   0.2190
  0.2196   0.2309   0.2336   0.2391   0.2601   0.2652   0.2763   0.2884
  0.2966   0.2990   0.3102   0.3128   0.3201   0.3246   0.3292   0.3391
  0.3517   0.3551   0.3585   0.3633   0.3643   0.3720   0.3937   0.3998
  0.4092   0.4148   0.4208   0.4341   0.4444   0.4660   0.4929   0.5235
  0.5359   0.5480   0.5753   0.5878   0.5908   0.5952   0.6005   0.6072
  0.6178   0.6280   0.6316   0.6469   0.6525   0.6591   0.6726   0.6742
  0.6850   0.6867   0.7047   0.7129   0.7198   0.7217   0.7388   0.7453
  0.7494   0.7630   0.7683   0.7800   0.7892   0.8000   0.8035   0.8220
  0.8298   0.8369   0.8525   0.8754   0.8812   0.8822   0.8975   0.9154
  0.9238   0.9538   0.9727   1.0017   1.0116   1.0414   1.0492   1.0698
  1.0853   1.0932   1.1174   1.1345   1.1401   1.1504   1.1705   1.1886
  1.1995   1.2024   1.2182   1.2291   1.2322   1.2608   1.2688   1.2733
  1.2886   1.2927   1.3030   1.3186   1.3244   1.3452   1.3508   1.3716
  1.3833   1.4051   1.4068   1.4200   1.4252   1.4518   1.4530   1.4764
  1.4895   1.4945   1.4974   1.5062   1.5250   1.5455   1.5463   1.5656
  1.5801   1.5888   1.6026   1.6127   1.6341   1.6594   1.6767   1.7252
  1.7364   1.7551   1.7982   1.8215   1.8459   1.8717   1.9032   1.9176
  1.9434   1.9825   2.0311   2.0499   2.0962   2.1185   2.1394   2.1716
  2.2217   2.2509   2.3123   2.3500   2.3630   2.4054   2.5571   2.5860
  2.6275   2.6442   2.6789   2.6906   2.7568   2.7621   2.7951   2.8018
  2.8164   2.8243   2.8364   2.8559   2.8673   2.8760   2.8885   2.9014
  2.9203   2.9334   2.9368   2.9580   2.9666   2.9850   3.0072   3.0186
  3.0268   3.0436   3.0616   3.0815   3.0941   3.1482   3.1625   3.1697
  3.1945   3.2297   3.2383   3.2516   3.2719   3.2910   3.3146   3.3209
  3.3269   3.3300   3.3432   3.3553   3.3714   3.4081   3.4176   3.4255
  3.4318   3.4432   3.4549   3.4808   3.4892   3.5175   3.5194   3.5406
  3.5618   3.5836   3.6098   3.6261   3.6321   3.6584   3.6834   3.7044
  3.7160   3.7403   3.7521   3.7563   3.7747   3.7899   3.8056   3.8164
  3.8269   3.8437   3.8524   3.8786   3.8844   3.9128   3.9299   3.9419
  3.9524   3.9749   4.0119   4.0153   4.0443   4.0967   4.1109   4.1410
  4.1585   4.1681   4.1757   4.1839   4.2091   4.2353   4.2453   4.2499
  4.3027   4.3059   4.3174   4.3257   4.3577   4.3766   4.3903   4.4192
  4.4308   4.4347   4.4410   4.4837   4.5137   4.5190   4.5580   4.5702
  4.6121   4.6235   4.6359   4.6620   4.6627   4.7353   4.7777   4.7895
  4.8336   4.9045   4.9537   5.0353   5.0376   5.1437   5.1593   5.2561
  5.2617   5.2834   5.3129   5.3203   5.3398   5.3655   5.3931   5.4154
  5.4693   5.4928   5.5348   5.5899   5.6022   5.6105   5.6591   5.6687
  5.7039   5.7094   5.7781   5.8145   5.9010   5.9116   5.9152   5.9841
  6.0193   6.1214   6.3455   6.5030   6.5861   7.0983   7.1075   7.3055
  7.3196   7.3215   7.3465   7.3585   7.3663   7.6345   7.6499   7.7806
  7.8030  24.2662  24.6271  24.7684  24.8163  24.8823  25.1242  25.3634
 50.5906  50.6119
 
 Beta MOs
 -- Occupied --
-19.3372 -19.3349 -10.3984 -10.3859 -10.3537 -10.3453 -10.3452 -10.3436
-10.3433  -1.1516  -1.1457  -0.9720  -0.8741  -0.8732  -0.7967  -0.7187
 -0.7104  -0.6329  -0.6143  -0.6079  -0.5686  -0.5581  -0.5405  -0.5259
 -0.5172  -0.4968  -0.4795  -0.4408  -0.4236  -0.4160  -0.3905  -0.3883
 -0.3472
 -- Virtual --
 -0.0329   0.0229   0.0354   0.0375   0.0438   0.0556   0.0570   0.0633
  0.0794   0.0837   0.0874   0.0963   0.1074   0.1214   0.1228   0.1424
  0.1433   0.1488   0.1507   0.1533   0.1586   0.1621   0.1632   0.1697
  0.1779   0.1789   0.1818   0.1953   0.1984   0.2005   0.2073   0.2130
  0.2185   0.2210   0.2307   0.2337   0.2382   0.2606   0.2654   0.2765
  0.2888   0.2980   0.2993   0.3120   0.3146   0.3252   0.3260   0.3301
  0.3396   0.3522   0.3567   0.3615   0.3639   0.3649   0.3764   0.3944
  0.3999   0.4117   0.4177   0.4236   0.4363   0.4477   0.4671   0.4934
  0.5279   0.5367   0.5492   0.5791   0.5879   0.5942   0.5988   0.6051
  0.6096   0.6188   0.6302   0.6348   0.6504   0.6554   0.6615   0.6767
  0.6829   0.6871   0.6897   0.7073   0.7169   0.7221   0.7242   0.7423
  0.7468   0.7524   0.7647   0.7706   0.7818   0.7902   0.8050   0.8076
  0.8263   0.8320   0.8405   0.8541   0.8776   0.8837   0.8869   0.9035
  0.9187   0.9260   0.9556   0.9755   1.0044   1.0135   1.0422   1.0509
  1.0711   1.0865   1.0946   1.1200   1.1373   1.1422   1.1519   1.1730
  1.1899   1.2005   1.2048   1.2202   1.2313   1.2345   1.2640   1.2711
  1.2747   1.2909   1.2963   1.3056   1.3200   1.3268   1.3505   1.3528
  1.3748   1.3857   1.4082   1.4089   1.4231   1.4273   1.4553   1.4579
  1.4804   1.4938   1.4977   1.5025   1.5098   1.5278   1.5473   1.5494
  1.5680   1.5834   1.5913   1.6046   1.6151   1.6369   1.6610   1.6813
  1.7303   1.7417   1.7618   1.7999   1.8271   1.8497   1.8764   1.9059
  1.9213   1.9489   1.9859   2.0343   2.0550   2.1011   2.1227   2.1443
  2.1746   2.2264   2.2562   2.3148   2.3516   2.3643   2.4079   2.5630
  2.5929   2.6323   2.6488   2.6845   2.6990   2.7675   2.7720   2.8020
  2.8092   2.8248   2.8285   2.8461   2.8671   2.8785   2.8836   2.8954
  2.9104   2.9313   2.9477   2.9567   2.9685   2.9779   2.9956   3.0220
  3.0385   3.0473   3.0528   3.0718   3.0973   3.1077   3.1608   3.1683
  3.1750   3.1995   3.2347   3.2520   3.2541   3.2822   3.3019   3.3234
  3.3257   3.3322   3.3371   3.3504   3.3617   3.3818   3.4211   3.4252
  3.4366   3.4427   3.4510   3.4618   3.4855   3.4964   3.5253   3.5284
  3.5477   3.5695   3.5967   3.6245   3.6329   3.6408   3.6730   3.6953
  3.7112   3.7235   3.7455   3.7562   3.7635   3.7807   3.7949   3.8101
  3.8266   3.8344   3.8516   3.8592   3.8869   3.8912   3.9228   3.9387
  3.9483   3.9627   3.9841   4.0168   4.0203   4.0498   4.1050   4.1194
  4.1457   4.1647   4.1753   4.1869   4.1905   4.2188   4.2439   4.2505
  4.2560   4.3090   4.3142   4.3198   4.3322   4.3669   4.3850   4.3936
  4.4266   4.4399   4.4407   4.4463   4.4942   4.5235   4.5286   4.5667
  4.5799   4.6219   4.6344   4.6496   4.6730   4.6758   4.7442   4.7835
  4.8008   4.8449   4.9163   4.9689   5.0453   5.0484   5.1567   5.1724
  5.2628   5.2698   5.2862   5.3146   5.3243   5.3447   5.3703   5.4011
  5.4179   5.4723   5.5002   5.5418   5.5941   5.6101   5.6173   5.6671
  5.6729   5.7089   5.7115   5.7867   5.8210   5.9064   5.9171   5.9206
  5.9909   6.0218   6.1297   6.3556   6.5097   6.5892   7.1005   7.1111
  7.3080   7.3234   7.3251   7.3539   7.3626   7.3733   7.6364   7.6545
  7.7843   7.8113  24.2677  24.6292  24.7686  24.8163  24.8877  25.1253
 25.3659  50.5915  50.6139
 --------------------------------------------------------------
 
          Ground-State Mulliken Net Atomic Charges

     Atom                 Charge (a.u.)    Spin (a.u.)
  --------------------------------------------------------
      1 C                    -0.091227      -0.131597
      2 C                    -0.211995       0.331356
      3 C                    -0.589928       0.001789
      4 C                    -0.160405       0.376448
      5 C                    -0.633587      -0.125978
      6 C                     0.565332       0.452745
      7 C                    -0.544276       0.006062
      8 H                     0.279426       0.004861
      9 H                     0.316867      -0.007484
     10 H                     0.208837       0.018654
     11 H                     0.307765      -0.008059
     12 H                     0.278872       0.006537
     13 H                     0.216917       0.000465
     14 O                    -0.395092       0.020806
     15 H                     0.206944       0.012066
     16 H                     0.329320      -0.000938
     17 O                    -0.410401       0.037090
     18 H                     0.326632       0.005179
  --------------------------------------------------------
  Sum of atomic charges =    -0.000000
  Sum of spin   charges =     1.000000

 -----------------------------------------------------------------
                    Cartesian Multipole Moments
 -----------------------------------------------------------------
    Charge (ESU x 10^10)
                -0.0000
    Dipole Moment (Debye)
         X      -1.6461      Y       0.2318      Z       1.2964
       Tot       2.1080
    Quadrupole Moments (Debye-Ang)
        XX     -52.9649     XY      -3.5599     YY     -60.9702
        XZ       3.8716     YZ      -4.2687     ZZ     -45.1122
    Octopole Moments (Debye-Ang^2)
       XXX     162.8278    XXY      21.6448    XYY      57.9054
       YYY     134.6582    XXZ      -9.2062    XYZ       7.6113
       YYZ      20.0307    XZZ      52.1831    YZZ      18.9407
       ZZZ     -10.9907
    Hexadecapole Moments (Debye-Ang^3)
      XXXX    -697.2249   XXXY    -186.4032   XXYY    -255.4780
      XYYY    -274.8308   YYYY   -1103.8706   XXXZ      57.4518
      XXYZ      56.1868   XYYZ      20.0827   YYYZ     136.7074
      XXZZ    -185.5379   XYZZ     -75.3397   YYZZ    -218.8354
      XZZZ      41.8095   YZZZ     151.6985   ZZZZ    -419.2406
 -----------------------------------------------------------------
 Calculating analytic gradient of the SCF energy
 Gradient of CDS energy
            1           2           3           4           5           6
    1   0.0001507  -0.0000195   0.0000381  -0.0003320  -0.0001630   0.0002291
    2   0.0002459   0.0000104  -0.0003513  -0.0002814   0.0001447  -0.0000605
    3   0.0000852   0.0003784   0.0000676  -0.0000902  -0.0002188  -0.0000889
            7           8           9          10          11          12
    1  -0.0002864   0.0001102   0.0000689  -0.0001115  -0.0001461  -0.0000531
    2   0.0010386   0.0001502  -0.0000296  -0.0001260  -0.0001188   0.0000941
    3  -0.0004098   0.0000346   0.0001832   0.0001366  -0.0000674  -0.0001642
           13          14          15          16          17          18
    1  -0.0001031  -0.0001143   0.0001799   0.0003692  -0.0001947   0.0003776
    2  -0.0002142  -0.0000805  -0.0000368  -0.0002336   0.0001870  -0.0003382
    3  -0.0000765   0.0002396   0.0002616  -0.0003065  -0.0000254   0.0000610
 Gradient of SCF Energy
            1           2           3           4           5           6
    1  -0.0024537  -0.0063676   0.0076266  -0.0021074   0.0042245  -0.0021148
    2  -0.0010346   0.0037709  -0.0005677   0.0035748  -0.0049577   0.0017615
    3  -0.0061755  -0.0026606  -0.0084612   0.0071049   0.0042358   0.0023880
            7           8           9          10          11          12
    1   0.0058849   0.0034455   0.0018149  -0.0025585  -0.0042944  -0.0014955
    2  -0.0050647   0.0014764  -0.0019774  -0.0032500  -0.0007722   0.0015116
    3   0.0019426   0.0010752   0.0085424   0.0040061  -0.0000476  -0.0070659
           13          14          15          16          17          18
    1  -0.0040887   0.0056711  -0.0022773  -0.0035217  -0.0044030   0.0070150
    2   0.0004086   0.0088375   0.0031752  -0.0075087  -0.0005582   0.0011747
    3  -0.0050101   0.0067121   0.0026025  -0.0068043  -0.0105905   0.0082062
 Max gradient component =       1.059E-02
 RMS gradient           =       4.770E-03
 Computing fast CPCM-SWIG gradient
 Updating gradient with PCM contributions...
 -- total gradient after adding PCM contribution --
---------------------------------------------------
  Atom         X              Y              Z     
---------------------------------------------------
   1      -0.000068      -0.000032       0.000206
   2      -0.000915       0.000393       0.000912
   3      -0.000021      -0.000535      -0.000019
   4      -0.000816       0.000181       0.000301
   5       0.000053      -0.000099      -0.000109
   6      -0.000229       0.000069       0.000124
   7      -0.000051       0.000020       0.000050
   8       0.001283      -0.001309      -0.000938
   9      -0.001101       0.000309       0.000497
  10       0.000083      -0.001425       0.000060
  11      -0.000960       0.000878       0.000721
  12       0.001321      -0.000789      -0.000662
  13       0.000167       0.000120      -0.000106
  14      -0.000070      -0.000216       0.000273
  15      -0.000049       0.000148      -0.000173
  16      -0.000170       0.000031      -0.000008
  17       0.000571       0.001435      -0.000182
  18       0.000976       0.000820      -0.000948
---------------------------------------------------
 Number of fixed atoms: 0
 Gradient time:  CPU 356.68 s  wall 16.70 s
rPathMan2.  file_steps = 952
 IRC --- Status = 4.  Checking bisector search.
 IRC --- Bisector search finished successfully.
 ------------------------------------------------------------------------
 Reaction path following.  The coordinates are cartesian              
 Step  10 E=    -422.524584 |G|=  0.004594 S_lin= 0.9391 S_tot= 1.0383
 ------------------------------------------------------------------------
  IRC -- convergence criterion reached.
 ----------------------------------------------------------------
             Standard Nuclear Orientation (Angstroms)
    I     Atom           X                Y                Z
 ----------------------------------------------------------------
    1      C      -0.5828554556     0.0079620555     1.0047328224
    2      C      -0.9715256668    -1.0946461671     1.7337512514
    3      C      -1.9009861576    -2.0089829137     1.1929078323
    4      C      -2.5007924987    -1.7212688885    -0.0500854555
    5      C      -2.1026382871    -0.6149735070    -0.7679815329
    6      C      -1.1353558085     0.2539201170    -0.2550974631
    7      C      -0.6690463045     1.4379569720    -1.0573606203
    8      H       0.1458182125     0.6986400714     1.4094684260
    9      H      -0.5568644134    -1.2780887273     2.7156925213
   10      H      -2.3210258708    -2.7776337888     1.8229663574
   11      H      -3.2533927601    -2.3898016079    -0.4440437548
   12      H      -2.5433219524    -0.4051147494    -1.7342941574
   13      H      -1.3539312003     1.6249483970    -1.8853478598
   14      O       0.6639403614     1.2528810526    -1.5450546710
   15      H      -0.6338478206     2.3266910189    -0.4298197470
   16      H       0.6536943155     0.5087240125    -2.1571198136
   17      O      -0.4933327975    -3.4032687968     0.4557014232
   18      H       0.1079827044    -3.3015171503     1.2081860416
 ----------------------------------------------------------------
 Nuclear Repulsion Energy =         427.03710628 hartrees
 There are       34 alpha and       33 beta electrons
 Here is where we should summarize the reaction path
 Total job time:  4726.77s(wall), 121411.93s(cpu) 
 Wed Nov  1 21:22:53 2023

        *************************************************************
        *                                                           *
        *  Thank you very much for using Q-Chem.  Have a nice day.  *
        *                                                           *
        *************************************************************


