
Running Job 1 of 2 Q_in.in
qchem Q_in.in_187030.0 /scratch/ari.fischer/qChem1824912.hpc-mn1/qchem187030/ 0
/usr/local/qchem-5.4.1/exe/qcprog.exe_s Q_in.in_187030.0 /scratch/ari.fischer/qChem1824912.hpc-mn1/qchem187030/
                  Welcome to Q-Chem
     A Quantum Leap Into The Future Of Chemistry


 Q-Chem 5.4, Q-Chem, Inc., Pleasanton, CA (2021)

 License issued to: Nanyang Technological University (site)

 E. Epifanovsky,  A. T. B. Gilbert,  Xintian Feng,  Joonho Lee,  Yuezhi Mao,  
 N. Mardirossian,  P. Pokhilko,  A. White,  M. Wormit,  M. P. Coons,  
 A. L. Dempwolff,  Zhengting Gan,  D. Hait,  P. R. Horn,  L. D. Jacobson,  
 I. Kaliman,  J. Kussmann,  A. W. Lange,  Ka Un Lao,  D. S. Levine,  Jie Liu,  
 S. C. McKenzie,  A. F. Morrison,  K. Nanda,  F. Plasser,  D. R. Rehn,  
 M. L. Vidal,  Zhi-Qiang You,  Ying Zhu,  B. Alam,  B. Albrecht,  
 A. Aldossary,  E. Alguire,  J. H. Andersen,  D. Barton,  K. Begam,  A. Behn,  
 Y. A. Bernard,  E. J. Berquist,  H. Burton,  A. Carreras,  K. Carter-Fenk,  
 R. Chakraborty,  A. D. Chien,  K. D. Closser,  V. Cofer-Shabica,  
 S. Dasgupta,  Jia Deng,  M. de Wergifosse,  M. Diedenhofen,  Hainam Do,  
 S. Ehlert,  Po-Tung Fang,  S. Fatehi,  Qingguo Feng,  T. Friedhoff,  
 J. Gayvert,  Qinghui Ge,  G. Gidofalvi,  M. Goldey,  J. Gomes,  
 C. Gonzalez-Espinoza,  S. Gulania,  A. Gunina,  M. W. D. Hanson-Heine,  
 P. H. P. Harbach,  A. W. Hauser,  M. F. Herbst,  M. Hernandez Vera,  
 M. Hodecker,  Z. C. Holden,  S. Houck,  Xunkun Huang,  Kerwin Hui,  
 B. C. Huynh,  M. Ivanov,  Hyunjun Ji,  Hanjie Jiang,  B. Kaduk,  S. Kaehler,  
 K. Khistyaev,  Jaehoon Kim,  P. Klunzinger,  Z. Koczor-Benda,  
 Joong Hoon Koh,  D. Kosenkov,  L. Koulias,  T. Kowalczyk,  C. M. Krauter,  
 K. Kue,  A. Kunitsa,  T. Kus,  A. Landau,  K. V. Lawler,  D. Lefrancois,  
 S. Lehtola,  Rain Li,  Yi-Pei Li,  Jiashu Liang,  M. Liebenthal,  
 Hung-Hsuan Lin,  You-Sheng Lin,  Fenglai Liu,  Kuan-Yu Liu,  
 M. Loipersberger,  A. Luenser,  A. Manjanath,  P. Manohar,  E. Mansoor,  
 S. F. Manzer,  Shan-Ping Mao,  A. V. Marenich,  T. Markovich,  S. Mason,  
 S. A. Maurer,  P. F. McLaughlin,  M. F. S. J. Menger,  J.-M. Mewes,  
 S. A. Mewes,  P. Morgante,  J. W. Mullinax,  K. J. Oosterbaan,  G. Paran,  
 Alexander C. Paul,  Suranjan K. Paul,  F. Pavosevic,  Zheng Pei,  S. Prager,  
 E. I. Proynov,  E. Ramos,  B. Rana,  A. E. Rask,  A. Rettig,  R. M. Richard,  
 F. Rob,  E. Rossomme,  T. Scheele,  M. Scheurer,  M. Schneider,  
 N. Sergueev,  S. M. Sharada,  W. Skomorowski,  D. W. Small,  C. J. Stein,  
 Yu-Chuan Su,  E. J. Sundstrom,  Zhen Tao,  J. Thirman,  T. Tsuchimochi,  
 N. M. Tubman,  S. P. Veccham,  O. Vydrov,  J. Wenzel,  J. Witte,  A. Yamada,  
 Kun Yao,  S. Yeganeh,  S. R. Yost,  A. Zech,  Igor Ying Zhang,  Xing Zhang,  
 Yu Zhang,  D. Zuev,  A. Aspuru-Guzik,  A. T. Bell,  N. A. Besley,  
 K. B. Bravaya,  B. R. Brooks,  D. Casanova,  Jeng-Da Chai,  S. Coriani,  
 C. J. Cramer,  A. E. DePrince, III,  R. A. DiStasio Jr.,  A. Dreuw,  
 B. D. Dunietz,  T. R. Furlani,  W. A. Goddard III,  S. Grimme,  
 S. Hammes-Schiffer,  T. Head-Gordon,  W. J. Hehre,  Chao-Ping Hsu,  
 T.-C. Jagau,  Yousung Jung,  A. Klamt,  Jing Kong,  D. S. Lambrecht,  
 WanZhen Liang,  N. J. Mayhall,  C. W. McCurdy,  J. B. Neaton,  
 C. Ochsenfeld,  J. A. Parkhill,  R. Peverati,  V. A. Rassolov,  Yihan Shao,  
 L. V. Slipchenko,  T. Stauch,  R. P. Steele,  J. E. Subotnik,  
 A. J. W. Thom,  A. Tkatchenko,  D. G. Truhlar,  T. Van Voorhis,  
 T. A. Wesolowski,  K. B. Whaley,  H. L. Woodcock III,  P. M. Zimmerman,  
 S. Faraji,  P. M. W. Gill,  M. Head-Gordon,  J. M. Herbert,  A. I. Krylov

 Additional authors for Version 5.4.1: 
 S. Kotaru,  Shaozhi Li,  Xiangyuan Li,  F. Matz,  A. Molle,  Haisheng Ren,  
 Yingli Su,  Hung-Yi Tsai,  C. Utku,  Fang Wang

 Contributors to earlier versions of Q-Chem not listed above: 
 R. D. Adamson,  B. Austin,  R. Baer,  J. Baker,  G. J. O. Beran,  
 K. Brandhorst,  S. T. Brown,  E. F. C. Byrd,  A. K. Chakraborty,  
 G. K. L. Chan,  Chun-Min Chang,  Yunqing Chen,  C.-L. Cheng,  
 Siu Hung Chien,  D. M. Chipman,  D. L. Crittenden,  H. Dachsel,  
 R. J. Doerksen,  A. D. Dutoi,  R. G. Edgar,  J. Fosso-Tande,  
 L. Fusti-Molnar,  D. Ghosh,  A. Ghysels,  A. Golubeva-Zadorozhnaya,  
 J. Gonthier,  M. S. Gordon,  S. R. Gwaltney,  G. Hawkins,  J. E. Herr,  
 A. Heyden,  S. Hirata,  E. G. Hohenstein,  G. Kedziora,  F. J. Keil,  
 C. Kelley,  Jihan Kim,  R. A. King,  R. Z. Khaliullin,  P. P. Korambath,  
 W. Kurlancheek,  A. Laurent,  A. M. Lee,  M. S. Lee,  S. V. Levchenko,  
 Ching Yeh Lin,  D. Liotard,  E. Livshits,  R. C. Lochan,  I. Lotan,  
 L. A. Martinez-Martinez,  P. E. Maslen,  N. Nair,  D. P. O'Neill,  
 D. Neuhauser,  E. Neuscamman,  C. M. Oana,  R. Olivares-Amaya,  R. Olson,  
 T. M. Perrine,  B. Peters,  P. A. Pieniazek,  A. Prociuk,  Y. M. Rhee,  
 J. Ritchie,  M. A. Rohrdanz,  E. Rosta,  N. J. Russ,  H. F. Schaefer III,  
 M. W. Schmidt,  N. E. Schultz,  S. Sharma,  N. Shenvi,  C. D. Sherrill,  
 A. C. Simmonett,  A. Sodt,  T. Stein,  D. Stuck,  K. S. Thanthiriwatte,  
 V. Vanovschi,  L. Vogt,  Tao Wang,  A. Warshel,  M. A. Watson,  
 C. F. Williams,  Q. Wu,  X. Xu,  Jun Yang,  W. Zhang,  Yan Zhao

 Please cite Q-Chem as follows:
 Y. Shao et al., Mol. Phys. 113, 184-215 (2015)
 DOI: 10.1080/00268976.2014.952696

 Q-Chem 5.4.1 for Intel X86 EM64T Linux

 Parts of Q-Chem use Armadillo 9.800.1 (Horizon Scraper).
 http://arma.sourceforge.net/

 Q-Chem begins on Wed Oct 25 22:19:57 2023  

 Host: 
0

     Scratch files written to /scratch/ari.fischer/qChem1824912.hpc-mn1/qchem187030//
 Aug1521 |scratch|qcdevops|jenkins|workspace|build_RNUM 8249   
 Processing $rem in /usr/local/qchem-5.4.1/config/preferences:
 Processing $rem in /home/ari.fischer/.qchemrc:
 Symmetry turned off for PCM/SM12/SMD calculation


!!********************************************.
!!******************Warning*******************.
!!Desired Analytical derivatives not available.
!!Finite difference job might take a long time.
!!********************************************.
!!********************************************.


 2-order derivative to be evaluated numerically with 1-order analytical derivatives

 Checking the input file for inconsistencies... 	...done.

--------------------------------------------------------------
User input:
--------------------------------------------------------------
$molecule
0 2
C   -0.5326998    0.0025343    1.0230089
C   -0.9680984   -1.1061387    1.7802259
C   -1.8563514   -2.0070855    1.2371255
C   -2.3613366   -1.7976328   -0.0475639
C   -1.9848859   -0.6759702   -0.7817256
C   -1.0941961    0.2408942   -0.2544840
C   -0.6553643    1.4407344   -1.0471338
H    0.0088052    0.7990370    1.5126621
H   -0.5776117   -1.2486966    2.7783293
H   -2.3448522   -2.7134772    1.9865995
H   -3.0620138   -2.5040953   -0.4709462
H   -2.4004170   -0.5102611   -1.7676879
H   -1.3991399    1.6865072   -1.8048774
O    0.6226437    1.2217846   -1.6668667
H   -0.5244144    2.3000985   -0.3928305
H    0.5012626    0.5717335   -2.3685593
O   -0.6213685   -2.9233212    0.5144905
H   -0.1974429   -3.6602177    0.9874352
$end

$rem
BASIS = 6-311++G(2df,2p)
GUI = 2
JOB_TYPE = Frequency
METHOD = wB97M-V
SCF_ALGORITHM = DIIS_GDM
MAX_SCF_CYCLES = 400
SCF_CONVERGENCE = 6
THRESH = 11
SYMMETRY_IGNORE = 1
solvent_method = SMD
$end

--------------------------------------------------------------
 ----------------------------------------------------------------
             Standard Nuclear Orientation (Angstroms)
    I     Atom           X                Y                Z
 ----------------------------------------------------------------
    1      C      -0.5326998000     0.0025343000     1.0230089000
    2      C      -0.9680984000    -1.1061387000     1.7802259000
    3      C      -1.8563514000    -2.0070855000     1.2371255000
    4      C      -2.3613366000    -1.7976328000    -0.0475639000
    5      C      -1.9848859000    -0.6759702000    -0.7817256000
    6      C      -1.0941961000     0.2408942000    -0.2544840000
    7      C      -0.6553643000     1.4407344000    -1.0471338000
    8      H       0.0088052000     0.7990370000     1.5126621000
    9      H      -0.5776117000    -1.2486966000     2.7783293000
   10      H      -2.3448522000    -2.7134772000     1.9865995000
   11      H      -3.0620138000    -2.5040953000    -0.4709462000
   12      H      -2.4004170000    -0.5102611000    -1.7676879000
   13      H      -1.3991399000     1.6865072000    -1.8048774000
   14      O       0.6226437000     1.2217846000    -1.6668667000
   15      H      -0.5244144000     2.3000985000    -0.3928305000
   16      H       0.5012626000     0.5717335000    -2.3685593000
   17      O      -0.6213685000    -2.9233212000     0.5144905000
   18      H      -0.1974429000    -3.6602177000     0.9874352000
 ----------------------------------------------------------------
 Nuclear Repulsion Energy =         438.43602457 hartrees
 There are       34 alpha and       33 beta electrons
 Requested basis set is 6-311++G(2df,2p)
 There are 126 shells and 396 basis functions

 Total QAlloc Memory Limit 288000 MB
 Mega-Array Size       188 MB
 MEM_STATIC part       192 MB
 
 Citation of the SMD model:
 Marenich, A.V.; Cramer, C.J.; Truhlar, D.G.
 J. Phys. Chem. B 2009, 113, 6378-6396.
 iSolventCode=           1
 Solvent: water                                                           
 
 vradii
            1           2           3           4           5           6
    1   1.8500000   1.8500000   1.8500000   1.8500000   1.8500000   1.8500000
            7           8           9          10          11          12
    1   1.8500000   1.2000000   1.2000000   1.2000000   1.2000000   1.2000000
           13          14          15          16          17          18
    1   1.2000000   1.5200000   1.2000000   1.2000000   1.5200000   1.2000000
 Changing PCM_VDW_RADII to SMD_RADIUS
 Discretize the solute cavity surface with Lebedev spheres
	Using 110 Lebedev grid points for each H atom
	Using 194 Lebedev grid points for other atoms
	Atomic van der Waals radii will be scaled by 1.20
 Remove points where switching function is < 1.0e-08
 Keep 1303 surface tesserae and discard 1433 interior tesserae
 Molecular Surface Area = 155.424 Angst**2
 A cutoff of  1.0D-11 yielded   7090 shell pairs
 There are     70703 function pairs (     87603 Cartesian)
 Smallest overlap matrix eigenvalue = 8.83E-07

 Q-Chem warning in module stvman/mkSTV.C, line 323:

 Overlap eigenvalue is smaller than square root of threshold
 Use THRESH >= 12 to get rid of this warning

 Linear dependence detected in AO basis
 Tighter screening thresholds may be required for diffuse basis sets
 Use S2THRESH > 14 and THRESH = 14 in case of SCF convergence issues
 Number of orthogonalized atomic orbitals = 395
 Maximum deviation from orthogonality = 7.230E-11
 Guess from superposition of atomic densities
 Warning:  Energy on first SCF cycle will be non-variational
 SAD guess density has 67.000000 electrons

 -----------------------------------------------------------------------
  General SCF calculation program by
  Eric Jon Sundstrom, Paul Horn, Yuezhi Mao, Dmitri Zuev, Alec White,
  David Stuck, Shaama M.S., Shane Yost, Joonho Lee, David Small,
  Daniel Levine, Susi Lehtola, Hugh Burton, Evgeny Epifanovsky,
  Bang C. Huynh
 -----------------------------------------------------------------------
 Exchange:     0.1500 Hartree-Fock + 1.0000 wB97M-V + LR-HF
 Correlation:  1.0000 wB97M-V
 Using SG-2 standard quadrature grid
 Nonlocal Correlation:  VV10 with C = 0.0100 and b = 6.00 and scale = 1.00000
 Grid used for NLC:  SG-1 standard quadrature
 using 32 threads for integral computing
 -------------------------------------------------------
 OpenMP Integral computing Module                
 Release: version 1.0, May 2013, Q-Chem Inc. Pittsburgh 
 -------------------------------------------------------
 
 Citation of the SMD model:
 Marenich, A.V.; Cramer, C.J.; Truhlar, D.G.
 J. Phys. Chem. B 2009, 113, 6378-6396.
 iSolventCode=           1
 Solvent: water                                                           
 
 vradii
            1           2           3           4           5           6
    1   1.8500000   1.8500000   1.8500000   1.8500000   1.8500000   1.8500000
            7           8           9          10          11          12
    1   1.8500000   1.2000000   1.2000000   1.2000000   1.2000000   1.2000000
           13          14          15          16          17          18
    1   1.2000000   1.5200000   1.2000000   1.2000000   1.5200000   1.2000000
 -------------------------------------------------------
 OpenMP BLAS3 based DFT computing Module                
 Release: version 1.0, May 2013, Q-Chem Inc. Pittsburgh 
 -------------------------------------------------------
 A unrestricted SCF calculation will be
 performed using DIIS, GDM
 SCF converges when RMS gradient is below 1.0e-06
 ---------------------------------------
  Cycle       Energy         DIIS error
 ---------------------------------------
    1    -425.0646099342      1.27e-02  
    2    -422.3629771450      1.28e-03  Done DIIS. Switching to GDM
 ---------------------------------------
  Cycle       Energy        RMS Gradient
 ---------------------------------------
    1    -422.3629771450      4.47e-02   Descent step
    2    -422.4623033328      2.37e-02   Normal BFGS step
    3    -422.4749702731      1.64e-02   Normal BFGS step
    4    -422.4774021213      7.50e-03   Normal BFGS step
    5    -422.4780181906      5.63e-03   Normal BFGS step
    6    -422.4782612820      3.52e-03   Normal BFGS step
    7    -422.4783594063      9.77e-04   Normal BFGS step
    8    -422.4783717849      4.03e-04   Normal BFGS step
    9    -422.4783740095      2.60e-04   Normal BFGS step
   10    -422.4783747230      2.07e-04   Normal BFGS step
   11    -422.4783749165      1.35e-04   Normal BFGS step
   12    -422.4783749902      8.14e-05   Normal BFGS step
   13    -422.4783750130      4.63e-05   Normal BFGS step
   14    -422.4783750223      2.09e-05   Normal BFGS step
   15    -422.4783750253      9.14e-06   Normal BFGS step
   16    -422.4783750259      4.38e-06   Normal BFGS step
   17    -422.4783750260      2.12e-06   Normal BFGS step
   18    -422.4783750267      9.67e-07  Convergence criterion met
 ---------------------------------------
 SCF time:   CPU 2427.72s  wall 92.00s 
<S^2> =          0.797742867
(3)  G-ENP(liq) elect-nuc-pol free energy of system     -422.478375027 a.u.
(4)  G-CDS(liq) cavity-dispersion-solvent structure 
     free energy                                                3.6763 kcal/mol
(6)  G-S(liq) free energy of system                     -422.472516511 a.u.
 SCF   energy in the final basis set =     -422.4725165106
 Total energy in the final basis set =     -422.4725165106
 
 --------------------------------------------------------------
 
                    Orbital Energies (a.u.)
 --------------------------------------------------------------
 
 Alpha MOs
 -- Occupied --
-19.3383 -19.3200 -10.3950 -10.3856 -10.3590 -10.3565 -10.3541 -10.3426
-10.3406  -1.1533  -1.1099  -0.9879  -0.9016  -0.8759  -0.8006  -0.7377
 -0.7092  -0.6413  -0.6168  -0.5984  -0.5749  -0.5700  -0.5417  -0.5283
 -0.5225  -0.4715  -0.4660  -0.4474  -0.4376  -0.4357  -0.4188  -0.3914
 -0.3332  -0.2799
 -- Virtual --
  0.0233   0.0348   0.0377   0.0462   0.0539   0.0549   0.0600   0.0619
  0.0831   0.0851   0.0901   0.0977   0.1129   0.1219   0.1383   0.1401
  0.1457   0.1496   0.1552   0.1583   0.1602   0.1638   0.1672   0.1785
  0.1787   0.1845   0.1896   0.2003   0.2021   0.2153   0.2168   0.2220
  0.2274   0.2371   0.2427   0.2485   0.2607   0.2642   0.2735   0.2850
  0.2916   0.2970   0.3042   0.3155   0.3255   0.3299   0.3346   0.3437
  0.3478   0.3502   0.3559   0.3636   0.3675   0.3764   0.3995   0.4123
  0.4187   0.4240   0.4349   0.4422   0.4480   0.4784   0.5324   0.5399
  0.5413   0.5820   0.5893   0.5968   0.6055   0.6058   0.6132   0.6183
  0.6258   0.6316   0.6385   0.6462   0.6554   0.6701   0.6797   0.6947
  0.7020   0.7083   0.7144   0.7208   0.7249   0.7348   0.7434   0.7502
  0.7579   0.7639   0.7782   0.7934   0.8102   0.8243   0.8341   0.8469
  0.8485   0.8659   0.8783   0.8816   0.8955   0.9063   0.9243   0.9282
  0.9443   0.9646   1.0096   1.0156   1.0365   1.0486   1.0731   1.0849
  1.0915   1.0961   1.1372   1.1491   1.1580   1.1647   1.1759   1.1853
  1.1940   1.2238   1.2359   1.2450   1.2564   1.2680   1.2721   1.2880
  1.2940   1.2999   1.3107   1.3344   1.3603   1.3691   1.3793   1.3856
  1.4043   1.4206   1.4216   1.4319   1.4394   1.4484   1.4609   1.4651
  1.4831   1.4964   1.5082   1.5408   1.5452   1.5576   1.5595   1.5753
  1.5913   1.6067   1.6179   1.6652   1.6714   1.7242   1.7488   1.7824
  1.8060   1.8220   1.8339   1.8581   1.8605   1.8927   1.9294   1.9450
  1.9585   1.9905   2.0520   2.0755   2.1042   2.1095   2.1512   2.1579
  2.2044   2.2296   2.3398   2.3631   2.3978   2.5962   2.5983   2.6382
  2.6443   2.6573   2.6736   2.7028   2.7362   2.7783   2.7883   2.8035
  2.8217   2.8362   2.8504   2.8617   2.8789   2.8933   2.9120   2.9268
  2.9357   2.9410   2.9517   2.9746   2.9970   3.0011   3.0234   3.0268
  3.0459   3.0734   3.1015   3.1120   3.1448   3.1701   3.1751   3.2023
  3.2129   3.2217   3.2431   3.2601   3.2655   3.2848   3.3079   3.3242
  3.3328   3.3416   3.3607   3.3679   3.3980   3.4104   3.4167   3.4266
  3.4698   3.4737   3.4927   3.4963   3.5099   3.5302   3.5449   3.5621
  3.5873   3.6017   3.6223   3.6334   3.6478   3.6651   3.6894   3.6944
  3.7227   3.7353   3.7677   3.7753   3.7804   3.7935   3.8184   3.8262
  3.8527   3.8685   3.8951   3.9144   3.9370   3.9496   3.9621   3.9879
  3.9971   4.0177   4.0293   4.0453   4.0927   4.1099   4.1302   4.1432
  4.1760   4.1991   4.2045   4.2315   4.2667   4.2787   4.2919   4.3146
  4.3205   4.3328   4.3713   4.3811   4.3876   4.4140   4.4380   4.4555
  4.4769   4.4892   4.5013   4.5316   4.5341   4.5563   4.5821   4.5892
  4.6117   4.6261   4.6673   4.7239   4.7438   4.7785   4.8407   4.8685
  4.9534   5.0267   5.1106   5.1379   5.1508   5.1848   5.2440   5.2522
  5.2698   5.2893   5.3186   5.3214   5.3375   5.3759   5.4213   5.4527
  5.4737   5.4869   5.4994   5.5287   5.5918   5.6805   5.7047   5.7186
  5.7284   5.7667   5.8247   5.8596   5.8654   5.8956   5.9081   5.9423
  6.0170   6.1781   6.5616   6.5904   7.0812   7.1011   7.1705   7.2423
  7.2871   7.3053   7.3197   7.3557   7.6309   7.6688   7.7320   7.7836
 24.2197  24.7439  24.7987  24.8135  24.9963  25.0639  25.4706  50.5897
 50.5984
 
 Beta MOs
 -- Occupied --
-19.3375 -19.3111 -10.3955 -10.3860 -10.3536 -10.3512 -10.3491 -10.3452
-10.3429  -1.1516  -1.0926  -0.9806  -0.8931  -0.8708  -0.7995  -0.7337
 -0.7021  -0.6379  -0.6135  -0.5819  -0.5713  -0.5646  -0.5370  -0.5231
 -0.5200  -0.4678  -0.4520  -0.4423  -0.4339  -0.4143  -0.4028  -0.3874
 -0.3221
 -- Virtual --
 -0.0372   0.0227   0.0347   0.0376   0.0461   0.0549   0.0565   0.0628
  0.0766   0.0837   0.0888   0.0918   0.1046   0.1132   0.1218   0.1382
  0.1406   0.1473   0.1500   0.1548   0.1580   0.1603   0.1640   0.1697
  0.1784   0.1801   0.1850   0.1927   0.2008   0.2016   0.2152   0.2167
  0.2214   0.2278   0.2359   0.2455   0.2496   0.2633   0.2656   0.2735
  0.2843   0.2918   0.2986   0.3062   0.3159   0.3261   0.3309   0.3358
  0.3450   0.3486   0.3514   0.3564   0.3663   0.3687   0.3788   0.4001
  0.4133   0.4203   0.4255   0.4377   0.4437   0.4503   0.4793   0.5329
  0.5412   0.5448   0.5844   0.5924   0.5991   0.6075   0.6097   0.6169
  0.6208   0.6279   0.6334   0.6404   0.6500   0.6580   0.6744   0.6851
  0.6964   0.7033   0.7111   0.7162   0.7234   0.7262   0.7368   0.7456
  0.7527   0.7600   0.7668   0.7800   0.7951   0.8125   0.8292   0.8364
  0.8509   0.8531   0.8687   0.8829   0.8840   0.8965   0.9101   0.9275
  0.9304   0.9480   0.9670   1.0118   1.0184   1.0377   1.0513   1.0751
  1.0859   1.0930   1.0988   1.1394   1.1504   1.1598   1.1667   1.1781
  1.1869   1.1968   1.2256   1.2392   1.2465   1.2575   1.2714   1.2753
  1.2911   1.2960   1.3023   1.3129   1.3364   1.3630   1.3713   1.3821
  1.3897   1.4071   1.4236   1.4242   1.4362   1.4420   1.4517   1.4638
  1.4685   1.4878   1.5008   1.5127   1.5411   1.5465   1.5615   1.5631
  1.5778   1.5927   1.6086   1.6194   1.6680   1.6742   1.7278   1.7535
  1.7897   1.8070   1.8276   1.8393   1.8649   1.8673   1.8957   1.9336
  1.9504   1.9646   1.9938   2.0554   2.0809   2.1079   2.1151   2.1573
  2.1645   2.2058   2.2336   2.3410   2.3636   2.4025   2.6012   2.6048
  2.6422   2.6481   2.6652   2.6802   2.7094   2.7403   2.7864   2.7969
  2.8084   2.8300   2.8523   2.8550   2.8695   2.8868   2.9033   2.9168
  2.9325   2.9398   2.9507   2.9677   2.9818   3.0058   3.0127   3.0371
  3.0447   3.0555   3.0807   3.1117   3.1237   3.1517   3.1731   3.1805
  3.2082   3.2196   3.2293   3.2488   3.2680   3.2725   3.2912   3.3122
  3.3291   3.3426   3.3505   3.3676   3.3727   3.4037   3.4171   3.4202
  3.4322   3.4758   3.4842   3.5023   3.5042   3.5171   3.5332   3.5505
  3.5687   3.5971   3.6084   3.6297   3.6431   3.6501   3.6733   3.6947
  3.7009   3.7293   3.7379   3.7747   3.7815   3.7851   3.8025   3.8255
  3.8290   3.8602   3.8740   3.9014   3.9217   3.9441   3.9581   3.9720
  3.9954   4.0055   4.0203   4.0378   4.0503   4.1005   4.1166   4.1340
  4.1477   4.1817   4.2035   4.2077   4.2388   4.2719   4.2846   4.2954
  4.3200   4.3257   4.3400   4.3777   4.3848   4.3937   4.4197   4.4430
  4.4608   4.4816   4.4994   4.5085   4.5400   4.5458   4.5659   4.5908
  4.5978   4.6208   4.6361   4.6769   4.7349   4.7493   4.7843   4.8518
  4.8782   4.9586   5.0372   5.1201   5.1514   5.1663   5.1950   5.2528
  5.2651   5.2812   5.2927   5.3224   5.3254   5.3496   5.3838   5.4376
  5.4589   5.4856   5.5015   5.5099   5.5338   5.5941   5.6815   5.7125
  5.7231   5.7334   5.7761   5.8419   5.8617   5.8802   5.9036   5.9145
  5.9585   6.0189   6.1890   6.5682   6.5944   7.1014   7.1028   7.1956
  7.2653   7.3057   7.3116   7.3237   7.3585   7.6323   7.7001   7.7525
  7.7866  24.2208  24.7457  24.7988  24.8149  24.9987  25.0658  25.4734
 50.5905  50.6056
 --------------------------------------------------------------
 
          Ground-State Mulliken Net Atomic Charges

     Atom                 Charge (a.u.)    Spin (a.u.)
  --------------------------------------------------------
      1 C                    -0.130185      -0.169809
      2 C                    -0.338664       0.352561
      3 C                    -0.189392      -0.016533
      4 C                    -0.395513       0.370956
      5 C                    -0.418900      -0.147916
      6 C                     0.384073       0.342555
      7 C                    -0.517952       0.004321
      8 H                     0.261655       0.002970
      9 H                     0.309213      -0.007314
     10 H                     0.300601       0.015705
     11 H                     0.307625      -0.007256
     12 H                     0.273689       0.004456
     13 H                     0.198712       0.001144
     14 O                    -0.401637       0.016626
     15 H                     0.208012       0.005439
     16 H                     0.333714      -0.000928
     17 O                    -0.509657       0.211487
     18 H                     0.324607       0.021533
  --------------------------------------------------------
  Sum of atomic charges =    -0.000000
  Sum of spin   charges =     1.000000

 -----------------------------------------------------------------
                    Cartesian Multipole Moments
 -----------------------------------------------------------------
    Charge (ESU x 10^10)
                 0.0000
    Dipole Moment (Debye)
         X      -3.2661      Y      -0.8234      Z       1.5081
       Tot       3.6905
    Quadrupole Moments (Debye-Ang)
        XX     -51.9110     XY       1.1621     YY     -51.4101
        XZ       2.0998     YZ      -5.5020     ZZ     -42.9999
    Octopole Moments (Debye-Ang^2)
       XXX     158.8947    XXY      15.4053    XYY      42.7868
       YYY      81.1857    XXZ      -5.1172    XYZ      13.1746
       YYZ      26.5537    XZZ      45.4302    YZZ      15.1621
       ZZZ     -13.1237
    Hexadecapole Moments (Debye-Ang^3)
      XXXX    -672.9219   XXXY    -170.3701   XXYY    -224.6288
      XYYY    -211.0342   YYYY    -802.2242   XXXZ      61.2183
      XXYZ      47.8551   XYYZ       6.5393   YYYZ      97.0355
      XXZZ    -180.1249   XYZZ     -59.2345   YYZZ    -203.6514
      XZZZ      48.3593   YZZZ     143.9294   ZZZZ    -424.3908
 -----------------------------------------------------------------
 Calculating analytic gradient of the SCF energy
 Gradient of CDS energy
            1           2           3           4           5           6
    1   0.0002468   0.0000335  -0.0000997  -0.0002351  -0.0001678   0.0002550
    2   0.0002650  -0.0001170  -0.0001334  -0.0003009   0.0001452  -0.0001524
    3   0.0000654   0.0003653   0.0000330  -0.0000718  -0.0002050  -0.0001293
            7           8           9          10          11          12
    1  -0.0002743   0.0000676   0.0000689  -0.0001060  -0.0001335  -0.0000617
    2   0.0011138   0.0001613  -0.0000348  -0.0001788  -0.0001347   0.0000746
    3  -0.0002384   0.0000547   0.0001932   0.0001952  -0.0000807  -0.0001643
           13          14          15          16          17          18
    1  -0.0000843  -0.0001068   0.0001876   0.0003234  -0.0001974   0.0002839
    2  -0.0002429  -0.0001157  -0.0000632  -0.0001718   0.0002854  -0.0003998
    3  -0.0001310   0.0002158   0.0002359  -0.0003820   0.0000309   0.0000132
 Gradient of SCF Energy
            1           2           3           4           5           6
    1   0.0261886  -0.0384908  -0.0075181   0.0436455   0.0220294  -0.0209387
    2   0.0107993  -0.0790627   0.0887639  -0.0382906   0.0236527  -0.0079780
    3  -0.0222057  -0.0154134  -0.0285129   0.0441826   0.0027638  -0.0096857
            7           8           9          10          11          12
    1   0.0049503  -0.0094168   0.0032955  -0.0105101  -0.0049865  -0.0024504
    2  -0.0014450   0.0049465  -0.0004876  -0.0247896  -0.0018635   0.0031855
    3   0.0009993   0.0034043   0.0063467   0.0337201  -0.0024135  -0.0055562
           13          14          15          16          17          18
    1  -0.0036240   0.0088126  -0.0021614  -0.0052623  -0.0142867   0.0107240
    2   0.0000922   0.0060385   0.0019137  -0.0054499   0.0298044  -0.0098297
    3  -0.0042001   0.0073211   0.0023516  -0.0082068  -0.0002607  -0.0046345
 Max gradient component =       8.876E-02
 RMS gradient           =       2.309E-02
 Computing fast CPCM-SWIG gradient
 Updating gradient with PCM contributions...
 -- total gradient after adding PCM contribution --
---------------------------------------------------
  Atom         X              Y              Z     
---------------------------------------------------
   1       0.029579       0.014020      -0.019061
   2      -0.037580      -0.084902      -0.009683
   3      -0.008797       0.083086      -0.024510
   4       0.042858      -0.042494       0.044421
   5       0.017346       0.027110      -0.003795
   6      -0.019129      -0.008453      -0.012643
   7      -0.000263       0.001886      -0.000417
   8      -0.009742       0.003377       0.002202
   9       0.001994       0.000868      -0.000197
  10      -0.007257      -0.019289       0.026770
  11      -0.001085       0.000443      -0.001296
  12      -0.000311       0.001533       0.000404
  13       0.000404      -0.000462       0.000269
  14       0.001079      -0.000433       0.000473
  15      -0.000123      -0.000171      -0.000065
  16      -0.000069      -0.000066      -0.001073
  17      -0.019020       0.028944       0.009665
  18       0.010115      -0.004998      -0.011465
---------------------------------------------------
 Number of fixed atoms: 0
 Gradient time:  CPU 326.10 s  wall 16.07 s
 ######################################################
 ######################################################
 # Starting finite difference calculation for IDERIV  #
 Finite diff step size:  1.88973e-03 a.u.
 ----------------------------------------------------------------
             Standard Nuclear Orientation (Angstroms)
    I     Atom           X                Y                Z
 ----------------------------------------------------------------
    1      C      -0.5316998000     0.0025343000     1.0230089000
    2      C      -0.9680984000    -1.1061387000     1.7802259000
    3      C      -1.8563514000    -2.0070855000     1.2371255000
    4      C      -2.3613366000    -1.7976328000    -0.0475639000
    5      C      -1.9848859000    -0.6759702000    -0.7817256000
    6      C      -1.0941961000     0.2408942000    -0.2544840000
    7      C      -0.6553643000     1.4407344000    -1.0471338000
    8      H       0.0088052000     0.7990370000     1.5126621000
    9      H      -0.5776117000    -1.2486966000     2.7783293000
   10      H      -2.3448522000    -2.7134772000     1.9865995000
   11      H      -3.0620138000    -2.5040953000    -0.4709462000
   12      H      -2.4004170000    -0.5102611000    -1.7676879000
   13      H      -1.3991399000     1.6865072000    -1.8048774000
   14      O       0.6226437000     1.2217846000    -1.6668667000
   15      H      -0.5244144000     2.3000985000    -0.3928305000
   16      H       0.5012626000     0.5717335000    -2.3685593000
   17      O      -0.6213685000    -2.9233212000     0.5144905000
   18      H      -0.1974429000    -3.6602177000     0.9874352000
 ----------------------------------------------------------------
 Nuclear Repulsion Energy =         438.42554703 hartrees
 There are       34 alpha and       33 beta electrons
 Discretize the solute cavity surface with Lebedev spheres
	Using 110 Lebedev grid points for each H atom
	Using 194 Lebedev grid points for other atoms
	Atomic van der Waals radii will be scaled by 1.20
 Remove points where switching function is < 1.0e-08
 Keep 1304 surface tesserae and discard 1432 interior tesserae
 Molecular Surface Area = 155.425 Angst**2
 Requested basis set is 6-311++G(2df,2p)
 There are 126 shells and 396 basis functions
 A cutoff of  1.0D-11 yielded   7090 shell pairs
 There are     70703 function pairs (     87603 Cartesian)
 Smallest overlap matrix eigenvalue = 8.86E-07

 Q-Chem warning in module stvman/mkSTV.C, line 323:

 Overlap eigenvalue is smaller than square root of threshold
 Use THRESH >= 12 to get rid of this warning

 Linear dependence detected in AO basis
 Tighter screening thresholds may be required for diffuse basis sets
 Use S2THRESH > 14 and THRESH = 14 in case of SCF convergence issues
 Number of orthogonalized atomic orbitals = 395
 Maximum deviation from orthogonality = 6.483E-11
 Guess MOs from SCF MO coefficient file

 -----------------------------------------------------------------------
  General SCF calculation program by
  Eric Jon Sundstrom, Paul Horn, Yuezhi Mao, Dmitri Zuev, Alec White,
  David Stuck, Shaama M.S., Shane Yost, Joonho Lee, David Small,
  Daniel Levine, Susi Lehtola, Hugh Burton, Evgeny Epifanovsky,
  Bang C. Huynh
 -----------------------------------------------------------------------
 Exchange:     0.1500 Hartree-Fock + 1.0000 wB97M-V + LR-HF
 Correlation:  1.0000 wB97M-V
 Using SG-2 standard quadrature grid
 Nonlocal Correlation:  VV10 with C = 0.0100 and b = 6.00 and scale = 1.00000
 Grid used for NLC:  SG-1 standard quadrature
 
 Citation of the SMD model:
 Marenich, A.V.; Cramer, C.J.; Truhlar, D.G.
 J. Phys. Chem. B 2009, 113, 6378-6396.
 iSolventCode=           1
 Solvent: water                                                           
 
 vradii
            1           2           3           4           5           6
    1   1.8500000   1.8500000   1.8500000   1.8500000   1.8500000   1.8500000
            7           8           9          10          11          12
    1   1.8500000   1.2000000   1.2000000   1.2000000   1.2000000   1.2000000
           13          14          15          16          17          18
    1   1.2000000   1.5200000   1.2000000   1.2000000   1.5200000   1.2000000
 -------------------------------------------------------
 OpenMP BLAS3 based DFT computing Module                
 Release: version 1.0, May 2013, Q-Chem Inc. Pittsburgh 
 -------------------------------------------------------
 A unrestricted SCF calculation will be
 performed using Roothaan-Hall, DIIS, GDM
 SCF converges when RMS gradient is below 1.0e-06
 ---------------------------------------
  Cycle       Energy         DIIS error
 ---------------------------------------
    1    -422.4447953393      2.19e-04  Roothaan Step
 ---------------------------------------
  Cycle       Energy         DIIS error
 ---------------------------------------
    1    -422.4706083984      2.59e-04  
    2    -422.4750831728      2.38e-04  Done DIIS. Switching to GDM
 ---------------------------------------
  Cycle       Energy        RMS Gradient
 ---------------------------------------
    1    -422.4750831728      1.03e-02   Normal BFGS step
    2    -422.4743843267      1.88e-02  Line search: overstep
    3    -422.4781132068      2.81e-03   Normal BFGS step
    4    -422.4782642481      1.17e-03   Normal BFGS step
    5    -422.4783141355      6.28e-04   Normal BFGS step
    6    -422.4783171273      3.10e-04   Normal BFGS step
    7    -422.4783185721      2.07e-04   Normal BFGS step
    8    -422.4783188737      1.08e-04   Normal BFGS step
    9    -422.4783189757      2.87e-05   Normal BFGS step
   10    -422.4783189928      2.60e-05   Normal BFGS step
   11    -422.4783189963      1.68e-05   Normal BFGS step
   12    -422.4783189976      1.14e-05   Normal BFGS step
   13    -422.4783189982      6.79e-06   Normal BFGS step
   14    -422.4783189982      2.51e-06   Normal BFGS step
   15    -422.4783189980      1.39e-06   Normal BFGS step
   16    -422.4783189981      6.17e-07  Convergence criterion met
 ---------------------------------------
 SCF time:   CPU 2317.98s  wall 88.00s 
<S^2> =          0.797795372
(3)  G-ENP(liq) elect-nuc-pol free energy of system     -422.478318998 a.u.
(4)  G-CDS(liq) cavity-dispersion-solvent structure 
     free energy                                                3.6766 kcal/mol
(6)  G-S(liq) free energy of system                     -422.472460014 a.u.
 SCF   energy in the final basis set =     -422.4724600140
 Total energy in the final basis set =     -422.4724600140
 
 --------------------------------------------------------------
 
                    Orbital Energies (a.u.)
 --------------------------------------------------------------
 
 Alpha MOs
 -- Occupied --
-19.3383 -19.3200 -10.3951 -10.3856 -10.3591 -10.3565 -10.3542 -10.3426
-10.3406  -1.1533  -1.1099  -0.9879  -0.9016  -0.8758  -0.8006  -0.7377
 -0.7091  -0.6413  -0.6168  -0.5984  -0.5749  -0.5701  -0.5417  -0.5283
 -0.5225  -0.4715  -0.4660  -0.4474  -0.4375  -0.4357  -0.4188  -0.3914
 -0.3332  -0.2799
 -- Virtual --
  0.0233   0.0348   0.0377   0.0462   0.0539   0.0549   0.0600   0.0619
  0.0831   0.0851   0.0901   0.0977   0.1129   0.1219   0.1383   0.1401
  0.1457   0.1496   0.1552   0.1583   0.1602   0.1638   0.1672   0.1785
  0.1787   0.1845   0.1896   0.2003   0.2021   0.2153   0.2168   0.2221
  0.2274   0.2371   0.2427   0.2485   0.2607   0.2642   0.2735   0.2850
  0.2916   0.2970   0.3042   0.3155   0.3255   0.3299   0.3346   0.3437
  0.3478   0.3502   0.3559   0.3636   0.3675   0.3765   0.3995   0.4122
  0.4187   0.4239   0.4349   0.4422   0.4480   0.4784   0.5323   0.5398
  0.5411   0.5819   0.5893   0.5969   0.6055   0.6058   0.6132   0.6183
  0.6259   0.6316   0.6385   0.6462   0.6553   0.6700   0.6797   0.6946
  0.7020   0.7083   0.7143   0.7208   0.7249   0.7348   0.7434   0.7502
  0.7578   0.7639   0.7782   0.7934   0.8102   0.8243   0.8341   0.8469
  0.8485   0.8659   0.8782   0.8815   0.8954   0.9063   0.9242   0.9282
  0.9443   0.9646   1.0096   1.0156   1.0365   1.0486   1.0731   1.0849
  1.0916   1.0961   1.1371   1.1490   1.1580   1.1648   1.1759   1.1853
  1.1940   1.2238   1.2359   1.2449   1.2563   1.2679   1.2720   1.2880
  1.2940   1.2999   1.3106   1.3344   1.3603   1.3691   1.3792   1.3856
  1.4043   1.4205   1.4216   1.4319   1.4393   1.4484   1.4608   1.4651
  1.4831   1.4964   1.5083   1.5407   1.5452   1.5576   1.5594   1.5753
  1.5913   1.6069   1.6179   1.6652   1.6713   1.7241   1.7488   1.7824
  1.8058   1.8220   1.8337   1.8581   1.8604   1.8926   1.9293   1.9450
  1.9584   1.9902   2.0519   2.0754   2.1041   2.1095   2.1512   2.1579
  2.2044   2.2290   2.3397   2.3630   2.3978   2.5962   2.5984   2.6381
  2.6442   2.6571   2.6737   2.7028   2.7361   2.7782   2.7884   2.8035
  2.8217   2.8361   2.8504   2.8617   2.8789   2.8933   2.9120   2.9269
  2.9358   2.9411   2.9517   2.9746   2.9970   3.0012   3.0235   3.0267
  3.0459   3.0733   3.1015   3.1120   3.1446   3.1700   3.1751   3.2023
  3.2129   3.2217   3.2431   3.2601   3.2656   3.2848   3.3081   3.3243
  3.3327   3.3417   3.3606   3.3679   3.3979   3.4104   3.4167   3.4266
  3.4698   3.4736   3.4925   3.4963   3.5100   3.5302   3.5448   3.5622
  3.5873   3.6017   3.6224   3.6336   3.6478   3.6652   3.6894   3.6943
  3.7228   3.7352   3.7675   3.7752   3.7803   3.7934   3.8182   3.8261
  3.8526   3.8684   3.8952   3.9143   3.9369   3.9496   3.9619   3.9880
  3.9969   4.0175   4.0291   4.0452   4.0926   4.1099   4.1302   4.1432
  4.1759   4.1991   4.2046   4.2317   4.2667   4.2786   4.2919   4.3146
  4.3204   4.3328   4.3714   4.3810   4.3873   4.4139   4.4381   4.4555
  4.4769   4.4891   4.5014   4.5313   4.5338   4.5561   4.5820   4.5891
  4.6117   4.6262   4.6673   4.7236   4.7436   4.7785   4.8405   4.8685
  4.9532   5.0264   5.1107   5.1379   5.1507   5.1845   5.2440   5.2522
  5.2697   5.2893   5.3187   5.3214   5.3375   5.3758   5.4213   5.4526
  5.4737   5.4869   5.4993   5.5286   5.5917   5.6805   5.7047   5.7185
  5.7283   5.7664   5.8246   5.8599   5.8654   5.8952   5.9081   5.9423
  6.0170   6.1779   6.5608   6.5902   7.0812   7.1011   7.1705   7.2423
  7.2871   7.3053   7.3197   7.3557   7.6309   7.6688   7.7320   7.7836
 24.2200  24.7435  24.7986  24.8135  24.9957  25.0637  25.4699  50.5897
 50.5984
 
 Beta MOs
 -- Occupied --
-19.3375 -19.3111 -10.3955 -10.3860 -10.3537 -10.3512 -10.3492 -10.3452
-10.3429  -1.1516  -1.0926  -0.9806  -0.8930  -0.8708  -0.7994  -0.7337
 -0.7021  -0.6379  -0.6135  -0.5819  -0.5713  -0.5646  -0.5370  -0.5231
 -0.5200  -0.4678  -0.4520  -0.4423  -0.4339  -0.4143  -0.4028  -0.3874
 -0.3221
 -- Virtual --
 -0.0372   0.0227   0.0347   0.0376   0.0461   0.0549   0.0565   0.0628
  0.0765   0.0837   0.0888   0.0918   0.1046   0.1132   0.1218   0.1382
  0.1406   0.1473   0.1500   0.1548   0.1580   0.1603   0.1640   0.1697
  0.1784   0.1802   0.1850   0.1927   0.2008   0.2016   0.2152   0.2167
  0.2214   0.2278   0.2359   0.2454   0.2496   0.2633   0.2655   0.2735
  0.2843   0.2918   0.2986   0.3062   0.3159   0.3261   0.3309   0.3358
  0.3449   0.3486   0.3514   0.3564   0.3663   0.3688   0.3788   0.4002
  0.4133   0.4203   0.4254   0.4376   0.4437   0.4503   0.4792   0.5328
  0.5411   0.5447   0.5843   0.5924   0.5991   0.6076   0.6096   0.6169
  0.6208   0.6280   0.6334   0.6403   0.6500   0.6580   0.6744   0.6851
  0.6963   0.7032   0.7111   0.7162   0.7234   0.7262   0.7367   0.7456
  0.7526   0.7599   0.7668   0.7800   0.7951   0.8125   0.8292   0.8364
  0.8509   0.8531   0.8687   0.8828   0.8840   0.8964   0.9100   0.9275
  0.9304   0.9480   0.9670   1.0119   1.0184   1.0377   1.0512   1.0751
  1.0859   1.0930   1.0988   1.1393   1.1503   1.1598   1.1667   1.1781
  1.1869   1.1968   1.2256   1.2391   1.2465   1.2575   1.2714   1.2752
  1.2911   1.2959   1.3023   1.3129   1.3364   1.3630   1.3712   1.3821
  1.3897   1.4071   1.4236   1.4241   1.4362   1.4419   1.4517   1.4637
  1.4685   1.4878   1.5008   1.5127   1.5411   1.5464   1.5615   1.5631
  1.5778   1.5927   1.6087   1.6194   1.6679   1.6740   1.7277   1.7535
  1.7897   1.8068   1.8275   1.8391   1.8648   1.8673   1.8956   1.9335
  1.9504   1.9646   1.9935   2.0553   2.0808   2.1078   2.1150   2.1573
  2.1645   2.2058   2.2330   2.3409   2.3636   2.4025   2.6011   2.6050
  2.6422   2.6479   2.6650   2.6803   2.7094   2.7402   2.7863   2.7969
  2.8084   2.8300   2.8523   2.8549   2.8695   2.8868   2.9033   2.9168
  2.9326   2.9399   2.9508   2.9677   2.9818   3.0058   3.0128   3.0372
  3.0447   3.0555   3.0806   3.1116   3.1237   3.1516   3.1729   3.1805
  3.2082   3.2195   3.2293   3.2488   3.2679   3.2726   3.2913   3.3124
  3.3291   3.3424   3.3506   3.3674   3.3726   3.4036   3.4171   3.4203
  3.4322   3.4758   3.4842   3.5021   3.5042   3.5171   3.5333   3.5504
  3.5687   3.5971   3.6084   3.6297   3.6432   3.6502   3.6733   3.6947
  3.7008   3.7293   3.7378   3.7745   3.7815   3.7850   3.8024   3.8253
  3.8289   3.8602   3.8740   3.9015   3.9216   3.9440   3.9580   3.9718
  3.9955   4.0054   4.0200   4.0376   4.0502   4.1004   4.1166   4.1339
  4.1477   4.1817   4.2035   4.2078   4.2390   4.2719   4.2844   4.2954
  4.3200   4.3256   4.3401   4.3779   4.3847   4.3935   4.4195   4.4431
  4.4608   4.4815   4.4993   4.5085   4.5396   4.5455   4.5657   4.5907
  4.5977   4.6207   4.6362   4.6769   4.7346   4.7491   4.7844   4.8516
  4.8781   4.9585   5.0369   5.1201   5.1514   5.1661   5.1947   5.2528
  5.2651   5.2811   5.2926   5.3224   5.3253   5.3497   5.3838   5.4376
  5.4588   5.4856   5.5015   5.5097   5.5337   5.5941   5.6815   5.7124
  5.7231   5.7333   5.7757   5.8422   5.8617   5.8802   5.9033   5.9145
  5.9584   6.0189   6.1887   6.5676   6.5941   7.1013   7.1028   7.1956
  7.2653   7.3057   7.3116   7.3237   7.3585   7.6323   7.7001   7.7524
  7.7866  24.2211  24.7452  24.7987  24.8149  24.9981  25.0656  25.4727
 50.5905  50.6056
 --------------------------------------------------------------
 
          Ground-State Mulliken Net Atomic Charges

     Atom                 Charge (a.u.)    Spin (a.u.)
  --------------------------------------------------------
      1 C                    -0.130909      -0.169984
      2 C                    -0.338456       0.352613
      3 C                    -0.189595      -0.016529
      4 C                    -0.395527       0.370989
      5 C                    -0.418690      -0.147919
      6 C                     0.384347       0.342662
      7 C                    -0.517756       0.004296
      8 H                     0.261594       0.002964
      9 H                     0.309236      -0.007316
     10 H                     0.300626       0.015694
     11 H                     0.307599      -0.007256
     12 H                     0.273719       0.004460
     13 H                     0.198669       0.001140
     14 O                    -0.401661       0.016630
     15 H                     0.208087       0.005445
     16 H                     0.333714      -0.000928
     17 O                    -0.509601       0.211507
     18 H                     0.324603       0.021531
  --------------------------------------------------------
  Sum of atomic charges =    -0.000000
  Sum of spin   charges =     1.000000

 -----------------------------------------------------------------
                    Cartesian Multipole Moments
 -----------------------------------------------------------------
    Charge (ESU x 10^10)
                 0.0000
    Dipole Moment (Debye)
         X      -3.2671      Y      -0.8236      Z       1.5084
       Tot       3.6915
    Quadrupole Moments (Debye-Ang)
        XX     -51.9097     XY       1.1644     YY     -51.4087
        XZ       2.0995     YZ      -5.4997     ZZ     -43.0004
    Octopole Moments (Debye-Ang^2)
       XXX     158.8734    XXY      15.4003    XYY      42.7776
       YYY      81.1810    XXZ      -5.1171    XYZ      13.1742
       YYZ      26.5558    XZZ      45.4234    YZZ      15.1647
       ZZZ     -13.1259
    Hexadecapole Moments (Debye-Ang^3)
      XXXX    -672.8734   XXXY    -170.3546   XXYY    -224.6133
      XYYY    -211.0203   YYYY    -802.2074   XXXZ      61.2021
      XXYZ      47.8557   XYYZ       6.5297   YYYZ      97.0409
      XXZZ    -180.1154   XYZZ     -59.2309   YYZZ    -203.6513
      XZZZ      48.3449   YZZZ     143.9460   ZZZZ    -424.4030
 -----------------------------------------------------------------
 Calculating analytic gradient of the SCF energy
 Gradient of CDS energy
            1           2           3           4           5           6
    1   0.0002485   0.0000328  -0.0000997  -0.0002351  -0.0001678   0.0002545
    2   0.0002655  -0.0001172  -0.0001334  -0.0003009   0.0001452  -0.0001523
    3   0.0000660   0.0003655   0.0000330  -0.0000718  -0.0002050  -0.0001297
            7           8           9          10          11          12
    1  -0.0002743   0.0000672   0.0000689  -0.0001060  -0.0001335  -0.0000617
    2   0.0011139   0.0001610  -0.0000348  -0.0001789  -0.0001347   0.0000746
    3  -0.0002385   0.0000542   0.0001932   0.0001952  -0.0000807  -0.0001643
           13          14          15          16          17          18
    1  -0.0000843  -0.0001069   0.0001876   0.0003234  -0.0001974   0.0002839
    2  -0.0002429  -0.0001157  -0.0000632  -0.0001717   0.0002854  -0.0003998
    3  -0.0001310   0.0002158   0.0002359  -0.0003820   0.0000309   0.0000132
 Gradient of SCF Energy
            1           2           3           4           5           6
    1   0.0268298  -0.0386979  -0.0075162   0.0436390   0.0219963  -0.0211570
    2   0.0112116  -0.0792020   0.0887244  -0.0382816   0.0236315  -0.0079675
    3  -0.0219017  -0.0153783  -0.0285005   0.0441877   0.0027181  -0.0098429
            7           8           9          10          11          12
    1   0.0049688  -0.0096288   0.0033119  -0.0105127  -0.0049878  -0.0024483
    2  -0.0014440   0.0047232  -0.0004722  -0.0247983  -0.0018643   0.0031768
    3   0.0010091   0.0032602   0.0063306   0.0337176  -0.0024143  -0.0055614
           13          14          15          16          17          18
    1  -0.0036235   0.0088127  -0.0021612  -0.0052622  -0.0142857   0.0107227
    2   0.0000875   0.0060360   0.0019119  -0.0054487   0.0298044  -0.0098288
    3  -0.0041966   0.0073198   0.0023531  -0.0082060  -0.0002609  -0.0046337
 Max gradient component =       8.872E-02
 RMS gradient           =       2.312E-02
 Computing fast CPCM-SWIG gradient
 Updating gradient with PCM contributions...
 -- total gradient after adding PCM contribution --
---------------------------------------------------
  Atom         X              Y              Z     
---------------------------------------------------
   1       0.030211       0.014438      -0.018745
   2      -0.037788      -0.085037      -0.009644
   3      -0.008799       0.083043      -0.024492
   4       0.042853      -0.042482       0.044416
   5       0.017322       0.027090      -0.003842
   6      -0.019344      -0.008452      -0.012813
   7      -0.000244       0.001884      -0.000403
   8      -0.009954       0.003152       0.002057
   9       0.002011       0.000882      -0.000212
  10      -0.007259      -0.019297       0.026767
  11      -0.001085       0.000444      -0.001296
  12      -0.000309       0.001524       0.000399
  13       0.000404      -0.000466       0.000271
  14       0.001078      -0.000434       0.000473
  15      -0.000123      -0.000172      -0.000064
  16      -0.000069      -0.000066      -0.001073
  17      -0.019018       0.028944       0.009664
  18       0.010114      -0.004996      -0.011464
---------------------------------------------------
 Number of fixed atoms: 0
 Gradient time:  CPU 326.99 s  wall 15.47 s
 ----------------------------------------------------------------
             Standard Nuclear Orientation (Angstroms)
    I     Atom           X                Y                Z
 ----------------------------------------------------------------
    1      C      -0.5336998000     0.0025343000     1.0230089000
    2      C      -0.9680984000    -1.1061387000     1.7802259000
    3      C      -1.8563514000    -2.0070855000     1.2371255000
    4      C      -2.3613366000    -1.7976328000    -0.0475639000
    5      C      -1.9848859000    -0.6759702000    -0.7817256000
    6      C      -1.0941961000     0.2408942000    -0.2544840000
    7      C      -0.6553643000     1.4407344000    -1.0471338000
    8      H       0.0088052000     0.7990370000     1.5126621000
    9      H      -0.5776117000    -1.2486966000     2.7783293000
   10      H      -2.3448522000    -2.7134772000     1.9865995000
   11      H      -3.0620138000    -2.5040953000    -0.4709462000
   12      H      -2.4004170000    -0.5102611000    -1.7676879000
   13      H      -1.3991399000     1.6865072000    -1.8048774000
   14      O       0.6226437000     1.2217846000    -1.6668667000
   15      H      -0.5244144000     2.3000985000    -0.3928305000
   16      H       0.5012626000     0.5717335000    -2.3685593000
   17      O      -0.6213685000    -2.9233212000     0.5144905000
   18      H      -0.1974429000    -3.6602177000     0.9874352000
 ----------------------------------------------------------------
 Nuclear Repulsion Energy =         438.44649007 hartrees
 There are       34 alpha and       33 beta electrons
 Discretize the solute cavity surface with Lebedev spheres
	Using 110 Lebedev grid points for each H atom
	Using 194 Lebedev grid points for other atoms
	Atomic van der Waals radii will be scaled by 1.20
 Remove points where switching function is < 1.0e-08
 Keep 1303 surface tesserae and discard 1433 interior tesserae
 Molecular Surface Area = 155.422 Angst**2
 Requested basis set is 6-311++G(2df,2p)
 There are 126 shells and 396 basis functions
 A cutoff of  1.0D-11 yielded   7090 shell pairs
 There are     70703 function pairs (     87603 Cartesian)
 Smallest overlap matrix eigenvalue = 8.80E-07

 Q-Chem warning in module stvman/mkSTV.C, line 323:

 Overlap eigenvalue is smaller than square root of threshold
 Use THRESH >= 12 to get rid of this warning

 Linear dependence detected in AO basis
 Tighter screening thresholds may be required for diffuse basis sets
 Use S2THRESH > 14 and THRESH = 14 in case of SCF convergence issues
 Number of orthogonalized atomic orbitals = 395
 Maximum deviation from orthogonality = 3.306E-11
 Guess MOs from SCF MO coefficient file

 -----------------------------------------------------------------------
  General SCF calculation program by
  Eric Jon Sundstrom, Paul Horn, Yuezhi Mao, Dmitri Zuev, Alec White,
  David Stuck, Shaama M.S., Shane Yost, Joonho Lee, David Small,
  Daniel Levine, Susi Lehtola, Hugh Burton, Evgeny Epifanovsky,
  Bang C. Huynh
 -----------------------------------------------------------------------
 Exchange:     0.1500 Hartree-Fock + 1.0000 wB97M-V + LR-HF
 Correlation:  1.0000 wB97M-V
 Using SG-2 standard quadrature grid
 Nonlocal Correlation:  VV10 with C = 0.0100 and b = 6.00 and scale = 1.00000
 Grid used for NLC:  SG-1 standard quadrature
 
 Citation of the SMD model:
 Marenich, A.V.; Cramer, C.J.; Truhlar, D.G.
 J. Phys. Chem. B 2009, 113, 6378-6396.
 iSolventCode=           1
 Solvent: water                                                           
 
 vradii
            1           2           3           4           5           6
    1   1.8500000   1.8500000   1.8500000   1.8500000   1.8500000   1.8500000
            7           8           9          10          11          12
    1   1.8500000   1.2000000   1.2000000   1.2000000   1.2000000   1.2000000
           13          14          15          16          17          18
    1   1.2000000   1.5200000   1.2000000   1.2000000   1.5200000   1.2000000
 -------------------------------------------------------
 OpenMP BLAS3 based DFT computing Module                
 Release: version 1.0, May 2013, Q-Chem Inc. Pittsburgh 
 -------------------------------------------------------
 A unrestricted SCF calculation will be
 performed using Roothaan-Hall, DIIS, GDM
 SCF converges when RMS gradient is below 1.0e-06
 ---------------------------------------
  Cycle       Energy         DIIS error
 ---------------------------------------
    1    -422.4449039612      2.19e-04  Roothaan Step
 ---------------------------------------
  Cycle       Energy         DIIS error
 ---------------------------------------
    1    -422.4707307170      2.59e-04  
    2    -422.4751945543      2.38e-04  Done DIIS. Switching to GDM
 ---------------------------------------
  Cycle       Energy        RMS Gradient
 ---------------------------------------
    1    -422.4751945543      1.04e-02   Normal BFGS step
    2    -422.4744896352      1.89e-02  Line search: overstep
    3    -422.4782243621      2.82e-03   Normal BFGS step
    4    -422.4783752675      1.15e-03   Normal BFGS step
    5    -422.4784249856      6.30e-04   Normal BFGS step
    6    -422.4784279907      3.12e-04   Normal BFGS step
    7    -422.4784294352      2.08e-04   Normal BFGS step
    8    -422.4784297386      1.08e-04   Normal BFGS step
    9    -422.4784298405      2.78e-05   Normal BFGS step
   10    -422.4784298574      2.56e-05   Normal BFGS step
   11    -422.4784298609      1.65e-05   Normal BFGS step
   12    -422.4784298622      1.12e-05   Normal BFGS step
   13    -422.4784298627      6.72e-06   Normal BFGS step
   14    -422.4784298627      2.54e-06   Normal BFGS step
   15    -422.4784298625      1.38e-06   Normal BFGS step
   16    -422.4784298626      6.03e-07  Convergence criterion met
 ---------------------------------------
 SCF time:   CPU 2316.53s  wall 88.00s 
<S^2> =          0.797690833
(3)  G-ENP(liq) elect-nuc-pol free energy of system     -422.478429863 a.u.
(4)  G-CDS(liq) cavity-dispersion-solvent structure 
     free energy                                                3.6760 kcal/mol
(6)  G-S(liq) free energy of system                     -422.472571811 a.u.
 SCF   energy in the final basis set =     -422.4725718113
 Total energy in the final basis set =     -422.4725718113
 
 --------------------------------------------------------------
 
                    Orbital Energies (a.u.)
 --------------------------------------------------------------
 
 Alpha MOs
 -- Occupied --
-19.3383 -19.3200 -10.3950 -10.3856 -10.3590 -10.3565 -10.3541 -10.3426
-10.3405  -1.1533  -1.1099  -0.9880  -0.9016  -0.8759  -0.8006  -0.7377
 -0.7092  -0.6413  -0.6169  -0.5984  -0.5749  -0.5700  -0.5417  -0.5283
 -0.5225  -0.4715  -0.4660  -0.4475  -0.4376  -0.4357  -0.4188  -0.3915
 -0.3332  -0.2799
 -- Virtual --
  0.0233   0.0348   0.0377   0.0462   0.0539   0.0549   0.0601   0.0619
  0.0832   0.0851   0.0901   0.0977   0.1129   0.1219   0.1383   0.1401
  0.1457   0.1496   0.1552   0.1583   0.1602   0.1637   0.1672   0.1785
  0.1787   0.1846   0.1896   0.2003   0.2021   0.2153   0.2168   0.2220
  0.2275   0.2371   0.2427   0.2486   0.2607   0.2642   0.2735   0.2850
  0.2916   0.2970   0.3042   0.3155   0.3256   0.3300   0.3346   0.3437
  0.3478   0.3501   0.3559   0.3636   0.3675   0.3764   0.3995   0.4123
  0.4187   0.4240   0.4349   0.4422   0.4480   0.4784   0.5325   0.5399
  0.5415   0.5820   0.5893   0.5968   0.6055   0.6059   0.6132   0.6183
  0.6258   0.6316   0.6385   0.6462   0.6555   0.6701   0.6797   0.6947
  0.7021   0.7083   0.7144   0.7208   0.7250   0.7349   0.7434   0.7502
  0.7580   0.7639   0.7782   0.7934   0.8103   0.8242   0.8342   0.8469
  0.8485   0.8660   0.8783   0.8817   0.8955   0.9063   0.9243   0.9282
  0.9443   0.9646   1.0096   1.0156   1.0365   1.0487   1.0732   1.0849
  1.0915   1.0961   1.1373   1.1492   1.1580   1.1647   1.1760   1.1854
  1.1941   1.2238   1.2359   1.2450   1.2564   1.2680   1.2721   1.2880
  1.2940   1.3000   1.3107   1.3344   1.3603   1.3691   1.3794   1.3856
  1.4044   1.4207   1.4215   1.4319   1.4395   1.4484   1.4610   1.4651
  1.4831   1.4964   1.5082   1.5408   1.5452   1.5576   1.5595   1.5754
  1.5914   1.6066   1.6179   1.6652   1.6716   1.7242   1.7489   1.7824
  1.8061   1.8221   1.8341   1.8581   1.8606   1.8929   1.9295   1.9450
  1.9585   1.9908   2.0520   2.0756   2.1043   2.1096   2.1512   2.1579
  2.2045   2.2301   2.3398   2.3631   2.3978   2.5962   2.5981   2.6382
  2.6445   2.6574   2.6736   2.7028   2.7363   2.7784   2.7883   2.8036
  2.8216   2.8362   2.8505   2.8616   2.8789   2.8933   2.9120   2.9268
  2.9356   2.9410   2.9516   2.9746   2.9969   3.0010   3.0233   3.0268
  3.0459   3.0734   3.1015   3.1121   3.1449   3.1702   3.1751   3.2023
  3.2130   3.2217   3.2431   3.2602   3.2655   3.2847   3.3078   3.3242
  3.3330   3.3415   3.3609   3.3679   3.3981   3.4104   3.4167   3.4267
  3.4698   3.4738   3.4928   3.4963   3.5098   3.5302   3.5450   3.5620
  3.5873   3.6018   3.6223   3.6332   3.6478   3.6651   3.6895   3.6946
  3.7227   3.7353   3.7679   3.7753   3.7805   3.7936   3.8186   3.8262
  3.8528   3.8685   3.8951   3.9145   3.9371   3.9497   3.9624   3.9878
  3.9972   4.0179   4.0295   4.0454   4.0928   4.1100   4.1303   4.1432
  4.1760   4.1992   4.2045   4.2314   4.2667   4.2789   4.2919   4.3146
  4.3206   4.3327   4.3711   4.3812   4.3878   4.4141   4.4379   4.4554
  4.4769   4.4893   4.5013   4.5318   4.5344   4.5566   4.5822   4.5892
  4.6118   4.6260   4.6674   4.7242   4.7440   4.7785   4.8410   4.8685
  4.9535   5.0270   5.1106   5.1379   5.1510   5.1852   5.2439   5.2522
  5.2699   5.2893   5.3186   5.3214   5.3374   5.3760   5.4213   5.4528
  5.4738   5.4869   5.4996   5.5288   5.5918   5.6805   5.7048   5.7186
  5.7286   5.7671   5.8247   5.8593   5.8653   5.8959   5.9081   5.9424
  6.0170   6.1783   6.5623   6.5907   7.0812   7.1011   7.1705   7.2423
  7.2872   7.3053   7.3197   7.3557   7.6309   7.6688   7.7320   7.7836
 24.2194  24.7443  24.7989  24.8136  24.9969  25.0641  25.4712  50.5897
 50.5984
 
 Beta MOs
 -- Occupied --
-19.3375 -19.3111 -10.3955 -10.3860 -10.3536 -10.3512 -10.3491 -10.3452
-10.3429  -1.1516  -1.0926  -0.9807  -0.8931  -0.8708  -0.7995  -0.7337
 -0.7022  -0.6379  -0.6135  -0.5819  -0.5713  -0.5646  -0.5370  -0.5231
 -0.5200  -0.4678  -0.4520  -0.4423  -0.4339  -0.4143  -0.4028  -0.3874
 -0.3221
 -- Virtual --
 -0.0372   0.0227   0.0347   0.0376   0.0461   0.0549   0.0565   0.0628
  0.0766   0.0837   0.0888   0.0918   0.1046   0.1132   0.1218   0.1382
  0.1406   0.1473   0.1500   0.1548   0.1580   0.1603   0.1640   0.1697
  0.1784   0.1801   0.1850   0.1927   0.2008   0.2016   0.2152   0.2167
  0.2214   0.2279   0.2358   0.2455   0.2497   0.2633   0.2656   0.2735
  0.2843   0.2918   0.2986   0.3062   0.3160   0.3261   0.3310   0.3358
  0.3450   0.3486   0.3514   0.3564   0.3663   0.3687   0.3788   0.4001
  0.4134   0.4204   0.4255   0.4377   0.4437   0.4503   0.4793   0.5330
  0.5413   0.5450   0.5844   0.5924   0.5991   0.6075   0.6097   0.6169
  0.6208   0.6279   0.6334   0.6404   0.6500   0.6581   0.6744   0.6851
  0.6964   0.7033   0.7111   0.7162   0.7234   0.7262   0.7368   0.7457
  0.7527   0.7601   0.7668   0.7800   0.7952   0.8126   0.8292   0.8365
  0.8509   0.8531   0.8687   0.8830   0.8840   0.8965   0.9101   0.9275
  0.9305   0.9480   0.9670   1.0118   1.0184   1.0377   1.0513   1.0752
  1.0859   1.0930   1.0988   1.1395   1.1505   1.1598   1.1667   1.1782
  1.1869   1.1968   1.2256   1.2392   1.2465   1.2575   1.2715   1.2753
  1.2911   1.2960   1.3023   1.3130   1.3364   1.3630   1.3713   1.3822
  1.3897   1.4072   1.4236   1.4243   1.4363   1.4421   1.4517   1.4639
  1.4685   1.4879   1.5008   1.5127   1.5411   1.5465   1.5615   1.5632
  1.5778   1.5928   1.6085   1.6193   1.6680   1.6743   1.7279   1.7535
  1.7897   1.8072   1.8276   1.8395   1.8650   1.8673   1.8959   1.9337
  1.9505   1.9647   1.9940   2.0555   2.0810   2.1079   2.1152   2.1573
  2.1645   2.2058   2.2341   2.3410   2.3636   2.4024   2.6012   2.6046
  2.6423   2.6482   2.6653   2.6802   2.7094   2.7404   2.7865   2.7968
  2.8085   2.8299   2.8523   2.8551   2.8694   2.8868   2.9033   2.9168
  2.9325   2.9397   2.9507   2.9677   2.9818   3.0057   3.0126   3.0370
  3.0448   3.0555   3.0808   3.1117   3.1237   3.1518   3.1732   3.1805
  3.2082   3.2197   3.2293   3.2488   3.2680   3.2724   3.2912   3.3121
  3.3290   3.3427   3.3504   3.3677   3.3727   3.4037   3.4170   3.4202
  3.4323   3.4758   3.4843   3.5024   3.5041   3.5170   3.5332   3.5506
  3.5686   3.5972   3.6084   3.6297   3.6429   3.6501   3.6733   3.6948
  3.7011   3.7293   3.7379   3.7749   3.7816   3.7852   3.8026   3.8256
  3.8290   3.8603   3.8741   3.9013   3.9218   3.9442   3.9582   3.9723
  3.9953   4.0057   4.0205   4.0380   4.0504   4.1006   4.1167   4.1340
  4.1477   4.1817   4.2036   4.2076   4.2387   4.2719   4.2847   4.2954
  4.3200   4.3259   4.3400   4.3775   4.3849   4.3940   4.4198   4.4430
  4.4607   4.4816   4.4995   4.5084   4.5403   4.5460   4.5662   4.5909
  4.5979   4.6208   4.6361   4.6770   4.7351   4.7494   4.7843   4.8521
  4.8782   4.9588   5.0375   5.1200   5.1515   5.1664   5.1954   5.2529
  5.2651   5.2813   5.2927   5.3223   5.3254   5.3496   5.3839   5.4375
  5.4590   5.4856   5.5015   5.5100   5.5339   5.5942   5.6816   5.7126
  5.7232   5.7335   5.7764   5.8416   5.8617   5.8802   5.9040   5.9146
  5.9585   6.0189   6.1892   6.5689   6.5948   7.1014   7.1028   7.1956
  7.2653   7.3057   7.3116   7.3237   7.3585   7.6323   7.7001   7.7525
  7.7866  24.2205  24.7461  24.7989  24.8149  24.9994  25.0660  25.4740
 50.5905  50.6057
 --------------------------------------------------------------
 
          Ground-State Mulliken Net Atomic Charges

     Atom                 Charge (a.u.)    Spin (a.u.)
  --------------------------------------------------------
      1 C                    -0.129460      -0.169635
      2 C                    -0.338867       0.352511
      3 C                    -0.189188      -0.016537
      4 C                    -0.395504       0.370921
      5 C                    -0.419108      -0.147912
      6 C                     0.383796       0.342449
      7 C                    -0.518152       0.004346
      8 H                     0.261714       0.002977
      9 H                     0.309190      -0.007313
     10 H                     0.300577       0.015717
     11 H                     0.307651      -0.007257
     12 H                     0.273659       0.004453
     13 H                     0.198755       0.001149
     14 O                    -0.401612       0.016622
     15 H                     0.207937       0.005433
     16 H                     0.333713      -0.000927
     17 O                    -0.509711       0.211470
     18 H                     0.324610       0.021535
  --------------------------------------------------------
  Sum of atomic charges =    -0.000000
  Sum of spin   charges =     1.000000

 -----------------------------------------------------------------
                    Cartesian Multipole Moments
 -----------------------------------------------------------------
    Charge (ESU x 10^10)
                 0.0000
    Dipole Moment (Debye)
         X      -3.2651      Y      -0.8232      Z       1.5078
       Tot       3.6895
    Quadrupole Moments (Debye-Ang)
        XX     -51.9123     XY       1.1599     YY     -51.4116
        XZ       2.1001     YZ      -5.5043     ZZ     -42.9994
    Octopole Moments (Debye-Ang^2)
       XXX     158.9161    XXY      15.4104    XYY      42.7960
       YYY      81.1903    XXZ      -5.1172    XYZ      13.1750
       YYZ      26.5515    XZZ      45.4369    YZZ      15.1595
       ZZZ     -13.1215
    Hexadecapole Moments (Debye-Ang^3)
      XXXX    -672.9708   XXXY    -170.3857   XXYY    -224.6443
      XYYY    -211.0482   YYYY    -802.2407   XXXZ      61.2346
      XXYZ      47.8544   XYYZ       6.5490   YYYZ      97.0301
      XXZZ    -180.1345   XYZZ     -59.2382   YYZZ    -203.6515
      XZZZ      48.3737   YZZZ     143.9127   ZZZZ    -424.3786
 -----------------------------------------------------------------
 Calculating analytic gradient of the SCF energy
 Gradient of CDS energy
            1           2           3           4           5           6
    1   0.0002452   0.0000342  -0.0000998  -0.0002351  -0.0001678   0.0002554
    2   0.0002646  -0.0001167  -0.0001334  -0.0003009   0.0001453  -0.0001524
    3   0.0000647   0.0003651   0.0000330  -0.0000718  -0.0002050  -0.0001290
            7           8           9          10          11          12
    1  -0.0002743   0.0000680   0.0000689  -0.0001060  -0.0001335  -0.0000617
    2   0.0011138   0.0001615  -0.0000348  -0.0001788  -0.0001347   0.0000746
    3  -0.0002383   0.0000551   0.0001932   0.0001952  -0.0000807  -0.0001643
           13          14          15          16          17          18
    1  -0.0000843  -0.0001068   0.0001876   0.0003234  -0.0001973   0.0002839
    2  -0.0002429  -0.0001158  -0.0000632  -0.0001718   0.0002855  -0.0003998
    3  -0.0001310   0.0002158   0.0002358  -0.0003820   0.0000309   0.0000132
 Gradient of SCF Energy
            1           2           3           4           5           6
    1   0.0255472  -0.0382838  -0.0075200   0.0436520   0.0220627  -0.0207205
    2   0.0103875  -0.0789230   0.0888034  -0.0382999   0.0236743  -0.0079889
    3  -0.0225091  -0.0154487  -0.0285253   0.0441775   0.0028094  -0.0095283
            7           8           9          10          11          12
    1   0.0049318  -0.0092046   0.0032792  -0.0105075  -0.0049851  -0.0024525
    2  -0.0014459   0.0051690  -0.0005031  -0.0247808  -0.0018626   0.0031942
    3   0.0009893   0.0035479   0.0063629   0.0337225  -0.0024128  -0.0055510
           13          14          15          16          17          18
    1  -0.0036246   0.0088125  -0.0021616  -0.0052624  -0.0142880   0.0107253
    2   0.0000968   0.0060410   0.0019154  -0.0054511   0.0298046  -0.0098307
    3  -0.0042036   0.0073225   0.0023501  -0.0082075  -0.0002605  -0.0046353
 Max gradient component =       8.880E-02
 RMS gradient           =       2.307E-02
 Computing fast CPCM-SWIG gradient
 Updating gradient with PCM contributions...
 -- total gradient after adding PCM contribution --
---------------------------------------------------
  Atom         X              Y              Z     
---------------------------------------------------
   1       0.028947       0.013603      -0.019376
   2      -0.037371      -0.084766      -0.009723
   3      -0.008794       0.083129      -0.024528
   4       0.042863      -0.042506       0.044427
   5       0.017370       0.027131      -0.003747
   6      -0.018913      -0.008454      -0.012472
   7      -0.000281       0.001888      -0.000432
   8      -0.009530       0.003601       0.002347
   9       0.001977       0.000854      -0.000183
  10      -0.007256      -0.019282       0.026773
  11      -0.001085       0.000442      -0.001296
  12      -0.000314       0.001541       0.000408
  13       0.000404      -0.000458       0.000267
  14       0.001080      -0.000433       0.000473
  15      -0.000123      -0.000170      -0.000065
  16      -0.000069      -0.000067      -0.001072
  17      -0.019021       0.028945       0.009666
  18       0.010115      -0.004999      -0.011466
---------------------------------------------------
 Number of fixed atoms: 0
 Gradient time:  CPU 327.56 s  wall 15.69 s
 ----------------------------------------------------------------
             Standard Nuclear Orientation (Angstroms)
    I     Atom           X                Y                Z
 ----------------------------------------------------------------
    1      C      -0.5326998000     0.0035343000     1.0230089000
    2      C      -0.9680984000    -1.1061387000     1.7802259000
    3      C      -1.8563514000    -2.0070855000     1.2371255000
    4      C      -2.3613366000    -1.7976328000    -0.0475639000
    5      C      -1.9848859000    -0.6759702000    -0.7817256000
    6      C      -1.0941961000     0.2408942000    -0.2544840000
    7      C      -0.6553643000     1.4407344000    -1.0471338000
    8      H       0.0088052000     0.7990370000     1.5126621000
    9      H      -0.5776117000    -1.2486966000     2.7783293000
   10      H      -2.3448522000    -2.7134772000     1.9865995000
   11      H      -3.0620138000    -2.5040953000    -0.4709462000
   12      H      -2.4004170000    -0.5102611000    -1.7676879000
   13      H      -1.3991399000     1.6865072000    -1.8048774000
   14      O       0.6226437000     1.2217846000    -1.6668667000
   15      H      -0.5244144000     2.3000985000    -0.3928305000
   16      H       0.5012626000     0.5717335000    -2.3685593000
   17      O      -0.6213685000    -2.9233212000     0.5144905000
   18      H      -0.1974429000    -3.6602177000     0.9874352000
 ----------------------------------------------------------------
 Nuclear Repulsion Energy =         438.42624961 hartrees
 There are       34 alpha and       33 beta electrons
 Discretize the solute cavity surface with Lebedev spheres
	Using 110 Lebedev grid points for each H atom
	Using 194 Lebedev grid points for other atoms
	Atomic van der Waals radii will be scaled by 1.20
 Remove points where switching function is < 1.0e-08
 Keep 1303 surface tesserae and discard 1433 interior tesserae
 Molecular Surface Area = 155.425 Angst**2
 Requested basis set is 6-311++G(2df,2p)
 There are 126 shells and 396 basis functions
 A cutoff of  1.0D-11 yielded   7090 shell pairs
 There are     70703 function pairs (     87603 Cartesian)
 Smallest overlap matrix eigenvalue = 8.83E-07

 Q-Chem warning in module stvman/mkSTV.C, line 323:

 Overlap eigenvalue is smaller than square root of threshold
 Use THRESH >= 12 to get rid of this warning

 Linear dependence detected in AO basis
 Tighter screening thresholds may be required for diffuse basis sets
 Use S2THRESH > 14 and THRESH = 14 in case of SCF convergence issues
 Number of orthogonalized atomic orbitals = 395
 Maximum deviation from orthogonality = 6.398E-11
 Guess MOs from SCF MO coefficient file

 -----------------------------------------------------------------------
  General SCF calculation program by
  Eric Jon Sundstrom, Paul Horn, Yuezhi Mao, Dmitri Zuev, Alec White,
  David Stuck, Shaama M.S., Shane Yost, Joonho Lee, David Small,
  Daniel Levine, Susi Lehtola, Hugh Burton, Evgeny Epifanovsky,
  Bang C. Huynh
 -----------------------------------------------------------------------
 Exchange:     0.1500 Hartree-Fock + 1.0000 wB97M-V + LR-HF
 Correlation:  1.0000 wB97M-V
 Using SG-2 standard quadrature grid
 Nonlocal Correlation:  VV10 with C = 0.0100 and b = 6.00 and scale = 1.00000
 Grid used for NLC:  SG-1 standard quadrature
 
 Citation of the SMD model:
 Marenich, A.V.; Cramer, C.J.; Truhlar, D.G.
 J. Phys. Chem. B 2009, 113, 6378-6396.
 iSolventCode=           1
 Solvent: water                                                           
 
 vradii
            1           2           3           4           5           6
    1   1.8500000   1.8500000   1.8500000   1.8500000   1.8500000   1.8500000
            7           8           9          10          11          12
    1   1.8500000   1.2000000   1.2000000   1.2000000   1.2000000   1.2000000
           13          14          15          16          17          18
    1   1.2000000   1.5200000   1.2000000   1.2000000   1.5200000   1.2000000
 -------------------------------------------------------
 OpenMP BLAS3 based DFT computing Module                
 Release: version 1.0, May 2013, Q-Chem Inc. Pittsburgh 
 -------------------------------------------------------
 A unrestricted SCF calculation will be
 performed using Roothaan-Hall, DIIS, GDM
 SCF converges when RMS gradient is below 1.0e-06
 ---------------------------------------
  Cycle       Energy         DIIS error
 ---------------------------------------
    1    -422.4448289838      2.19e-04  Roothaan Step
 ---------------------------------------
  Cycle       Energy         DIIS error
 ---------------------------------------
    1    -422.4706409881      2.59e-04  
    2    -422.4751157895      2.38e-04  Done DIIS. Switching to GDM
 ---------------------------------------
  Cycle       Energy        RMS Gradient
 ---------------------------------------
    1    -422.4751157895      1.03e-02   Normal BFGS step
    2    -422.4744172492      1.88e-02  Line search: overstep
    3    -422.4781423676      2.81e-03   Normal BFGS step
    4    -422.4782934290      1.17e-03   Normal BFGS step
    5    -422.4783432538      6.22e-04   Normal BFGS step
    6    -422.4783462331      3.07e-04   Normal BFGS step
    7    -422.4783476718      2.05e-04   Normal BFGS step
    8    -422.4783479661      1.07e-04   Normal BFGS step
    9    -422.4783480639      2.11e-05   Normal BFGS step
   10    -422.4783480794      2.10e-05   Normal BFGS step
   11    -422.4783480824      1.04e-05   Normal BFGS step
   12    -422.4783480833      7.68e-06   Normal BFGS step
   13    -422.4783480837      5.33e-06   Normal BFGS step
   14    -422.4783480837      2.58e-06   Normal BFGS step
   15    -422.4783480834      1.50e-06   Normal BFGS step
   16    -422.4783480834      6.03e-07  Convergence criterion met
 ---------------------------------------
 SCF time:   CPU 2329.02s  wall 88.00s 
<S^2> =          0.797813437
(3)  G-ENP(liq) elect-nuc-pol free energy of system     -422.478348083 a.u.
(4)  G-CDS(liq) cavity-dispersion-solvent structure 
     free energy                                                3.6766 kcal/mol
(6)  G-S(liq) free energy of system                     -422.472489065 a.u.
 SCF   energy in the final basis set =     -422.4724890649
 Total energy in the final basis set =     -422.4724890649
 
 --------------------------------------------------------------
 
                    Orbital Energies (a.u.)
 --------------------------------------------------------------
 
 Alpha MOs
 -- Occupied --
-19.3383 -19.3200 -10.3950 -10.3856 -10.3590 -10.3565 -10.3542 -10.3426
-10.3406  -1.1533  -1.1099  -0.9879  -0.9016  -0.8758  -0.8005  -0.7378
 -0.7091  -0.6413  -0.6168  -0.5984  -0.5749  -0.5701  -0.5417  -0.5283
 -0.5225  -0.4715  -0.4660  -0.4474  -0.4375  -0.4357  -0.4188  -0.3914
 -0.3332  -0.2799
 -- Virtual --
  0.0233   0.0348   0.0377   0.0462   0.0539   0.0549   0.0600   0.0619
  0.0832   0.0851   0.0901   0.0977   0.1129   0.1219   0.1383   0.1401
  0.1457   0.1496   0.1552   0.1583   0.1602   0.1638   0.1672   0.1785
  0.1787   0.1845   0.1896   0.2003   0.2021   0.2153   0.2168   0.2220
  0.2275   0.2371   0.2427   0.2486   0.2607   0.2642   0.2735   0.2850
  0.2916   0.2970   0.3042   0.3155   0.3256   0.3299   0.3346   0.3437
  0.3478   0.3501   0.3559   0.3636   0.3675   0.3764   0.3995   0.4122
  0.4187   0.4239   0.4349   0.4422   0.4481   0.4784   0.5324   0.5399
  0.5415   0.5819   0.5893   0.5968   0.6055   0.6058   0.6132   0.6182
  0.6259   0.6316   0.6385   0.6462   0.6554   0.6701   0.6797   0.6947
  0.7020   0.7083   0.7144   0.7207   0.7249   0.7349   0.7434   0.7502
  0.7579   0.7639   0.7781   0.7934   0.8103   0.8243   0.8341   0.8469
  0.8485   0.8659   0.8783   0.8816   0.8954   0.9063   0.9242   0.9282
  0.9443   0.9646   1.0095   1.0156   1.0365   1.0486   1.0731   1.0849
  1.0915   1.0961   1.1373   1.1491   1.1580   1.1647   1.1759   1.1853
  1.1942   1.2238   1.2359   1.2450   1.2563   1.2679   1.2720   1.2880
  1.2940   1.2999   1.3107   1.3344   1.3603   1.3692   1.3792   1.3856
  1.4043   1.4206   1.4216   1.4318   1.4394   1.4484   1.4608   1.4651
  1.4831   1.4963   1.5082   1.5408   1.5452   1.5576   1.5595   1.5753
  1.5913   1.6068   1.6179   1.6652   1.6715   1.7241   1.7488   1.7825
  1.8060   1.8221   1.8339   1.8581   1.8606   1.8927   1.9294   1.9450
  1.9585   1.9906   2.0519   2.0755   2.1042   2.1096   2.1511   2.1578
  2.2045   2.2295   2.3397   2.3631   2.3977   2.5961   2.5982   2.6382
  2.6441   2.6573   2.6736   2.7028   2.7363   2.7783   2.7883   2.8035
  2.8215   2.8362   2.8504   2.8617   2.8789   2.8933   2.9120   2.9269
  2.9358   2.9411   2.9517   2.9745   2.9970   3.0010   3.0234   3.0268
  3.0457   3.0733   3.1014   3.1121   3.1448   3.1700   3.1751   3.2023
  3.2129   3.2217   3.2432   3.2601   3.2654   3.2847   3.3079   3.3240
  3.3329   3.3417   3.3608   3.3680   3.3979   3.4102   3.4168   3.4266
  3.4700   3.4737   3.4926   3.4964   3.5099   3.5302   3.5448   3.5621
  3.5872   3.6017   3.6221   3.6335   3.6477   3.6651   3.6895   3.6945
  3.7227   3.7353   3.7676   3.7751   3.7804   3.7934   3.8185   3.8262
  3.8527   3.8685   3.8950   3.9145   3.9370   3.9496   3.9620   3.9878
  3.9970   4.0176   4.0293   4.0455   4.0928   4.1098   4.1303   4.1432
  4.1760   4.1991   4.2046   4.2316   4.2667   4.2787   4.2919   4.3145
  4.3206   4.3327   4.3713   4.3811   4.3875   4.4140   4.4380   4.4554
  4.4768   4.4889   4.5012   4.5317   4.5342   4.5558   4.5822   4.5892
  4.6117   4.6262   4.6674   4.7238   4.7435   4.7788   4.8406   4.8685
  4.9532   5.0267   5.1107   5.1379   5.1508   5.1848   5.2439   5.2522
  5.2698   5.2893   5.3187   5.3215   5.3374   5.3758   5.4214   5.4529
  5.4737   5.4869   5.4994   5.5286   5.5918   5.6805   5.7047   5.7187
  5.7284   5.7666   5.8246   5.8601   5.8654   5.8957   5.9083   5.9423
  6.0170   6.1783   6.5614   6.5903   7.0812   7.1011   7.1705   7.2422
  7.2871   7.3053   7.3197   7.3557   7.6309   7.6687   7.7320   7.7836
 24.2200  24.7436  24.7988  24.8137  24.9964  25.0633  25.4703  50.5897
 50.5984
 
 Beta MOs
 -- Occupied --
-19.3375 -19.3111 -10.3955 -10.3860 -10.3536 -10.3512 -10.3492 -10.3452
-10.3429  -1.1516  -1.0926  -0.9806  -0.8931  -0.8707  -0.7994  -0.7338
 -0.7021  -0.6379  -0.6135  -0.5819  -0.5713  -0.5646  -0.5370  -0.5232
 -0.5199  -0.4678  -0.4520  -0.4423  -0.4339  -0.4143  -0.4028  -0.3874
 -0.3220
 -- Virtual --
 -0.0372   0.0227   0.0347   0.0376   0.0461   0.0549   0.0565   0.0628
  0.0765   0.0837   0.0888   0.0918   0.1046   0.1132   0.1218   0.1382
  0.1406   0.1473   0.1500   0.1548   0.1580   0.1603   0.1640   0.1697
  0.1784   0.1801   0.1850   0.1927   0.2008   0.2016   0.2152   0.2167
  0.2214   0.2279   0.2358   0.2455   0.2496   0.2633   0.2656   0.2735
  0.2843   0.2917   0.2986   0.3062   0.3160   0.3261   0.3310   0.3358
  0.3450   0.3486   0.3514   0.3564   0.3663   0.3687   0.3788   0.4001
  0.4133   0.4203   0.4254   0.4377   0.4437   0.4503   0.4793   0.5330
  0.5412   0.5450   0.5843   0.5924   0.5991   0.6075   0.6096   0.6169
  0.6208   0.6280   0.6333   0.6403   0.6500   0.6581   0.6744   0.6851
  0.6964   0.7033   0.7111   0.7162   0.7234   0.7261   0.7369   0.7457
  0.7527   0.7600   0.7668   0.7799   0.7952   0.8125   0.8292   0.8365
  0.8509   0.8531   0.8686   0.8829   0.8840   0.8964   0.9101   0.9275
  0.9304   0.9480   0.9670   1.0118   1.0184   1.0377   1.0512   1.0751
  1.0859   1.0930   1.0988   1.1394   1.1505   1.1598   1.1667   1.1781
  1.1869   1.1969   1.2256   1.2392   1.2465   1.2575   1.2714   1.2753
  1.2911   1.2960   1.3023   1.3130   1.3364   1.3629   1.3713   1.3820
  1.3897   1.4071   1.4236   1.4242   1.4362   1.4421   1.4517   1.4638
  1.4685   1.4878   1.5008   1.5127   1.5412   1.5465   1.5615   1.5632
  1.5778   1.5927   1.6087   1.6194   1.6679   1.6743   1.7277   1.7535
  1.7898   1.8070   1.8277   1.8393   1.8649   1.8673   1.8957   1.9336
  1.9504   1.9647   1.9939   2.0553   2.0809   2.1079   2.1151   2.1572
  2.1644   2.2059   2.2335   2.3409   2.3636   2.4024   2.6011   2.6047
  2.6422   2.6479   2.6652   2.6802   2.7095   2.7404   2.7864   2.7968
  2.8084   2.8299   2.8522   2.8551   2.8695   2.8868   2.9034   2.9169
  2.9327   2.9399   2.9507   2.9677   2.9817   3.0058   3.0126   3.0371
  3.0448   3.0553   3.0807   3.1115   3.1237   3.1517   3.1730   3.1805
[...]
 -----------------------------------------------------------------
    Charge (ESU x 10^10)
                 0.0000
    Dipole Moment (Debye)
         X      -2.3631      Y       1.8732      Z       1.3064
       Tot       3.2863
    Quadrupole Moments (Debye-Ang)
        XX     -50.6785     XY      -2.4431     YY     -67.2841
        XZ       4.2047     YZ      -3.9616     ZZ     -43.3742
    Octopole Moments (Debye-Ang^2)
       XXX     157.9453    XXY      17.8303    XYY      55.8465
       YYY     162.3873    XXZ      -9.8776    XYZ       6.9466
       YYZ      17.2754    XZZ      50.9611    YZZ      17.7390
       ZZZ      -9.9952
    Hexadecapole Moments (Debye-Ang^3)
      XXXX    -702.3665   XXXY    -164.9464   XXYY    -252.4162
      XYYY    -260.1763   YYYY   -1233.1979   XXXZ      67.8743
      XXYZ      54.8878   XYYZ      23.2359   YYYZ     143.0767
      XXZZ    -185.5730   XYZZ     -68.7425   YYZZ    -218.7585
      XZZZ      49.1482   YZZZ     145.9086   ZZZZ    -408.9939
 -----------------------------------------------------------------
 Calculating analytic gradient of the SCF energy
 Gradient of CDS energy
            1           2           3           4           5           6
    1   0.0001597  -0.0000160  -0.0001271  -0.0002867  -0.0001515   0.0002232
    2   0.0002379  -0.0000119  -0.0001690  -0.0002727   0.0001403  -0.0000672
    3   0.0000738   0.0003327   0.0001640  -0.0000743  -0.0002289  -0.0000768
            7           8           9          10          11          12
    1  -0.0002684   0.0001218   0.0000736  -0.0000272  -0.0001432  -0.0000493
    2   0.0010574   0.0001440  -0.0000286  -0.0002004  -0.0001272   0.0000872
    3  -0.0004376   0.0000288   0.0001816   0.0000909  -0.0000750  -0.0001666
           13          14          15          16          17          18
    1  -0.0001099  -0.0001117   0.0001715   0.0003722  -0.0002175   0.0003867
    2  -0.0002221  -0.0000872  -0.0000409  -0.0002304   0.0000763  -0.0002855
    3  -0.0000679   0.0002522   0.0002660  -0.0003062  -0.0000949   0.0001381
 Gradient of SCF Energy
            1           2           3           4           5           6
    1  -0.0037910  -0.0037857   0.0009158   0.0020724   0.0038277  -0.0010802
    2   0.0008325   0.0025233  -0.0005587   0.0024625  -0.0058927   0.0037508
    3  -0.0040819  -0.0073694  -0.0057355   0.0038956   0.0071361   0.0002974
            7           8           9          10          11          12
    1   0.0073956   0.0033009   0.0037969  -0.0026416  -0.0042358  -0.0034904
    2  -0.0074515   0.0036774  -0.0020894  -0.0021396  -0.0020199   0.0023775
    3   0.0021679   0.0029276   0.0089690   0.0048198  -0.0016689  -0.0082490
           13          14          15          16          17          18
    1  -0.0051150   0.0055187  -0.0023088  -0.0034500  -0.0002174   0.0032879
    2   0.0005191   0.0094630   0.0042507  -0.0077636  -0.0034108   0.0014695
    3  -0.0059304   0.0071227   0.0036627  -0.0072914  -0.0085807   0.0079085
 Max gradient component =       9.463E-03
 RMS gradient           =       4.772E-03
 Computing fast CPCM-SWIG gradient
 Updating gradient with PCM contributions...
 -- total gradient after adding PCM contribution --
---------------------------------------------------
  Atom         X              Y              Z     
---------------------------------------------------
   1       0.000039      -0.000000      -0.000037
   2      -0.000048       0.000008       0.000049
   3       0.000005       0.000064      -0.000046
   4      -0.000007      -0.000036      -0.000016
   5      -0.000005       0.000024      -0.000013
   6      -0.000003       0.000011       0.000030
   7       0.000022      -0.000008      -0.000000
   8      -0.000033       0.000007       0.000028
   9      -0.000019      -0.000011      -0.000001
  10      -0.000026       0.000011       0.000006
  11      -0.000001       0.000006      -0.000029
  12       0.000014       0.000008      -0.000012
  13       0.000026       0.000004       0.000001
  14       0.000023      -0.000006       0.000025
  15       0.000017      -0.000001       0.000006
  16       0.000025       0.000000       0.000011
  17      -0.000036      -0.000058      -0.000015
  18       0.000006      -0.000022       0.000013
---------------------------------------------------
 Number of fixed atoms: 0
 Gradient time:  CPU 350.91 s  wall 16.50 s
 Geometry Optimization Parameters
   NAtoms,    NIC,     NZ,  NCons,   NDum,   NFix, NCnnct, MaxDiis
       18     123       0       0       0       0       0       0

 Cartesian Hessian Update
 Hessian updated using Powell/Murtagh-Sargent update
  Mixing factors:     0.998172 Powell                      0.001828 Murtagh-Sargent


** GEOMETRY OPTIMIZATION IN DELOCALIZED INTERNAL COORDINATES **
   Searching for a Transition State

   Optimization Cycle:  44

                       Coordinates (Angstroms)
     ATOM                X               Y               Z
      1  C        -0.5828554556    0.0079620555    1.0047328224
      2  C        -0.9715256668   -1.0946461671    1.7337512514
      3  C        -1.9009861576   -2.0089829137    1.1929078323
      4  C        -2.5007924987   -1.7212688885   -0.0500854555
      5  C        -2.1026382871   -0.6149735070   -0.7679815329
      6  C        -1.1353558085    0.2539201170   -0.2550974631
      7  C        -0.6690463045    1.4379569720   -1.0573606203
      8  H         0.1458182125    0.6986400714    1.4094684260
      9  H        -0.5568644134   -1.2780887273    2.7156925213
     10  H        -2.3210258708   -2.7776337888    1.8229663574
     11  H        -3.2533927601   -2.3898016079   -0.4440437548
     12  H        -2.5433219524   -0.4051147494   -1.7342941574
     13  H        -1.3539312003    1.6249483970   -1.8853478598
     14  O         0.6639403614    1.2528810526   -1.5450546710
     15  H        -0.6338478206    2.3266910189   -0.4298197470
     16  H         0.6536943155    0.5087240125   -2.1571198136
     17  O        -0.4933327975   -3.4032687968    0.4557014232
     18  H         0.1079827044   -3.3015171503    1.2081860416
   Point Group: c1    Number of degrees of freedom:    48


   Energy is   -422.500471634

 Hessian updated using Powell/Murtagh-Sargent update
  Mixing factors:     0.998307 Powell                      0.001693 Murtagh-Sargent

 48 Hessian modes will be used to form the next step
  Hessian Eigenvalues:
    -0.037279    0.000493    0.000821    0.003439    0.009030    0.013215
     0.014592    0.018657    0.019703    0.023576    0.024720    0.029091
     0.046122    0.057080    0.063237    0.071764    0.089469    0.099321
     0.101908    0.105347    0.105974    0.111684    0.121545    0.122673
     0.130106    0.148027    0.168006    0.174224    0.189423    0.196683
     0.211845    0.233505    0.258769    0.301966    0.330777    0.339708
     0.356667    0.360173    0.362741    0.363950    0.368068    0.378676
     0.398492    0.437437    0.474029    0.491936    0.523825    0.525465

 Transition state search - taking P-RFO step
 Searching for Lamda that Maximizes Along the Lowest mode
 Value Taken    Lamda =   0.00000002
 Searching for Lamda that Minimizes Along All other modes
 Value Taken    Lamda =  -0.00000031
 Step Taken.  Stepsize is  0.011093

                             Maximum     Tolerance    Cnvgd?
         Gradient           0.000081      0.000300     YES
         Displacement       0.003862      0.001200      NO
         Energy change     -0.000001      0.000001     YES

 Final energy is   -422.500471633735     


 ******************************
 **  OPTIMIZATION CONVERGED  **
 ******************************

                       Coordinates (Angstroms)
     ATOM                X               Y               Z
      1  C        -0.5828554556    0.0079620555    1.0047328224
      2  C        -0.9715256668   -1.0946461671    1.7337512514
      3  C        -1.9009861576   -2.0089829137    1.1929078323
      4  C        -2.5007924987   -1.7212688885   -0.0500854555
      5  C        -2.1026382871   -0.6149735070   -0.7679815329
      6  C        -1.1353558085    0.2539201170   -0.2550974631
      7  C        -0.6690463045    1.4379569720   -1.0573606203
      8  H         0.1458182125    0.6986400714    1.4094684260
      9  H        -0.5568644134   -1.2780887273    2.7156925213
     10  H        -2.3210258708   -2.7776337888    1.8229663574
     11  H        -3.2533927601   -2.3898016079   -0.4440437548
     12  H        -2.5433219524   -0.4051147494   -1.7342941574
     13  H        -1.3539312003    1.6249483970   -1.8853478598
     14  O         0.6639403614    1.2528810526   -1.5450546710
     15  H        -0.6338478206    2.3266910189   -0.4298197470
     16  H         0.6536943155    0.5087240125   -2.1571198136
     17  O        -0.4933327975   -3.4032687968    0.4557014232
     18  H         0.1079827044   -3.3015171503    1.2081860416

Z-matrix Print:
$molecule
0 2
C 
C  1 1.397471
H  2 1.082503 1 119.399579
C  2 1.377780 1 120.419789 3 179.264534 0
H  4 1.081575 2 120.528239 1 -179.011163 0
C  1 1.397734 2 119.669055 3 -178.318352 0
H  6 1.082591 1 119.256849 2 178.553334 0
C  6 1.377603 1 120.531293 2 -0.943286 0
H  8 1.080993 6 120.527180 1 179.612579 0
C  8 1.409815 6 120.025146 1 -2.063921 0
H  10 1.078995 8 119.642938 6 170.151649 0
C  1 1.504332 2 119.785378 3 2.662091 0
H  12 1.088529 1 110.193501 2 -46.539938 0
H  12 1.090686 1 110.190728 2 -166.291673 0
O  12 1.431416 1 111.629048 2 70.683105 0
H  15 0.963586 12 107.840356 1 64.186478 0
O  10 2.114000 8 96.340344 6 -96.688108 0
H  17 0.968590 10 94.196463 8 158.080724 0
$end

 
 --------------------------------------------------------------
 
                    Orbital Energies (a.u.)
 --------------------------------------------------------------
 
 Alpha MOs
 -- Occupied --
-19.3432 -19.3397 -10.3877 -10.3730 -10.3656 -10.3582 -10.3570 -10.3484
-10.3480  -1.1562  -1.0971  -0.9960  -0.8988  -0.8816  -0.8012  -0.7316
 -0.7130  -0.6413  -0.6122  -0.5806  -0.5664  -0.5524  -0.5472  -0.5334
 -0.5269  -0.5105  -0.4768  -0.4496  -0.4437  -0.4342  -0.4164  -0.3945
 -0.3592  -0.3222
 -- Virtual --
  0.0232   0.0344   0.0371   0.0449   0.0519   0.0546   0.0581   0.0596
  0.0659   0.0838   0.0869   0.0958   0.1108   0.1258   0.1393   0.1434
  0.1470   0.1498   0.1531   0.1589   0.1616   0.1628   0.1680   0.1772
  0.1782   0.1814   0.1826   0.1986   0.2054   0.2137   0.2166   0.2207
  0.2283   0.2373   0.2480   0.2485   0.2597   0.2624   0.2724   0.2829
  0.2909   0.2954   0.3042   0.3155   0.3210   0.3296   0.3361   0.3382
  0.3450   0.3526   0.3552   0.3633   0.3684   0.3817   0.3860   0.4011
  0.4134   0.4235   0.4297   0.4396   0.4491   0.4726   0.5335   0.5404
  0.5476   0.5789   0.5830   0.5936   0.5974   0.6017   0.6137   0.6163
  0.6257   0.6307   0.6375   0.6441   0.6571   0.6727   0.6794   0.6867
  0.7005   0.7049   0.7138   0.7197   0.7306   0.7338   0.7446   0.7487
  0.7547   0.7625   0.7693   0.7723   0.8034   0.8151   0.8322   0.8372
  0.8389   0.8508   0.8716   0.8815   0.8878   0.8970   0.9027   0.9121
  0.9502   0.9554   0.9891   1.0010   1.0288   1.0412   1.0417   1.0751
  1.0834   1.0949   1.1242   1.1356   1.1451   1.1649   1.1688   1.1821
  1.1944   1.2040   1.2211   1.2238   1.2508   1.2627   1.2667   1.2816
  1.2860   1.2999   1.3020   1.3207   1.3460   1.3520   1.3732   1.3903
  1.3943   1.4122   1.4245   1.4328   1.4483   1.4501   1.4527   1.4599
  1.4758   1.4946   1.5052   1.5358   1.5405   1.5477   1.5647   1.5772
  1.5853   1.6017   1.6302   1.6507   1.6782   1.7106   1.7326   1.7511
  1.7911   1.8039   1.8134   1.8538   1.8684   1.8745   1.8999   1.9335
  1.9679   1.9923   2.0369   2.0574   2.0945   2.0967   2.1216   2.1276
  2.1844   2.2442   2.3469   2.3567   2.3726   2.5677   2.6178   2.6369
  2.6471   2.6521   2.6797   2.7347   2.7589   2.7739   2.7942   2.7985
  2.8159   2.8312   2.8517   2.8567   2.8640   2.8756   2.8984   2.9182
  2.9275   2.9343   2.9514   2.9563   2.9658   2.9770   3.0000   3.0081
  3.0488   3.0704   3.0887   3.1027   3.1421   3.1641   3.1698   3.1803
  3.1963   3.2189   3.2199   3.2404   3.2430   3.2595   3.2774   3.3101
  3.3107   3.3233   3.3445   3.3592   3.3673   3.4009   3.4064   3.4129
  3.4236   3.4467   3.4675   3.4763   3.4931   3.5071   3.5316   3.5517
  3.5604   3.5683   3.5721   3.6131   3.6292   3.6402   3.6484   3.6923
  3.7170   3.7449   3.7654   3.7755   3.7964   3.7969   3.8129   3.8367
  3.8387   3.8617   3.8875   3.8938   3.9101   3.9161   3.9382   3.9580
  3.9688   3.9832   4.0079   4.0282   4.0801   4.1088   4.1274   4.1463
  4.1763   4.1776   4.1999   4.2073   4.2457   4.2817   4.2905   4.3011
  4.3178   4.3458   4.3553   4.3791   4.3948   4.4143   4.4386   4.4572
  4.4713   4.4908   4.5202   4.5332   4.5486   4.5621   4.5851   4.6011
  4.6149   4.6232   4.6853   4.7262   4.7746   4.7924   4.8468   4.8688
  4.9698   5.0369   5.1069   5.1212   5.1397   5.1741   5.1870   5.2019
  5.2311   5.2420   5.2467   5.2818   5.2849   5.3123   5.3150   5.3216
  5.4134   5.4201   5.4553   5.4881   5.5511   5.5997   5.6660   5.6764
  5.6816   5.7123   5.7488   5.8013   5.8544   5.8851   5.9153   5.9312
  6.0288   6.2307   6.5823   6.6098   6.9829   7.0385   7.0978   7.1000
  7.1507   7.2990   7.3062   7.3192   7.3616   7.5742   7.6393   7.7787
 24.1947  24.7527  24.7992  24.8162  24.9875  25.0773  25.4893  50.4973
 50.5906
 
 Beta MOs
 -- Occupied --
-19.3393 -19.3255 -10.3879 -10.3728 -10.3627 -10.3555 -10.3543 -10.3497
-10.3494  -1.1554  -1.0557  -0.9915  -0.8933  -0.8796  -0.8005  -0.7291
 -0.7100  -0.6398  -0.6112  -0.5776  -0.5633  -0.5442  -0.5352  -0.5309
 -0.5241  -0.4817  -0.4739  -0.4481  -0.4329  -0.3972  -0.3936  -0.3623
 -0.3510
 -- Virtual --
 -0.0638   0.0232   0.0352   0.0374   0.0455   0.0550   0.0559   0.0649
  0.0668   0.0739   0.0840   0.0869   0.0958   0.1110   0.1252   0.1399
  0.1439   0.1487   0.1503   0.1535   0.1590   0.1617   0.1639   0.1698
  0.1779   0.1785   0.1816   0.1836   0.1992   0.2053   0.2142   0.2166
  0.2212   0.2293   0.2379   0.2479   0.2505   0.2619   0.2644   0.2728
  0.2845   0.2928   0.2961   0.3052   0.3174   0.3212   0.3297   0.3377
  0.3388   0.3458   0.3532   0.3560   0.3644   0.3703   0.3835   0.3879
  0.4020   0.4143   0.4242   0.4313   0.4413   0.4503   0.4741   0.5339
  0.5432   0.5486   0.5825   0.5842   0.5945   0.5987   0.6044   0.6156
  0.6190   0.6273   0.6322   0.6406   0.6458   0.6599   0.6766   0.6830
  0.6884   0.7015   0.7065   0.7163   0.7215   0.7312   0.7348   0.7449
  0.7502   0.7564   0.7634   0.7695   0.7733   0.8053   0.8172   0.8331
  0.8386   0.8406   0.8531   0.8736   0.8838   0.8893   0.8980   0.9042
  0.9137   0.9543   0.9590   0.9914   1.0047   1.0302   1.0418   1.0429
  1.0762   1.0853   1.0984   1.1259   1.1370   1.1474   1.1672   1.1707
  1.1889   1.1964   1.2061   1.2241   1.2260   1.2525   1.2650   1.2679
  1.2884   1.2891   1.3009   1.3079   1.3356   1.3485   1.3541   1.3760
  1.3915   1.3955   1.4137   1.4272   1.4361   1.4504   1.4519   1.4548
  1.4628   1.4780   1.4967   1.5084   1.5365   1.5463   1.5493   1.5671
  1.5787   1.5867   1.6028   1.6310   1.6523   1.6852   1.7156   1.7415
  1.7594   1.7990   1.8049   1.8199   1.8634   1.8732   1.8774   1.9053
  1.9400   1.9747   2.0041   2.0531   2.0604   2.0997   2.1057   2.1232
  2.1317   2.1856   2.2467   2.3476   2.3586   2.3771   2.5722   2.6214
  2.6404   2.6512   2.6551   2.6824   2.7384   2.7627   2.7804   2.7968
  2.8013   2.8194   2.8371   2.8568   2.8621   2.8673   2.8795   2.9015
  2.9204   2.9308   2.9411   2.9594   2.9613   2.9704   2.9858   3.0058
  3.0154   3.0565   3.0741   3.0916   3.1052   3.1443   3.1669   3.1757
  3.1829   3.1995   3.2211   3.2240   3.2440   3.2466   3.2632   3.2814
  3.3131   3.3169   3.3264   3.3486   3.3640   3.3713   3.4042   3.4083
  3.4154   3.4271   3.4492   3.4720   3.4794   3.4970   3.5104   3.5347
  3.5544   3.5637   3.5703   3.5786   3.6215   3.6283   3.6432   3.6516
  3.6954   3.7189   3.7483   3.7686   3.7815   3.8005   3.8022   3.8157
  3.8391   3.8428   3.8663   3.8901   3.8996   3.9159   3.9194   3.9439
  3.9614   3.9743   3.9855   4.0115   4.0319   4.0827   4.1125   4.1319
  4.1494   4.1777   4.1804   4.2040   4.2097   4.2481   4.2866   4.2972
  4.3036   4.3209   4.3487   4.3579   4.3824   4.3965   4.4177   4.4412
  4.4612   4.4748   4.4951   4.5261   4.5387   4.5540   4.5686   4.5903
  4.6062   4.6190   4.6272   4.6900   4.7326   4.7780   4.7969   4.8535
  4.8747   4.9721   5.0433   5.1158   5.1408   5.1616   5.2086   5.2137
  5.2237   5.2561   5.2574   5.2784   5.2880   5.3112   5.3239   5.3340
  5.3678   5.4210   5.4516   5.4584   5.4921   5.5544   5.6009   5.6791
  5.6812   5.7128   5.7240   5.7537   5.8087   5.8555   5.8871   5.9196
  5.9335   6.0297   6.2348   6.5855   6.6121   7.0586   7.0701   7.0993
  7.1816   7.2149   7.3068   7.3202   7.3425   7.3631   7.6248   7.6401
  7.7800  24.1953  24.7538  24.7999  24.8164  24.9893  25.0777  25.4907
 50.5101  50.5910
 --------------------------------------------------------------
 
          Ground-State Mulliken Net Atomic Charges

     Atom                 Charge (a.u.)    Spin (a.u.)
  --------------------------------------------------------
      1 C                    -0.042407      -0.086282
      2 C                    -0.302406       0.175852
      3 C                    -0.345343      -0.023942
      4 C                    -0.326492       0.181597
      5 C                    -0.566216      -0.078519
      6 C                     0.484523       0.185834
      7 C                    -0.571062       0.002870
      8 H                     0.277788       0.001671
      9 H                     0.313316      -0.003526
     10 H                     0.357781       0.009744
     11 H                     0.294559      -0.003542
     12 H                     0.274694       0.002064
     13 H                     0.212427       0.000320
     14 O                    -0.395412       0.009101
     15 H                     0.212823       0.004378
     16 H                     0.330607      -0.000786
     17 O                    -0.515317       0.632039
     18 H                     0.306137      -0.008875
  --------------------------------------------------------
  Sum of atomic charges =    -0.000000
  Sum of spin   charges =     1.000000

 -----------------------------------------------------------------
                    Cartesian Multipole Moments
 -----------------------------------------------------------------
    Charge (ESU x 10^10)
                 0.0000
    Dipole Moment (Debye)
         X      -2.3631      Y       1.8732      Z       1.3064
       Tot       3.2863
    Quadrupole Moments (Debye-Ang)
        XX     -50.6785     XY      -2.4431     YY     -67.2841
        XZ       4.2047     YZ      -3.9616     ZZ     -43.3742
    Octopole Moments (Debye-Ang^2)
       XXX     157.9453    XXY      17.8303    XYY      55.8465
       YYY     162.3873    XXZ      -9.8776    XYZ       6.9466
       YYZ      17.2754    XZZ      50.9611    YZZ      17.7390
       ZZZ      -9.9952
    Hexadecapole Moments (Debye-Ang^3)
      XXXX    -702.3665   XXXY    -164.9464   XXYY    -252.4162
      XYYY    -260.1763   YYYY   -1233.1979   XXXZ      67.8743
      XXYZ      54.8878   XYYZ      23.2359   YYYZ     143.0767
      XXZZ    -185.5730   XYZZ     -68.7425   YYZZ    -218.7585
      XZZZ      49.1482   YZZZ     145.9086   ZZZZ    -408.9939
 -----------------------------------------------------------------
 Total job time:  5697.01s(wall), 147060.22s(cpu) 
 Thu Oct 26 03:02:54 2023

        *************************************************************
        *                                                           *
        *  Thank you very much for using Q-Chem.  Have a nice day.  *
        *                                                           *
        *************************************************************


