
Running Job 1 of 2 Q_in.in
qchem Q_in.in_450730.0 /scratch/ari.fischer/qChem2159141.hpc-mn1/qchem450730/ 0
/usr/local/qchem-5.4.1/exe/qcprog.exe_s Q_in.in_450730.0 /scratch/ari.fischer/qChem2159141.hpc-mn1/qchem450730/
                  Welcome to Q-Chem
     A Quantum Leap Into The Future Of Chemistry


 Q-Chem 5.4, Q-Chem, Inc., Pleasanton, CA (2021)

 License issued to: Nanyang Technological University (site)

 E. Epifanovsky,  A. T. B. Gilbert,  Xintian Feng,  Joonho Lee,  Yuezhi Mao,  
 N. Mardirossian,  P. Pokhilko,  A. White,  M. Wormit,  M. P. Coons,  
 A. L. Dempwolff,  Zhengting Gan,  D. Hait,  P. R. Horn,  L. D. Jacobson,  
 I. Kaliman,  J. Kussmann,  A. W. Lange,  Ka Un Lao,  D. S. Levine,  Jie Liu,  
 S. C. McKenzie,  A. F. Morrison,  K. Nanda,  F. Plasser,  D. R. Rehn,  
 M. L. Vidal,  Zhi-Qiang You,  Ying Zhu,  B. Alam,  B. Albrecht,  
 A. Aldossary,  E. Alguire,  J. H. Andersen,  D. Barton,  K. Begam,  A. Behn,  
 Y. A. Bernard,  E. J. Berquist,  H. Burton,  A. Carreras,  K. Carter-Fenk,  
 Romit Chakraborty,  A. D. Chien,  K. D. Closser,  V. Cofer-Shabica,  
 S. Dasgupta,  Jia Deng,  M. de Wergifosse,  M. Diedenhofen,  Hainam Do,  
 S. Ehlert,  Po-Tung Fang,  S. Fatehi,  Qingguo Feng,  T. Friedhoff,  
 J. Gayvert,  Qinghui Ge,  G. Gidofalvi,  M. Goldey,  J. Gomes,  
 C. Gonzalez-Espinoza,  S. Gulania,  A. Gunina,  M. W. D. Hanson-Heine,  
 P. H. P. Harbach,  A. W. Hauser,  M. F. Herbst,  M. Hernandez Vera,  
 M. Hodecker,  Z. C. Holden,  S. Houck,  Xunkun Huang,  Kerwin Hui,  
 B. C. Huynh,  M. Ivanov,  Hyunjun Ji,  Hanjie Jiang,  B. Kaduk,  S. Kaehler,  
 K. Khistyaev,  Jaehoon Kim,  P. Klunzinger,  Z. Koczor-Benda,  
 Joong Hoon Koh,  D. Kosenkov,  L. Koulias,  T. Kowalczyk,  C. M. Krauter,  
 K. Kue,  A. Kunitsa,  T. Kus,  A. Landau,  K. V. Lawler,  D. Lefrancois,  
 S. Lehtola,  Rain Li,  Yi-Pei Li,  Jiashu Liang,  M. Liebenthal,  
 Hung-Hsuan Lin,  You-Sheng Lin,  Fenglai Liu,  Kuan-Yu Liu,  
 M. Loipersberger,  A. Luenser,  A. Manjanath,  P. Manohar,  E. Mansoor,  
 S. F. Manzer,  Shan-Ping Mao,  A. V. Marenich,  T. Markovich,  S. Mason,  
 S. A. Maurer,  P. F. McLaughlin,  M. F. S. J. Menger,  J.-M. Mewes,  
 S. A. Mewes,  P. Morgante,  J. W. Mullinax,  K. J. Oosterbaan,  G. Paran,  
 Alexander C. Paul,  Suranjan K. Paul,  F. Pavosevic,  Zheng Pei,  S. Prager,  
 E. I. Proynov,  E. Ramos,  B. Rana,  A. E. Rask,  A. Rettig,  R. M. Richard,  
 F. Rob,  E. Rossomme,  T. Scheele,  M. Scheurer,  M. Schneider,  
 N. Sergueev,  S. M. Sharada,  W. Skomorowski,  D. W. Small,  C. J. Stein,  
 Yu-Chuan Su,  E. J. Sundstrom,  Zhen Tao,  J. Thirman,  T. Tsuchimochi,  
 N. M. Tubman,  S. P. Veccham,  O. Vydrov,  J. Wenzel,  J. Witte,  A. Yamada,  
 Kun Yao,  S. Yeganeh,  S. R. Yost,  A. Zech,  Igor Ying Zhang,  Xing Zhang,  
 Yu Zhang,  D. Zuev,  A. Aspuru-Guzik,  A. T. Bell,  N. A. Besley,  
 K. B. Bravaya,  B. R. Brooks,  D. Casanova,  Jeng-Da Chai,  S. Coriani,  
 C. J. Cramer,  A. E. DePrince, III,  R. A. DiStasio Jr.,  A. Dreuw,  
 B. D. Dunietz,  T. R. Furlani,  W. A. Goddard III,  S. Grimme,  
 S. Hammes-Schiffer,  T. Head-Gordon,  W. J. Hehre,  Chao-Ping Hsu,  
 T.-C. Jagau,  Yousung Jung,  A. Klamt,  Jing Kong,  D. S. Lambrecht,  
 WanZhen Liang,  N. J. Mayhall,  C. W. McCurdy,  J. B. Neaton,  T. Neudecker,  
 C. Ochsenfeld,  J. A. Parkhill,  R. Peverati,  V. A. Rassolov,  Yihan Shao,  
 L. V. Slipchenko,  R. P. Steele,  J. E. Subotnik,  A. J. W. Thom,  
 A. Tkatchenko,  D. G. Truhlar,  T. Van Voorhis,  T. A. Wesolowski,  
 K. B. Whaley,  H. L. Woodcock III,  P. M. Zimmerman,  S. Faraji,  
 P. M. W. Gill,  M. Head-Gordon,  J. M. Herbert,  A. I. Krylov

 Additional authors since Version 5.4.0: 
 Chandrima Chakravarty,  L. Cunha,  R. Kang,  Yongbin Kim,  S. Kotaru,  
 Shaozhi Li,  Xiangyuan Li,  F. Matz,  A. Molle,  V. Parravicini,  
 Haisheng Ren,  Hengyuan Shen,  Yingli Su,  Hung-Yi Tsai,  C. Utku,  
 Fang Wang,  Jeff Yang,  F. Zeller

 Contributors to earlier versions of Q-Chem not listed above: 
 R. D. Adamson,  B. Austin,  R. Baer,  J. Baker,  G. J. O. Beran,  
 K. Brandhorst,  S. T. Brown,  E. F. C. Byrd,  Arup K. Chakraborty,  
 G. K. L. Chan,  Chun-Min Chang,  Yunqing Chen,  C.-L. Cheng,  
 Siu Hung Chien,  D. M. Chipman,  D. L. Crittenden,  H. Dachsel,  
 R. J. Doerksen,  A. D. Dutoi,  R. G. Edgar,  J. Fosso-Tande,  
 L. Fusti-Molnar,  D. Ghosh,  A. Ghysels,  A. Golubeva-Zadorozhnaya,  
 J. Gonthier,  M. S. Gordon,  S. R. Gwaltney,  G. Hawkins,  J. E. Herr,  
 A. Heyden,  S. Hirata,  E. G. Hohenstein,  G. Kedziora,  F. J. Keil,  
 C. Kelley,  Jihan Kim,  R. A. King,  R. Z. Khaliullin,  P. P. Korambath,  
 W. Kurlancheek,  A. Laurent,  A. M. Lee,  M. S. Lee,  S. V. Levchenko,  
 Ching Yeh Lin,  D. Liotard,  E. Livshits,  R. C. Lochan,  I. Lotan,  
 L. A. Martinez-Martinez,  P. E. Maslen,  N. Nair,  D. P. O'Neill,  
 D. Neuhauser,  E. Neuscamman,  C. M. Oana,  R. Olivares-Amaya,  R. Olson,  
 T. M. Perrine,  B. Peters,  P. A. Pieniazek,  A. Prociuk,  Y. M. Rhee,  
 J. Ritchie,  M. A. Rohrdanz,  E. Rosta,  N. J. Russ,  H. F. Schaefer III,  
 M. W. Schmidt,  N. E. Schultz,  S. Sharma,  N. Shenvi,  C. D. Sherrill,  
 A. C. Simmonett,  A. Sodt,  T. Stein,  D. Stuck,  K. S. Thanthiriwatte,  
 V. Vanovschi,  L. Vogt,  Tao Wang,  A. Warshel,  M. A. Watson,  
 C. F. Williams,  Q. Wu,  X. Xu,  Jun Yang,  W. Zhang,  Yan Zhao

   Please cite Q-Chem as follows:
  "Software for the frontiers of quantum chemistry:
   An overview of developments in the Q-Chem 5 package"
   J. Chem. Phys. 155, 084801 (2021)
   https://doi.org/10.1063/5.0055522 (open access)

 Q-Chem 5.4.2 for Intel X86 EM64T Linux

 Parts of Q-Chem use Armadillo 9.900.5 (Nocturnal Misbehaviour).
 http://arma.sourceforge.net/

 Q-Chem begins on Thu Jun  6 09:21:19 2024  

 Host: 
0

     Scratch files written to /scratch/ari.fischer/qChem2159141.hpc-mn1/qchem450730//
 Dec1321 |scratch|qcdevops|jenkins|workspace|build_RNUM 8249   
 Processing $rem in /usr/local/qchem-5.4.1/config/preferences:
 Processing $rem in /home/ari.fischer/.qchemrc:
 Symmetry turned off for PCM/SM12/SMD calculation


!!********************************************.
!!******************Warning*******************.
!!Desired Analytical derivatives not available.
!!Finite difference job might take a long time.
!!********************************************.
!!********************************************.


 2-order derivative to be evaluated numerically with 1-order analytical derivatives

 Checking the input file for inconsistencies... 	...done.

--------------------------------------------------------------
User input:
--------------------------------------------------------------
$molecule
0 2
C         0.0470648511   -0.1715590294    0.7797293864
C        -0.7269181770   -0.7936306875    1.8871075942
C        -1.6054089047   -2.5986216382    0.9144941470
C        -1.9994750183   -1.9919561799   -0.3959684827
C        -1.8274212870   -0.7465885448   -0.8203541281
C        -1.1453044417    0.3461795945   -0.0425297996
C        -0.7783571972    1.5475240948   -0.9042265548
H         0.5994917899    0.6939126225    1.1680353948
H        -0.3254844076   -1.2763487472    2.7670324440
H        -2.3266889492   -2.4827241455    1.7338591098
H        -2.4880601741   -2.7070580136   -1.0516641277
H        -2.1895058714   -0.4748558750   -1.8057745261
H        -1.6552636536    1.9178647383   -1.4362539622
O         0.2580650109    1.1873268336   -1.8069512887
H        -0.3896980921    2.3362135814   -0.2641392419
H        -0.1227140041    0.6834259217   -2.5347929614
O         0.9082155389   -1.0780562367    0.1444002159
H         1.3726212145   -0.5896830547   -0.5468709416
O        -1.8105423956   -0.0308362828    2.1431294205
O        -1.9978556240    0.8555253344    1.0061680980
O        -0.7679525079   -3.5143030859    0.9573831043
$end

$rem
BASIS = 6-311++G(2df,2p)
GUI = 2
JOB_TYPE = Frequency
METHOD = wB97M-V
SOLVENT_METHOD = SMD
SCF_ALGORITHM = DIIS_GDM
MAX_SCF_CYCLES = 400
SCF_CONVERGENCE = 7
THRESH = 12
$end

--------------------------------------------------------------
 ----------------------------------------------------------------
             Standard Nuclear Orientation (Angstroms)
    I     Atom           X                Y                Z
 ----------------------------------------------------------------
    1      C       0.0470648511    -0.1715590294     0.7797293864
    2      C      -0.7269181770    -0.7936306875     1.8871075942
    3      C      -1.6054089047    -2.5986216382     0.9144941470
    4      C      -1.9994750183    -1.9919561799    -0.3959684827
    5      C      -1.8274212870    -0.7465885448    -0.8203541281
    6      C      -1.1453044417     0.3461795945    -0.0425297996
    7      C      -0.7783571972     1.5475240948    -0.9042265548
    8      H       0.5994917899     0.6939126225     1.1680353948
    9      H      -0.3254844076    -1.2763487472     2.7670324440
   10      H      -2.3266889492    -2.4827241455     1.7338591098
   11      H      -2.4880601741    -2.7070580136    -1.0516641277
   12      H      -2.1895058714    -0.4748558750    -1.8057745261
   13      H      -1.6552636536     1.9178647383    -1.4362539622
   14      O       0.2580650109     1.1873268336    -1.8069512887
   15      H      -0.3896980921     2.3362135814    -0.2641392419
   16      H      -0.1227140041     0.6834259217    -2.5347929614
   17      O       0.9082155389    -1.0780562367     0.1444002159
   18      H       1.3726212145    -0.5896830547    -0.5468709416
   19      O      -1.8105423956    -0.0308362828     2.1431294205
   20      O      -1.9978556240     0.8555253344     1.0061680980
   21      O      -0.7679525079    -3.5143030859     0.9573831043
 ----------------------------------------------------------------
 Nuclear Repulsion Energy =         778.70071343 hartrees
 There are       46 alpha and       45 beta electrons
 Requested basis set is 6-311++G(2df,2p)
 There are 150 shells and 498 basis functions

 Total QAlloc Memory Limit 288000 MB
 Mega-Array Size       188 MB
 MEM_STATIC part       192 MB
 
 Citation of the SMD model:
 Marenich, A.V.; Cramer, C.J.; Truhlar, D.G.
 J. Phys. Chem. B 2009, 113, 6378-6396.
 iSolventCode=           1
 Solvent: water                                                           
 
 vradii
            1           2           3           4           5           6
    1   1.8500000   1.8500000   1.8500000   1.8500000   1.8500000   1.8500000
            7           8           9          10          11          12
    1   1.8500000   1.2000000   1.2000000   1.2000000   1.2000000   1.2000000
           13          14          15          16          17          18
    1   1.2000000   1.5200000   1.2000000   1.2000000   1.5200000   1.2000000
           19          20          21
    1   1.5200000   1.5200000   1.5200000
 Changing PCM_VDW_RADII to SMD_RADIUS
 Discretize the solute cavity surface with Lebedev spheres
	Using 110 Lebedev grid points for each H atom
	Using 194 Lebedev grid points for other atoms
	Atomic van der Waals radii will be scaled by 1.20
 Remove points where switching function is < 1.0e-08
 Keep 1564 surface tesserae and discard 1754 interior tesserae
 Molecular Surface Area = 174.518 Angst**2
 A cutoff of  1.0D-12 yielded  10105 shell pairs
 There are    112323 function pairs (    140622 Cartesian)
 Smallest overlap matrix eigenvalue = 2.67E-06
 Guess from superposition of atomic densities
 Warning:  Energy on first SCF cycle will be non-variational
 SAD guess density has 91.000000 electrons

 -----------------------------------------------------------------------
  General SCF calculation program by
  Eric Jon Sundstrom, Paul Horn, Yuezhi Mao, Dmitri Zuev, Alec White,
  David Stuck, Shaama M.S., Shane Yost, Joonho Lee, David Small,
  Daniel Levine, Susi Lehtola, Hugh Burton, Evgeny Epifanovsky,
  Bang C. Huynh
 -----------------------------------------------------------------------
 Exchange:     0.1500 Hartree-Fock + 1.0000 wB97M-V + LR-HF
 Correlation:  1.0000 wB97M-V
 Using SG-2 standard quadrature grid
 Nonlocal Correlation:  VV10 with C = 0.0100 and b = 6.00 and scale = 1.00000
 Grid used for NLC:  SG-1 standard quadrature
 using 16 threads for integral computing
 -------------------------------------------------------
 OpenMP Integral computing Module                
 Release: version 1.0, May 2013, Q-Chem Inc. Pittsburgh 
 -------------------------------------------------------
 
 Citation of the SMD model:
 Marenich, A.V.; Cramer, C.J.; Truhlar, D.G.
 J. Phys. Chem. B 2009, 113, 6378-6396.
 iSolventCode=           1
 Solvent: water                                                           
 
 vradii
            1           2           3           4           5           6
    1   1.8500000   1.8500000   1.8500000   1.8500000   1.8500000   1.8500000
            7           8           9          10          11          12
    1   1.8500000   1.2000000   1.2000000   1.2000000   1.2000000   1.2000000
           13          14          15          16          17          18
    1   1.2000000   1.5200000   1.2000000   1.2000000   1.5200000   1.2000000
           19          20          21
    1   1.5200000   1.5200000   1.5200000
 -------------------------------------------------------
 OpenMP BLAS3 based DFT computing Module                
 Release: version 1.0, May 2013, Q-Chem Inc. Pittsburgh 
 -------------------------------------------------------
 A unrestricted SCF calculation will be
 performed using DIIS, GDM
 SCF converges when RMS gradient is below 1.0e-07
 ---------------------------------------
  Cycle       Energy         DIIS error
 ---------------------------------------
    1    -651.1676050752      1.13e-02  
    2    -647.8986348834      1.38e-03  Done DIIS. Switching to GDM
 ---------------------------------------
  Cycle       Energy        RMS Gradient
 ---------------------------------------
    1    -647.8986348834      1.53e-01   Descent step
    2    -648.0697937470      3.14e-02   Normal BFGS step
    3    -648.0977291431      1.34e-02   Normal BFGS step
    4    -648.1006293586      7.58e-03   Normal BFGS step
    5    -648.1018901259      4.30e-03   Normal BFGS step
    6    -648.1020939200      2.23e-03   Normal BFGS step
    7    -648.1021719055      8.55e-04   Normal BFGS step
    8    -648.1021811392      4.21e-04   Normal BFGS step
    9    -648.1021857799      1.94e-04   Normal BFGS step
   10    -648.1021863560      9.19e-05   Normal BFGS step
   11    -648.1021864438      4.01e-05   Normal BFGS step
   12    -648.1021864618      1.68e-05   Normal BFGS step
   13    -648.1021864669      1.02e-05   Normal BFGS step
   14    -648.1021864686      5.47e-06   Normal BFGS step
   15    -648.1021864691      4.08e-06   Normal BFGS step
   16    -648.1021864693      1.94e-06   Normal BFGS step
   17    -648.1021864693      8.84e-07   Normal BFGS step
   18    -648.1021864693      2.59e-07   Normal BFGS step
   19    -648.1021864693      1.02e-07   Normal BFGS step
   20    -648.1021864693      6.45e-08  Convergence criterion met
 ---------------------------------------
 SCF time:   CPU 3811.45s  wall 260.00s 
<S^2> =          0.759249155
(3)  G-ENP(liq) elect-nuc-pol free energy of system     -648.102186469 a.u.
(4)  G-CDS(liq) cavity-dispersion-solvent structure 
     free energy                                                4.5625 kcal/mol
(6)  G-S(liq) free energy of system                     -648.094915628 a.u.
 SCF   energy in the final basis set =     -648.0949156281
 Total energy in the final basis set =     -648.0949156281
 
 --------------------------------------------------------------
 
                    Orbital Energies (a.u.)
 --------------------------------------------------------------
 
 Alpha MOs
 -- Occupied --
-19.4488 -19.4222 -19.3527 -19.3482 -19.3266 -10.4342 -10.4313 -10.4236
-10.4219 -10.3969 -10.3577 -10.3559  -1.3133  -1.1812  -1.1682  -1.1654
 -1.1035  -0.9593  -0.9015  -0.8455  -0.7864  -0.7606  -0.7266  -0.6951
 -0.6624  -0.6409  -0.6272  -0.6129  -0.5864  -0.5828  -0.5722  -0.5574
 -0.5496  -0.5359  -0.5297  -0.5173  -0.5019  -0.4807  -0.4675  -0.4483
 -0.4358  -0.3975  -0.3897  -0.3757  -0.3677  -0.2934
 -- Virtual --
  0.0253   0.0332   0.0350   0.0410   0.0512   0.0547   0.0557   0.0621
  0.0708   0.0794   0.0865   0.0896   0.0943   0.1061   0.1203   0.1230
  0.1277   0.1322   0.1382   0.1412   0.1514   0.1547   0.1558   0.1605
  0.1659   0.1692   0.1724   0.1777   0.1847   0.1882   0.1944   0.2002
  0.2111   0.2120   0.2179   0.2220   0.2249   0.2414   0.2455   0.2502
  0.2706   0.2767   0.2810   0.2837   0.2893   0.3032   0.3101   0.3117
  0.3157   0.3222   0.3312   0.3397   0.3418   0.3433   0.3467   0.3592
  0.3659   0.3686   0.3716   0.3759   0.3781   0.3868   0.3908   0.3940
  0.3959   0.4005   0.4072   0.4215   0.4268   0.4310   0.4380   0.4455
  0.4606   0.4712   0.4773   0.4824   0.5087   0.5126   0.5178   0.5289
  0.5502   0.5605   0.5932   0.6047   0.6066   0.6190   0.6267   0.6337
  0.6447   0.6505   0.6603   0.6644   0.6759   0.6779   0.6893   0.6999
  0.7039   0.7091   0.7193   0.7256   0.7291   0.7349   0.7421   0.7625
  0.7724   0.7894   0.7922   0.8041   0.8118   0.8135   0.8363   0.8519
  0.8636   0.8701   0.8858   0.8994   0.9163   0.9444   0.9634   0.9790
  0.9835   0.9996   1.0279   1.0417   1.0500   1.0585   1.0681   1.0756
  1.0893   1.1119   1.1167   1.1240   1.1353   1.1552   1.1567   1.1671
  1.1761   1.1926   1.1961   1.2081   1.2207   1.2256   1.2313   1.2387
  1.2434   1.2551   1.2677   1.2771   1.2799   1.2877   1.2942   1.3049
  1.3126   1.3257   1.3342   1.3507   1.3623   1.3752   1.3859   1.3970
  1.3995   1.4167   1.4297   1.4313   1.4452   1.4507   1.4662   1.4760
  1.4916   1.4998   1.5169   1.5232   1.5293   1.5473   1.5635   1.5747
  1.5784   1.5869   1.6019   1.6053   1.6355   1.6380   1.6512   1.6680
  1.6717   1.6949   1.7118   1.7236   1.7408   1.7562   1.7865   1.7877
  1.8085   1.8164   1.8839   1.9139   1.9322   1.9484   1.9541   1.9766
  1.9971   2.0199   2.0226   2.0406   2.0599   2.0860   2.1298   2.1505
  2.1739   2.1960   2.2230   2.2460   2.2728   2.3265   2.3349   2.3584
  2.3962   2.4085   2.4452   2.4687   2.4838   2.5351   2.5741   2.6271
  2.6582   2.6829   2.6962   2.7129   2.7406   2.7774   2.7937   2.8085
  2.8264   2.8501   2.8681   2.8951   2.9016   2.9046   2.9220   2.9312
  2.9566   2.9614   2.9806   2.9881   2.9956   3.0162   3.0369   3.0587
  3.0805   3.0958   3.1282   3.1320   3.1416   3.1598   3.1658   3.1933
  3.2137   3.2238   3.2260   3.2716   3.2852   3.2954   3.3101   3.3212
  3.3335   3.3464   3.3605   3.3726   3.3864   3.4135   3.4193   3.4374
  3.4476   3.4742   3.4858   3.4952   3.5192   3.5317   3.5647   3.5712
  3.5762   3.5948   3.6164   3.6246   3.6345   3.6401   3.6660   3.6742
  3.6946   3.6965   3.7424   3.7553   3.7668   3.7827   3.7883   3.8056
  3.8208   3.8338   3.8342   3.8602   3.8708   3.8820   3.8847   3.9050
  3.9141   3.9424   3.9551   3.9645   3.9778   3.9910   3.9992   4.0096
  4.0412   4.0732   4.0861   4.1043   4.1255   4.1326   4.1488   4.1789
  4.2014   4.2461   4.2501   4.2786   4.2935   4.3076   4.3120   4.3170
  4.3613   4.3890   4.3922   4.4039   4.4136   4.4164   4.4334   4.4480
  4.4815   4.4869   4.5089   4.5449   4.5632   4.5804   4.6068   4.6175
  4.6514   4.6741   4.6763   4.6976   4.7304   4.7393   4.7931   4.8291
  4.8611   4.9002   4.9205   4.9838   5.0447   5.1176   5.1515   5.1639
  5.1938   5.2243   5.2642   5.2705   5.2788   5.2963   5.3076   5.3088
  5.3169   5.3331   5.3348   5.3757   5.3958   5.4060   5.4135   5.4296
  5.4685   5.4881   5.5107   5.5210   5.5329   5.5433   5.5763   5.5886
  5.6078   5.6321   5.6462   5.6756   5.6896   5.7086   5.7439   5.7628
  5.7766   5.8139   5.8298   5.8632   5.9061   5.9445   5.9715   6.0134
  6.0447   6.0549   6.0879   6.1442   6.3278   6.3535   6.5748   6.6029
  6.6626   6.7434   6.7714   6.8319   6.9941   6.9965   7.0131   7.1097
  7.1238   7.1932   7.2772   7.3081   7.3199   7.3240   7.3549   7.3650
  7.4015   7.4111   7.4223   7.4445   7.4736   7.5310   7.5669   7.6377
  7.6660   7.7248   7.7905   7.7972   7.8439   7.9013   7.9808   8.2365
 24.4173  24.6788  24.7792  24.8210  24.9076  24.9922  25.2228  50.5840
 50.6171  50.6494  50.6639  50.7149
 
 Beta MOs
 -- Occupied --
-19.4439 -19.4223 -19.3526 -19.3482 -19.3206 -10.4347 -10.4234 -10.4222
-10.4219 -10.3969 -10.3576 -10.3558  -1.3074  -1.1805  -1.1659  -1.1580
 -1.0986  -0.9555  -0.8980  -0.8415  -0.7824  -0.7523  -0.7205  -0.6900
 -0.6572  -0.6385  -0.6245  -0.6064  -0.5826  -0.5775  -0.5652  -0.5465
 -0.5451  -0.5300  -0.5266  -0.5130  -0.4961  -0.4689  -0.4579  -0.4403
 -0.4279  -0.3963  -0.3855  -0.3733  -0.3615
 -- Virtual --
 -0.0268   0.0252   0.0338   0.0355   0.0417   0.0527   0.0555   0.0577
  0.0700   0.0707   0.0821   0.0870   0.0908   0.1041   0.1193   0.1205
  0.1240   0.1281   0.1323   0.1387   0.1417   0.1517   0.1547   0.1563
  0.1606   0.1671   0.1704   0.1737   0.1785   0.1847   0.1892   0.1944
  0.2004   0.2114   0.2125   0.2179   0.2224   0.2268   0.2418   0.2479
  0.2504   0.2722   0.2774   0.2816   0.2862   0.2907   0.3040   0.3120
  0.3132   0.3172   0.3244   0.3329   0.3414   0.3429   0.3461   0.3481
  0.3611   0.3680   0.3702   0.3740   0.3775   0.3797   0.3877   0.3921
  0.3946   0.3973   0.4024   0.4083   0.4227   0.4277   0.4356   0.4396
  0.4468   0.4614   0.4750   0.4795   0.4837   0.5103   0.5130   0.5186
  0.5302   0.5526   0.5619   0.5942   0.6053   0.6092   0.6199   0.6289
  0.6348   0.6463   0.6521   0.6617   0.6669   0.6791   0.6815   0.6917
  0.7014   0.7060   0.7121   0.7232   0.7290   0.7311   0.7381   0.7465
  0.7639   0.7795   0.7906   0.7939   0.8057   0.8154   0.8157   0.8391
  0.8533   0.8651   0.8715   0.8880   0.9018   0.9193   0.9458   0.9659
  0.9810   0.9857   1.0005   1.0297   1.0433   1.0538   1.0601   1.0695
  1.0778   1.0931   1.1151   1.1174   1.1277   1.1373   1.1574   1.1606
  1.1688   1.1812   1.1955   1.1975   1.2098   1.2232   1.2289   1.2353
  1.2434   1.2453   1.2580   1.2701   1.2800   1.2825   1.2898   1.2972
  1.3075   1.3147   1.3279   1.3371   1.3528   1.3648   1.3780   1.3901
  1.3988   1.4023   1.4196   1.4335   1.4360   1.4481   1.4537   1.4689
  1.4797   1.4949   1.5018   1.5181   1.5266   1.5326   1.5498   1.5654
  1.5804   1.5844   1.5887   1.6044   1.6069   1.6395   1.6429   1.6535
  1.6719   1.6754   1.6975   1.7155   1.7272   1.7445   1.7582   1.7907
  1.7929   1.8152   1.8189   1.8871   1.9175   1.9395   1.9519   1.9601
  1.9805   2.0005   2.0243   2.0295   2.0444   2.0621   2.0908   2.1331
  2.1530   2.1757   2.1987   2.2277   2.2505   2.2768   2.3310   2.3372
  2.3620   2.3990   2.4092   2.4523   2.4704   2.4870   2.5386   2.5785
  2.6351   2.6632   2.6869   2.7071   2.7181   2.7440   2.7846   2.8025
  2.8143   2.8321   2.8533   2.8735   2.8987   2.9030   2.9092   2.9289
  2.9391   2.9621   2.9675   2.9858   2.9968   3.0064   3.0197   3.0481
  3.0656   3.0920   3.1024   3.1342   3.1459   3.1486   3.1699   3.1789
  3.2038   3.2232   3.2282   3.2345   3.2760   3.2925   3.3042   3.3181
  3.3324   3.3390   3.3550   3.3641   3.3821   3.3936   3.4171   3.4242
  3.4475   3.4555   3.4874   3.4911   3.5006   3.5266   3.5465   3.5709
  3.5792   3.5848   3.6071   3.6205   3.6328   3.6397   3.6562   3.6713
  3.6854   3.7003   3.7044   3.7563   3.7623   3.7738   3.7895   3.7933
  3.8121   3.8269   3.8370   3.8472   3.8661   3.8760   3.8873   3.8922
  3.9108   3.9170   3.9462   3.9658   3.9688   3.9866   3.9963   4.0019
  4.0149   4.0484   4.0798   4.0914   4.1093   4.1372   4.1387   4.1536
  4.1849   4.2059   4.2502   4.2566   4.2824   4.2988   4.3141   4.3175
  4.3204   4.3664   4.3922   4.3996   4.4070   4.4184   4.4246   4.4370
  4.4586   4.4876   4.4995   4.5151   4.5488   4.5712   4.5922   4.6116
  4.6229   4.6560   4.6796   4.6804   4.7029   4.7385   4.7452   4.7961
  4.8397   4.8724   4.9066   4.9275   4.9873   5.0482   5.1226   5.1644
  5.1760   5.2104   5.2365   5.2724   5.2794   5.2840   5.2979   5.3099
  5.3118   5.3327   5.3344   5.3480   5.3813   5.3978   5.4119   5.4154
  5.4382   5.4723   5.4927   5.5147   5.5274   5.5347   5.5516   5.5884
  5.5921   5.6149   5.6425   5.6542   5.6790   5.6904   5.7134   5.7453
  5.7648   5.7812   5.8251   5.8341   5.8755   5.9080   5.9581   5.9785
  6.0168   6.0455   6.0575   6.0901   6.1464   6.3428   6.3600   6.5787
  6.6035   6.6632   6.7466   6.7773   6.8411   7.0082   7.0219   7.0367
  7.1115   7.1246   7.1980   7.2878   7.3122   7.3224   7.3262   7.3562
  7.3705   7.4062   7.4181   7.4368   7.4489   7.4792   7.5380   7.5719
  7.6441   7.6664   7.7256   7.7971   7.8025   7.8454   7.9039   7.9823
  8.2386  24.4174  24.6824  24.7792  24.8214  24.9124  24.9921  25.2230
 50.5872  50.6171  50.6506  50.6640  50.7191
 --------------------------------------------------------------
 
          Ground-State Mulliken Net Atomic Charges

     Atom                 Charge (a.u.)    Spin (a.u.)
  --------------------------------------------------------
      1 C                    -0.040570       0.003166
      2 C                    -0.293240       0.572181
      3 C                    -0.249271       0.054900
      4 C                    -0.052819      -0.018993
      5 C                    -0.481454       0.011466
      6 C                     0.172590       0.016992
      7 C                    -0.406967      -0.006655
      8 H                     0.307123       0.029517
      9 H                     0.328516      -0.007873
     10 H                     0.231864       0.008280
     11 H                     0.290689       0.002634
     12 H                     0.313380       0.000011
     13 H                     0.258308      -0.000217
     14 O                    -0.372183       0.000644
     15 H                     0.247713       0.001064
     16 H                     0.329299      -0.000036
     17 O                    -0.380439       0.002971
     18 H                     0.345023      -0.000774
     19 O                     0.003390       0.122833
     20 O                    -0.097065      -0.003742
     21 O                    -0.453889       0.211631
  --------------------------------------------------------
  Sum of atomic charges =     0.000000
  Sum of spin   charges =     1.000000

 -----------------------------------------------------------------
                    Cartesian Multipole Moments
 -----------------------------------------------------------------
    Charge (ESU x 10^10)
                 0.0000
    Dipole Moment (Debye)
         X      -1.3347      Y       5.4590      Z      -2.7061
       Tot       6.2374
    Quadrupole Moments (Debye-Ang)
        XX     -69.5850     XY       3.9721     YY     -93.7351
        XZ       7.5555     YZ       3.6202     ZZ     -60.5783
    Octopole Moments (Debye-Ang^2)
       XXX     203.5997    XXY      23.8031    XYY      56.3398
       YYY     216.7232    XXZ     -35.3071    XYZ       9.2712
       YYZ     -39.8978    XZZ      59.2113    YZZ      31.1508
       ZZZ     -66.5678
    Hexadecapole Moments (Debye-Ang^3)
      XXXX    -857.8011   XXXY    -120.7643   XXYY    -299.8385
      XYYY    -170.6721   YYYY   -1545.5232   XXXZ     125.1161
      XXYZ      47.5910   XYYZ      55.3047   YYYZ     269.1960
      XXZZ    -250.6268   XYZZ     -47.9410   YYZZ    -333.2712
      XZZZ     130.9995   YZZZ     141.6706   ZZZZ    -600.5279
 -----------------------------------------------------------------
 Calculating analytic gradient of the SCF energy
 Gradient of CDS energy
            1           2           3           4           5           6
    1   0.0018547  -0.0028939   0.0011727  -0.0000777  -0.0001819   0.0000538
    2  -0.0018845   0.0023187  -0.0024023  -0.0000193   0.0001312   0.0000552
    3  -0.0014164   0.0015615   0.0006117  -0.0002966  -0.0001172   0.0001546
            7           8           9          10          11          12
    1   0.0000651   0.0000177  -0.0000225   0.0000087  -0.0000950  -0.0000460
    2   0.0009989   0.0001953  -0.0001663   0.0002915  -0.0000803   0.0000662
    3  -0.0003721  -0.0000155  -0.0000229   0.0000283  -0.0001658  -0.0001052
           13          14          15          16          17          18
    1  -0.0002411  -0.0001521   0.0001538   0.0001870  -0.0019826   0.0003988
    2  -0.0002710  -0.0000928  -0.0001285  -0.0000682   0.0019374  -0.0001207
    3  -0.0000422   0.0003079   0.0002784  -0.0004677   0.0013459  -0.0002320
           19          20          21
    1   0.0028548   0.0000990  -0.0011734
    2  -0.0020612  -0.0000878   0.0013885
    3  -0.0008771  -0.0000056  -0.0001521
 Gradient of SCF Energy
            1           2           3           4           5           6
    1  -0.0023411  -0.0024440   0.0061292   0.0021065  -0.0023971   0.0004242
    2  -0.0114705   0.0084125  -0.0104917   0.0062695  -0.0027566   0.0033215
    3  -0.0051524  -0.0066916  -0.0024474   0.0077356   0.0078296   0.0022659
            7           8           9          10          11          12
    1   0.0124656   0.0060529   0.0023185  -0.0021983  -0.0031067  -0.0045542
    2  -0.0181215   0.0094301  -0.0018928   0.0016905  -0.0019482   0.0045935
    3   0.0021915   0.0036973   0.0077217   0.0010068  -0.0037490  -0.0142743
           13          14          15          16          17          18
    1  -0.0106818   0.0069174   0.0029373  -0.0090165  -0.0036523   0.0047499
    2   0.0036459   0.0146084   0.0079128  -0.0101481  -0.0129936   0.0077135
    3  -0.0074723   0.0136758   0.0072290  -0.0133859   0.0067080  -0.0067001
           19          20          21
    1  -0.0031706  -0.0017378   0.0011988
    2   0.0020425   0.0000620   0.0001203
    3   0.0009723   0.0002708  -0.0014314
 Max gradient component =       1.812E-02
 RMS gradient           =       7.021E-03
 Computing fast CPCM-SWIG gradient
 Updating gradient with PCM contributions...
 -- total gradient after adding PCM contribution --
---------------------------------------------------
  Atom         X              Y              Z     
---------------------------------------------------
   1      -0.000000      -0.000001      -0.000004
   2      -0.000004       0.000016       0.000005
   3       0.000053      -0.000049       0.000013
   4       0.000005      -0.000008       0.000010
   5       0.000003      -0.000005       0.000002
   6      -0.000001       0.000000      -0.000008
   7       0.000002      -0.000005      -0.000011
   8      -0.000003       0.000006      -0.000002
   9      -0.000009       0.000017       0.000006
  10      -0.000001       0.000005       0.000010
  11       0.000003      -0.000007       0.000010
  12       0.000003      -0.000011      -0.000001
  13       0.000002      -0.000010      -0.000015
  14       0.000003      -0.000011      -0.000006
  15      -0.000002      -0.000001      -0.000014
  16       0.000005      -0.000014      -0.000005
  17      -0.000000       0.000001       0.000008
  18       0.000000      -0.000002       0.000005
  19       0.000000       0.000007      -0.000007
  20      -0.000000       0.000006      -0.000007
  21      -0.000059       0.000066       0.000013
---------------------------------------------------
 Number of fixed atoms: 0
 Gradient time:  CPU 730.94 s  wall 55.55 s
 ######################################################
 ######################################################
 # Starting finite difference calculation for IDERIV  #
 Finite diff step size:  1.88973e-03 a.u.
 ----------------------------------------------------------------
             Standard Nuclear Orientation (Angstroms)
    I     Atom           X                Y                Z
 ----------------------------------------------------------------
    1      C       0.0480648511    -0.1715590294     0.7797293864
    2      C      -0.7269181770    -0.7936306875     1.8871075942
    3      C      -1.6054089047    -2.5986216382     0.9144941470
    4      C      -1.9994750183    -1.9919561799    -0.3959684827
    5      C      -1.8274212870    -0.7465885448    -0.8203541281
    6      C      -1.1453044417     0.3461795945    -0.0425297996
    7      C      -0.7783571972     1.5475240948    -0.9042265548
    8      H       0.5994917899     0.6939126225     1.1680353948
    9      H      -0.3254844076    -1.2763487472     2.7670324440
   10      H      -2.3266889492    -2.4827241455     1.7338591098
   11      H      -2.4880601741    -2.7070580136    -1.0516641277
   12      H      -2.1895058714    -0.4748558750    -1.8057745261
   13      H      -1.6552636536     1.9178647383    -1.4362539622
   14      O       0.2580650109     1.1873268336    -1.8069512887
   15      H      -0.3896980921     2.3362135814    -0.2641392419
   16      H      -0.1227140041     0.6834259217    -2.5347929614
   17      O       0.9082155389    -1.0780562367     0.1444002159
   18      H       1.3726212145    -0.5896830547    -0.5468709416
   19      O      -1.8105423956    -0.0308362828     2.1431294205
   20      O      -1.9978556240     0.8555253344     1.0061680980
   21      O      -0.7679525079    -3.5143030859     0.9573831043
 ----------------------------------------------------------------
 Nuclear Repulsion Energy =         778.68478589 hartrees
 There are       46 alpha and       45 beta electrons
 Discretize the solute cavity surface with Lebedev spheres
	Using 110 Lebedev grid points for each H atom
	Using 194 Lebedev grid points for other atoms
	Atomic van der Waals radii will be scaled by 1.20
 Remove points where switching function is < 1.0e-08
 Keep 1564 surface tesserae and discard 1754 interior tesserae
 Molecular Surface Area = 174.518 Angst**2
 Requested basis set is 6-311++G(2df,2p)
 There are 150 shells and 498 basis functions
 A cutoff of  1.0D-12 yielded  10105 shell pairs
 There are    112323 function pairs (    140622 Cartesian)
 Smallest overlap matrix eigenvalue = 2.67E-06
 Guess MOs from SCF MO coefficient file

 -----------------------------------------------------------------------
  General SCF calculation program by
  Eric Jon Sundstrom, Paul Horn, Yuezhi Mao, Dmitri Zuev, Alec White,
  David Stuck, Shaama M.S., Shane Yost, Joonho Lee, David Small,
  Daniel Levine, Susi Lehtola, Hugh Burton, Evgeny Epifanovsky,
  Bang C. Huynh
 -----------------------------------------------------------------------
 Exchange:     0.1500 Hartree-Fock + 1.0000 wB97M-V + LR-HF
 Correlation:  1.0000 wB97M-V
 Using SG-2 standard quadrature grid
 Nonlocal Correlation:  VV10 with C = 0.0100 and b = 6.00 and scale = 1.00000
 Grid used for NLC:  SG-1 standard quadrature
 
 Citation of the SMD model:
 Marenich, A.V.; Cramer, C.J.; Truhlar, D.G.
 J. Phys. Chem. B 2009, 113, 6378-6396.
 iSolventCode=           1
 Solvent: water                                                           
 
 vradii
            1           2           3           4           5           6
    1   1.8500000   1.8500000   1.8500000   1.8500000   1.8500000   1.8500000
            7           8           9          10          11          12
    1   1.8500000   1.2000000   1.2000000   1.2000000   1.2000000   1.2000000
           13          14          15          16          17          18
    1   1.2000000   1.5200000   1.2000000   1.2000000   1.5200000   1.2000000
           19          20          21
    1   1.5200000   1.5200000   1.5200000
 -------------------------------------------------------
 OpenMP BLAS3 based DFT computing Module                
 Release: version 1.0, May 2013, Q-Chem Inc. Pittsburgh 
 -------------------------------------------------------
 A unrestricted SCF calculation will be
 performed using Roothaan-Hall, DIIS, GDM
 SCF converges when RMS gradient is below 1.0e-07
 ---------------------------------------
  Cycle       Energy         DIIS error
 ---------------------------------------
    1    -648.0507658478      2.12e-04  Roothaan Step
 ---------------------------------------
  Cycle       Energy         DIIS error
 ---------------------------------------
    1    -648.0892726671      2.66e-04  
    2    -648.0948196244      2.95e-04  Done DIIS. Switching to GDM
 ---------------------------------------
  Cycle       Energy        RMS Gradient
 ---------------------------------------
    1    -648.0948196244      1.96e-02   Normal BFGS step
    2    -648.0916938279      3.48e-02  Line search: overstep
    3    -648.1017914820      4.45e-03   Normal BFGS step
    4    -648.1020902130      1.59e-03   Normal BFGS step
    5    -648.1021724461      7.38e-04   Normal BFGS step
    6    -648.1021850179      2.44e-04   Normal BFGS step
    7    -648.1021879057      2.21e-04   Normal BFGS step
    8    -648.1021887606      7.44e-05   Normal BFGS step
    9    -648.1021889367      5.27e-05   Normal BFGS step
   10    -648.1021889973      2.74e-05   Normal BFGS step
   11    -648.1021890071      1.31e-05   Normal BFGS step
   12    -648.1021890103      9.53e-06   Normal BFGS step
   13    -648.1021890111      5.19e-06   Normal BFGS step
   14    -648.1021890114      2.22e-06   Normal BFGS step
   15    -648.1021890114      1.86e-06   Normal BFGS step
   16    -648.1021890114      8.18e-07   Normal BFGS step
   17    -648.1021890114      1.96e-07   Normal BFGS step
   18    -648.1021890114      1.02e-07   Normal BFGS step
   19    -648.1021890115      5.92e-08  Convergence criterion met
 ---------------------------------------
 SCF time:   CPU 3879.65s  wall 264.00s 
<S^2> =          0.759249525
(3)  G-ENP(liq) elect-nuc-pol free energy of system     -648.102189012 a.u.
(4)  G-CDS(liq) cavity-dispersion-solvent structure 
     free energy                                                4.5648 kcal/mol
(6)  G-S(liq) free energy of system                     -648.094914603 a.u.
 SCF   energy in the final basis set =     -648.0949146028
 Total energy in the final basis set =     -648.0949146028
 
 --------------------------------------------------------------
 
                    Orbital Energies (a.u.)
 --------------------------------------------------------------
 
 Alpha MOs
 -- Occupied --
-19.4487 -19.4222 -19.3528 -19.3482 -19.3266 -10.4342 -10.4313 -10.4236
-10.4219 -10.3968 -10.3577 -10.3559  -1.3133  -1.1814  -1.1682  -1.1655
 -1.1034  -0.9592  -0.9014  -0.8454  -0.7863  -0.7606  -0.7266  -0.6951
 -0.6624  -0.6410  -0.6272  -0.6129  -0.5864  -0.5828  -0.5722  -0.5574
 -0.5496  -0.5359  -0.5297  -0.5173  -0.5019  -0.4807  -0.4674  -0.4483
 -0.4358  -0.3975  -0.3896  -0.3757  -0.3677  -0.2934
 -- Virtual --
  0.0253   0.0332   0.0350   0.0410   0.0512   0.0547   0.0557   0.0621
  0.0708   0.0794   0.0865   0.0897   0.0943   0.1061   0.1203   0.1230
  0.1277   0.1322   0.1382   0.1412   0.1514   0.1548   0.1558   0.1605
  0.1659   0.1692   0.1724   0.1777   0.1847   0.1882   0.1944   0.2002
  0.2111   0.2120   0.2179   0.2220   0.2249   0.2414   0.2455   0.2502
  0.2706   0.2767   0.2810   0.2838   0.2893   0.3032   0.3101   0.3117
  0.3157   0.3222   0.3311   0.3397   0.3418   0.3433   0.3467   0.3592
  0.3659   0.3686   0.3716   0.3759   0.3782   0.3868   0.3908   0.3940
  0.3959   0.4005   0.4072   0.4215   0.4268   0.4310   0.4379   0.4456
  0.4605   0.4711   0.4774   0.4824   0.5087   0.5126   0.5179   0.5289
  0.5502   0.5605   0.5932   0.6046   0.6066   0.6191   0.6268   0.6337
  0.6447   0.6504   0.6603   0.6644   0.6759   0.6779   0.6892   0.6999
  0.7039   0.7091   0.7194   0.7256   0.7290   0.7349   0.7421   0.7625
  0.7723   0.7894   0.7922   0.8041   0.8117   0.8135   0.8363   0.8520
  0.8636   0.8701   0.8858   0.8994   0.9163   0.9443   0.9633   0.9790
  0.9835   0.9996   1.0279   1.0418   1.0500   1.0584   1.0681   1.0756
  1.0892   1.1118   1.1167   1.1240   1.1353   1.1552   1.1567   1.1671
  1.1761   1.1926   1.1961   1.2081   1.2207   1.2256   1.2314   1.2387
  1.2433   1.2551   1.2677   1.2771   1.2799   1.2878   1.2942   1.3049
  1.3126   1.3257   1.3342   1.3507   1.3623   1.3752   1.3858   1.3970
  1.3995   1.4166   1.4297   1.4313   1.4452   1.4507   1.4662   1.4761
  1.4916   1.4998   1.5168   1.5231   1.5293   1.5473   1.5636   1.5746
  1.5784   1.5868   1.6019   1.6053   1.6355   1.6381   1.6513   1.6680
  1.6717   1.6949   1.7118   1.7236   1.7407   1.7562   1.7864   1.7877
  1.8085   1.8164   1.8838   1.9139   1.9322   1.9484   1.9541   1.9767
  1.9971   2.0199   2.0226   2.0406   2.0599   2.0860   2.1297   2.1505
  2.1738   2.1959   2.2230   2.2460   2.2730   2.3267   2.3349   2.3584
  2.3962   2.4085   2.4452   2.4689   2.4838   2.5351   2.5741   2.6271
  2.6581   2.6829   2.6962   2.7129   2.7406   2.7775   2.7934   2.8085
  2.8263   2.8500   2.8680   2.8950   2.9015   2.9044   2.9219   2.9313
  2.9566   2.9614   2.9806   2.9881   2.9955   3.0162   3.0368   3.0587
  3.0804   3.0957   3.1282   3.1320   3.1414   3.1598   3.1656   3.1933
  3.2135   3.2237   3.2259   3.2715   3.2851   3.2954   3.3100   3.3212
  3.3335   3.3464   3.3605   3.3725   3.3864   3.4136   3.4193   3.4373
  3.4476   3.4742   3.4858   3.4951   3.5192   3.5317   3.5647   3.5712
  3.5761   3.5948   3.6165   3.6246   3.6345   3.6402   3.6659   3.6742
  3.6947   3.6964   3.7424   3.7553   3.7667   3.7826   3.7884   3.8056
  3.8207   3.8337   3.8343   3.8601   3.8708   3.8820   3.8846   3.9051
  3.9141   3.9422   3.9550   3.9644   3.9778   3.9910   3.9992   4.0094
  4.0411   4.0731   4.0861   4.1040   4.1254   4.1325   4.1487   4.1789
  4.2013   4.2460   4.2500   4.2784   4.2934   4.3075   4.3116   4.3169
  4.3612   4.3890   4.3921   4.4038   4.4136   4.4165   4.4334   4.4484
  4.4815   4.4867   4.5089   4.5449   4.5629   4.5804   4.6067   4.6175
  4.6513   4.6739   4.6762   4.6975   4.7302   4.7392   4.7930   4.8287
  4.8610   4.9002   4.9204   4.9838   5.0446   5.1175   5.1513   5.1638
  5.1938   5.2242   5.2637   5.2704   5.2788   5.2963   5.3076   5.3088
  5.3169   5.3330   5.3348   5.3758   5.3957   5.4059   5.4135   5.4296
  5.4684   5.4881   5.5106   5.5210   5.5329   5.5433   5.5764   5.5887
  5.6077   5.6321   5.6463   5.6755   5.6896   5.7095   5.7441   5.7628
  5.7768   5.8138   5.8298   5.8633   5.9062   5.9445   5.9717   6.0136
  6.0448   6.0554   6.0884   6.1443   6.3278   6.3534   6.5748   6.6029
  6.6626   6.7445   6.7716   6.8320   6.9942   6.9965   7.0131   7.1097
  7.1238   7.1932   7.2772   7.3080   7.3200   7.3240   7.3549   7.3651
  7.4016   7.4112   7.4224   7.4446   7.4736   7.5310   7.5669   7.6377
  7.6660   7.7248   7.7905   7.7972   7.8439   7.9013   7.9808   8.2365
 24.4172  24.6792  24.7793  24.8204  24.9070  24.9922  25.2228  50.5840
 50.6171  50.6494  50.6640  50.7149
 
 Beta MOs
 -- Occupied --
-19.4439 -19.4223 -19.3527 -19.3482 -19.3206 -10.4347 -10.4234 -10.4222
-10.4219 -10.3969 -10.3576 -10.3558  -1.3074  -1.1807  -1.1659  -1.1580
 -1.0985  -0.9554  -0.8980  -0.8415  -0.7824  -0.7523  -0.7205  -0.6900
 -0.6571  -0.6386  -0.6245  -0.6064  -0.5826  -0.5776  -0.5652  -0.5465
 -0.5451  -0.5300  -0.5266  -0.5130  -0.4961  -0.4688  -0.4579  -0.4403
 -0.4279  -0.3963  -0.3854  -0.3733  -0.3615
 -- Virtual --
 -0.0268   0.0252   0.0338   0.0356   0.0417   0.0527   0.0555   0.0577
  0.0700   0.0707   0.0821   0.0870   0.0908   0.1041   0.1193   0.1205
  0.1240   0.1281   0.1323   0.1387   0.1417   0.1517   0.1547   0.1563
  0.1606   0.1671   0.1704   0.1737   0.1785   0.1847   0.1893   0.1944
  0.2004   0.2114   0.2125   0.2179   0.2224   0.2268   0.2418   0.2479
  0.2504   0.2723   0.2774   0.2816   0.2863   0.2907   0.3040   0.3121
  0.3133   0.3172   0.3244   0.3328   0.3413   0.3429   0.3461   0.3481
  0.3611   0.3679   0.3702   0.3740   0.3775   0.3797   0.3877   0.3921
  0.3947   0.3973   0.4024   0.4083   0.4227   0.4277   0.4355   0.4395
  0.4469   0.4614   0.4749   0.4796   0.4837   0.5103   0.5130   0.5186
  0.5303   0.5526   0.5620   0.5941   0.6053   0.6092   0.6200   0.6289
  0.6348   0.6463   0.6520   0.6617   0.6669   0.6791   0.6816   0.6917
  0.7014   0.7060   0.7121   0.7233   0.7290   0.7311   0.7380   0.7465
  0.7639   0.7795   0.7906   0.7939   0.8057   0.8154   0.8156   0.8391
  0.8533   0.8651   0.8714   0.8880   0.9018   0.9192   0.9457   0.9659
  0.9810   0.9857   1.0005   1.0297   1.0434   1.0538   1.0601   1.0695
  1.0778   1.0931   1.1151   1.1174   1.1277   1.1373   1.1574   1.1606
  1.1688   1.1812   1.1955   1.1975   1.2098   1.2232   1.2289   1.2353
  1.2434   1.2452   1.2580   1.2701   1.2800   1.2825   1.2898   1.2972
  1.3075   1.3147   1.3279   1.3372   1.3527   1.3648   1.3780   1.3900
  1.3988   1.4023   1.4196   1.4335   1.4360   1.4481   1.4537   1.4688
  1.4797   1.4949   1.5018   1.5180   1.5266   1.5326   1.5498   1.5654
  1.5803   1.5845   1.5886   1.6044   1.6069   1.6396   1.6430   1.6535
  1.6719   1.6754   1.6975   1.7155   1.7271   1.7445   1.7582   1.7905
  1.7929   1.8152   1.8189   1.8870   1.9174   1.9395   1.9520   1.9601
  1.9805   2.0005   2.0243   2.0295   2.0444   2.0621   2.0908   2.1330
  2.1530   2.1756   2.1986   2.2278   2.2505   2.2769   2.3311   2.3372
  2.3621   2.3990   2.4092   2.4522   2.4706   2.4869   2.5386   2.5785
  2.6351   2.6631   2.6869   2.7071   2.7181   2.7440   2.7847   2.8022
  2.8143   2.8320   2.8532   2.8735   2.8987   2.9030   2.9091   2.9288
  2.9391   2.9620   2.9675   2.9858   2.9968   3.0064   3.0197   3.0480
  3.0656   3.0919   3.1023   3.1342   3.1459   3.1484   3.1700   3.1788
  3.2037   3.2231   3.2281   3.2344   3.2760   3.2923   3.3042   3.3180
  3.3324   3.3389   3.3550   3.3642   3.3821   3.3936   3.4172   3.4242
  3.4473   3.4554   3.4874   3.4910   3.5006   3.5266   3.5465   3.5709
  3.5792   3.5847   3.6072   3.6205   3.6328   3.6397   3.6562   3.6712
  3.6854   3.7004   3.7043   3.7563   3.7623   3.7738   3.7895   3.7933
  3.8121   3.8267   3.8370   3.8473   3.8660   3.8760   3.8873   3.8921
  3.9108   3.9170   3.9460   3.9657   3.9687   3.9866   3.9963   4.0018
  4.0147   4.0483   4.0797   4.0913   4.1090   4.1371   4.1386   4.1535
  4.1849   4.2057   4.2501   4.2565   4.2823   4.2986   4.3141   4.3172
  4.3202   4.3663   4.3923   4.3995   4.4069   4.4184   4.4247   4.4369
  4.4590   4.4876   4.4993   4.5151   4.5487   4.5709   4.5922   4.6115
  4.6230   4.6560   4.6794   4.6803   4.7029   4.7383   4.7451   4.7960
  4.8393   4.8723   4.9065   4.9274   4.9873   5.0481   5.1225   5.1641
  5.1760   5.2104   5.2363   5.2720   5.2794   5.2840   5.2980   5.3100
  5.3117   5.3327   5.3344   5.3480   5.3813   5.3977   5.4118   5.4154
  5.4382   5.4723   5.4927   5.5146   5.5275   5.5347   5.5516   5.5885
  5.5921   5.6149   5.6426   5.6542   5.6790   5.6904   5.7143   5.7455
  5.7648   5.7815   5.8250   5.8341   5.8756   5.9081   5.9580   5.9786
  6.0169   6.0455   6.0579   6.0906   6.1465   6.3428   6.3600   6.5787
  6.6035   6.6632   6.7477   6.7774   6.8411   7.0082   7.0219   7.0367
  7.1115   7.1246   7.1980   7.2878   7.3122   7.3224   7.3263   7.3563
  7.3705   7.4063   7.4183   7.4368   7.4490   7.4792   7.5380   7.5719
  7.6441   7.6664   7.7255   7.7971   7.8025   7.8455   7.9039   7.9823
  8.2386  24.4174  24.6829  24.7793  24.8208  24.9118  24.9920  25.2230
 50.5872  50.6171  50.6506  50.6641  50.7191
 --------------------------------------------------------------
 
          Ground-State Mulliken Net Atomic Charges

     Atom                 Charge (a.u.)    Spin (a.u.)
  --------------------------------------------------------
      1 C                    -0.041038       0.003174
      2 C                    -0.292930       0.572214
      3 C                    -0.249274       0.054895
      4 C                    -0.052825      -0.018980
      5 C                    -0.481278       0.011443
      6 C                     0.172124       0.017028
      7 C                    -0.407065      -0.006627
      8 H                     0.307294       0.029411
      9 H                     0.328494      -0.007865
     10 H                     0.231856       0.008280
     11 H                     0.290673       0.002633
     12 H                     0.313397       0.000010
     13 H                     0.258282      -0.000216
     14 O                    -0.372181       0.000644
     15 H                     0.247720       0.001060
     16 H                     0.329297      -0.000036
     17 O                    -0.380022       0.002957
     18 H                     0.345016      -0.000774
     19 O                     0.003461       0.122842
     20 O                    -0.097107      -0.003746
     21 O                    -0.453894       0.211651
  --------------------------------------------------------
  Sum of atomic charges =     0.000000
  Sum of spin   charges =     1.000000

 -----------------------------------------------------------------
                    Cartesian Multipole Moments
 -----------------------------------------------------------------
    Charge (ESU x 10^10)
                 0.0000
    Dipole Moment (Debye)
         X      -1.3308      Y       5.4581      Z      -2.7068
       Tot       6.2361
    Quadrupole Moments (Debye-Ang)
        XX     -69.5856     XY       3.9698     YY     -93.7372
        XZ       7.5566     YZ       3.6233     ZZ     -60.5834
    Octopole Moments (Debye-Ang^2)
       XXX     203.5965    XXY      23.8023    XYY      56.3442
       YYY     216.7233    XXZ     -35.3057    XYZ       9.2688
       YYZ     -39.8988    XZZ      59.2132    YZZ      31.1556
       ZZZ     -66.5800
    Hexadecapole Moments (Debye-Ang^3)
      XXXX    -857.8158   XXXY    -120.7685   XXYY    -299.8496
      XYYY    -170.6802   YYYY   -1545.5536   XXXZ     125.1045
      XXYZ      47.5927   XYYZ      55.3007   YYYZ     269.2111
      XXZZ    -250.6337   XYZZ     -47.9457   YYZZ    -333.2858
      XZZZ     130.9961   YZZZ     141.6962   ZZZZ    -600.5860
 -----------------------------------------------------------------
 Calculating analytic gradient of the SCF energy
 Gradient of CDS energy
            1           2           3           4           5           6
    1   0.0019209  -0.0028944   0.0011727  -0.0000779  -0.0001820   0.0000535
    2  -0.0019477   0.0023187  -0.0024023  -0.0000193   0.0001312   0.0000553
    3  -0.0014621   0.0015619   0.0006117  -0.0002966  -0.0001171   0.0001544
            7           8           9          10          11          12
    1   0.0000651   0.0000134  -0.0000225   0.0000087  -0.0000950  -0.0000460
    2   0.0009989   0.0001959  -0.0001664   0.0002915  -0.0000803   0.0000662
    3  -0.0003721  -0.0000145  -0.0000229   0.0000283  -0.0001658  -0.0001052
           13          14          15          16          17          18
    1  -0.0002411  -0.0001521   0.0001539   0.0001870  -0.0020425   0.0003982
    2  -0.0002710  -0.0000928  -0.0001285  -0.0000682   0.0019998  -0.0001204
    3  -0.0000422   0.0003079   0.0002784  -0.0004677   0.0013903  -0.0002320
           19          20          21
    1   0.0028548   0.0000990  -0.0011738
    2  -0.0020612  -0.0000878   0.0013884
    3  -0.0008772  -0.0000056  -0.0001520
 Gradient of SCF Energy
            1           2           3           4           5           6
    1  -0.0012619  -0.0026185   0.0061219   0.0021097  -0.0024262   0.0002170
    2  -0.0114690   0.0083438  -0.0105071   0.0062754  -0.0027648   0.0033321
    3  -0.0052840  -0.0065924  -0.0024439   0.0077355   0.0077940   0.0021829
            7           8           9          10          11          12
    1   0.0124800   0.0058211   0.0023442  -0.0021966  -0.0031051  -0.0045542
    2  -0.0181139   0.0092492  -0.0018837   0.0016901  -0.0019465   0.0045920
    3   0.0021827   0.0036228   0.0076966   0.0010038  -0.0037476  -0.0142702
           13          14          15          16          17          18
    1  -0.0106797   0.0069103   0.0029388  -0.0090148  -0.0039603   0.0047236
    2   0.0036369   0.0146150   0.0079088  -0.0101497  -0.0128307   0.0077538
    3  -0.0074630   0.0136759   0.0072295  -0.0133858   0.0068736  -0.0066857
           19          20          21
    1  -0.0032445  -0.0017990   0.0011940
    2   0.0020594   0.0000853   0.0001236
    3   0.0010003   0.0003053  -0.0014304
 Max gradient component =       1.811E-02
 RMS gradient           =       7.009E-03
 Computing fast CPCM-SWIG gradient
 Updating gradient with PCM contributions...
 -- total gradient after adding PCM contribution --
---------------------------------------------------
  Atom         X              Y              Z     
---------------------------------------------------
   1       0.001085      -0.000007      -0.000136
   2      -0.000189      -0.000038       0.000107
   3       0.000050      -0.000066       0.000014
   4       0.000006      -0.000002       0.000010
   5      -0.000026      -0.000009      -0.000027
   6      -0.000215       0.000015      -0.000097
   7       0.000024      -0.000003      -0.000019
   8      -0.000229      -0.000187      -0.000081
   9       0.000016       0.000024      -0.000014
  10      -0.000001       0.000005       0.000010
  11       0.000004      -0.000006       0.000010
  12       0.000001      -0.000011       0.000000
  13       0.000000      -0.000016      -0.000009
  14      -0.000001      -0.000008      -0.000005
  15      -0.000001      -0.000003      -0.000013
  16       0.000005      -0.000014      -0.000006
  17      -0.000299       0.000165       0.000166
  18      -0.000034       0.000036       0.000027
  19      -0.000074       0.000025       0.000021
  20      -0.000060       0.000028       0.000028
  21      -0.000063       0.000071       0.000013
---------------------------------------------------
 Number of fixed atoms: 0
 Gradient time:  CPU 722.29 s  wall 56.40 s
 ----------------------------------------------------------------
             Standard Nuclear Orientation (Angstroms)
    I     Atom           X                Y                Z
 ----------------------------------------------------------------
    1      C       0.0460648511    -0.1715590294     0.7797293864
    2      C      -0.7269181770    -0.7936306875     1.8871075942
    3      C      -1.6054089047    -2.5986216382     0.9144941470
    4      C      -1.9994750183    -1.9919561799    -0.3959684827
    5      C      -1.8274212870    -0.7465885448    -0.8203541281
    6      C      -1.1453044417     0.3461795945    -0.0425297996
    7      C      -0.7783571972     1.5475240948    -0.9042265548
    8      H       0.5994917899     0.6939126225     1.1680353948
    9      H      -0.3254844076    -1.2763487472     2.7670324440
   10      H      -2.3266889492    -2.4827241455     1.7338591098
   11      H      -2.4880601741    -2.7070580136    -1.0516641277
   12      H      -2.1895058714    -0.4748558750    -1.8057745261
   13      H      -1.6552636536     1.9178647383    -1.4362539622
   14      O       0.2580650109     1.1873268336    -1.8069512887
   15      H      -0.3896980921     2.3362135814    -0.2641392419
   16      H      -0.1227140041     0.6834259217    -2.5347929614
   17      O       0.9082155389    -1.0780562367     0.1444002159
   18      H       1.3726212145    -0.5896830547    -0.5468709416
   19      O      -1.8105423956    -0.0308362828     2.1431294205
   20      O      -1.9978556240     0.8555253344     1.0061680980
   21      O      -0.7679525079    -3.5143030859     0.9573831043
 ----------------------------------------------------------------
 Nuclear Repulsion Energy =         778.71664802 hartrees
 There are       46 alpha and       45 beta electrons
 Discretize the solute cavity surface with Lebedev spheres
	Using 110 Lebedev grid points for each H atom
	Using 194 Lebedev grid points for other atoms
	Atomic van der Waals radii will be scaled by 1.20
 Remove points where switching function is < 1.0e-08
 Keep 1564 surface tesserae and discard 1754 interior tesserae
 Molecular Surface Area = 174.517 Angst**2
 Requested basis set is 6-311++G(2df,2p)
 There are 150 shells and 498 basis functions
 A cutoff of  1.0D-12 yielded  10105 shell pairs
 There are    112323 function pairs (    140622 Cartesian)
 Smallest overlap matrix eigenvalue = 2.67E-06
 Guess MOs from SCF MO coefficient file

 -----------------------------------------------------------------------
  General SCF calculation program by
  Eric Jon Sundstrom, Paul Horn, Yuezhi Mao, Dmitri Zuev, Alec White,
  David Stuck, Shaama M.S., Shane Yost, Joonho Lee, David Small,
  Daniel Levine, Susi Lehtola, Hugh Burton, Evgeny Epifanovsky,
  Bang C. Huynh
 -----------------------------------------------------------------------
 Exchange:     0.1500 Hartree-Fock + 1.0000 wB97M-V + LR-HF
 Correlation:  1.0000 wB97M-V
 Using SG-2 standard quadrature grid
 Nonlocal Correlation:  VV10 with C = 0.0100 and b = 6.00 and scale = 1.00000
 Grid used for NLC:  SG-1 standard quadrature
 
 Citation of the SMD model:
 Marenich, A.V.; Cramer, C.J.; Truhlar, D.G.
 J. Phys. Chem. B 2009, 113, 6378-6396.
 iSolventCode=           1
 Solvent: water                                                           
 
 vradii
            1           2           3           4           5           6
    1   1.8500000   1.8500000   1.8500000   1.8500000   1.8500000   1.8500000
            7           8           9          10          11          12
    1   1.8500000   1.2000000   1.2000000   1.2000000   1.2000000   1.2000000
           13          14          15          16          17          18
    1   1.2000000   1.5200000   1.2000000   1.2000000   1.5200000   1.2000000
           19          20          21
    1   1.5200000   1.5200000   1.5200000
 -------------------------------------------------------
 OpenMP BLAS3 based DFT computing Module                
 Release: version 1.0, May 2013, Q-Chem Inc. Pittsburgh 
 -------------------------------------------------------
 A unrestricted SCF calculation will be
 performed using Roothaan-Hall, DIIS, GDM
 SCF converges when RMS gradient is below 1.0e-07
 ---------------------------------------
  Cycle       Energy         DIIS error
 ---------------------------------------
    1    -648.0507473392      2.12e-04  Roothaan Step
 ---------------------------------------
  Cycle       Energy         DIIS error
 ---------------------------------------
    1    -648.0892320593      2.67e-04  
    2    -648.0947720895      2.96e-04  Done DIIS. Switching to GDM
 ---------------------------------------
  Cycle       Energy        RMS Gradient
 ---------------------------------------
    1    -648.0947720895      1.98e-02   Normal BFGS step
    2    -648.0916315165      3.51e-02  Line search: overstep
    3    -648.1017841244      4.47e-03   Normal BFGS step
    4    -648.1020829712      1.58e-03   Normal BFGS step
    5    -648.1021654050      7.43e-04   Normal BFGS step
    6    -648.1021780009      2.43e-04   Normal BFGS step
    7    -648.1021808940      2.20e-04   Normal BFGS step
    8    -648.1021817495      7.44e-05   Normal BFGS step
    9    -648.1021819253      5.27e-05   Normal BFGS step
   10    -648.1021819858      2.74e-05   Normal BFGS step
   11    -648.1021819956      1.31e-05   Normal BFGS step
   12    -648.1021819988      9.53e-06   Normal BFGS step
   13    -648.1021819996      5.20e-06   Normal BFGS step
   14    -648.1021819999      2.22e-06   Normal BFGS step
   15    -648.1021820000      1.86e-06   Normal BFGS step
   16    -648.1021819999      8.19e-07   Normal BFGS step
   17    -648.1021819999      1.97e-07   Normal BFGS step
   18    -648.1021819999      1.05e-07   Normal BFGS step
   19    -648.1021820000      5.89e-08  Convergence criterion met
 ---------------------------------------
 SCF time:   CPU 3881.56s  wall 264.00s 
<S^2> =          0.759248721
(3)  G-ENP(liq) elect-nuc-pol free energy of system     -648.102182000 a.u.
(4)  G-CDS(liq) cavity-dispersion-solvent structure 
     free energy                                                4.5604 kcal/mol
(6)  G-S(liq) free energy of system                     -648.094914600 a.u.
 SCF   energy in the final basis set =     -648.0949146001
 Total energy in the final basis set =     -648.0949146001
 
 --------------------------------------------------------------
 
                    Orbital Energies (a.u.)
 --------------------------------------------------------------
 
 Alpha MOs
 -- Occupied --
-19.4488 -19.4222 -19.3527 -19.3482 -19.3266 -10.4342 -10.4313 -10.4236
-10.4219 -10.3969 -10.3577 -10.3559  -1.3133  -1.1810  -1.1682  -1.1654
 -1.1035  -0.9594  -0.9016  -0.8455  -0.7864  -0.7606  -0.7267  -0.6952
 -0.6625  -0.6409  -0.6273  -0.6129  -0.5864  -0.5827  -0.5722  -0.5574
 -0.5496  -0.5360  -0.5297  -0.5173  -0.5019  -0.4808  -0.4675  -0.4483
 -0.4358  -0.3975  -0.3898  -0.3757  -0.3677  -0.2934
 -- Virtual --
  0.0253   0.0332   0.0350   0.0410   0.0512   0.0547   0.0557   0.0621
  0.0708   0.0794   0.0865   0.0896   0.0943   0.1061   0.1203   0.1230
  0.1277   0.1322   0.1382   0.1412   0.1513   0.1547   0.1558   0.1605
  0.1659   0.1692   0.1724   0.1777   0.1847   0.1882   0.1944   0.2002
  0.2111   0.2120   0.2179   0.2220   0.2249   0.2413   0.2455   0.2502
  0.2706   0.2767   0.2810   0.2836   0.2894   0.3033   0.3101   0.3117
  0.3158   0.3222   0.3312   0.3397   0.3417   0.3433   0.3468   0.3592
  0.3660   0.3686   0.3716   0.3759   0.3781   0.3868   0.3909   0.3939
  0.3959   0.4005   0.4072   0.4215   0.4268   0.4311   0.4380   0.4455
  0.4606   0.4712   0.4772   0.4824   0.5087   0.5126   0.5178   0.5289
  0.5502   0.5605   0.5933   0.6047   0.6066   0.6190   0.6267   0.6337
  0.6447   0.6506   0.6603   0.6644   0.6759   0.6779   0.6893   0.6999
  0.7039   0.7090   0.7193   0.7256   0.7291   0.7349   0.7420   0.7625
  0.7724   0.7894   0.7922   0.8041   0.8119   0.8135   0.8362   0.8519
  0.8636   0.8702   0.8858   0.8994   0.9164   0.9444   0.9634   0.9790
  0.9834   0.9996   1.0280   1.0417   1.0500   1.0585   1.0682   1.0756
  1.0893   1.1119   1.1167   1.1240   1.1352   1.1552   1.1567   1.1671
  1.1761   1.1926   1.1961   1.2082   1.2208   1.2256   1.2313   1.2387
  1.2434   1.2551   1.2677   1.2771   1.2799   1.2877   1.2942   1.3048
  1.3126   1.3257   1.3342   1.3507   1.3623   1.3752   1.3859   1.3971
  1.3995   1.4167   1.4298   1.4313   1.4453   1.4507   1.4663   1.4760
  1.4916   1.4998   1.5169   1.5232   1.5293   1.5474   1.5634   1.5747
  1.5783   1.5870   1.6020   1.6053   1.6354   1.6380   1.6512   1.6679
  1.6717   1.6950   1.7118   1.7237   1.7408   1.7562   1.7865   1.7877
  1.8086   1.8164   1.8840   1.9139   1.9321   1.9483   1.9542   1.9765
  1.9970   2.0199   2.0226   2.0406   2.0599   2.0860   2.1299   2.1505
  2.1739   2.1960   2.2230   2.2460   2.2727   2.3264   2.3349   2.3583
  2.3961   2.4085   2.4453   2.4685   2.4839   2.5351   2.5740   2.6270
  2.6582   2.6830   2.6962   2.7130   2.7406   2.7773   2.7940   2.8085
  2.8265   2.8501   2.8681   2.8951   2.9017   2.9047   2.9221   2.9312
  2.9567   2.9614   2.9806   2.9881   2.9956   3.0162   3.0370   3.0587
  3.0806   3.0958   3.1281   3.1320   3.1418   3.1598   3.1659   3.1933
  3.2138   3.2238   3.2261   3.2716   3.2853   3.2953   3.3101   3.3213
  3.3335   3.3464   3.3606   3.3726   3.3863   3.4134   3.4193   3.4375
  3.4477   3.4742   3.4858   3.4952   3.5192   3.5317   3.5646   3.5712
  3.5762   3.5948   3.6163   3.6247   3.6345   3.6401   3.6661   3.6743
  3.6945   3.6966   3.7425   3.7553   3.7669   3.7828   3.7883   3.8056
  3.8210   3.8339   3.8341   3.8602   3.8708   3.8819   3.8848   3.9050
  3.9141   3.9426   3.9552   3.9646   3.9777   3.9910   3.9992   4.0099
  4.0413   4.0733   4.0862   4.1045   4.1256   4.1327   4.1488   4.1789
  4.2016   4.2462   4.2502   4.2787   4.2937   4.3077   4.3124   4.3171
  4.3613   4.3889   4.3923   4.4040   4.4136   4.4164   4.4334   4.4477
  4.4816   4.4871   4.5088   4.5449   4.5634   4.5804   4.6069   4.6174
  4.6514   4.6743   4.6764   4.6976   4.7306   4.7394   4.7932   4.8295
  4.8612   4.9002   4.9207   4.9838   5.0448   5.1176   5.1518   5.1639
  5.1938   5.2244   5.2647   5.2705   5.2788   5.2963   5.3075   5.3089
  5.3169   5.3331   5.3348   5.3757   5.3959   5.4060   5.4135   5.4297
  5.4686   5.4881   5.5108   5.5209   5.5328   5.5433   5.5763   5.5885
  5.6079   5.6321   5.6461   5.6756   5.6896   5.7078   5.7437   5.7629
  5.7764   5.8139   5.8297   5.8630   5.9060   5.9446   5.9714   6.0133
  6.0447   6.0545   6.0874   6.1441   6.3278   6.3535   6.5748   6.6029
  6.6626   6.7424   6.7713   6.8318   6.9941   6.9965   7.0131   7.1097
  7.1238   7.1932   7.2772   7.3081   7.3199   7.3240   7.3548   7.3650
  7.4014   7.4111   7.4222   7.4444   7.4736   7.5310   7.5669   7.6377
  7.6660   7.7248   7.7904   7.7972   7.8438   7.9012   7.9808   8.2366
 24.4173  24.6783  24.7791  24.8216  24.9081  24.9923  25.2228  50.5841
 50.6171  50.6494  50.6637  50.7149
 
 Beta MOs
 -- Occupied --
-19.4439 -19.4224 -19.3526 -19.3482 -19.3206 -10.4347 -10.4234 -10.4222
-10.4219 -10.3969 -10.3576 -10.3558  -1.3075  -1.1803  -1.1659  -1.1580
 -1.0986  -0.9556  -0.8981  -0.8416  -0.7824  -0.7523  -0.7206  -0.6900
 -0.6572  -0.6384  -0.6245  -0.6064  -0.5826  -0.5774  -0.5652  -0.5465
 -0.5451  -0.5300  -0.5266  -0.5130  -0.4962  -0.4689  -0.4579  -0.4403
 -0.4279  -0.3963  -0.3856  -0.3733  -0.3615
 -- Virtual --
 -0.0268   0.0252   0.0338   0.0355   0.0416   0.0527   0.0555   0.0577
  0.0700   0.0707   0.0821   0.0870   0.0908   0.1041   0.1193   0.1205
  0.1240   0.1281   0.1323   0.1387   0.1417   0.1517   0.1547   0.1563
  0.1606   0.1671   0.1704   0.1737   0.1785   0.1847   0.1892   0.1944
  0.2004   0.2114   0.2125   0.2179   0.2224   0.2268   0.2418   0.2478
  0.2504   0.2722   0.2774   0.2816   0.2861   0.2908   0.3040   0.3120
  0.3132   0.3172   0.3244   0.3329   0.3414   0.3429   0.3460   0.3481
  0.3611   0.3680   0.3702   0.3740   0.3775   0.3796   0.3877   0.3922
  0.3946   0.3973   0.4024   0.4083   0.4227   0.4277   0.4356   0.4396
  0.4468   0.4615   0.4750   0.4795   0.4836   0.5103   0.5131   0.5186
  0.5302   0.5526   0.5619   0.5943   0.6054   0.6092   0.6199   0.6289
  0.6348   0.6463   0.6521   0.6617   0.6669   0.6791   0.6815   0.6917
  0.7013   0.7060   0.7121   0.7232   0.7290   0.7312   0.7381   0.7464
  0.7639   0.7795   0.7906   0.7939   0.8058   0.8155   0.8157   0.8390
  0.8533   0.8651   0.8715   0.8880   0.9018   0.9193   0.9458   0.9659
  0.9810   0.9856   1.0005   1.0297   1.0433   1.0538   1.0602   1.0695
  1.0778   1.0932   1.1151   1.1174   1.1277   1.1372   1.1574   1.1606
  1.1688   1.1812   1.1955   1.1975   1.2098   1.2233   1.2289   1.2353
  1.2434   1.2453   1.2579   1.2701   1.2800   1.2825   1.2898   1.2971
  1.3075   1.3147   1.3279   1.3371   1.3528   1.3648   1.3780   1.3901
  1.3989   1.4023   1.4197   1.4335   1.4361   1.4481   1.4537   1.4689
  1.4796   1.4949   1.5019   1.5181   1.5267   1.5326   1.5498   1.5653
  1.5805   1.5844   1.5887   1.6045   1.6069   1.6395   1.6429   1.6534
  1.6719   1.6754   1.6976   1.7154   1.7273   1.7445   1.7583   1.7908
  1.7929   1.8153   1.8189   1.8872   1.9175   1.9395   1.9519   1.9602
  1.9804   2.0005   2.0242   2.0295   2.0443   2.0621   2.0908   2.1332
  2.1530   2.1757   2.1987   2.2277   2.2505   2.2766   2.3308   2.3372
  2.3620   2.3989   2.4091   2.4523   2.4702   2.4870   2.5386   2.5785
  2.6350   2.6632   2.6869   2.7071   2.7181   2.7441   2.7845   2.8028
  2.8143   2.8321   2.8534   2.8736   2.8988   2.9031   2.9093   2.9289
  2.9391   2.9621   2.9676   2.9858   2.9968   3.0065   3.0197   3.0482
  3.0656   3.0920   3.1025   3.1341   3.1458   3.1488   3.1699   3.1789
  3.2038   3.2233   3.2283   3.2345   3.2760   3.2926   3.3042   3.3181
  3.3324   3.3390   3.3550   3.3641   3.3821   3.3936   3.4171   3.4242
  3.4476   3.4555   3.4874   3.4911   3.5006   3.5266   3.5465   3.5708
  3.5792   3.5849   3.6071   3.6204   3.6328   3.6397   3.6562   3.6714
  3.6855   3.7002   3.7044   3.7563   3.7624   3.7739   3.7896   3.7932
  3.8121   3.8270   3.8370   3.8472   3.8661   3.8759   3.8874   3.8923
  3.9107   3.9170   3.9464   3.9660   3.9689   3.9865   3.9963   4.0019
  4.0151   4.0485   4.0800   4.0915   4.1095   4.1373   4.1388   4.1537
  4.1849   4.2060   4.2503   4.2566   4.2825   4.2990   4.3142   4.3179
  4.3206   4.3665   4.3922   4.3997   4.4071   4.4185   4.4245   4.4370
  4.4583   4.4877   4.4997   4.5151   4.5488   4.5714   4.5922   4.6116
  4.6229   4.6560   4.6798   4.6805   4.7030   4.7387   4.7453   4.7961
  4.8401   4.8725   4.9067   4.9277   4.9873   5.0484   5.1227   5.1646
  5.1760   5.2104   5.2367   5.2728   5.2795   5.2841   5.2979   5.3098
  5.3118   5.3327   5.3345   5.3479   5.3813   5.3979   5.4119   5.4154
  5.4383   5.4724   5.4927   5.5148   5.5274   5.5347   5.5516   5.5883
  5.5920   5.6149   5.6425   5.6543   5.6791   5.6904   5.7126   5.7451
  5.7648   5.7810   5.8251   5.8341   5.8754   5.9080   5.9581   5.9783
  6.0166   6.0455   6.0571   6.0896   6.1463   6.3428   6.3601   6.5787
  6.6035   6.6633   6.7455   6.7773   6.8410   7.0082   7.0219   7.0367
  7.1115   7.1245   7.1979   7.2878   7.3122   7.3224   7.3262   7.3562
  7.3704   7.4061   7.4180   7.4368   7.4488   7.4792   7.5380   7.5719
  7.6441   7.6664   7.7256   7.7971   7.8025   7.8454   7.9039   7.9823
  8.2387  24.4174  24.6819  24.7792  24.8220  24.9130  24.9921  25.2230
 50.5873  50.6171  50.6506  50.6638  50.7191
 --------------------------------------------------------------
 
          Ground-State Mulliken Net Atomic Charges

     Atom                 Charge (a.u.)    Spin (a.u.)
  --------------------------------------------------------
      1 C                    -0.040102       0.003158
      2 C                    -0.293549       0.572148
      3 C                    -0.249267       0.054906
      4 C                    -0.052814      -0.019006
      5 C                    -0.481629       0.011488
      6 C                     0.173054       0.016955
      7 C                    -0.406868      -0.006684
      8 H                     0.306951       0.029622
      9 H                     0.328539      -0.007880
     10 H                     0.231872       0.008280
     11 H                     0.290705       0.002635
     12 H                     0.313362       0.000012
     13 H                     0.258334      -0.000218
     14 O                    -0.372185       0.000644
     15 H                     0.247706       0.001068
     16 H                     0.329301      -0.000035
     17 O                    -0.380854       0.002985
     18 H                     0.345031      -0.000773
     19 O                     0.003319       0.122824
     20 O                    -0.097023      -0.003739
     21 O                    -0.453883       0.211611
  --------------------------------------------------------
  Sum of atomic charges =     0.000000
  Sum of spin   charges =     1.000000

 -----------------------------------------------------------------
                    Cartesian Multipole Moments
 -----------------------------------------------------------------
    Charge (ESU x 10^10)
                 0.0000
    Dipole Moment (Debye)
         X      -1.3386      Y       5.4600      Z      -2.7054
       Tot       6.2388
    Quadrupole Moments (Debye-Ang)
        XX     -69.5844     XY       3.9743     YY     -93.7329
        XZ       7.5544     YZ       3.6170     ZZ     -60.5731
    Octopole Moments (Debye-Ang^2)
       XXX     203.6030    XXY      23.8040    XYY      56.3354
       YYY     216.7231    XXZ     -35.3086    XYZ       9.2737
       YYZ     -39.8968    XZZ      59.2094    YZZ      31.1460
       ZZZ     -66.5557
    Hexadecapole Moments (Debye-Ang^3)
      XXXX    -857.7864   XXXY    -120.7601   XXYY    -299.8274
      XYYY    -170.6641   YYYY   -1545.4929   XXXZ     125.1277
      XXYZ      47.5893   XYYZ      55.3087   YYYZ     269.1809
      XXZZ    -250.6200   XYZZ     -47.9363   YYZZ    -333.2566
      XZZZ     131.0029   YZZZ     141.6450   ZZZZ    -600.4699
 -----------------------------------------------------------------
 Calculating analytic gradient of the SCF energy
 Gradient of CDS energy
            1           2           3           4           5           6
    1   0.0017871  -0.0028934   0.0011727  -0.0000776  -0.0001818   0.0000541
    2  -0.0018186   0.0023188  -0.0024023  -0.0000194   0.0001311   0.0000551
    3  -0.0013690   0.0015610   0.0006117  -0.0002967  -0.0001172   0.0001548
            7           8           9          10          11          12
    1   0.0000651   0.0000213  -0.0000225   0.0000087  -0.0000950  -0.0000460
    2   0.0009989   0.0001949  -0.0001663   0.0002915  -0.0000803   0.0000662
    3  -0.0003721  -0.0000162  -0.0000228   0.0000283  -0.0001658  -0.0001052
           13          14          15          16          17          18
    1  -0.0002411  -0.0001520   0.0001538   0.0001870  -0.0019206   0.0003994
    2  -0.0002710  -0.0000928  -0.0001285  -0.0000682   0.0018722  -0.0001211
    3  -0.0000422   0.0003080   0.0002784  -0.0004677   0.0012997  -0.0002320
           19          20          21
    1   0.0028549   0.0000989  -0.0011731
    2  -0.0020612  -0.0000878   0.0013887
    3  -0.0008770  -0.0000057  -0.0001522
 Gradient of SCF Energy
            1           2           3           4           5           6
    1  -0.0034221  -0.0022693   0.0061365   0.0021034  -0.0023680   0.0006323
    2  -0.0114692   0.0084814  -0.0104762   0.0062635  -0.0027484   0.0033104
    3  -0.0050198  -0.0067912  -0.0024509   0.0077357   0.0078653   0.0023497
            7           8           9          10          11          12
    1   0.0124512   0.0062838   0.0022927  -0.0022000  -0.0031082  -0.0045542
    2  -0.0181290   0.0096105  -0.0019020   0.0016909  -0.0019499   0.0045950
    3   0.0022004   0.0037719   0.0077468   0.0010099  -0.0037504  -0.0142783
           13          14          15          16          17          18
    1  -0.0106839   0.0069245   0.0029358  -0.0090183  -0.0033428   0.0047761
    2   0.0036550   0.0146018   0.0079167  -0.0101465  -0.0131587   0.0076733
    3  -0.0074815   0.0136757   0.0072284  -0.0133860   0.0065410  -0.0067145
           19          20          21
    1  -0.0030967  -0.0016764   0.0012036
    2   0.0020256   0.0000386   0.0001168
    3   0.0009441   0.0002362  -0.0014324
 Max gradient component =       1.813E-02
 RMS gradient           =       7.037E-03
 Computing fast CPCM-SWIG gradient
 Updating gradient with PCM contributions...
 -- total gradient after adding PCM contribution --
---------------------------------------------------
  Atom         X              Y              Z     
---------------------------------------------------
   1      -0.001088       0.000007       0.000129
   2       0.000181       0.000070      -0.000097
   3       0.000056      -0.000033       0.000012
   4       0.000004      -0.000013       0.000009
   5       0.000032      -0.000001       0.000030
   6       0.000214      -0.000015       0.000081
   7      -0.000020      -0.000007      -0.000002
   8       0.000222       0.000198       0.000077
   9      -0.000034       0.000009       0.000025
  10      -0.000000       0.000004       0.000010
  11       0.000003      -0.000008       0.000010
  12       0.000004      -0.000010      -0.000003
  13       0.000004      -0.000003      -0.000021
  14       0.000007      -0.000014      -0.000008
  15      -0.000002       0.000001      -0.000015
  16       0.000006      -0.000014      -0.000004
  17       0.000299      -0.000165      -0.000151
  18       0.000034      -0.000040      -0.000017
  19       0.000075      -0.000011      -0.000035
  20       0.000059      -0.000017      -0.000042
  21      -0.000055       0.000061       0.000013
---------------------------------------------------
 Number of fixed atoms: 0
 Gradient time:  CPU 740.20 s  wall 58.43 s
 ----------------------------------------------------------------
             Standard Nuclear Orientation (Angstroms)
    I     Atom           X                Y                Z
 ----------------------------------------------------------------
    1      C       0.0470648511    -0.1705590294     0.7797293864
    2      C      -0.7269181770    -0.7936306875     1.8871075942
    3      C      -1.6054089047    -2.5986216382     0.9144941470
    4      C      -1.9994750183    -1.9919561799    -0.3959684827
    5      C      -1.8274212870    -0.7465885448    -0.8203541281
    6      C      -1.1453044417     0.3461795945    -0.0425297996
    7      C      -0.7783571972     1.5475240948    -0.9042265548
    8      H       0.5994917899     0.6939126225     1.1680353948
    9      H      -0.3254844076    -1.2763487472     2.7670324440
   10      H      -2.3266889492    -2.4827241455     1.7338591098
   11      H      -2.4880601741    -2.7070580136    -1.0516641277
   12      H      -2.1895058714    -0.4748558750    -1.8057745261
   13      H      -1.6552636536     1.9178647383    -1.4362539622
   14      O       0.2580650109     1.1873268336    -1.8069512887
   15      H      -0.3896980921     2.3362135814    -0.2641392419
   16      H      -0.1227140041     0.6834259217    -2.5347929614
   17      O       0.9082155389    -1.0780562367     0.1444002159
   18      H       1.3726212145    -0.5896830547    -0.5468709416
   19      O      -1.8105423956    -0.0308362828     2.1431294205
   20      O      -1.9978556240     0.8555253344     1.0061680980
   21      O      -0.7679525079    -3.5143030859     0.9573831043
 ----------------------------------------------------------------
 Nuclear Repulsion Energy =         778.69327223 hartrees
 There are       46 alpha and       45 beta electrons
 Discretize the solute cavity surface with Lebedev spheres
	Using 110 Lebedev grid points for each H atom
	Using 194 Lebedev grid points for other atoms
	Atomic van der Waals radii will be scaled by 1.20
 Remove points where switching function is < 1.0e-08
 Keep 1564 surface tesserae and discard 1754 interior tesserae
 Molecular Surface Area = 174.517 Angst**2
 Requested basis set is 6-311++G(2df,2p)
 There are 150 shells and 498 basis functions
 A cutoff of  1.0D-12 yielded  10105 shell pairs
 There are    112323 function pairs (    140622 Cartesian)
 Smallest overlap matrix eigenvalue = 2.67E-06
 Guess MOs from SCF MO coefficient file

 -----------------------------------------------------------------------
  General SCF calculation program by
  Eric Jon Sundstrom, Paul Horn, Yuezhi Mao, Dmitri Zuev, Alec White,
  David Stuck, Shaama M.S., Shane Yost, Joonho Lee, David Small,
  Daniel Levine, Susi Lehtola, Hugh Burton, Evgeny Epifanovsky,
  Bang C. Huynh
 -----------------------------------------------------------------------
 Exchange:     0.1500 Hartree-Fock + 1.0000 wB97M-V + LR-HF
 Correlation:  1.0000 wB97M-V
 Using SG-2 standard quadrature grid
 Nonlocal Correlation:  VV10 with C = 0.0100 and b = 6.00 and scale = 1.00000
 Grid used for NLC:  SG-1 standard quadrature
 
 Citation of the SMD model:
 Marenich, A.V.; Cramer, C.J.; Truhlar, D.G.
 J. Phys. Chem. B 2009, 113, 6378-6396.
 iSolventCode=           1
 Solvent: water                                                           
 
 vradii
            1           2           3           4           5           6
    1   1.8500000   1.8500000   1.8500000   1.8500000   1.8500000   1.8500000
            7           8           9          10          11          12
    1   1.8500000   1.2000000   1.2000000   1.2000000   1.2000000   1.2000000
           13          14          15          16          17          18
    1   1.2000000   1.5200000   1.2000000   1.2000000   1.5200000   1.2000000
           19          20          21
    1   1.5200000   1.5200000   1.5200000
 -------------------------------------------------------
 OpenMP BLAS3 based DFT computing Module                
 Release: version 1.0, May 2013, Q-Chem Inc. Pittsburgh 
 -------------------------------------------------------
 A unrestricted SCF calculation will be
 performed using Roothaan-Hall, DIIS, GDM
 SCF converges when RMS gradient is below 1.0e-07
[...]
    2    -648.0922195034      3.72e-02  Line search: overstep
    3    -648.1019354968      4.03e-03   Normal BFGS step
    4    -648.1022241178      1.60e-03   Normal BFGS step
    5    -648.1023009551      6.49e-04   Normal BFGS step
    6    -648.1023127298      2.25e-04   Normal BFGS step
    7    -648.1023152229      1.61e-04   Normal BFGS step
    8    -648.1023159238      7.29e-05   Normal BFGS step
    9    -648.1023160672      4.59e-05   Normal BFGS step
   10    -648.1023161095      2.05e-05   Normal BFGS step
   11    -648.1023161178      1.15e-05   Normal BFGS step
   12    -648.1023161200      6.33e-06   Normal BFGS step
   13    -648.1023161205      3.14e-06   Normal BFGS step
   14    -648.1023161207      1.58e-06   Normal BFGS step
   15    -648.1023161208      1.77e-06   Normal BFGS step
   16    -648.1023161208      9.36e-07   Normal BFGS step
   17    -648.1023161207      2.98e-07   Normal BFGS step
   18    -648.1023161208      8.42e-08  Convergence criterion met
 ---------------------------------------
 SCF time:   CPU 3720.97s  wall 255.00s 
<S^2> =          0.758139415
(3)  G-ENP(liq) elect-nuc-pol free energy of system     -648.102316121 a.u.
(4)  G-CDS(liq) cavity-dispersion-solvent structure 
     free energy                                                4.6170 kcal/mol
(6)  G-S(liq) free energy of system                     -648.094958449 a.u.
 SCF   energy in the final basis set =     -648.0949584491
 Total energy in the final basis set =     -648.0949584491
 
 --------------------------------------------------------------
 
                    Orbital Energies (a.u.)
 --------------------------------------------------------------
 
 Alpha MOs
 -- Occupied --
-19.4474 -19.4215 -19.3522 -19.3481 -19.3287 -10.4364 -10.4264 -10.4234
-10.4210 -10.3966 -10.3582 -10.3568  -1.3119  -1.1805  -1.1714  -1.1655
 -1.1020  -0.9580  -0.9019  -0.8447  -0.7861  -0.7592  -0.7266  -0.6941
 -0.6614  -0.6408  -0.6269  -0.6125  -0.5863  -0.5834  -0.5726  -0.5581
 -0.5490  -0.5355  -0.5296  -0.5167  -0.5018  -0.4810  -0.4672  -0.4482
 -0.4355  -0.3973  -0.3895  -0.3762  -0.3684  -0.2893
 -- Virtual --
  0.0253   0.0328   0.0348   0.0407   0.0505   0.0542   0.0553   0.0610
  0.0708   0.0793   0.0863   0.0894   0.0931   0.1057   0.1204   0.1230
  0.1277   0.1322   0.1381   0.1409   0.1509   0.1549   0.1557   0.1603
  0.1657   0.1690   0.1723   0.1779   0.1846   0.1882   0.1944   0.1998
  0.2107   0.2120   0.2181   0.2218   0.2250   0.2415   0.2459   0.2503
  0.2705   0.2769   0.2805   0.2842   0.2896   0.3029   0.3088   0.3116
  0.3162   0.3219   0.3307   0.3395   0.3416   0.3433   0.3469   0.3581
  0.3660   0.3680   0.3724   0.3762   0.3777   0.3865   0.3910   0.3941
  0.3958   0.3998   0.4070   0.4214   0.4265   0.4319   0.4377   0.4451
  0.4605   0.4723   0.4772   0.4837   0.5085   0.5125   0.5183   0.5278
  0.5506   0.5602   0.5940   0.6051   0.6060   0.6192   0.6271   0.6339
  0.6460   0.6501   0.6599   0.6640   0.6751   0.6777   0.6905   0.6990
  0.7042   0.7086   0.7189   0.7256   0.7303   0.7340   0.7419   0.7624
  0.7723   0.7893   0.7939   0.8027   0.8098   0.8124   0.8327   0.8514
  0.8619   0.8694   0.8843   0.9012   0.9163   0.9441   0.9623   0.9763
  0.9836   0.9978   1.0245   1.0427   1.0456   1.0591   1.0661   1.0739
  1.0869   1.1058   1.1166   1.1196   1.1334   1.1538   1.1556   1.1680
  1.1757   1.1907   1.1961   1.2074   1.2179   1.2249   1.2316   1.2364
  1.2429   1.2534   1.2669   1.2747   1.2790   1.2870   1.2906   1.3045
  1.3129   1.3243   1.3321   1.3479   1.3614   1.3728   1.3870   1.3983
  1.3990   1.4166   1.4285   1.4302   1.4473   1.4484   1.4676   1.4777
  1.4903   1.4992   1.5159   1.5229   1.5307   1.5466   1.5636   1.5720
  1.5802   1.5862   1.6022   1.6058   1.6306   1.6364   1.6506   1.6646
  1.6712   1.6929   1.7100   1.7254   1.7405   1.7553   1.7860   1.7896
  1.8075   1.8127   1.8824   1.9193   1.9322   1.9462   1.9505   1.9769
  1.9935   2.0143   2.0236   2.0418   2.0611   2.0838   2.1292   2.1501
  2.1727   2.1953   2.2201   2.2466   2.2706   2.3235   2.3368   2.3603
  2.3983   2.4080   2.4457   2.4680   2.4816   2.5333   2.5744   2.6311
  2.6591   2.6824   2.7029   2.7124   2.7405   2.7765   2.7946   2.8109
  2.8263   2.8505   2.8680   2.8930   2.9019   2.9062   2.9261   2.9331
  2.9549   2.9645   2.9824   2.9875   2.9948   3.0165   3.0390   3.0580
  3.0735   3.0940   3.1225   3.1298   3.1436   3.1484   3.1622   3.1836
  3.2104   3.2188   3.2286   3.2712   3.2823   3.2872   3.3037   3.3167
  3.3353   3.3388   3.3588   3.3714   3.3847   3.4064   3.4174   3.4317
  3.4438   3.4626   3.4853   3.4922   3.5128   3.5282   3.5561   3.5670
  3.5723   3.5865   3.6077   3.6212   3.6293   3.6304   3.6615   3.6756
  3.6913   3.6938   3.7366   3.7484   3.7627   3.7813   3.7859   3.8002
  3.8198   3.8286   3.8306   3.8576   3.8653   3.8745   3.8837   3.9030
  3.9127   3.9419   3.9492   3.9601   3.9750   3.9828   3.9963   4.0052
  4.0389   4.0697   4.0795   4.1034   4.1184   4.1314   4.1469   4.1797
  4.2001   4.2455   4.2479   4.2758   4.2881   4.3039   4.3094   4.3158
  4.3574   4.3837   4.3899   4.4021   4.4127   4.4132   4.4330   4.4433
  4.4810   4.4864   4.5060   4.5408   4.5635   4.5809   4.6044   4.6180
  4.6511   4.6732   4.6778   4.6972   4.7297   4.7388   4.7915   4.8335
  4.8595   4.9014   4.9254   4.9854   5.0449   5.1205   5.1518   5.1622
  5.1921   5.2219   5.2627   5.2666   5.2796   5.2968   5.3060   5.3091
  5.3137   5.3334   5.3342   5.3768   5.3953   5.4059   5.4133   5.4297
  5.4692   5.4830   5.5099   5.5237   5.5318   5.5425   5.5767   5.5878
  5.6084   5.6321   5.6442   5.6755   5.6897   5.7046   5.7447   5.7631
  5.7768   5.8167   5.8388   5.8672   5.9051   5.9393   5.9708   6.0154
  6.0453   6.0530   6.0933   6.1473   6.3407   6.3555   6.5978   6.6073
  6.6631   6.7386   6.7721   6.8268   6.9900   6.9966   7.0134   7.1105
  7.1252   7.1989   7.2730   7.3074   7.3189   7.3253   7.3529   7.3627
  7.3993   7.4086   7.4195   7.4438   7.4733   7.5316   7.5672   7.6372
  7.6661   7.7232   7.7888   7.7978   7.8437   7.9009   7.9819   8.2351
 24.4198  24.6760  24.7778  24.8187  24.9090  25.0006  25.2187  50.5835
 50.6175  50.6474  50.6622  50.7165
 
 Beta MOs
 -- Occupied --
-19.4424 -19.4217 -19.3521 -19.3481 -19.3235 -10.4369 -10.4232 -10.4212
-10.4167 -10.3966 -10.3581 -10.3566  -1.3060  -1.1797  -1.1659  -1.1629
 -1.0969  -0.9542  -0.8984  -0.8406  -0.7828  -0.7505  -0.7205  -0.6891
 -0.6560  -0.6385  -0.6241  -0.6060  -0.5828  -0.5778  -0.5664  -0.5465
 -0.5454  -0.5290  -0.5266  -0.5123  -0.4962  -0.4691  -0.4593  -0.4417
 -0.4282  -0.3960  -0.3855  -0.3736  -0.3632
 -- Virtual --
 -0.0211   0.0253   0.0339   0.0355   0.0416   0.0529   0.0557   0.0577
  0.0697   0.0706   0.0823   0.0870   0.0910   0.1035   0.1155   0.1204
  0.1234   0.1281   0.1323   0.1384   0.1413   0.1513   0.1549   0.1562
  0.1605   0.1669   0.1702   0.1736   0.1786   0.1846   0.1891   0.1944
  0.2000   0.2111   0.2125   0.2181   0.2222   0.2267   0.2420   0.2482
  0.2505   0.2722   0.2775   0.2812   0.2867   0.2910   0.3037   0.3116
  0.3122   0.3176   0.3240   0.3326   0.3411   0.3428   0.3462   0.3482
  0.3601   0.3680   0.3695   0.3748   0.3776   0.3795   0.3873   0.3923
  0.3947   0.3973   0.4019   0.4080   0.4225   0.4273   0.4367   0.4393
  0.4463   0.4614   0.4757   0.4800   0.4850   0.5102   0.5129   0.5190
  0.5292   0.5531   0.5615   0.5949   0.6058   0.6086   0.6200   0.6292
  0.6352   0.6474   0.6517   0.6613   0.6672   0.6781   0.6817   0.6929
  0.7006   0.7061   0.7116   0.7227   0.7296   0.7326   0.7374   0.7464
  0.7638   0.7795   0.7908   0.7958   0.8046   0.8125   0.8152   0.8357
  0.8528   0.8632   0.8706   0.8865   0.9036   0.9195   0.9456   0.9652
  0.9784   0.9854   0.9990   1.0268   1.0450   1.0488   1.0608   1.0674
  1.0761   1.0912   1.1088   1.1174   1.1231   1.1354   1.1560   1.1589
  1.1698   1.1804   1.1941   1.1971   1.2090   1.2203   1.2280   1.2349
  1.2413   1.2448   1.2563   1.2692   1.2777   1.2813   1.2890   1.2936
  1.3071   1.3150   1.3272   1.3347   1.3499   1.3639   1.3754   1.3908
  1.4000   1.4014   1.4198   1.4309   1.4359   1.4488   1.4528   1.4702
  1.4818   1.4935   1.5009   1.5171   1.5266   1.5335   1.5491   1.5657
  1.5782   1.5861   1.5880   1.6047   1.6073   1.6365   1.6403   1.6526
  1.6681   1.6745   1.6954   1.7135   1.7289   1.7439   1.7572   1.7893
  1.7953   1.8135   1.8158   1.8859   1.9223   1.9393   1.9502   1.9564
  1.9807   1.9969   2.0190   2.0299   2.0456   2.0634   2.0881   2.1325
  2.1528   2.1746   2.1981   2.2251   2.2510   2.2743   2.3275   2.3392
  2.3637   2.4009   2.4088   2.4530   2.4697   2.4848   2.5368   2.5785
  2.6381   2.6647   2.6851   2.7124   2.7190   2.7441   2.7839   2.8026
  2.8167   2.8316   2.8540   2.8731   2.8970   2.9035   2.9105   2.9302
  2.9439   2.9616   2.9707   2.9877   2.9927   3.0110   3.0207   3.0514
  3.0665   3.0867   3.1021   3.1311   3.1421   3.1505   3.1627   3.1693
  3.1947   3.2216   3.2245   3.2341   3.2754   3.2908   3.2946   3.3116
  3.3263   3.3397   3.3495   3.3619   3.3815   3.3916   3.4103   3.4217
  3.4403   3.4507   3.4828   3.4876   3.4962   3.5210   3.5415   3.5632
  3.5760   3.5805   3.5990   3.6147   3.6273   3.6342   3.6476   3.6670
  3.6883   3.6976   3.6995   3.7522   3.7551   3.7707   3.7868   3.7913
  3.8074   3.8260   3.8329   3.8438   3.8631   3.8709   3.8809   3.8901
  3.9088   3.9153   3.9459   3.9597   3.9641   3.9832   3.9881   3.9991
  4.0101   4.0456   4.0773   4.0834   4.1084   4.1325   4.1361   4.1506
  4.1849   4.2041   4.2498   4.2548   4.2800   4.2927   4.3106   4.3147
  4.3188   4.3618   4.3891   4.3947   4.4057   4.4170   4.4215   4.4363
  4.4547   4.4887   4.4966   4.5116   4.5448   4.5711   4.5934   4.6096
  4.6229   4.6561   4.6791   4.6809   4.7026   4.7372   4.7452   4.7947
  4.8447   4.8713   4.9090   4.9316   4.9887   5.0484   5.1254   5.1652
  5.1726   5.2061   5.2342   5.2708   5.2755   5.2849   5.2985   5.3091
  5.3117   5.3314   5.3348   5.3412   5.3816   5.3972   5.4118   5.4148
  5.4384   5.4729   5.4875   5.5136   5.5292   5.5338   5.5501   5.5878
  5.5909   5.6152   5.6411   5.6546   5.6788   5.6905   5.7096   5.7462
  5.7651   5.7811   5.8274   5.8449   5.8783   5.9071   5.9537   5.9773
  6.0189   6.0462   6.0556   6.0956   6.1494   6.3535   6.3625   6.5994
  6.6095   6.6638   6.7419   6.7784   6.8357   7.0075   7.0144   7.0343
  7.1118   7.1258   7.2031   7.2849   7.3123   7.3217   7.3265   7.3542
  7.3674   7.4052   7.4149   7.4316   7.4470   7.4784   7.5378   7.5723
  7.6437   7.6665   7.7240   7.7978   7.7991   7.8452   7.9037   7.9833
  8.2372  24.4199  24.6798  24.7779  24.8191  24.9142  25.0005  25.2189
 50.5868  50.6175  50.6486  50.6623  50.7202
 --------------------------------------------------------------
 
          Ground-State Mulliken Net Atomic Charges

     Atom                 Charge (a.u.)    Spin (a.u.)
  --------------------------------------------------------
      1 C                    -0.028199       0.000215
      2 C                    -0.317347       0.617220
      3 C                    -0.247715       0.049381
      4 C                    -0.046071      -0.019233
      5 C                    -0.485940       0.011327
      6 C                     0.176868       0.017038
      7 C                    -0.405942      -0.008312
      8 H                     0.303054       0.031733
      9 H                     0.329331      -0.008549
     10 H                     0.231365       0.005426
     11 H                     0.290690       0.002068
     12 H                     0.313245       0.000075
     13 H                     0.258457      -0.000230
     14 O                    -0.371977       0.000706
     15 H                     0.247990       0.001093
     16 H                     0.329264      -0.000026
     17 O                    -0.379852       0.002752
     18 H                     0.344862      -0.000643
     19 O                    -0.002709       0.122813
     20 O                    -0.096578      -0.004493
     21 O                    -0.442796       0.179639
  --------------------------------------------------------
  Sum of atomic charges =     0.000000
  Sum of spin   charges =     1.000000

 -----------------------------------------------------------------
                    Cartesian Multipole Moments
 -----------------------------------------------------------------
    Charge (ESU x 10^10)
                 0.0000
    Dipole Moment (Debye)
         X      -1.3421      Y       5.2710      Z      -2.7708
       Tot       6.1042
    Quadrupole Moments (Debye-Ang)
        XX     -69.5030     XY       4.1166     YY     -93.3343
        XZ       7.6580     YZ       3.5039     ZZ     -60.7265
    Octopole Moments (Debye-Ang^2)
       XXX     203.6355    XXY      23.2587    XYY      56.2855
       YYY     215.9831    XXZ     -35.6290    XYZ       9.2734
       YYZ     -39.3798    XZZ      59.4464    YZZ      30.7586
       ZZZ     -67.0782
    Hexadecapole Moments (Debye-Ang^3)
      XXXX    -858.8558   XXXY    -121.2620   XXYY    -300.4742
      XYYY    -172.5609   YYYY   -1555.8207   XXXZ     124.9292
      XXYZ      46.7899   XYYZ      55.1610   YYYZ     264.9494
      XXZZ    -251.6159   XYZZ     -48.2584   YYZZ    -333.9711
      XZZZ     131.0856   YZZZ     138.9646   ZZZZ    -603.2248
 -----------------------------------------------------------------
 Calculating analytic gradient of the SCF energy
 Gradient of CDS energy
            1           2           3           4           5           6
    1   0.0017255  -0.0029718   0.0010852  -0.0000699  -0.0001782   0.0000529
    2  -0.0017891   0.0023095  -0.0023553  -0.0000096   0.0001328   0.0000549
    3  -0.0013250   0.0015606   0.0006162  -0.0003034  -0.0001120   0.0001540
            7           8           9          10          11          12
    1   0.0000578   0.0000296  -0.0000239   0.0000240  -0.0000945  -0.0000461
    2   0.0009979   0.0001919  -0.0001570   0.0002902  -0.0000748   0.0000641
    3  -0.0003750  -0.0000290  -0.0000182   0.0000252  -0.0001697  -0.0001046
           13          14          15          16          17          18
    1  -0.0002407  -0.0001483   0.0001567   0.0001865  -0.0018612   0.0003985
    2  -0.0002724  -0.0000917  -0.0001289  -0.0000683   0.0018519  -0.0001247
    3  -0.0000421   0.0003121   0.0002789  -0.0004678   0.0012539  -0.0002329
           19          20          21
    1   0.0029339   0.0000978  -0.0011137
    2  -0.0020604  -0.0000874   0.0013262
    3  -0.0008661  -0.0000039  -0.0001511
 Gradient of SCF Energy
            1           2           3           4           5           6
    1  -0.0020154  -0.0024972   0.0065074   0.0020734  -0.0022449   0.0000976
    2  -0.0115698   0.0084264  -0.0101915   0.0060208  -0.0025642   0.0031418
    3  -0.0049477  -0.0066385  -0.0024509   0.0081001   0.0076153   0.0025002
            7           8           9          10          11          12
    1   0.0125109   0.0058331   0.0021338  -0.0023039  -0.0032540  -0.0046174
    2  -0.0176486   0.0090584  -0.0022445   0.0016193  -0.0021790   0.0045924
    3   0.0022795   0.0034296   0.0074198   0.0011226  -0.0039165  -0.0143528
           13          14          15          16          17          18
    1  -0.0105584   0.0070106   0.0029139  -0.0090076  -0.0035891   0.0047129
    2   0.0036092   0.0146103   0.0077742  -0.0101557  -0.0126175   0.0075410
    3  -0.0074591   0.0136570   0.0070802  -0.0133949   0.0066415  -0.0067573
           19          20          21
    1  -0.0030736  -0.0016857   0.0010536
    2   0.0018956   0.0001432   0.0007383
    3   0.0008976   0.0002780  -0.0011039
 Max gradient component =       1.765E-02
 RMS gradient           =       6.963E-03
 Computing fast CPCM-SWIG gradient
 Updating gradient with PCM contributions...
 -- total gradient after adding PCM contribution --
---------------------------------------------------
  Atom         X              Y              Z     
---------------------------------------------------
   1      -0.000002      -0.000029      -0.000025
   2      -0.000085      -0.000100      -0.000134
   3       0.000180       0.000184       0.000102
   4       0.000002      -0.000030       0.000093
   5      -0.000039      -0.000072      -0.000013
   6       0.000020       0.000019       0.000041
   7       0.000030       0.000023      -0.000022
   8      -0.000079      -0.000125       0.000067
   9      -0.000083      -0.000176      -0.000083
  10       0.000001      -0.000027      -0.000008
  11      -0.000006      -0.000020       0.000100
  12      -0.000045      -0.000012      -0.000013
  13       0.000039       0.000041      -0.000020
  14       0.000032       0.000000      -0.000014
  15       0.000043      -0.000002       0.000001
  16       0.000023       0.000003      -0.000011
  17      -0.000027       0.000054      -0.000073
  18      -0.000021       0.000046      -0.000045
  19      -0.000039      -0.000035      -0.000054
  20       0.000021       0.000021      -0.000038
  21       0.000035       0.000235       0.000148
---------------------------------------------------
 Number of fixed atoms: 0
 Gradient time:  CPU 711.35 s  wall 57.73 s
rPathMan2.  file_steps = 952
 IRC --- Status = 4.  Checking bisector search.
 IRC --- Bisector search finished successfully.
 ------------------------------------------------------------------------
 Reaction path following.  The coordinates are cartesian              
 Step   3 E=    -648.094958 |G|=  0.000571 S_lin= 0.1538 S_tot= 0.1547
 ------------------------------------------------------------------------
  IRC -- convergence criterion reached.
 ----------------------------------------------------------------
             Standard Nuclear Orientation (Angstroms)
    I     Atom           X                Y                Z
 ----------------------------------------------------------------
    1      C       0.0470648511    -0.1715590294     0.7797293864
    2      C      -0.7269181770    -0.7936306875     1.8871075942
    3      C      -1.6054089047    -2.5986216382     0.9144941470
    4      C      -1.9994750183    -1.9919561799    -0.3959684827
    5      C      -1.8274212870    -0.7465885448    -0.8203541281
    6      C      -1.1453044417     0.3461795945    -0.0425297996
    7      C      -0.7783571972     1.5475240948    -0.9042265548
    8      H       0.5994917899     0.6939126225     1.1680353948
    9      H      -0.3254844076    -1.2763487472     2.7670324440
   10      H      -2.3266889492    -2.4827241455     1.7338591098
   11      H      -2.4880601741    -2.7070580136    -1.0516641277
   12      H      -2.1895058714    -0.4748558750    -1.8057745261
   13      H      -1.6552636536     1.9178647383    -1.4362539622
   14      O       0.2580650109     1.1873268336    -1.8069512887
   15      H      -0.3896980921     2.3362135814    -0.2641392419
   16      H      -0.1227140041     0.6834259217    -2.5347929614
   17      O       0.9082155389    -1.0780562367     0.1444002159
   18      H       1.3726212145    -0.5896830547    -0.5468709416
   19      O      -1.8105423956    -0.0308362828     2.1431294205
   20      O      -1.9978556240     0.8555253344     1.0061680980
   21      O      -0.7679525079    -3.5143030859     0.9573831043
 ----------------------------------------------------------------
 Nuclear Repulsion Energy =         778.70071343 hartrees
 There are       46 alpha and       45 beta electrons
 Here is where we should summarize the reaction path
 Total job time:  5457.74s(wall), 76781.33s(cpu) 
 Fri Jun  7 00:04:38 2024

        *************************************************************
        *                                                           *
        *  Thank you very much for using Q-Chem.  Have a nice day.  *
        *                                                           *
        *************************************************************


