
Running Job 1 of 1 Q_in.in
qchem Q_in.in_161984.0 /scratch/ari.fischer/qChem1531593.hpc-mn1/qchem161984/ 0
/usr/local/qchem-5.4.1/exe/qcprog.exe_s Q_in.in_161984.0 /scratch/ari.fischer/qChem1531593.hpc-mn1/qchem161984/
                  Welcome to Q-Chem
     A Quantum Leap Into The Future Of Chemistry


 Q-Chem 5.4, Q-Chem, Inc., Pleasanton, CA (2021)

 License issued to: Nanyang Technological University (site)

 E. Epifanovsky,  A. T. B. Gilbert,  Xintian Feng,  Joonho Lee,  Yuezhi Mao,  
 N. Mardirossian,  P. Pokhilko,  A. White,  M. Wormit,  M. P. Coons,  
 A. L. Dempwolff,  Zhengting Gan,  D. Hait,  P. R. Horn,  L. D. Jacobson,  
 I. Kaliman,  J. Kussmann,  A. W. Lange,  Ka Un Lao,  D. S. Levine,  Jie Liu,  
 S. C. McKenzie,  A. F. Morrison,  K. Nanda,  F. Plasser,  D. R. Rehn,  
 M. L. Vidal,  Zhi-Qiang You,  Ying Zhu,  B. Alam,  B. Albrecht,  
 A. Aldossary,  E. Alguire,  J. H. Andersen,  D. Barton,  K. Begam,  A. Behn,  
 Y. A. Bernard,  E. J. Berquist,  H. Burton,  A. Carreras,  K. Carter-Fenk,  
 R. Chakraborty,  A. D. Chien,  K. D. Closser,  V. Cofer-Shabica,  
 S. Dasgupta,  Jia Deng,  M. de Wergifosse,  M. Diedenhofen,  Hainam Do,  
 S. Ehlert,  Po-Tung Fang,  S. Fatehi,  Qingguo Feng,  T. Friedhoff,  
 J. Gayvert,  Qinghui Ge,  G. Gidofalvi,  M. Goldey,  J. Gomes,  
 C. Gonzalez-Espinoza,  S. Gulania,  A. Gunina,  M. W. D. Hanson-Heine,  
 P. H. P. Harbach,  A. W. Hauser,  M. F. Herbst,  M. Hernandez Vera,  
 M. Hodecker,  Z. C. Holden,  S. Houck,  Xunkun Huang,  Kerwin Hui,  
 B. C. Huynh,  M. Ivanov,  Hyunjun Ji,  Hanjie Jiang,  B. Kaduk,  S. Kaehler,  
 K. Khistyaev,  Jaehoon Kim,  P. Klunzinger,  Z. Koczor-Benda,  
 Joong Hoon Koh,  D. Kosenkov,  L. Koulias,  T. Kowalczyk,  C. M. Krauter,  
 K. Kue,  A. Kunitsa,  T. Kus,  A. Landau,  K. V. Lawler,  D. Lefrancois,  
 S. Lehtola,  Rain Li,  Yi-Pei Li,  Jiashu Liang,  M. Liebenthal,  
 Hung-Hsuan Lin,  You-Sheng Lin,  Fenglai Liu,  Kuan-Yu Liu,  
 M. Loipersberger,  A. Luenser,  A. Manjanath,  P. Manohar,  E. Mansoor,  
 S. F. Manzer,  Shan-Ping Mao,  A. V. Marenich,  T. Markovich,  S. Mason,  
 S. A. Maurer,  P. F. McLaughlin,  M. F. S. J. Menger,  J.-M. Mewes,  
 S. A. Mewes,  P. Morgante,  J. W. Mullinax,  K. J. Oosterbaan,  G. Paran,  
 Alexander C. Paul,  Suranjan K. Paul,  F. Pavosevic,  Zheng Pei,  S. Prager,  
 E. I. Proynov,  E. Ramos,  B. Rana,  A. E. Rask,  A. Rettig,  R. M. Richard,  
 F. Rob,  E. Rossomme,  T. Scheele,  M. Scheurer,  M. Schneider,  
 N. Sergueev,  S. M. Sharada,  W. Skomorowski,  D. W. Small,  C. J. Stein,  
 Yu-Chuan Su,  E. J. Sundstrom,  Zhen Tao,  J. Thirman,  T. Tsuchimochi,  
 N. M. Tubman,  S. P. Veccham,  O. Vydrov,  J. Wenzel,  J. Witte,  A. Yamada,  
 Kun Yao,  S. Yeganeh,  S. R. Yost,  A. Zech,  Igor Ying Zhang,  Xing Zhang,  
 Yu Zhang,  D. Zuev,  A. Aspuru-Guzik,  A. T. Bell,  N. A. Besley,  
 K. B. Bravaya,  B. R. Brooks,  D. Casanova,  Jeng-Da Chai,  S. Coriani,  
 C. J. Cramer,  A. E. DePrince, III,  R. A. DiStasio Jr.,  A. Dreuw,  
 B. D. Dunietz,  T. R. Furlani,  W. A. Goddard III,  S. Grimme,  
 S. Hammes-Schiffer,  T. Head-Gordon,  W. J. Hehre,  Chao-Ping Hsu,  
 T.-C. Jagau,  Yousung Jung,  A. Klamt,  Jing Kong,  D. S. Lambrecht,  
 WanZhen Liang,  N. J. Mayhall,  C. W. McCurdy,  J. B. Neaton,  
 C. Ochsenfeld,  J. A. Parkhill,  R. Peverati,  V. A. Rassolov,  Yihan Shao,  
 L. V. Slipchenko,  T. Stauch,  R. P. Steele,  J. E. Subotnik,  
 A. J. W. Thom,  A. Tkatchenko,  D. G. Truhlar,  T. Van Voorhis,  
 T. A. Wesolowski,  K. B. Whaley,  H. L. Woodcock III,  P. M. Zimmerman,  
 S. Faraji,  P. M. W. Gill,  M. Head-Gordon,  J. M. Herbert,  A. I. Krylov

 Additional authors for Version 5.4.1: 
 S. Kotaru,  Shaozhi Li,  Xiangyuan Li,  F. Matz,  A. Molle,  Haisheng Ren,  
 Yingli Su,  Hung-Yi Tsai,  C. Utku,  Fang Wang

 Contributors to earlier versions of Q-Chem not listed above: 
 R. D. Adamson,  B. Austin,  R. Baer,  J. Baker,  G. J. O. Beran,  
 K. Brandhorst,  S. T. Brown,  E. F. C. Byrd,  A. K. Chakraborty,  
 G. K. L. Chan,  Chun-Min Chang,  Yunqing Chen,  C.-L. Cheng,  
 Siu Hung Chien,  D. M. Chipman,  D. L. Crittenden,  H. Dachsel,  
 R. J. Doerksen,  A. D. Dutoi,  R. G. Edgar,  J. Fosso-Tande,  
 L. Fusti-Molnar,  D. Ghosh,  A. Ghysels,  A. Golubeva-Zadorozhnaya,  
 J. Gonthier,  M. S. Gordon,  S. R. Gwaltney,  G. Hawkins,  J. E. Herr,  
 A. Heyden,  S. Hirata,  E. G. Hohenstein,  G. Kedziora,  F. J. Keil,  
 C. Kelley,  Jihan Kim,  R. A. King,  R. Z. Khaliullin,  P. P. Korambath,  
 W. Kurlancheek,  A. Laurent,  A. M. Lee,  M. S. Lee,  S. V. Levchenko,  
 Ching Yeh Lin,  D. Liotard,  E. Livshits,  R. C. Lochan,  I. Lotan,  
 L. A. Martinez-Martinez,  P. E. Maslen,  N. Nair,  D. P. O'Neill,  
 D. Neuhauser,  E. Neuscamman,  C. M. Oana,  R. Olivares-Amaya,  R. Olson,  
 T. M. Perrine,  B. Peters,  P. A. Pieniazek,  A. Prociuk,  Y. M. Rhee,  
 J. Ritchie,  M. A. Rohrdanz,  E. Rosta,  N. J. Russ,  H. F. Schaefer III,  
 M. W. Schmidt,  N. E. Schultz,  S. Sharma,  N. Shenvi,  C. D. Sherrill,  
 A. C. Simmonett,  A. Sodt,  T. Stein,  D. Stuck,  K. S. Thanthiriwatte,  
 V. Vanovschi,  L. Vogt,  Tao Wang,  A. Warshel,  M. A. Watson,  
 C. F. Williams,  Q. Wu,  X. Xu,  Jun Yang,  W. Zhang,  Yan Zhao

 Please cite Q-Chem as follows:
 Y. Shao et al., Mol. Phys. 113, 184-215 (2015)
 DOI: 10.1080/00268976.2014.952696

 Q-Chem 5.4.1 for Intel X86 EM64T Linux

 Parts of Q-Chem use Armadillo 9.800.1 (Horizon Scraper).
 http://arma.sourceforge.net/

 Q-Chem begins on Tue May  9 15:14:33 2023  

 Host: 
0

     Scratch files written to /scratch/ari.fischer/qChem1531593.hpc-mn1/qchem161984//
 Aug1521 |scratch|qcdevops|jenkins|workspace|build_RNUM 8249   
 Processing $rem in /usr/local/qchem-5.4.1/config/preferences:
 Processing $rem in /home/ari.fischer/.qchemrc:
 Symmetry turned off for PCM/SM12/SMD calculation


!!********************************************.
!!******************Warning*******************.
!!Desired Analytical derivatives not available.
!!Finite difference job might take a long time.
!!********************************************.
!!********************************************.


 2-order derivative to be evaluated numerically with 1-order analytical derivatives

 Checking the input file for inconsistencies... 	...done.

--------------------------------------------------------------
User input:
--------------------------------------------------------------
$molecule
0 2
C        -0.2096474166   -0.4093343376    0.7373346453
C        -0.6107696956   -1.4691951699    1.5279415457
C        -1.8079649799   -2.1365992307    1.2765577983
C        -2.6102002338   -1.7248990279    0.2095586654
C        -2.2278778308   -0.6699976668   -0.5905767901
C        -1.0135554889    0.0195740749   -0.3478208818
C        -0.6475599053    1.0898533447   -1.1742652406
H         0.7210238156    0.0993818444    0.9457297132
H         0.0153497815   -1.7826548627    2.3531110336
H        -2.1132901039   -2.9643877186    1.9012020724
H        -3.5405983795   -2.2387674917    0.0065140250
H        -2.8543046015   -0.3561841665   -1.4160024933
H        -1.2522520896    1.4265980783   -2.0032843656
O         0.5192170176    1.7512765253   -0.9367425723
H         0.6227342107    2.4579298050   -1.5835110551
$end

$rem
BASIS = 6-311++G(2df,2p)
GUI = 2
JOB_TYPE = Frequency
METHOD = wB97M-V
SOLVENT_METHOD = SMD
SCF_ALGORITHM = DIIS_GDM
MAX_SCF_CYCLES = 400
SCF_CONVERGENCE = 7
THRESH = 12
UNRESTRICTED = 1
SYMMETRY_IGNORE = 1
$end
--------------------------------------------------------------
 ----------------------------------------------------------------
             Standard Nuclear Orientation (Angstroms)
    I     Atom           X                Y                Z
 ----------------------------------------------------------------
    1      C      -0.2096474166    -0.4093343376     0.7373346453
    2      C      -0.6107696956    -1.4691951699     1.5279415457
    3      C      -1.8079649799    -2.1365992307     1.2765577983
    4      C      -2.6102002338    -1.7248990279     0.2095586654
    5      C      -2.2278778308    -0.6699976668    -0.5905767901
    6      C      -1.0135554889     0.0195740749    -0.3478208818
    7      C      -0.6475599053     1.0898533447    -1.1742652406
    8      H       0.7210238156     0.0993818444     0.9457297132
    9      H       0.0153497815    -1.7826548627     2.3531110336
   10      H      -2.1132901039    -2.9643877186     1.9012020724
   11      H      -3.5405983795    -2.2387674917     0.0065140250
   12      H      -2.8543046015    -0.3561841665    -1.4160024933
   13      H      -1.2522520896     1.4265980783    -2.0032843656
   14      O       0.5192170176     1.7512765253    -0.9367425723
   15      H       0.6227342107     2.4579298050    -1.5835110551
 ----------------------------------------------------------------
 Nuclear Repulsion Energy =         331.16577190 hartrees
 There are       29 alpha and       28 beta electrons
 Requested basis set is 6-311++G(2df,2p)
 There are 106 shells and 342 basis functions

 Total QAlloc Memory Limit 288000 MB
 Mega-Array Size       188 MB
 MEM_STATIC part       192 MB
 
 Citation of the SMD model:
 Marenich, A.V.; Cramer, C.J.; Truhlar, D.G.
 J. Phys. Chem. B 2009, 113, 6378-6396.
 iSolventCode=           1
 Solvent: water                                                           
 
 vradii
            1           2           3           4           5           6
    1   1.8500000   1.8500000   1.8500000   1.8500000   1.8500000   1.8500000
            7           8           9          10          11          12
    1   1.8500000   1.2000000   1.2000000   1.2000000   1.2000000   1.2000000
           13          14          15
    1   1.2000000   1.5200000   1.2000000
 Changing PCM_VDW_RADII to SMD_RADIUS
 Discretize the solute cavity surface with Lebedev spheres
	Using 110 Lebedev grid points for each H atom
	Using 194 Lebedev grid points for other atoms
	Atomic van der Waals radii will be scaled by 1.20
 Remove points where switching function is < 1.0e-08
 Keep 1134 surface tesserae and discard 1188 interior tesserae
 Molecular Surface Area = 138.416 Angst**2

                       Distance Matrix (Angstroms)
             C (  1)   C (  2)   C (  3)   C (  4)   C (  5)   C (  6)
   C (  2)  1.381761
   C (  3)  2.414296  1.393520
   C (  4)  2.787815  2.408576  1.396984
   C (  5)  2.429928  2.782423  2.411107  1.378116
   C (  6)  1.416966  2.428406  2.814032  2.429636  1.417398
   C (  7)  2.468511  3.721828  4.214626  3.699967  2.436221  1.400879
   H (  8)  1.080911  2.138476  3.391879  3.868721  3.412946  2.165273
   H (  9)  2.132455  1.082214  2.146793  3.389936  3.864631  3.406128
   H ( 10)  3.392159  2.152322  1.081035  2.155205  3.389147  3.895067
   H ( 11)  3.869904  3.389820  2.150690  1.082095  2.130913  3.407581
   H ( 12)  3.410850  3.865107  3.393315  2.139022  1.082690  2.161149
   H ( 13)  3.459576  4.611580  4.874685  4.083213  2.709853  2.185693
   O ( 14)  2.828784  4.209866  5.042822  4.815709  3.678169  2.386423
   H ( 15)  3.781585  5.159940  5.932789  5.582385  4.346934  3.185899
             C (  7)   H (  8)   H (  9)   H ( 10)   H ( 11)   H ( 12)
   H (  8)  2.710799
   H (  9)  4.597079  2.453724
   H ( 10)  5.295634  4.281699  2.476252
   H ( 11)  4.565482  4.950807  4.284778  2.480640
   H ( 12)  2.649374  4.309094  4.947318  4.284352  2.457371
   H ( 13)  1.079964  3.788404  5.557364  5.938616  4.765577  2.467749
   O ( 14)  1.362082  2.512605  4.854451  6.100944  5.769947  4.006461
   H ( 15)  1.911220  3.459692  5.817944  7.002184  6.474603  4.476281
             H ( 13)   O ( 14)
   O ( 14)  2.093091
   H ( 15)  2.180694  0.963527
 
 A cutoff of  1.0D-12 yielded   5168 shell pairs
 There are     54670 function pairs (     68259 Cartesian)
 Smallest overlap matrix eigenvalue = 9.77E-07
 Linear dependence detected in AO basis
 Tighter screening thresholds may be required for diffuse basis sets
 Use S2THRESH > 14 and THRESH = 14 in case of SCF convergence issues
 Number of orthogonalized atomic orbitals = 341
 Maximum deviation from orthogonality = 6.466E-11
 Guess from superposition of atomic densities
 Warning:  Energy on first SCF cycle will be non-variational
 SAD guess density has 57.000000 electrons

 -----------------------------------------------------------------------
  General SCF calculation program by
  Eric Jon Sundstrom, Paul Horn, Yuezhi Mao, Dmitri Zuev, Alec White,
  David Stuck, Shaama M.S., Shane Yost, Joonho Lee, David Small,
  Daniel Levine, Susi Lehtola, Hugh Burton, Evgeny Epifanovsky,
  Bang C. Huynh
 -----------------------------------------------------------------------
 Exchange:     0.1500 Hartree-Fock + 1.0000 wB97M-V + LR-HF
 Correlation:  1.0000 wB97M-V
 Using SG-2 standard quadrature grid
 Nonlocal Correlation:  VV10 with C = 0.0100 and b = 6.00 and scale = 1.00000
 Grid used for NLC:  SG-1 standard quadrature
 using 8 threads for integral computing
 -------------------------------------------------------
 OpenMP Integral computing Module                
 Release: version 1.0, May 2013, Q-Chem Inc. Pittsburgh 
 -------------------------------------------------------
 
 Citation of the SMD model:
 Marenich, A.V.; Cramer, C.J.; Truhlar, D.G.
 J. Phys. Chem. B 2009, 113, 6378-6396.
 iSolventCode=           1
 Solvent: water                                                           
 
 vradii
            1           2           3           4           5           6
    1   1.8500000   1.8500000   1.8500000   1.8500000   1.8500000   1.8500000
            7           8           9          10          11          12
    1   1.8500000   1.2000000   1.2000000   1.2000000   1.2000000   1.2000000
           13          14          15
    1   1.2000000   1.5200000   1.2000000
 -------------------------------------------------------
 OpenMP BLAS3 based DFT computing Module                
 Release: version 1.0, May 2013, Q-Chem Inc. Pittsburgh 
 -------------------------------------------------------
 A unrestricted SCF calculation will be
 performed using DIIS, GDM
 SCF converges when RMS gradient is below 1.0e-07
 ---------------------------------------
  Cycle       Energy         DIIS error
 ---------------------------------------
    1    -348.6496462151      1.42e-02  
    2    -346.0430722225      1.11e-03  Done DIIS. Switching to GDM
 ---------------------------------------
  Cycle       Energy        RMS Gradient
 ---------------------------------------
    1    -346.0430722225      6.72e-02   Descent step
    2    -346.1085100680      3.28e-02   Normal BFGS step
    3    -346.1197252850      1.21e-02   Normal BFGS step
    4    -346.1211208863      7.54e-03   Normal BFGS step
    5    -346.1216405757      2.92e-03   Normal BFGS step
    6    -346.1217856751      1.41e-03   Normal BFGS step
    7    -346.1218082742      6.09e-04   Normal BFGS step
    8    -346.1218115819      3.63e-04   Normal BFGS step
    9    -346.1218122192      1.57e-04   Normal BFGS step
   10    -346.1218123779      6.02e-05   Normal BFGS step
   11    -346.1218124218      3.74e-05   Normal BFGS step
   12    -346.1218124346      2.53e-05   Normal BFGS step
   13    -346.1218124392      1.41e-05   Normal BFGS step
   14    -346.1218124404      4.32e-06   Normal BFGS step
   15    -346.1218124406      1.34e-06   Normal BFGS step
   16    -346.1218124406      7.77e-07   Normal BFGS step
   17    -346.1218124406      3.37e-07   Normal BFGS step
   18    -346.1218124406      1.50e-07   Normal BFGS step
   19    -346.1218124407      6.49e-08  Convergence criterion met
 ---------------------------------------
 SCF time:   CPU 1374.63s  wall 175.00s 
<S^2> =          0.784598410
(3)  G-ENP(liq) elect-nuc-pol free energy of system     -346.121812441 a.u.
(4)  G-CDS(liq) cavity-dispersion-solvent structure 
     free energy                                                4.0551 kcal/mol
(6)  G-S(liq) free energy of system                     -346.115350245 a.u.
 SCF   energy in the final basis set =     -346.1153502449
 Total energy in the final basis set =     -346.1153502449
 
 --------------------------------------------------------------
 
                    Orbital Energies (a.u.)
 --------------------------------------------------------------
 
 Alpha MOs
 -- Occupied --
-19.3708 -10.3981 -10.3523 -10.3424 -10.3407 -10.3402 -10.3398 -10.3376
 -1.1962  -0.9851  -0.8966  -0.8691  -0.7922  -0.7231  -0.6959  -0.6463
 -0.6282  -0.5717  -0.5470  -0.5320  -0.5319  -0.5195  -0.4795  -0.4774
 -0.4481  -0.4296  -0.3748  -0.3540  -0.2403
 -- Virtual --
  0.0235   0.0343   0.0369   0.0523   0.0551   0.0606   0.0712   0.0809
  0.0896   0.0968   0.0996   0.1130   0.1196   0.1287   0.1431   0.1461
  0.1536   0.1558   0.1614   0.1676   0.1709   0.1752   0.1826   0.1850
  0.1877   0.1909   0.2036   0.2136   0.2207   0.2257   0.2348   0.2492
  0.2578   0.2701   0.2746   0.2775   0.2881   0.2917   0.2952   0.3009
  0.3253   0.3286   0.3406   0.3524   0.3552   0.3627   0.3914   0.3941
  0.4154   0.4274   0.4331   0.4682   0.4970   0.5012   0.5368   0.5475
  0.5736   0.5882   0.5899   0.6014   0.6049   0.6103   0.6161   0.6189
  0.6281   0.6382   0.6453   0.6565   0.6711   0.6807   0.6950   0.7151
  0.7161   0.7397   0.7431   0.7432   0.7466   0.7564   0.7589   0.7669
  0.7726   0.7928   0.8136   0.8248   0.8362   0.8395   0.8411   0.8491
  0.8702   0.8873   0.8917   0.8962   0.9021   0.9109   0.9337   0.9663
  1.0214   1.0328   1.0403   1.0483   1.0892   1.1023   1.1027   1.1171
  1.1260   1.1303   1.1586   1.1750   1.1855   1.2012   1.2152   1.2174
  1.2557   1.2613   1.2670   1.3128   1.3267   1.3630   1.3671   1.3960
  1.4030   1.4087   1.4259   1.4412   1.4548   1.4673   1.4735   1.4859
  1.4872   1.4950   1.5350   1.5724   1.5768   1.5901   1.6149   1.6779
  1.6985   1.7087   1.7694   1.7813   1.8006   1.8036   1.8182   1.8642
  1.8979   1.9169   1.9553   1.9853   2.0603   2.0828   2.1017   2.1217
  2.2187   2.3537   2.4107   2.4448   2.5722   2.6009   2.6267   2.6301
  2.6390   2.7272   2.7292   2.7542   2.7777   2.7938   2.8085   2.8163
  2.8355   2.8371   2.8383   2.8672   2.8721   2.8845   2.9088   2.9156
  2.9255   2.9282   2.9350   2.9457   2.9643   2.9847   3.0005   3.0206
  3.0382   3.0618   3.1008   3.1403   3.1414   3.1746   3.1947   3.1950
  3.2124   3.2324   3.2384   3.2446   3.2728   3.2741   3.2894   3.2922
  3.3153   3.3331   3.3562   3.3678   3.3974   3.4240   3.4263   3.4424
  3.4650   3.4705   3.4802   3.4971   3.5144   3.5302   3.5315   3.5430
  3.5575   3.5887   3.6034   3.6310   3.6414   3.6709   3.6804   3.7295
  3.7690   3.7748   3.8079   3.8107   3.8305   3.8416   3.8890   3.9030
  3.9329   3.9361   3.9396   3.9585   3.9626   3.9748   4.0001   4.0712
  4.0785   4.1229   4.1319   4.1443   4.1695   4.1901   4.2109   4.2242
  4.2620   4.2919   4.3264   4.3655   4.4151   4.4289   4.4541   4.4615
  4.4956   4.5056   4.5155   4.5234   4.5386   4.5741   4.5917   4.5944
  4.6151   4.6725   4.7261   4.7402   4.8060   4.8160   4.8173   4.9271
  5.0350   5.0421   5.1591   5.1686   5.1762   5.2130   5.2227   5.2510
  5.3088   5.3447   5.4241   5.4836   5.5035   5.6017   5.6518   5.7761
  5.8017   5.8647   5.8908   5.8974   5.9017   6.0178   6.2758   6.3822
  6.6383   6.8064   7.0288   7.2448   7.3403   7.3733   7.7247   7.8037
 24.2488  24.7983  24.8182  24.9040  25.0924  25.1053  25.5106  50.5996
 
 Beta MOs
 -- Occupied --
-19.3672 -10.3887 -10.3546 -10.3420 -10.3413 -10.3394 -10.3373 -10.3343
 -1.1877  -0.9823  -0.8903  -0.8665  -0.7779  -0.7209  -0.6918  -0.6391
 -0.6245  -0.5669  -0.5448  -0.5297  -0.5182  -0.5062  -0.4724  -0.4652
 -0.4450  -0.4283  -0.3478  -0.3429
 -- Virtual --
  0.0035   0.0231   0.0340   0.0367   0.0521   0.0549   0.0650   0.0737
  0.0806   0.0894   0.0996   0.1043   0.1191   0.1283   0.1340   0.1433
  0.1460   0.1553   0.1562   0.1614   0.1674   0.1711   0.1768   0.1822
  0.1860   0.1879   0.1957   0.2033   0.2130   0.2204   0.2261   0.2334
  0.2497   0.2584   0.2708   0.2778   0.2841   0.2886   0.2947   0.2974
  0.3012   0.3276   0.3342   0.3424   0.3535   0.3563   0.3648   0.3946
  0.3960   0.4165   0.4287   0.4341   0.4720   0.4994   0.5063   0.5430
  0.5508   0.5750   0.5910   0.6010   0.6036   0.6077   0.6171   0.6213
  0.6231   0.6325   0.6445   0.6470   0.6600   0.6770   0.6824   0.6979
  0.7180   0.7206   0.7423   0.7438   0.7452   0.7487   0.7582   0.7633
  0.7704   0.7759   0.7956   0.8210   0.8326   0.8376   0.8399   0.8444
  0.8515   0.8759   0.8885   0.8933   0.8996   0.9040   0.9201   0.9359
  0.9679   1.0222   1.0364   1.0413   1.0488   1.0921   1.1039   1.1067
  1.1193   1.1285   1.1314   1.1628   1.1802   1.1877   1.2014   1.2182
  1.2212   1.2564   1.2616   1.2747   1.3148   1.3289   1.3651   1.3709
  1.3972   1.4055   1.4137   1.4277   1.4427   1.4569   1.4726   1.4770
  1.4898   1.4903   1.4968   1.5405   1.5739   1.5795   1.5939   1.6192
  1.6834   1.7026   1.7136   1.7754   1.7859   1.8022   1.8105   1.8244
  1.8683   1.9037   1.9238   1.9573   1.9977   2.0640   2.0856   2.1043
  2.1250   2.2252   2.3579   2.4137   2.4547   2.5790   2.6031   2.6286
  2.6418   2.6545   2.7353   2.7420   2.7610   2.7967   2.8089   2.8134
  2.8184   2.8400   2.8486   2.8713   2.8779   2.8812   2.8911   2.9178
  2.9255   2.9334   2.9368   2.9451   2.9611   2.9690   2.9985   3.0062
  3.0283   3.0437   3.0731   3.1094   3.1564   3.1678   3.1821   3.2012
  3.2117   3.2202   3.2429   3.2432   3.2529   3.2852   3.2902   3.2953
  3.3002   3.3223   3.3557   3.3631   3.3849   3.4100   3.4321   3.4478
  3.4531   3.4777   3.4862   3.4894   3.5077   3.5215   3.5372   3.5540
  3.5583   3.5665   3.5921   3.6210   3.6407   3.6519   3.6845   3.6878
  3.7412   3.7747   3.7866   3.8187   3.8241   3.8379   3.8483   3.8938
  3.9072   3.9403   3.9437   3.9477   3.9668   3.9715   3.9808   4.0089
  4.0742   4.0890   4.1277   4.1396   4.1473   4.1801   4.1936   4.2172
  4.2312   4.2878   4.3077   4.3307   4.3713   4.4211   4.4347   4.4588
  4.4688   4.5035   4.5146   4.5280   4.5306   4.5485   4.5820   4.5991
  4.6005   4.6266   4.6770   4.7380   4.7451   4.8119   4.8213   4.8252
  4.9343   5.0498   5.0564   5.1658   5.1748   5.1954   5.2184   5.2306
  5.2628   5.3192   5.3543   5.4332   5.4903   5.5178   5.6139   5.6612
  5.7828   5.8093   5.8779   5.8989   5.9122   5.9273   6.0269   6.2844
  6.3904   6.6433   6.8150   7.0452   7.2599   7.3479   7.3859   7.7319
  7.8084  24.2495  24.7989  24.8200  24.9085  25.0940  25.1091  25.5118
 50.6027
 --------------------------------------------------------------
 
          Ground-State Mulliken Net Atomic Charges

     Atom                 Charge (a.u.)    Spin (a.u.)
  --------------------------------------------------------
      1 C                    -0.027283       0.206431
      2 C                    -0.345779      -0.103396
      3 C                    -0.378432       0.233453
      4 C                    -0.396794      -0.091715
      5 C                    -0.717953       0.208865
      6 C                     0.599810      -0.132130
      7 C                    -0.371749       0.619363
      8 H                     0.271011      -0.005307
      9 H                     0.280446       0.002612
     10 H                     0.276739      -0.005414
     11 H                     0.280425       0.002377
     12 H                     0.260665      -0.004467
     13 H                     0.276055      -0.015649
     14 O                    -0.351371       0.087263
     15 H                     0.344211      -0.002286
  --------------------------------------------------------
  Sum of atomic charges =    -0.000000
  Sum of spin   charges =     1.000000

 -----------------------------------------------------------------
                    Cartesian Multipole Moments
 -----------------------------------------------------------------
    Charge (ESU x 10^10)
                -0.0000
    Dipole Moment (Debye)
         X      -0.3826      Y       1.9920      Z      -2.3594
       Tot       3.1115
    Quadrupole Moments (Debye-Ang)
        XX     -45.5854     XY       2.1797     YY     -41.3406
        XZ       3.5326     YZ      -9.5643     ZZ     -41.4916
    Octopole Moments (Debye-Ang^2)
       XXX     145.1578    XXY      12.9572    XYY      48.3764
       YYY      82.7532    XXZ     -13.4217    XYZ       1.7743
       YYZ     -13.8685    XZZ      52.4187    YZZ      31.0179
       ZZZ     -21.8925
    Hexadecapole Moments (Debye-Ang^3)
      XXXX    -682.3047   XXXY    -169.1046   XXYY    -194.2966
      XYYY    -175.6109   YYYY    -565.7473   XXXZ      55.0559
      XXYZ      45.9000   XYYZ     -10.7972   YYYZ      93.6140
      XXZZ    -174.4577   XYZZ     -66.7125   YYZZ    -114.6742
      XZZZ      39.7724   YZZZ     119.7251   ZZZZ    -340.2338
 -----------------------------------------------------------------
 Calculating analytic gradient of the SCF energy
 Gradient of CDS energy
            1           2           3           4           5           6
    1   0.0003120   0.0003041  -0.0001495  -0.0004392  -0.0001516  -0.0000419
    2   0.0002396  -0.0001296  -0.0004141  -0.0002226   0.0001378  -0.0001074
    3  -0.0000042   0.0003766   0.0003145  -0.0001150  -0.0002652   0.0000791
            7           8           9          10          11          12
    1   0.0040450   0.0001197   0.0001206  -0.0000580  -0.0001791  -0.0000747
    2   0.0026783   0.0001084  -0.0000604  -0.0001574  -0.0000989   0.0000919
    3   0.0004175  -0.0000180   0.0001589   0.0001188  -0.0000391  -0.0001551
           13          14          15
    1  -0.0001135  -0.0039669   0.0002731
    2  -0.0000467  -0.0023706   0.0003516
    3  -0.0000407  -0.0006806  -0.0001475
 Gradient of SCF Energy
            1           2           3           4           5           6
    1  -0.0036168  -0.0014494   0.0019026   0.0037500   0.0036104   0.0011554
    2  -0.0000731   0.0039791   0.0025774   0.0006647  -0.0059635   0.0018307
    3  -0.0026202  -0.0053297  -0.0011446   0.0023093   0.0088373  -0.0011313
            7           8           9          10          11          12
    1   0.0064094  -0.0027362   0.0003155  -0.0003748  -0.0019408  -0.0021054
    2  -0.0047415  -0.0022127  -0.0002110  -0.0008896  -0.0009620   0.0016900
    3   0.0100658   0.0001763   0.0005547   0.0006549  -0.0006008  -0.0035146
           13          14          15
    1  -0.0049518  -0.0005777   0.0006096
    2   0.0045428  -0.0134531   0.0132217
    3  -0.0086362   0.0134431  -0.0130640
 Max gradient component =       1.345E-02
 RMS gradient           =       5.295E-03
 Computing fast CPCM-SWIG gradient
 Updating gradient with PCM contributions...
 -- total gradient after adding PCM contribution --
---------------------------------------------------
  Atom         X              Y              Z     
---------------------------------------------------
   1       0.000040      -0.000039       0.000112
   2       0.000088       0.000086       0.000020
   3      -0.000139       0.000002      -0.000102
   4       0.000054      -0.000149       0.000156
   5       0.000149       0.000133      -0.000059
   6      -0.000227      -0.000141      -0.000042
   7      -0.000223      -0.000062      -0.000125
   8      -0.000058       0.000016       0.000001
   9      -0.000043       0.000035       0.000009
  10       0.000009       0.000021      -0.000009
  11       0.000036      -0.000006      -0.000029
  12       0.000028      -0.000054      -0.000001
  13       0.000064      -0.000004       0.000012
  14       0.000246       0.000170       0.000060
  15      -0.000024      -0.000008      -0.000004
---------------------------------------------------
 Number of fixed atoms: 0
 Gradient time:  CPU 216.26 s  wall 31.57 s
 ######################################################
 ######################################################
 # Starting finite difference calculation for IDERIV  #
 Finite diff step size:  1.88973e-03 a.u.
 ----------------------------------------------------------------
             Standard Nuclear Orientation (Angstroms)
    I     Atom           X                Y                Z
 ----------------------------------------------------------------
    1      C      -0.2086474166    -0.4093343376     0.7373346453
    2      C      -0.6107696956    -1.4691951699     1.5279415457
    3      C      -1.8079649799    -2.1365992307     1.2765577983
    4      C      -2.6102002338    -1.7248990279     0.2095586654
    5      C      -2.2278778308    -0.6699976668    -0.5905767901
    6      C      -1.0135554889     0.0195740749    -0.3478208818
    7      C      -0.6475599053     1.0898533447    -1.1742652406
    8      H       0.7210238156     0.0993818444     0.9457297132
    9      H       0.0153497815    -1.7826548627     2.3531110336
   10      H      -2.1132901039    -2.9643877186     1.9012020724
   11      H      -3.5405983795    -2.2387674917     0.0065140250
   12      H      -2.8543046015    -0.3561841665    -1.4160024933
   13      H      -1.2522520896     1.4265980783    -2.0032843656
   14      O       0.5192170176     1.7512765253    -0.9367425723
   15      H       0.6227342107     2.4579298050    -1.5835110551
 ----------------------------------------------------------------
 Nuclear Repulsion Energy =         331.15263387 hartrees
 There are       29 alpha and       28 beta electrons
 Discretize the solute cavity surface with Lebedev spheres
	Using 110 Lebedev grid points for each H atom
	Using 194 Lebedev grid points for other atoms
	Atomic van der Waals radii will be scaled by 1.20
 Remove points where switching function is < 1.0e-08
 Keep 1134 surface tesserae and discard 1188 interior tesserae
 Molecular Surface Area = 138.418 Angst**2

                       Distance Matrix (Angstroms)
             C (  1)   C (  2)   C (  3)   C (  4)   C (  5)   C (  6)
   C (  2)  1.382052
   C (  3)  2.414958  1.393520
   C (  4)  2.788676  2.408576  1.396984
   C (  5)  2.430758  2.782423  2.411107  1.378116
   C (  6)  1.417534  2.428406  2.814032  2.429636  1.417398
   C (  7)  2.468688  3.721828  4.214626  3.699967  2.436221  1.400879
   H (  8)  1.080051  2.138476  3.391879  3.868721  3.412946  2.165273
   H (  9)  2.132350  1.082214  2.146793  3.389936  3.864631  3.406128
   H ( 10)  3.392720  2.152322  1.081035  2.155205  3.389147  3.895067
   H ( 11)  3.870765  3.389820  2.150690  1.082095  2.130913  3.407581
   H ( 12)  3.411625  3.865107  3.393315  2.139022  1.082690  2.161149
   H ( 13)  3.459877  4.611580  4.874685  4.083213  2.709853  2.185693
   O ( 14)  2.828526  4.209866  5.042822  4.815709  3.678169  2.386423
   H ( 15)  3.781365  5.159940  5.932789  5.582385  4.346934  3.185899
             C (  7)   H (  8)   H (  9)   H ( 10)   H ( 11)   H ( 12)
   H (  8)  2.710799
   H (  9)  4.597079  2.453724
   H ( 10)  5.295634  4.281699  2.476252
   H ( 11)  4.565482  4.950807  4.284778  2.480640
   H ( 12)  2.649374  4.309094  4.947318  4.284352  2.457371
   H ( 13)  1.079964  3.788404  5.557364  5.938616  4.765577  2.467749
   O ( 14)  1.362082  2.512605  4.854451  6.100944  5.769947  4.006461
   H ( 15)  1.911220  3.459692  5.817944  7.002184  6.474603  4.476281
             H ( 13)   O ( 14)
   O ( 14)  2.093091
   H ( 15)  2.180694  0.963527
 
 Requested basis set is 6-311++G(2df,2p)
 There are 106 shells and 342 basis functions
 A cutoff of  1.0D-12 yielded   5168 shell pairs
 There are     54670 function pairs (     68259 Cartesian)
 Smallest overlap matrix eigenvalue = 9.79E-07
 Linear dependence detected in AO basis
 Tighter screening thresholds may be required for diffuse basis sets
 Use S2THRESH > 14 and THRESH = 14 in case of SCF convergence issues
 Number of orthogonalized atomic orbitals = 341
 Maximum deviation from orthogonality = 5.459E-11
 Guess MOs from SCF MO coefficient file

 -----------------------------------------------------------------------
  General SCF calculation program by
  Eric Jon Sundstrom, Paul Horn, Yuezhi Mao, Dmitri Zuev, Alec White,
  David Stuck, Shaama M.S., Shane Yost, Joonho Lee, David Small,
  Daniel Levine, Susi Lehtola, Hugh Burton, Evgeny Epifanovsky,
  Bang C. Huynh
 -----------------------------------------------------------------------
 Exchange:     0.1500 Hartree-Fock + 1.0000 wB97M-V + LR-HF
 Correlation:  1.0000 wB97M-V
 Using SG-2 standard quadrature grid
 Nonlocal Correlation:  VV10 with C = 0.0100 and b = 6.00 and scale = 1.00000
 Grid used for NLC:  SG-1 standard quadrature
 
 Citation of the SMD model:
 Marenich, A.V.; Cramer, C.J.; Truhlar, D.G.
 J. Phys. Chem. B 2009, 113, 6378-6396.
 iSolventCode=           1
 Solvent: water                                                           
 
 vradii
            1           2           3           4           5           6
    1   1.8500000   1.8500000   1.8500000   1.8500000   1.8500000   1.8500000
            7           8           9          10          11          12
    1   1.8500000   1.2000000   1.2000000   1.2000000   1.2000000   1.2000000
           13          14          15
    1   1.2000000   1.5200000   1.2000000
 -------------------------------------------------------
 OpenMP BLAS3 based DFT computing Module                
 Release: version 1.0, May 2013, Q-Chem Inc. Pittsburgh 
 -------------------------------------------------------
 A unrestricted SCF calculation will be
 performed using Roothaan-Hall, DIIS, GDM
 SCF converges when RMS gradient is below 1.0e-07
 ---------------------------------------
  Cycle       Energy         DIIS error
 ---------------------------------------
    1    -346.1022636317      1.82e-04  Roothaan Step
 ---------------------------------------
  Cycle       Energy         DIIS error
 ---------------------------------------
    1    -346.1178470593      2.07e-04  
    2    -346.1207971356      1.38e-04  Done DIIS. Switching to GDM
 ---------------------------------------
  Cycle       Energy        RMS Gradient
 ---------------------------------------
    1    -346.1207971356      7.15e-03   Normal BFGS step
    2    -346.1211803840      6.58e-03   Normal BFGS step
    3    -346.1217952570      1.13e-03   Normal BFGS step
    4    -346.1218041823      6.49e-04   Normal BFGS step
    5    -346.1218111820      3.81e-04   Normal BFGS step
    6    -346.1218117147      1.67e-04   Normal BFGS step
    7    -346.1218118920      4.77e-05   Normal BFGS step
    8    -346.1218119219      1.95e-05   Normal BFGS step
    9    -346.1218119259      1.94e-05   Normal BFGS step
   10    -346.1218119269      5.71e-06   Normal BFGS step
   11    -346.1218119271      2.93e-06   Normal BFGS step
   12    -346.1218119271      8.62e-07   Normal BFGS step
   13    -346.1218119271      3.05e-07   Normal BFGS step
   14    -346.1218119271      2.12e-07   Normal BFGS step
   15    -346.1218119272      8.64e-08  Convergence criterion met
 ---------------------------------------
 SCF time:   CPU 1212.47s  wall 154.00s 
<S^2> =          0.784638046
(3)  G-ENP(liq) elect-nuc-pol free energy of system     -346.121811927 a.u.
(4)  G-CDS(liq) cavity-dispersion-solvent structure 
     free energy                                                4.0555 kcal/mol
(6)  G-S(liq) free energy of system                     -346.115349140 a.u.
 SCF   energy in the final basis set =     -346.1153491399
 Total energy in the final basis set =     -346.1153491399
 
 --------------------------------------------------------------
 
                    Orbital Energies (a.u.)
 --------------------------------------------------------------
 
 Alpha MOs
 -- Occupied --
-19.3708 -10.3981 -10.3524 -10.3424 -10.3408 -10.3402 -10.3398 -10.3376
 -1.1962  -0.9851  -0.8966  -0.8691  -0.7921  -0.7232  -0.6958  -0.6463
 -0.6282  -0.5717  -0.5470  -0.5321  -0.5319  -0.5195  -0.4795  -0.4774
 -0.4481  -0.4296  -0.3748  -0.3540  -0.2403
 -- Virtual --
  0.0235   0.0343   0.0369   0.0523   0.0551   0.0606   0.0712   0.0809
  0.0896   0.0968   0.0996   0.1131   0.1196   0.1287   0.1431   0.1461
  0.1536   0.1558   0.1614   0.1676   0.1709   0.1751   0.1826   0.1850
  0.1877   0.1908   0.2036   0.2136   0.2207   0.2257   0.2348   0.2492
  0.2578   0.2701   0.2745   0.2775   0.2881   0.2916   0.2952   0.3009
  0.3253   0.3286   0.3406   0.3523   0.3552   0.3628   0.3915   0.3941
  0.4154   0.4274   0.4331   0.4682   0.4969   0.5012   0.5369   0.5474
  0.5736   0.5881   0.5899   0.6015   0.6049   0.6103   0.6160   0.6189
  0.6280   0.6382   0.6453   0.6564   0.6711   0.6807   0.6950   0.7150
  0.7162   0.7397   0.7431   0.7432   0.7466   0.7564   0.7589   0.7669
  0.7725   0.7928   0.8135   0.8248   0.8362   0.8394   0.8411   0.8491
  0.8702   0.8873   0.8917   0.8961   0.9020   0.9109   0.9337   0.9663
  1.0214   1.0328   1.0403   1.0482   1.0892   1.1023   1.1026   1.1171
  1.1259   1.1303   1.1585   1.1750   1.1855   1.2012   1.2152   1.2173
  1.2557   1.2613   1.2670   1.3128   1.3267   1.3630   1.3670   1.3959
  1.4030   1.4086   1.4260   1.4412   1.4548   1.4673   1.4734   1.4860
  1.4872   1.4949   1.5350   1.5723   1.5769   1.5903   1.6149   1.6780
  1.6984   1.7087   1.7695   1.7812   1.8006   1.8035   1.8181   1.8643
  1.8980   1.9169   1.9552   1.9853   2.0602   2.0828   2.1017   2.1215
  2.2183   2.3536   2.4107   2.4448   2.5722   2.6009   2.6264   2.6300
  2.6391   2.7271   2.7291   2.7544   2.7778   2.7938   2.8084   2.8164
  2.8356   2.8370   2.8382   2.8672   2.8721   2.8846   2.9089   2.9156
  2.9257   2.9281   2.9351   2.9457   2.9643   2.9847   3.0005   3.0204
  3.0380   3.0619   3.1008   3.1402   3.1414   3.1745   3.1947   3.1949
  3.2123   3.2325   3.2384   3.2446   3.2728   3.2741   3.2897   3.2923
  3.3150   3.3331   3.3563   3.3676   3.3972   3.4240   3.4264   3.4423
  3.4649   3.4703   3.4802   3.4970   3.5143   3.5301   3.5316   3.5432
  3.5575   3.5887   3.6035   3.6308   3.6415   3.6710   3.6804   3.7295
  3.7690   3.7747   3.8078   3.8105   3.8303   3.8416   3.8889   3.9031
  3.9328   3.9360   3.9395   3.9582   3.9623   3.9744   4.0001   4.0711
  4.0784   4.1230   4.1318   4.1444   4.1696   4.1904   4.2109   4.2241
  4.2621   4.2924   4.3263   4.3655   4.4150   4.4291   4.4543   4.4614
  4.4952   4.5056   4.5155   4.5228   4.5382   4.5739   4.5914   4.5942
  4.6149   4.6727   4.7260   4.7399   4.8060   4.8157   4.8168   4.9273
  5.0351   5.0417   5.1591   5.1685   5.1762   5.2132   5.2224   5.2511
  5.3088   5.3447   5.4239   5.4835   5.5037   5.6016   5.6518   5.7762
  5.8016   5.8647   5.8913   5.8974   5.9015   6.0175   6.2760   6.3820
  6.6376   6.8064   7.0288   7.2448   7.3402   7.3733   7.7246   7.8037
 24.2492  24.7982  24.8178  24.9038  25.0918  25.1052  25.5101  50.5996
 
 Beta MOs
 -- Occupied --
-19.3672 -10.3887 -10.3547 -10.3421 -10.3413 -10.3394 -10.3373 -10.3343
 -1.1877  -0.9823  -0.8903  -0.8665  -0.7779  -0.7209  -0.6918  -0.6391
 -0.6245  -0.5670  -0.5447  -0.5297  -0.5183  -0.5062  -0.4724  -0.4651
 -0.4450  -0.4283  -0.3478  -0.3429
 -- Virtual --
  0.0035   0.0231   0.0340   0.0367   0.0521   0.0549   0.0650   0.0737
  0.0806   0.0894   0.0996   0.1043   0.1191   0.1283   0.1340   0.1433
  0.1460   0.1553   0.1561   0.1614   0.1674   0.1711   0.1767   0.1822
  0.1860   0.1879   0.1957   0.2033   0.2130   0.2204   0.2261   0.2334
  0.2497   0.2584   0.2708   0.2778   0.2840   0.2886   0.2947   0.2974
  0.3012   0.3276   0.3342   0.3423   0.3534   0.3563   0.3648   0.3946
  0.3960   0.4165   0.4287   0.4341   0.4720   0.4993   0.5064   0.5431
  0.5507   0.5750   0.5909   0.6010   0.6036   0.6077   0.6171   0.6213
  0.6231   0.6324   0.6445   0.6470   0.6600   0.6770   0.6825   0.6979
  0.7179   0.7207   0.7422   0.7438   0.7452   0.7488   0.7582   0.7632
  0.7704   0.7759   0.7956   0.8209   0.8326   0.8376   0.8399   0.8444
  0.8514   0.8758   0.8885   0.8932   0.8996   0.9038   0.9201   0.9358
  0.9679   1.0222   1.0365   1.0413   1.0488   1.0921   1.1039   1.1066
  1.1193   1.1285   1.1314   1.1628   1.1802   1.1877   1.2014   1.2182
  1.2212   1.2564   1.2616   1.2747   1.3148   1.3289   1.3651   1.3709
  1.3971   1.4055   1.4136   1.4277   1.4427   1.4569   1.4726   1.4769
  1.4897   1.4903   1.4966   1.5404   1.5739   1.5796   1.5941   1.6192
  1.6835   1.7024   1.7136   1.7754   1.7858   1.8022   1.8105   1.8242
  1.8684   1.9037   1.9238   1.9572   1.9976   2.0639   2.0856   2.1042
  2.1248   2.2249   2.3579   2.4137   2.4546   2.5790   2.6032   2.6284
  2.6416   2.6546   2.7352   2.7420   2.7612   2.7967   2.8089   2.8133
  2.8185   2.8401   2.8485   2.8714   2.8779   2.8812   2.8911   2.9178
  2.9255   2.9335   2.9368   2.9453   2.9611   2.9691   2.9984   3.0063
  3.0282   3.0436   3.0732   3.1094   3.1563   3.1677   3.1820   3.2011
  3.2117   3.2201   3.2428   3.2432   3.2529   3.2852   3.2902   3.2955
  3.3002   3.3221   3.3557   3.3633   3.3847   3.4098   3.4320   3.4479
  3.4531   3.4775   3.4861   3.4894   3.5076   3.5214   3.5372   3.5541
  3.5584   3.5666   3.5921   3.6210   3.6405   3.6519   3.6845   3.6879
  3.7412   3.7747   3.7866   3.8186   3.8240   3.8377   3.8483   3.8938
  3.9073   3.9402   3.9435   3.9475   3.9665   3.9713   3.9804   4.0089
  4.0742   4.0889   4.1279   4.1395   4.1474   4.1801   4.1938   4.2171
  4.2311   4.2879   4.3081   4.3306   4.3712   4.4211   4.4348   4.4591
  4.4686   4.5031   4.5146   4.5278   4.5302   4.5481   4.5818   4.5989
  4.6002   4.6265   4.6773   4.7379   4.7448   4.8118   4.8210   4.8247
  4.9346   5.0495   5.0565   5.1659   5.1747   5.1954   5.2186   5.2302
  5.2629   5.3191   5.3542   5.4330   5.4903   5.5179   5.6138   5.6612
  5.7828   5.8091   5.8778   5.8997   5.9122   5.9269   6.0267   6.2846
  6.3902   6.6427   6.8149   7.0452   7.2599   7.3479   7.3859   7.7319
  7.8083  24.2500  24.7988  24.8196  24.9083  25.0934  25.1090  25.5113
 50.6026
 --------------------------------------------------------------
 
          Ground-State Mulliken Net Atomic Charges

     Atom                 Charge (a.u.)    Spin (a.u.)
  --------------------------------------------------------
      1 C                    -0.028894       0.206764
      2 C                    -0.345325      -0.103465
      3 C                    -0.378650       0.233539
      4 C                    -0.396812      -0.091778
      5 C                    -0.717608       0.208901
      6 C                     0.599821      -0.132220
      7 C                    -0.371064       0.619147
      8 H                     0.271361      -0.005298
      9 H                     0.280444       0.002614
     10 H                     0.276763      -0.005416
     11 H                     0.280377       0.002377
     12 H                     0.260692      -0.004471
     13 H                     0.276003      -0.015641
     14 O                    -0.351336       0.087234
     15 H                     0.344226      -0.002285
  --------------------------------------------------------
  Sum of atomic charges =    -0.000000
  Sum of spin   charges =     1.000000

 -----------------------------------------------------------------
                    Cartesian Multipole Moments
 -----------------------------------------------------------------
    Charge (ESU x 10^10)
                -0.0000
    Dipole Moment (Debye)
         X      -0.3827      Y       1.9932      Z      -2.3598
       Tot       3.1125
    Quadrupole Moments (Debye-Ang)
        XX     -45.5830     XY       2.1824     YY     -41.3414
        XZ       3.5335     YZ      -9.5626     ZZ     -41.4931
    Octopole Moments (Debye-Ang^2)
       XXX     145.1367    XXY      12.9532    XYY      48.3669
       YYY      82.7562    XXZ     -13.4221    XYZ       1.7757
       YYZ     -13.8708    XZZ      52.4139    YZZ      31.0233
       ZZZ     -21.8990
    Hexadecapole Moments (Debye-Ang^3)
      XXXX    -682.2650   XXXY    -169.0815   XXYY    -194.2836
      XYYY    -175.5878   YYYY    -565.7455   XXXZ      55.0495
      XXYZ      45.8987   XYYZ     -10.8052   YYYZ      93.6199
      XXZZ    -174.4512   XYZZ     -66.7063   YYZZ    -114.6824
      XZZZ      39.7649   YZZZ     119.7402   ZZZZ    -340.2508
 -----------------------------------------------------------------
 Calculating analytic gradient of the SCF energy
 Gradient of CDS energy
            1           2           3           4           5           6
    1   0.0003140   0.0003034  -0.0001495  -0.0004392  -0.0001517  -0.0000422
    2   0.0002399  -0.0001300  -0.0004141  -0.0002226   0.0001378  -0.0001072
    3  -0.0000035   0.0003769   0.0003144  -0.0001150  -0.0002650   0.0000784
            7           8           9          10          11          12
    1   0.0040447   0.0001187   0.0001206  -0.0000580  -0.0001791  -0.0000747
    2   0.0026784   0.0001081  -0.0000604  -0.0001574  -0.0000989   0.0000919
    3   0.0004174  -0.0000184   0.0001589   0.0001188  -0.0000391  -0.0001551
           13          14          15
    1  -0.0001135  -0.0039668   0.0002731
    2  -0.0000467  -0.0023705   0.0003516
    3  -0.0000407  -0.0006805  -0.0001475
 Gradient of SCF Energy
            1           2           3           4           5           6
    1  -0.0025490  -0.0016827   0.0018928   0.0037474   0.0035786   0.0008252
    2   0.0003013   0.0038023   0.0025297   0.0006698  -0.0059511   0.0018548
    3  -0.0023442  -0.0052510  -0.0011200   0.0023191   0.0087894  -0.0013148
            7           8           9          10          11          12
    1   0.0064393  -0.0032335   0.0003305  -0.0003802  -0.0019414  -0.0021101
    2  -0.0047147  -0.0024429  -0.0001819  -0.0008964  -0.0009614   0.0016824
    3   0.0100447   0.0000717   0.0005297   0.0006480  -0.0006001  -0.0035190
           13          14          15
    1  -0.0049520  -0.0005745   0.0006096
    2   0.0045351  -0.0134493   0.0132224
    3  -0.0086344   0.0134452  -0.0130645
 Max gradient component =       1.345E-02
 RMS gradient           =       5.280E-03
 Computing fast CPCM-SWIG gradient
 Updating gradient with PCM contributions...
 -- total gradient after adding PCM contribution --
---------------------------------------------------
  Atom         X              Y              Z     
---------------------------------------------------
   1       0.001130       0.000354       0.000375
   2      -0.000160      -0.000083       0.000094
   3      -0.000153      -0.000049      -0.000074
   4       0.000052      -0.000146       0.000160
   5       0.000113       0.000141      -0.000104
   6      -0.000559      -0.000128      -0.000221
   7      -0.000194      -0.000038      -0.000139
   8      -0.000558      -0.000214      -0.000104
   9      -0.000026       0.000063      -0.000013
  10       0.000004       0.000013      -0.000014
  11       0.000037      -0.000006      -0.000029
  12       0.000023      -0.000062      -0.000005
  13       0.000064      -0.000011       0.000014
  14       0.000250       0.000174       0.000063
  15      -0.000024      -0.000008      -0.000004
---------------------------------------------------
 Number of fixed atoms: 0
 Gradient time:  CPU 218.52 s  wall 31.58 s
 ----------------------------------------------------------------
             Standard Nuclear Orientation (Angstroms)
    I     Atom           X                Y                Z
 ----------------------------------------------------------------
    1      C      -0.2106474166    -0.4093343376     0.7373346453
    2      C      -0.6107696956    -1.4691951699     1.5279415457
    3      C      -1.8079649799    -2.1365992307     1.2765577983
    4      C      -2.6102002338    -1.7248990279     0.2095586654
    5      C      -2.2278778308    -0.6699976668    -0.5905767901
    6      C      -1.0135554889     0.0195740749    -0.3478208818
    7      C      -0.6475599053     1.0898533447    -1.1742652406
    8      H       0.7210238156     0.0993818444     0.9457297132
    9      H       0.0153497815    -1.7826548627     2.3531110336
   10      H      -2.1132901039    -2.9643877186     1.9012020724
   11      H      -3.5405983795    -2.2387674917     0.0065140250
   12      H      -2.8543046015    -0.3561841665    -1.4160024933
   13      H      -1.2522520896     1.4265980783    -2.0032843656
   14      O       0.5192170176     1.7512765253    -0.9367425723
   15      H       0.6227342107     2.4579298050    -1.5835110551
 ----------------------------------------------------------------
 Nuclear Repulsion Energy =         331.17890795 hartrees
 There are       29 alpha and       28 beta electrons
 Discretize the solute cavity surface with Lebedev spheres
	Using 110 Lebedev grid points for each H atom
	Using 194 Lebedev grid points for other atoms
	Atomic van der Waals radii will be scaled by 1.20
 Remove points where switching function is < 1.0e-08
 Keep 1134 surface tesserae and discard 1188 interior tesserae
 Molecular Surface Area = 138.415 Angst**2

                       Distance Matrix (Angstroms)
             C (  1)   C (  2)   C (  3)   C (  4)   C (  5)   C (  6)
   C (  2)  1.381471
   C (  3)  2.413634  1.393520
   C (  4)  2.786954  2.408576  1.396984
   C (  5)  2.429097  2.782423  2.411107  1.378116
   C (  6)  1.416399  2.428406  2.814032  2.429636  1.417398
   C (  7)  2.468334  3.721828  4.214626  3.699967  2.436221  1.400879
   H (  8)  1.081773  2.138476  3.391879  3.868721  3.412946  2.165273
   H (  9)  2.132561  1.082214  2.146793  3.389936  3.864631  3.406128
   H ( 10)  3.391598  2.152322  1.081035  2.155205  3.389147  3.895067
   H ( 11)  3.869044  3.389820  2.150690  1.082095  2.130913  3.407581
   H ( 12)  3.410075  3.865107  3.393315  2.139022  1.082690  2.161149
   H ( 13)  3.459275  4.611580  4.874685  4.083213  2.709853  2.185693
   O ( 14)  2.829042  4.209866  5.042822  4.815709  3.678169  2.386423
   H ( 15)  3.781806  5.159940  5.932789  5.582385  4.346934  3.185899
             C (  7)   H (  8)   H (  9)   H ( 10)   H ( 11)   H ( 12)
   H (  8)  2.710799
   H (  9)  4.597079  2.453724
   H ( 10)  5.295634  4.281699  2.476252
   H ( 11)  4.565482  4.950807  4.284778  2.480640
   H ( 12)  2.649374  4.309094  4.947318  4.284352  2.457371
   H ( 13)  1.079964  3.788404  5.557364  5.938616  4.765577  2.467749
   O ( 14)  1.362082  2.512605  4.854451  6.100944  5.769947  4.006461
   H ( 15)  1.911220  3.459692  5.817944  7.002184  6.474603  4.476281
             H ( 13)   O ( 14)
   O ( 14)  2.093091
   H ( 15)  2.180694  0.963527
 
 Requested basis set is 6-311++G(2df,2p)
 There are 106 shells and 342 basis functions
 A cutoff of  1.0D-12 yielded   5168 shell pairs
 There are     54670 function pairs (     68259 Cartesian)
 Smallest overlap matrix eigenvalue = 9.75E-07
 Linear dependence detected in AO basis
 Tighter screening thresholds may be required for diffuse basis sets
 Use S2THRESH > 14 and THRESH = 14 in case of SCF convergence issues
 Number of orthogonalized atomic orbitals = 341
 Maximum deviation from orthogonality = 7.369E-11
 Guess MOs from SCF MO coefficient file

 -----------------------------------------------------------------------
  General SCF calculation program by
  Eric Jon Sundstrom, Paul Horn, Yuezhi Mao, Dmitri Zuev, Alec White,
  David Stuck, Shaama M.S., Shane Yost, Joonho Lee, David Small,
  Daniel Levine, Susi Lehtola, Hugh Burton, Evgeny Epifanovsky,
  Bang C. Huynh
 -----------------------------------------------------------------------
 Exchange:     0.1500 Hartree-Fock + 1.0000 wB97M-V + LR-HF
 Correlation:  1.0000 wB97M-V
 Using SG-2 standard quadrature grid
 Nonlocal Correlation:  VV10 with C = 0.0100 and b = 6.00 and scale = 1.00000
 Grid used for NLC:  SG-1 standard quadrature
 
 Citation of the SMD model:
 Marenich, A.V.; Cramer, C.J.; Truhlar, D.G.
 J. Phys. Chem. B 2009, 113, 6378-6396.
 iSolventCode=           1
 Solvent: water                                                           
 
 vradii
            1           2           3           4           5           6
    1   1.8500000   1.8500000   1.8500000   1.8500000   1.8500000   1.8500000
            7           8           9          10          11          12
    1   1.8500000   1.2000000   1.2000000   1.2000000   1.2000000   1.2000000
           13          14          15
    1   1.2000000   1.5200000   1.2000000
 -------------------------------------------------------
 OpenMP BLAS3 based DFT computing Module                
 Release: version 1.0, May 2013, Q-Chem Inc. Pittsburgh 
 -------------------------------------------------------
 A unrestricted SCF calculation will be
 performed using Roothaan-Hall, DIIS, GDM
 SCF converges when RMS gradient is below 1.0e-07
 ---------------------------------------
  Cycle       Energy         DIIS error
 ---------------------------------------
    1    -346.1022553613      1.82e-04  Roothaan Step
 ---------------------------------------
  Cycle       Energy         DIIS error
 ---------------------------------------
    1    -346.1178557529      2.07e-04  
    2    -346.1208015833      1.38e-04  Done DIIS. Switching to GDM
 ---------------------------------------
  Cycle       Energy        RMS Gradient
 ---------------------------------------
    1    -346.1208015833      7.11e-03   Normal BFGS step
    2    -346.1211833872      6.57e-03   Normal BFGS step
    3    -346.1217943870      1.10e-03   Normal BFGS step
    4    -346.1218032337      6.53e-04   Normal BFGS step
    5    -346.1218101720      3.69e-04   Normal BFGS step
    6    -346.1218106913      1.60e-04   Normal BFGS step
    7    -346.1218108645      4.67e-05   Normal BFGS step
    8    -346.1218108936      1.75e-05   Normal BFGS step
    9    -346.1218108975      1.70e-05   Normal BFGS step
   10    -346.1218108986      4.28e-06   Normal BFGS step
   11    -346.1218108987      3.20e-06   Normal BFGS step
   12    -346.1218108987      1.04e-06   Normal BFGS step
   13    -346.1218108987      3.77e-07   Normal BFGS step
   14    -346.1218108988      2.47e-07   Normal BFGS step
   15    -346.1218108988      2.03e-07   Normal BFGS step
   16    -346.1218108988      9.26e-08  Convergence criterion met
 ---------------------------------------
 SCF time:   CPU 1273.92s  wall 162.00s 
<S^2> =          0.784558872
(3)  G-ENP(liq) elect-nuc-pol free energy of system     -346.121810899 a.u.
(4)  G-CDS(liq) cavity-dispersion-solvent structure 
     free energy                                                4.0547 kcal/mol
(6)  G-S(liq) free energy of system                     -346.115349291 a.u.
 SCF   energy in the final basis set =     -346.1153492906
 Total energy in the final basis set =     -346.1153492906
 
 --------------------------------------------------------------
 
                    Orbital Energies (a.u.)
 --------------------------------------------------------------
 
 Alpha MOs
 -- Occupied --
-19.3708 -10.3981 -10.3523 -10.3424 -10.3407 -10.3402 -10.3398 -10.3376
 -1.1962  -0.9852  -0.8967  -0.8691  -0.7922  -0.7231  -0.6959  -0.6463
 -0.6282  -0.5716  -0.5471  -0.5320  -0.5319  -0.5194  -0.4796  -0.4774
 -0.4481  -0.4295  -0.3748  -0.3540  -0.2403
 -- Virtual --
  0.0235   0.0343   0.0369   0.0523   0.0551   0.0606   0.0712   0.0809
  0.0896   0.0968   0.0996   0.1130   0.1196   0.1287   0.1431   0.1461
  0.1536   0.1558   0.1614   0.1676   0.1709   0.1752   0.1826   0.1850
  0.1877   0.1909   0.2036   0.2136   0.2207   0.2257   0.2348   0.2492
  0.2578   0.2701   0.2747   0.2775   0.2881   0.2917   0.2951   0.3009
  0.3253   0.3286   0.3406   0.3524   0.3552   0.3627   0.3914   0.3941
  0.4154   0.4274   0.4331   0.4682   0.4970   0.5011   0.5368   0.5475
  0.5736   0.5883   0.5899   0.6014   0.6049   0.6102   0.6161   0.6189
  0.6281   0.6382   0.6453   0.6565   0.6711   0.6807   0.6950   0.7152
  0.7161   0.7397   0.7431   0.7432   0.7466   0.7564   0.7589   0.7669
  0.7726   0.7928   0.8136   0.8248   0.8361   0.8395   0.8411   0.8492
  0.8702   0.8874   0.8918   0.8963   0.9022   0.9109   0.9337   0.9664
  1.0215   1.0327   1.0403   1.0483   1.0892   1.1023   1.1027   1.1170
  1.1260   1.1303   1.1586   1.1750   1.1855   1.2012   1.2152   1.2174
  1.2557   1.2613   1.2670   1.3129   1.3267   1.3629   1.3671   1.3961
  1.4030   1.4088   1.4259   1.4413   1.4548   1.4673   1.4735   1.4859
  1.4873   1.4951   1.5350   1.5724   1.5767   1.5899   1.6149   1.6779
  1.6987   1.7087   1.7693   1.7815   1.8007   1.8036   1.8184   1.8642
  1.8979   1.9169   1.9554   1.9854   2.0604   2.0828   2.1017   2.1219
  2.2190   2.3538   2.4108   2.4449   2.5722   2.6008   2.6269   2.6303
  2.6389   2.7272   2.7293   2.7541   2.7777   2.7939   2.8085   2.8162
  2.8355   2.8371   2.8384   2.8671   2.8722   2.8845   2.9088   2.9156
  2.9253   2.9282   2.9348   2.9457   2.9642   2.9848   3.0004   3.0208
  3.0383   3.0616   3.1008   3.1404   3.1415   3.1747   3.1948   3.1951
  3.2125   3.2324   3.2383   3.2447   3.2728   3.2741   3.2892   3.2921
  3.3155   3.3332   3.3561   3.3680   3.3976   3.4240   3.4263   3.4425
  3.4651   3.4707   3.4803   3.4972   3.5144   3.5302   3.5314   3.5429
  3.5575   3.5886   3.6034   3.6312   3.6414   3.6708   3.6804   3.7295
  3.7690   3.7748   3.8079   3.8108   3.8307   3.8416   3.8890   3.9029
  3.9331   3.9363   3.9397   3.9588   3.9628   3.9751   4.0001   4.0712
  4.0786   4.1228   4.1320   4.1442   4.1695   4.1898   4.2110   4.2243
  4.2620   4.2914   4.3265   4.3656   4.4152   4.4288   4.4539   4.4616
  4.4960   4.5056   4.5155   4.5240   4.5391   4.5743   4.5919   4.5947
  4.6152   4.6722   4.7262   4.7406   4.8060   4.8164   4.8177   4.9268
  5.0350   5.0424   5.1590   5.1687   5.1763   5.2129   5.2231   5.2509
  5.3089   5.3447   5.4244   5.4836   5.5033   5.6017   5.6518   5.7759
  5.8018   5.8648   5.8902   5.8974   5.9020   6.0180   6.2755   6.3824
  6.6389   6.8065   7.0288   7.2448   7.3403   7.3733   7.7247   7.8037
 24.2483  24.7983  24.8186  24.9043  25.0930  25.1055  25.5112  50.5996
 
 Beta MOs
 -- Occupied --
-19.3672 -10.3887 -10.3546 -10.3420 -10.3413 -10.3394 -10.3373 -10.3343
 -1.1877  -0.9824  -0.8903  -0.8665  -0.7779  -0.7208  -0.6919  -0.6391
 -0.6245  -0.5669  -0.5449  -0.5296  -0.5182  -0.5062  -0.4725  -0.4652
 -0.4450  -0.4282  -0.3478  -0.3429
 -- Virtual --
  0.0035   0.0232   0.0340   0.0367   0.0521   0.0549   0.0650   0.0738
  0.0806   0.0894   0.0996   0.1043   0.1191   0.1283   0.1340   0.1433
  0.1460   0.1553   0.1562   0.1613   0.1674   0.1711   0.1768   0.1822
  0.1860   0.1879   0.1958   0.2033   0.2130   0.2204   0.2261   0.2334
  0.2497   0.2584   0.2708   0.2779   0.2841   0.2886   0.2947   0.2974
  0.3012   0.3276   0.3342   0.3424   0.3535   0.3563   0.3648   0.3946
  0.3960   0.4166   0.4288   0.4341   0.4720   0.4994   0.5063   0.5430
  0.5508   0.5749   0.5911   0.6010   0.6035   0.6076   0.6171   0.6213
  0.6231   0.6325   0.6445   0.6470   0.6600   0.6770   0.6824   0.6979
  0.7180   0.7206   0.7423   0.7438   0.7452   0.7487   0.7582   0.7633
  0.7704   0.7760   0.7957   0.8210   0.8326   0.8376   0.8399   0.8445
  0.8515   0.8759   0.8885   0.8934   0.8997   0.9041   0.9201   0.9359
  0.9679   1.0223   1.0364   1.0413   1.0489   1.0921   1.1039   1.1068
  1.1192   1.1286   1.1314   1.1629   1.1802   1.1877   1.2014   1.2183
  1.2212   1.2564   1.2616   1.2747   1.3149   1.3288   1.3651   1.3710
  1.3974   1.4055   1.4138   1.4277   1.4428   1.4569   1.4726   1.4770
  1.4898   1.4903   1.4969   1.5405   1.5740   1.5794   1.5937   1.6192
  1.6834   1.7027   1.7136   1.7753   1.7861   1.8022   1.8106   1.8245
  1.8683   1.9036   1.9238   1.9575   1.9977   2.0641   2.0856   2.1043
  2.1253   2.2256   2.3580   2.4138   2.4547   2.5790   2.6031   2.6289
  2.6420   2.6545   2.7354   2.7420   2.7609   2.7967   2.8090   2.8136
  2.8183   2.8400   2.8487   2.8713   2.8779   2.8813   2.8911   2.9178
  2.9254   2.9333   2.9368   2.9448   2.9611   2.9690   2.9986   3.0061
  3.0285   3.0438   3.0730   3.1094   3.1565   3.1679   3.1822   3.2013
  3.2117   3.2203   3.2429   3.2431   3.2529   3.2852   3.2902   3.2950
  3.3001   3.3225   3.3557   3.3630   3.3851   3.4102   3.4321   3.4478
  3.4531   3.4778   3.4863   3.4895   3.5078   3.5216   3.5373   3.5538
  3.5583   3.5665   3.5921   3.6209   3.6408   3.6518   3.6845   3.6877
  3.7412   3.7747   3.7867   3.8188   3.8241   3.8381   3.8484   3.8939
  3.9070   3.9404   3.9438   3.9478   3.9671   3.9718   3.9811   4.0089
  4.0742   4.0891   4.1276   4.1397   4.1473   4.1800   4.1933   4.2172
  4.2312   4.2876   4.3074   4.3308   4.3713   4.4212   4.4345   4.4586
  4.4689   4.5038   4.5147   4.5282   4.5311   4.5489   4.5821   4.5994
  4.6008   4.6267   4.6768   4.7381   4.7454   4.8120   4.8215   4.8257
  4.9340   5.0502   5.0564   5.1658   5.1749   5.1954   5.2183   5.2310
  5.2627   5.3192   5.3543   5.4335   5.4902   5.5176   5.6139   5.6612
  5.7827   5.8094   5.8780   5.8981   5.9123   5.9277   6.0271   6.2841
  6.3906   6.6440   6.8151   7.0452   7.2599   7.3480   7.3860   7.7319
  7.8084  24.2491  24.7989  24.8204  24.9088  25.0945  25.1093  25.5124
 50.6027
 --------------------------------------------------------------
 
          Ground-State Mulliken Net Atomic Charges

     Atom                 Charge (a.u.)    Spin (a.u.)
  --------------------------------------------------------
      1 C                    -0.025680       0.206100
      2 C                    -0.346234      -0.103327
      3 C                    -0.378209       0.233367
      4 C                    -0.396777      -0.091651
      5 C                    -0.718285       0.208828
      6 C                     0.599787      -0.132041
      7 C                    -0.372427       0.619580
      8 H                     0.270656      -0.005315
      9 H                     0.280448       0.002609
     10 H                     0.276715      -0.005412
     11 H                     0.280472       0.002377
     12 H                     0.260637      -0.004463
     13 H                     0.276107      -0.015656
     14 O                    -0.351406       0.087291
     15 H                     0.344196      -0.002286
  --------------------------------------------------------
  Sum of atomic charges =    -0.000000
  Sum of spin   charges =     1.000000

 -----------------------------------------------------------------
                    Cartesian Multipole Moments
 -----------------------------------------------------------------
    Charge (ESU x 10^10)
                -0.0000
    Dipole Moment (Debye)
         X      -0.3825      Y       1.9909      Z      -2.3590
       Tot       3.1104
    Quadrupole Moments (Debye-Ang)
        XX     -45.5877     XY       2.1771     YY     -41.3398
        XZ       3.5316     YZ      -9.5660     ZZ     -41.4901
    Octopole Moments (Debye-Ang^2)
       XXX     145.1788    XXY      12.9612    XYY      48.3859
       YYY      82.7502    XXZ     -13.4214    XYZ       1.7729
       YYZ     -13.8661    XZZ      52.4234    YZZ      31.0125
       ZZZ     -21.8860
    Hexadecapole Moments (Debye-Ang^3)
      XXXX    -682.3444   XXXY    -169.1277   XXYY    -194.3096
      XYYY    -175.6339   YYYY    -565.7491   XXXZ      55.0623
      XXYZ      45.9012   XYYZ     -10.7893   YYYZ      93.6080
      XXZZ    -174.4643   XYZZ     -66.7187   YYZZ    -114.6659
      XZZZ      39.7799   YZZZ     119.7100   ZZZZ    -340.2168
 -----------------------------------------------------------------
 Calculating analytic gradient of the SCF energy
 Gradient of CDS energy
            1           2           3           4           5           6
    1   0.0003099   0.0003047  -0.0001495  -0.0004392  -0.0001516  -0.0000416
    2   0.0002394  -0.0001292  -0.0004141  -0.0002226   0.0001378  -0.0001076
    3  -0.0000050   0.0003763   0.0003145  -0.0001150  -0.0002653   0.0000798
            7           8           9          10          11          12
    1   0.0040452   0.0001206   0.0001206  -0.0000580  -0.0001791  -0.0000747
    2   0.0026782   0.0001086  -0.0000604  -0.0001574  -0.0000989   0.0000919
    3   0.0004175  -0.0000176   0.0001589   0.0001188  -0.0000391  -0.0001551
           13          14          15
    1  -0.0001135  -0.0039670   0.0002731
    2  -0.0000467  -0.0023706   0.0003516
    3  -0.0000407  -0.0006806  -0.0001475
 Gradient of SCF Energy
            1           2           3           4           5           6
    1  -0.0046824  -0.0012163   0.0019122   0.0037527   0.0036424   0.0014859
    2  -0.0004454   0.0041561   0.0026252   0.0006596  -0.0059758   0.0018062
    3  -0.0028962  -0.0054085  -0.0011692   0.0022995   0.0088852  -0.0009468
            7           8           9          10          11          12
    1   0.0063795  -0.0022412   0.0003006  -0.0003694  -0.0019401  -0.0021008
    2  -0.0047682  -0.0019844  -0.0002401  -0.0008828  -0.0009626   0.0016977
    3   0.0100869   0.0002800   0.0005796   0.0006618  -0.0006016  -0.0035102
           13          14          15
    1  -0.0049516  -0.0005809   0.0006095
    2   0.0045504  -0.0134569   0.0132210
    3  -0.0086380   0.0134409  -0.0130636
 Max gradient component =       1.346E-02
 RMS gradient           =       5.319E-03
 Computing fast CPCM-SWIG gradient
 Updating gradient with PCM contributions...
 -- total gradient after adding PCM contribution --
---------------------------------------------------
  Atom         X              Y              Z     
---------------------------------------------------
   1      -0.001049      -0.000429      -0.000150
   2       0.000335       0.000255      -0.000053
   3      -0.000126       0.000053      -0.000130
   4       0.000055      -0.000152       0.000152
   5       0.000185       0.000125      -0.000014
   6       0.000106      -0.000156       0.000138
   7      -0.000251      -0.000086      -0.000111
   8       0.000439       0.000245       0.000106
   9      -0.000059       0.000008       0.000031
  10       0.000014       0.000028      -0.000003
  11       0.000036      -0.000007      -0.000030
  12       0.000032      -0.000047       0.000002
  13       0.000064       0.000003       0.000010
  14       0.000243       0.000166       0.000057
  15      -0.000023      -0.000007      -0.000004
---------------------------------------------------
 Number of fixed atoms: 0
 Gradient time:  CPU 218.30 s  wall 31.54 s
 ----------------------------------------------------------------
             Standard Nuclear Orientation (Angstroms)
    I     Atom           X                Y                Z
 ----------------------------------------------------------------
    1      C      -0.2096474166    -0.4083343376     0.7373346453
    2      C      -0.6107696956    -1.4691951699     1.5279415457
    3      C      -1.8079649799    -2.1365992307     1.2765577983
    4      C      -2.6102002338    -1.7248990279     0.2095586654
    5      C      -2.2278778308    -0.6699976668    -0.5905767901
    6      C      -1.0135554889     0.0195740749    -0.3478208818
    7      C      -0.6475599053     1.0898533447    -1.1742652406
    8      H       0.7210238156     0.0993818444     0.9457297132
    9      H       0.0153497815    -1.7826548627     2.3531110336
   10      H      -2.1132901039    -2.9643877186     1.9012020724
   11      H      -3.5405983795    -2.2387674917     0.0065140250
   12      H      -2.8543046015    -0.3561841665    -1.4160024933
   13      H      -1.2522520896     1.4265980783    -2.0032843656
   14      O       0.5192170176     1.7512765253    -0.9367425723
   15      H       0.6227342107     2.4579298050    -1.5835110551
 ----------------------------------------------------------------
 Nuclear Repulsion Energy =         331.16230729 hartrees
 There are       29 alpha and       28 beta electrons
 Discretize the solute cavity surface with Lebedev spheres
	Using 110 Lebedev grid points for each H atom
	Using 194 Lebedev grid points for other atoms
	Atomic van der Waals radii will be scaled by 1.20
 Remove points where switching function is < 1.0e-08
 Keep 1134 surface tesserae and discard 1188 interior tesserae
 Molecular Surface Area = 138.417 Angst**2

                       Distance Matrix (Angstroms)
             C (  1)   C (  2)   C (  3)   C (  4)   C (  5)   C (  6)
   C (  2)  1.382528
   C (  3)  2.415011  1.393520
   C (  4)  2.788287  2.408576  1.396984
   C (  5)  2.430035  2.782423  2.411107  1.378116
   C (  6)  1.416664  2.428406  2.814032  2.429636  1.417398
   C (  7)  2.467904  3.721828  4.214626  3.699967  2.436221  1.400879
   H (  8)  1.080441  2.138476  3.391879  3.868721  3.412946  2.165273
   H (  9)  2.133100  1.082214  2.146793  3.389936  3.864631  3.406128
   H ( 10)  3.392912  2.152322  1.081035  2.155205  3.389147  3.895067
   H ( 11)  3.870377  3.389820  2.150690  1.082095  2.130913  3.407581
   H ( 12)  3.410835  3.865107  3.393315  2.139022  1.082690  2.161149
   H ( 13)  3.459045  4.611580  4.874685  4.083213  2.709853  2.185693
   O ( 14)  2.828020  4.209866  5.042822  4.815709  3.678169  2.386423
   H ( 15)  3.780827  5.159940  5.932789  5.582385  4.346934  3.185899
             C (  7)   H (  8)   H (  9)   H ( 10)   H ( 11)   H ( 12)
   H (  8)  2.710799
   H (  9)  4.597079  2.453724
   H ( 10)  5.295634  4.281699  2.476252
   H ( 11)  4.565482  4.950807  4.284778  2.480640
   H ( 12)  2.649374  4.309094  4.947318  4.284352  2.457371
   H ( 13)  1.079964  3.788404  5.557364  5.938616  4.765577  2.467749
   O ( 14)  1.362082  2.512605  4.854451  6.100944  5.769947  4.006461
   H ( 15)  1.911220  3.459692  5.817944  7.002184  6.474603  4.476281
             H ( 13)   O ( 14)
   O ( 14)  2.093091
   H ( 15)  2.180694  0.963527
 
 Requested basis set is 6-311++G(2df,2p)
 There are 106 shells and 342 basis functions
 A cutoff of  1.0D-12 yielded   5168 shell pairs
 There are     54670 function pairs (     68259 Cartesian)
 Smallest overlap matrix eigenvalue = 9.78E-07
 Linear dependence detected in AO basis
 Tighter screening thresholds may be required for diffuse basis sets
 Use S2THRESH > 14 and THRESH = 14 in case of SCF convergence issues
 Number of orthogonalized atomic orbitals = 341
 Maximum deviation from orthogonality = 9.574E-11
 Guess MOs from SCF MO coefficient file

 -----------------------------------------------------------------------
  General SCF calculation program by
  Eric Jon Sundstrom, Paul Horn, Yuezhi Mao, Dmitri Zuev, Alec White,
  David Stuck, Shaama M.S., Shane Yost, Joonho Lee, David Small,
  Daniel Levine, Susi Lehtola, Hugh Burton, Evgeny Epifanovsky,
  Bang C. Huynh
 -----------------------------------------------------------------------
 Exchange:     0.1500 Hartree-Fock + 1.0000 wB97M-V + LR-HF
 Correlation:  1.0000 wB97M-V
 Using SG-2 standard quadrature grid
 Nonlocal Correlation:  VV10 with C = 0.0100 and b = 6.00 and scale = 1.00000
 Grid used for NLC:  SG-1 standard quadrature
 
 Citation of the SMD model:
 Marenich, A.V.; Cramer, C.J.; Truhlar, D.G.
 J. Phys. Chem. B 2009, 113, 6378-6396.
 iSolventCode=           1
 Solvent: water                                                           
 
 vradii
            1           2           3           4           5           6
    1   1.8500000   1.8500000   1.8500000   1.8500000   1.8500000   1.8500000
            7           8           9          10          11          12
    1   1.8500000   1.2000000   1.2000000   1.2000000   1.2000000   1.2000000
           13          14          15
    1   1.2000000   1.5200000   1.2000000
 -------------------------------------------------------
 OpenMP BLAS3 based DFT computing Module                
 Release: version 1.0, May 2013, Q-Chem Inc. Pittsburgh 
 -------------------------------------------------------
 A unrestricted SCF calculation will be
 performed using Roothaan-Hall, DIIS, GDM
 SCF converges when RMS gradient is below 1.0e-07
 ---------------------------------------
  Cycle       Energy         DIIS error
 ---------------------------------------
    1    -346.1022666313      1.82e-04  Roothaan Step
 ---------------------------------------
  Cycle       Energy         DIIS error
 ---------------------------------------
    1    -346.1178468211      2.07e-04  
    2    -346.1207968154      1.39e-04  Done DIIS. Switching to GDM
 ---------------------------------------
  Cycle       Energy        RMS Gradient
 ---------------------------------------
    1    -346.1207968154      7.15e-03   Normal BFGS step
    2    -346.1211794128      6.61e-03   Normal BFGS step
    3    -346.1217954266      1.13e-03   Normal BFGS step
    4    -346.1218043594      6.49e-04   Normal BFGS step
    5    -346.1218113766      3.79e-04   Normal BFGS step
    6    -346.1218119073      1.66e-04   Normal BFGS step
    7    -346.1218120839      4.73e-05   Normal BFGS step
    8    -346.1218121137      1.87e-05   Normal BFGS step
    9    -346.1218121178      1.86e-05   Normal BFGS step
   10    -346.1218121188      5.07e-06   Normal BFGS step
   11    -346.1218121190      2.64e-06   Normal BFGS step
   12    -346.1218121190      9.96e-07   Normal BFGS step
   13    -346.1218121190      3.07e-07   Normal BFGS step
   14    -346.1218121190      2.56e-07   Normal BFGS step
   15    -346.1218121191      9.22e-08  Convergence criterion met
 ---------------------------------------
 SCF time:   CPU 1216.75s  wall 155.00s 
<S^2> =          0.784568298
(3)  G-ENP(liq) elect-nuc-pol free energy of system     -346.121812119 a.u.
(4)  G-CDS(liq) cavity-dispersion-solvent structure 
     free energy                                                4.0554 kcal/mol
(6)  G-S(liq) free energy of system                     -346.115349469 a.u.
 SCF   energy in the final basis set =     -346.1153494693
 Total energy in the final basis set =     -346.1153494693
 
 --------------------------------------------------------------
 
                    Orbital Energies (a.u.)
 --------------------------------------------------------------
 
 Alpha MOs
 -- Occupied --
-19.3708 -10.3981 -10.3523 -10.3424 -10.3408 -10.3402 -10.3398 -10.3376
 -1.1962  -0.9851  -0.8966  -0.8691  -0.7921  -0.7232  -0.6958  -0.6463
 -0.6282  -0.5717  -0.5470  -0.5321  -0.5319  -0.5194  -0.4795  -0.4774
 -0.4481  -0.4297  -0.3748  -0.3540  -0.2403
 -- Virtual --
  0.0235   0.0343   0.0369   0.0523   0.0551   0.0605   0.0712   0.0809
  0.0896   0.0969   0.0996   0.1131   0.1197   0.1287   0.1431   0.1461
  0.1536   0.1558   0.1614   0.1676   0.1709   0.1751   0.1826   0.1850
  0.1877   0.1909   0.2036   0.2136   0.2207   0.2257   0.2348   0.2492
  0.2578   0.2701   0.2746   0.2776   0.2881   0.2917   0.2951   0.3009
  0.3254   0.3286   0.3406   0.3523   0.3552   0.3628   0.3915   0.3941
  0.4154   0.4274   0.4331   0.4682   0.4970   0.5011   0.5368   0.5474
  0.5736   0.5882   0.5899   0.6015   0.6050   0.6103   0.6161   0.6189
  0.6280   0.6382   0.6453   0.6565   0.6711   0.6807   0.6950   0.7151
  0.7161   0.7397   0.7431   0.7432   0.7466   0.7564   0.7589   0.7669
  0.7725   0.7928   0.8136   0.8248   0.8361   0.8395   0.8411   0.8491
  0.8702   0.8873   0.8917   0.8961   0.9020   0.9109   0.9337   0.9663
  1.0214   1.0328   1.0403   1.0483   1.0892   1.1023   1.1026   1.1171
  1.1260   1.1303   1.1586   1.1750   1.1855   1.2012   1.2152   1.2173
  1.2557   1.2613   1.2670   1.3129   1.3267   1.3629   1.3670   1.3959
  1.4030   1.4086   1.4260   1.4412   1.4548   1.4673   1.4735   1.4859
  1.4872   1.4949   1.5349   1.5724   1.5768   1.5902   1.6149   1.6779
  1.6984   1.7088   1.7696   1.7812   1.8006   1.8035   1.8181   1.8642
  1.8979   1.9169   1.9552   1.9853   2.0603   2.0827   2.1015   2.1217
  2.2184   2.3536   2.4107   2.4448   2.5722   2.6009   2.6265   2.6300
  2.6390   2.7272   2.7293   2.7543   2.7778   2.7937   2.8083   2.8163
  2.8355   2.8370   2.8382   2.8671   2.8721   2.8846   2.9090   2.9156
  2.9258   2.9281   2.9350   2.9457   2.9643   2.9846   3.0007   3.0206
  3.0381   3.0618   3.1008   3.1403   3.1414   3.1746   3.1947   3.1950
  3.2122   3.2324   3.2384   3.2447   3.2728   3.2741   3.2894   3.2923
  3.3153   3.3332   3.3562   3.3677   3.3974   3.4240   3.4263   3.4425
  3.4649   3.4705   3.4802   3.4970   3.5144   3.5303   3.5316   3.5430
  3.5572   3.5888   3.6034   3.6309   3.6416   3.6710   3.6803   3.7296
  3.7690   3.7747   3.8079   3.8105   3.8304   3.8416   3.8890   3.9030
  3.9328   3.9361   3.9396   3.9586   3.9625   3.9745   4.0001   4.0711
  4.0785   4.1229   4.1319   4.1444   4.1696   4.1904   4.2109   4.2241
  4.2621   4.2921   4.3264   4.3657   4.4151   4.4286   4.4539   4.4616
  4.4956   4.5057   4.5155   4.5233   4.5384   4.5740   4.5912   4.5943
  4.6150   4.6723   4.7260   4.7404   4.8060   4.8158   4.8170   4.9270
  5.0349   5.0418   5.1589   5.1691   5.1762   5.2131   5.2225   5.2509
  5.3088   5.3447   5.4242   5.4836   5.5036   5.6017   5.6518   5.7761
  5.8019   5.8644   5.8911   5.8974   5.9014   6.0177   6.2758   6.3822
  6.6379   6.8065   7.0288   7.2448   7.3403   7.3733   7.7247   7.8037
 24.2491  24.7984  24.8178  24.9042  25.0918  25.1053  25.5103  50.5996
 
 Beta MOs
 -- Occupied --
-19.3672 -10.3887 -10.3546 -10.3421 -10.3413 -10.3394 -10.3373 -10.3343
 -1.1877  -0.9823  -0.8903  -0.8665  -0.7779  -0.7209  -0.6918  -0.6391
 -0.6245  -0.5670  -0.5448  -0.5297  -0.5182  -0.5062  -0.4724  -0.4652
 -0.4449  -0.4284  -0.3478  -0.3428
 -- Virtual --
  0.0035   0.0231   0.0340   0.0367   0.0521   0.0549   0.0649   0.0737
  0.0806   0.0894   0.0996   0.1043   0.1191   0.1283   0.1340   0.1433
  0.1460   0.1553   0.1562   0.1614   0.1674   0.1711   0.1767   0.1822
  0.1860   0.1879   0.1957   0.2033   0.2130   0.2204   0.2261   0.2334
  0.2497   0.2584   0.2708   0.2779   0.2840   0.2886   0.2947   0.2974
  0.3012   0.3276   0.3342   0.3423   0.3535   0.3563   0.3648   0.3947
  0.3959   0.4165   0.4287   0.4341   0.4720   0.4994   0.5063   0.5431
  0.5507   0.5750   0.5909   0.6010   0.6036   0.6077   0.6171   0.6213
  0.6231   0.6324   0.6445   0.6470   0.6601   0.6770   0.6825   0.6979
  0.7180   0.7206   0.7423   0.7438   0.7452   0.7487   0.7582   0.7633
  0.7704   0.7759   0.7956   0.8209   0.8326   0.8376   0.8399   0.8444
  0.8514   0.8759   0.8885   0.8933   0.8996   0.9038   0.9201   0.9359
  0.9679   1.0222   1.0365   1.0413   1.0488   1.0921   1.1039   1.1066
  1.1193   1.1286   1.1314   1.1629   1.1802   1.1877   1.2014   1.2182
  1.2212   1.2564   1.2616   1.2747   1.3149   1.3289   1.3651   1.3709
  1.3972   1.4055   1.4136   1.4277   1.4427   1.4569   1.4726   1.4770
  1.4898   1.4903   1.4967   1.5404   1.5739   1.5795   1.5940   1.6192
  1.6834   1.7025   1.7137   1.7755   1.7859   1.8022   1.8105   1.8243
  1.8684   1.9036   1.9238   1.9572   1.9977   2.0641   2.0855   2.1040
  2.1251   2.2250   2.3579   2.4137   2.4546   2.5789   2.6031   2.6285
  2.6417   2.6545   2.7354   2.7421   2.7611   2.7968   2.8088   2.8133
  2.8184   2.8400   2.8485   2.8713   2.8779   2.8812   2.8911   2.9178
  2.9255   2.9338   2.9368   2.9450   2.9611   2.9690   2.9984   3.0064
  3.0283   3.0436   3.0732   3.1094   3.1563   3.1677   3.1822   3.2012
  3.2117   3.2201   3.2429   3.2432   3.2530   3.2851   3.2902   3.2952
  3.3002   3.3224   3.3558   3.3632   3.3849   3.4100   3.4320   3.4478
  3.4531   3.4777   3.4861   3.4894   3.5076   3.5216   3.5373   3.5540
  3.5584   3.5664   3.5921   3.6210   3.6406   3.6520   3.6844   3.6878
  3.7412   3.7747   3.7865   3.8185   3.8241   3.8378   3.8483   3.8938
  3.9072   3.9402   3.9436   3.9477   3.9670   3.9715   3.9805   4.0089
  4.0741   4.0890   4.1277   4.1396   4.1474   4.1801   4.1938   4.2171
  4.2311   4.2879   4.3079   4.3307   4.3714   4.4212   4.4344   4.4587
  4.4690   4.5035   4.5148   4.5279   4.5307   4.5482   4.5819   4.5987
  4.6003   4.6265   4.6769   4.7379   4.7452   4.8117   4.8212   4.8249
  4.9342   5.0495   5.0563   5.1657   5.1753   5.1954   5.2185   5.2304
  5.2628   5.3192   5.3542   5.4333   5.4902   5.5178   5.6139   5.6612
  5.7828   5.8094   5.8776   5.8990   5.9122   5.9272   6.0268   6.2845
  6.3903   6.6430   6.8150   7.0452   7.2599   7.3479   7.3860   7.7320
[...]
 Raman Active:       YES                    YES                    YES
               X      Y      Z        X      Y      Z        X      Y      Z
 C         -0.025  0.032  0.032   -0.028  0.036  0.035    0.050 -0.065 -0.063
 C          0.025 -0.032 -0.029    0.065 -0.085 -0.081   -0.004  0.006  0.005
 C         -0.027  0.038  0.035   -0.035  0.046  0.044    0.065 -0.086 -0.082
 C          0.018 -0.024 -0.024    0.065 -0.085 -0.081   -0.008  0.009  0.009
 C         -0.018  0.021  0.019   -0.029  0.038  0.036    0.048 -0.063 -0.060
 C         -0.014  0.016  0.017    0.043 -0.057 -0.055   -0.103  0.136  0.131
 C          0.081 -0.107 -0.101   -0.013  0.018  0.017    0.035 -0.046 -0.044
 H         -0.015  0.020  0.017   -0.243  0.318  0.307   -0.051  0.068  0.066
 H          0.075 -0.100 -0.093   -0.061  0.083  0.078   -0.254  0.338  0.321
 H         -0.025  0.034  0.030   -0.299  0.393  0.375   -0.275  0.360  0.343
 H          0.079 -0.104 -0.098   -0.064  0.083  0.081   -0.251  0.327  0.316
 H          0.039 -0.053 -0.052   -0.241  0.319  0.303   -0.027  0.038  0.035
 H         -0.450  0.599  0.574    0.066 -0.087 -0.083   -0.068  0.092  0.087
 O         -0.014  0.020  0.018    0.002 -0.003 -0.003   -0.003  0.004  0.004
 H          0.035 -0.052 -0.053    0.002 -0.002 -0.002   -0.008  0.010  0.009
 TransDip  -0.057  0.070  0.069   -0.132  0.173  0.167   -0.164  0.215  0.207

 Mode:                13                     14                     15
 Frequency:       829.82                 844.26                 909.12
 Force Cnst:      1.6280                 0.5304                 0.6954
 Red. Mass:       4.0126                 1.2631                 1.4281
 IR Active:          YES                    YES                    YES
 IR Intens:        2.149                  0.144                  8.825
 Raman Active:       YES                    YES                    YES
               X      Y      Z        X      Y      Z        X      Y      Z
 C         -0.142  0.035 -0.153    0.047 -0.060 -0.056   -0.048  0.064  0.061
 C         -0.123  0.096 -0.201    0.028 -0.036 -0.032    0.005 -0.006 -0.005
 C         -0.024 -0.096  0.081   -0.002  0.004  0.002    0.052 -0.069 -0.066
 C          0.176  0.101  0.037   -0.030  0.037  0.036   -0.002  0.003  0.003
 C          0.106  0.064  0.021   -0.043  0.055  0.052   -0.048  0.064  0.062
 C         -0.004 -0.027  0.025   -0.000  0.001  0.000    0.036 -0.047 -0.045
 C          0.078 -0.162  0.231   -0.001  0.002 -0.001   -0.012  0.015  0.014
 H         -0.156  0.038 -0.145   -0.281  0.370  0.360    0.253 -0.329 -0.320
 H          0.076  0.335 -0.271   -0.183  0.242  0.234   -0.028  0.036  0.035
 H          0.015 -0.087  0.105    0.014 -0.017 -0.018   -0.303  0.396  0.376
 H          0.148  0.230 -0.142    0.204 -0.271 -0.259    0.012 -0.016 -0.017
 H          0.086  0.016  0.028    0.259 -0.349 -0.331    0.258 -0.346 -0.327
 H         -0.033 -0.286  0.274    0.029 -0.036 -0.038    0.008 -0.011 -0.011
 O         -0.033 -0.016 -0.009   -0.001  0.001  0.002    0.001 -0.001 -0.001
 H         -0.398 -0.124 -0.187   -0.000  0.005  0.005    0.002 -0.001 -0.001
 TransDip  -0.007  0.029 -0.036    0.006 -0.007 -0.007    0.045 -0.060 -0.058

 Mode:                16                     17                     18
 Frequency:       987.79                1006.46                1017.28
 Force Cnst:      3.0759                 0.8091                 0.7946
 Red. Mass:       5.3506                 1.3556                 1.3032
 IR Active:          YES                    YES                    YES
 IR Intens:       35.761                  0.100                  0.039
 Raman Active:       YES                    YES                    YES
               X      Y      Z        X      Y      Z        X      Y      Z
 C          0.316  0.134  0.106    0.028 -0.044 -0.040   -0.022  0.029  0.028
 C         -0.054  0.023 -0.058   -0.047  0.058  0.054    0.048 -0.063 -0.060
 C         -0.088 -0.250  0.191   -0.000  0.009 -0.002   -0.042  0.053  0.052
 C          0.067  0.026  0.017    0.055 -0.068 -0.064    0.037 -0.050 -0.048
 C         -0.245  0.068 -0.261   -0.037  0.050  0.053   -0.017  0.023  0.021
 C          0.026  0.071 -0.053    0.001 -0.003 -0.001    0.000  0.001  0.001
 C          0.039 -0.007  0.039   -0.001  0.001  0.001   -0.002  0.002  0.002
 H          0.364 -0.014  0.324   -0.168  0.211  0.210    0.139 -0.182 -0.175
 H         -0.045 -0.020 -0.065    0.239 -0.338 -0.314   -0.288  0.390  0.368
 H         -0.077 -0.254  0.208    0.014 -0.010 -0.020    0.229 -0.302 -0.286
 H          0.046  0.019  0.062   -0.295  0.388  0.385   -0.235  0.307  0.295
 H         -0.407 -0.116 -0.226    0.210 -0.287 -0.262    0.115 -0.151 -0.146
 H          0.068  0.024  0.029    0.005 -0.008 -0.008    0.001 -0.003 -0.002
 O         -0.039 -0.024 -0.006    0.000  0.001  0.000   -0.000 -0.000 -0.000
 H         -0.062 -0.031 -0.016    0.001  0.000 -0.000    0.000  0.001  0.001
 TransDip   0.071  0.148 -0.099   -0.003 -0.009  0.004    0.004 -0.002 -0.004

 Mode:                19                     20                     21
 Frequency:      1041.23                1096.59                1126.45
 Force Cnst:      1.4143                 1.2799                 2.0638
 Red. Mass:       2.2141                 1.8065                 2.7605
 IR Active:          YES                    YES                    YES
 IR Intens:       42.356                121.802                239.553
 Raman Active:       YES                    YES                    YES
               X      Y      Z        X      Y      Z        X      Y      Z
 C          0.021 -0.035  0.058   -0.082 -0.087  0.027   -0.001  0.009 -0.010
 C         -0.141 -0.007 -0.111   -0.029  0.021 -0.044    0.054 -0.023  0.066
 C          0.038  0.128 -0.104    0.088  0.037  0.030   -0.022  0.045 -0.063
 C          0.164  0.038  0.096   -0.081 -0.056 -0.005   -0.023 -0.010 -0.008
 C         -0.042 -0.048  0.013   -0.020  0.048 -0.066    0.008 -0.066  0.074
 C         -0.013 -0.017  0.008    0.079  0.066 -0.007    0.038  0.144 -0.120
 C         -0.022 -0.001 -0.016    0.076  0.035  0.024    0.203  0.052  0.107
 H          0.081 -0.249  0.298   -0.002 -0.401  0.411    0.013 -0.011  0.019
 H         -0.429 -0.277 -0.011    0.099  0.164 -0.095   -0.007 -0.092  0.093
 H          0.014  0.136 -0.134    0.498  0.093  0.304   -0.235  0.017 -0.206
 H          0.253 -0.210  0.389   -0.040 -0.228  0.203   -0.051  0.098 -0.143
 H         -0.279 -0.292  0.108    0.156  0.248 -0.137   -0.400 -0.506  0.219
 H         -0.007  0.016 -0.022    0.022 -0.024  0.043    0.307  0.152  0.084
 O          0.018  0.011  0.002   -0.073 -0.038 -0.018   -0.151 -0.085 -0.032
 H          0.026  0.014  0.006    0.046 -0.006  0.042   -0.296 -0.132 -0.098
 TransDip  -0.088 -0.161  0.098    0.272  0.225 -0.019    0.243  0.380 -0.205

 Mode:                22                     23                     24
 Frequency:      1150.78                1177.60                1217.36
 Force Cnst:      0.9032                 1.0286                 1.0397
 Red. Mass:       1.1576                 1.2589                 1.1907
 IR Active:          YES                    YES                    YES
 IR Intens:        1.975                 46.927                159.578
 Raman Active:       YES                    YES                    YES
               X      Y      Z        X      Y      Z        X      Y      Z
 C         -0.002  0.014 -0.016   -0.006 -0.043  0.041   -0.018  0.010 -0.024
 C         -0.043 -0.044  0.011    0.032  0.037 -0.012   -0.012 -0.005 -0.004
 C          0.064  0.009  0.041    0.008  0.014 -0.008    0.007  0.002  0.004
 C         -0.006  0.036 -0.043   -0.007  0.032 -0.039   -0.002  0.014 -0.016
 C         -0.012 -0.013  0.004   -0.018 -0.036  0.023   -0.036 -0.024 -0.004
 C          0.001 -0.003  0.005   -0.007  0.005 -0.010    0.061 -0.000  0.049
 C         -0.000  0.001 -0.001   -0.069 -0.035 -0.018    0.045  0.012  0.022
 H         -0.034  0.132 -0.165    0.069 -0.335  0.401   -0.044  0.100 -0.138
 H         -0.345 -0.367  0.117    0.308  0.335 -0.111    0.069  0.083 -0.033
 H          0.535  0.071  0.352    0.049  0.020  0.018   -0.104 -0.013 -0.070
 H         -0.077  0.291 -0.362   -0.085  0.317 -0.395    0.006 -0.014  0.018
 H         -0.126 -0.136  0.044   -0.281 -0.323  0.119   -0.176 -0.173  0.044
 H         -0.005 -0.004  0.001   -0.107 -0.073 -0.008   -0.320 -0.368  0.135
 O          0.001  0.001 -0.000    0.054  0.024  0.018   -0.041  0.004 -0.037
 H          0.016  0.005  0.007   -0.020  0.004 -0.020    0.677  0.213  0.318
 TransDip  -0.036  0.001 -0.027   -0.166 -0.142  0.016    0.327  0.237  0.015

 Mode:                25                     26                     27
 Frequency:      1271.83                1318.09                1346.67
 Force Cnst:      1.8448                 3.8175                 1.4394
 Red. Mass:       1.9358                 3.7294                 1.3472
 IR Active:          YES                    YES                    YES
 IR Intens:      162.500                 18.684                  6.062
 Raman Active:       YES                    YES                    YES
               X      Y      Z        X      Y      Z        X      Y      Z
 C         -0.024  0.043 -0.064   -0.016  0.110 -0.127    0.001  0.058 -0.059
 C         -0.005 -0.050  0.048   -0.149 -0.130  0.018    0.024  0.008  0.010
 C          0.027  0.002  0.019    0.180  0.028  0.113    0.058  0.007  0.039
 C         -0.051 -0.013 -0.027   -0.028  0.120 -0.148    0.011 -0.006  0.015
 C          0.001  0.007 -0.007   -0.127 -0.144  0.050   -0.030 -0.055  0.034
 C          0.112  0.157 -0.076    0.154 -0.044  0.168   -0.075  0.009 -0.069
 C         -0.078 -0.058 -0.001   -0.013  0.033 -0.044    0.024 -0.015  0.034
 H         -0.010  0.000 -0.008    0.028 -0.062  0.085    0.103 -0.315  0.407
 H         -0.101 -0.158  0.086    0.219  0.272 -0.114   -0.248 -0.288  0.108
 H         -0.066 -0.013 -0.040   -0.350 -0.040 -0.239   -0.274 -0.037 -0.181
 H          0.008 -0.243  0.257    0.027 -0.072  0.096   -0.045  0.197 -0.239
 H         -0.101 -0.096  0.022    0.060  0.057 -0.013    0.349  0.355 -0.098
 H         -0.513 -0.514  0.132    0.359  0.422 -0.159   -0.098 -0.142  0.073
 O          0.087  0.006  0.063   -0.007 -0.012  0.006   -0.007  0.007 -0.013
 H         -0.371 -0.123 -0.167   -0.231 -0.078 -0.103    0.170  0.058  0.074
 TransDip  -0.331 -0.239 -0.012   -0.120 -0.037 -0.058    0.059  0.051 -0.007

 Mode:                28                     29                     30
 Frequency:      1470.01                1488.92                1532.69
 Force Cnst:      2.7399                 2.6211                 3.8100
 Red. Mass:       2.1520                 2.0068                 2.7527
 IR Active:          YES                    YES                    YES
 IR Intens:       21.787                 64.729                  7.306
 Raman Active:       YES                    YES                    YES
               X      Y      Z        X      Y      Z        X      Y      Z
 C          0.036  0.087 -0.062    0.082  0.007  0.057   -0.014  0.076 -0.091
 C          0.002 -0.069  0.074   -0.096 -0.107  0.037    0.069  0.032  0.021
 C         -0.066 -0.035 -0.015   -0.037  0.036 -0.067   -0.050 -0.049  0.012
 C         -0.015  0.102 -0.118    0.070  0.046  0.007   -0.018  0.047 -0.064
 C          0.082 -0.002  0.068   -0.061 -0.103  0.060    0.063  0.050 -0.002
 C         -0.098  0.008 -0.086   -0.082  0.012 -0.078   -0.091 -0.185  0.120
 C         -0.046 -0.108  0.076    0.078  0.080 -0.021    0.129  0.187 -0.093
 H          0.110 -0.159  0.251    0.054  0.175 -0.140    0.079 -0.275  0.348
 H          0.123  0.047  0.048    0.356  0.379 -0.117   -0.083 -0.143  0.085
 H          0.330  0.010  0.253    0.289  0.088  0.139    0.070 -0.044  0.103
 H          0.116 -0.344  0.449    0.075  0.090 -0.034    0.036 -0.158  0.192
 H         -0.013 -0.121  0.118    0.315  0.300 -0.067   -0.195 -0.239  0.097
 H          0.240  0.180  0.002   -0.319 -0.326  0.089   -0.392 -0.340  0.047
 O         -0.000  0.030 -0.032   -0.004 -0.019  0.016   -0.014 -0.036  0.026
 H          0.341  0.127  0.139   -0.168 -0.064 -0.067   -0.336 -0.125 -0.138
 TransDip   0.017 -0.096  0.113    0.125  0.198 -0.108    0.076  0.030  0.029

 Mode:                31                     32                     33
 Frequency:      1600.84                1622.14                3181.29
 Force Cnst:      7.4624                 8.2410                 6.4779
 Red. Mass:       4.9423                 5.3156                 1.0864
 IR Active:          YES                    YES                    YES
 IR Intens:       11.988                 31.959                 10.620
 Raman Active:       YES                    YES                    YES
               X      Y      Z        X      Y      Z        X      Y      Z
 C          0.089 -0.126  0.203   -0.074 -0.174  0.123    0.006  0.003  0.002
 C         -0.120  0.026 -0.122    0.192  0.243 -0.102   -0.013  0.006 -0.016
 C          0.265  0.007  0.203   -0.108 -0.123  0.042   -0.006 -0.016  0.012
 C         -0.144  0.048 -0.164    0.052  0.229 -0.198    0.043  0.023  0.010
 C          0.157  0.072  0.049   -0.148 -0.241  0.135   -0.036  0.017 -0.046
 C         -0.215 -0.027 -0.142    0.083  0.071 -0.008    0.001  0.001  0.000
 C          0.042  0.030  0.002    0.003  0.032 -0.031    0.001 -0.000  0.001
 H         -0.008  0.239 -0.255   -0.153  0.057 -0.179   -0.068 -0.036 -0.016
 H         -0.097  0.073 -0.153   -0.319 -0.307  0.072    0.147 -0.074  0.193
 H         -0.445 -0.088 -0.263    0.056 -0.115  0.166    0.073  0.198 -0.149
 H         -0.088 -0.222  0.162    0.181 -0.176  0.325   -0.504 -0.278 -0.111
 H         -0.097 -0.210  0.144    0.284  0.213  0.001    0.417 -0.204  0.544
 H         -0.147 -0.160  0.052   -0.035  0.002 -0.029   -0.016  0.007 -0.020
 O          0.000  0.001 -0.001    0.004 -0.006  0.009   -0.000 -0.000  0.000
 H         -0.009 -0.000 -0.007   -0.068 -0.026 -0.027   -0.000 -0.000 -0.000
 TransDip   0.005  0.079 -0.078    0.061  0.140 -0.097    0.009  0.075 -0.072

 Mode:                34                     35                     36
 Frequency:      3187.06                3196.59                3208.20
 Force Cnst:      6.5097                 6.5814                 6.6279
 Red. Mass:       1.0877                 1.0932                 1.0930
 IR Active:          YES                    YES                    YES
 IR Intens:        2.719                 28.939                 28.417
 Raman Active:       YES                    YES                    YES
               X      Y      Z        X      Y      Z        X      Y      Z
 C          0.021  0.010  0.006    0.012  0.005  0.004   -0.055 -0.030 -0.012
 C         -0.040  0.021 -0.054   -0.015  0.006 -0.018   -0.001  0.005 -0.006
 C         -0.006 -0.020  0.016    0.012  0.025 -0.017   -0.012 -0.038  0.030
 C         -0.006 -0.003 -0.002   -0.049 -0.030 -0.008   -0.028 -0.014 -0.007
 C          0.019 -0.009  0.024   -0.028  0.016 -0.039   -0.006  0.005 -0.010
 C         -0.001 -0.001 -0.000    0.002  0.001 -0.000    0.002 -0.000  0.002
 C          0.000 -0.000  0.000    0.001 -0.000  0.001   -0.001 -0.000 -0.001
 H         -0.253 -0.137 -0.058   -0.136 -0.073 -0.032    0.628  0.343  0.142
 H          0.471 -0.236  0.620    0.160 -0.079  0.210    0.036 -0.023  0.053
 H          0.089  0.245 -0.187   -0.110 -0.291  0.218    0.157  0.429 -0.326
 H          0.073  0.040  0.017    0.566  0.315  0.121    0.299  0.165  0.066
 H         -0.213  0.105 -0.279    0.324 -0.162  0.426    0.079 -0.042  0.106
 H         -0.002  0.002 -0.003   -0.012  0.005 -0.015    0.003 -0.000  0.003
 O          0.000  0.000 -0.000   -0.000 -0.000 -0.000    0.000 -0.000  0.000
 H         -0.000  0.000 -0.001   -0.001 -0.001  0.000    0.001  0.000  0.000
 TransDip  -0.032  0.014 -0.040   -0.119  0.026 -0.121   -0.137 -0.102 -0.001

 Mode:                37                     38                     39
 Frequency:      3214.24                3221.26                3830.84
 Force Cnst:      6.6777                 6.6656                 9.2234
 Red. Mass:       1.0970                 1.0903                 1.0667
 IR Active:          YES                    YES                    YES
 IR Intens:       12.615                 13.287                377.853
 Raman Active:       YES                    YES                    YES
               X      Y      Z        X      Y      Z        X      Y      Z
 C         -0.044 -0.026 -0.008    0.006  0.003  0.002   -0.000  0.000 -0.000
 C         -0.023  0.012 -0.030    0.002 -0.001  0.002    0.000 -0.000  0.000
 C          0.016  0.041 -0.031   -0.002 -0.005  0.004   -0.000  0.000 -0.000
 C          0.023  0.012  0.006   -0.002 -0.001 -0.001   -0.000 -0.000  0.000
 C          0.005 -0.004  0.008   -0.003  0.001 -0.003    0.000  0.000 -0.000
 C          0.001 -0.001  0.001   -0.001 -0.002  0.001    0.000  0.000 -0.000
 C         -0.006  0.003 -0.008   -0.046  0.029 -0.066    0.001 -0.001  0.001
 H          0.501  0.275  0.111   -0.066 -0.036 -0.015   -0.000 -0.000 -0.000
 H          0.248 -0.123  0.325   -0.020  0.011 -0.027   -0.000  0.000 -0.000
 H         -0.170 -0.460  0.347    0.019  0.052 -0.039    0.000  0.000 -0.000
 H         -0.251 -0.137 -0.056    0.026  0.015  0.006    0.001  0.000  0.000
 H         -0.061  0.031 -0.081    0.024 -0.010  0.030    0.000 -0.000  0.000
 H          0.066 -0.036  0.089    0.548 -0.315  0.761    0.001  0.006 -0.005
 O          0.000 -0.000  0.000    0.001 -0.000  0.001   -0.008 -0.046  0.041
 H          0.000  0.001 -0.001   -0.004  0.004 -0.007    0.116  0.735 -0.665
 TransDip  -0.027  0.065 -0.089   -0.094 -0.069 -0.003    0.200  0.482 -0.340

 STANDARD THERMODYNAMIC QUANTITIES AT   298.15 K  AND     1.00 ATM

   This Molecule has  0 Imaginary Frequencies
   Zero point vibrational energy:       75.388 kcal/mol

   Atom    1 Element C  Has Mass   12.00000
   Atom    2 Element C  Has Mass   12.00000
   Atom    3 Element C  Has Mass   12.00000
   Atom    4 Element C  Has Mass   12.00000
   Atom    5 Element C  Has Mass   12.00000
   Atom    6 Element C  Has Mass   12.00000
   Atom    7 Element C  Has Mass   12.00000
   Atom    8 Element H  Has Mass    1.00783
   Atom    9 Element H  Has Mass    1.00783
   Atom   10 Element H  Has Mass    1.00783
   Atom   11 Element H  Has Mass    1.00783
   Atom   12 Element H  Has Mass    1.00783
   Atom   13 Element H  Has Mass    1.00783
   Atom   14 Element O  Has Mass   15.99491
   Atom   15 Element H  Has Mass    1.00783
   Molecular Mass:   107.049720 amu
   Principal axes and moments of inertia in amu*Bohr^2:
                             1           2           3
    Eigenvalues --      350.26257  1186.31492  1536.57663
          X               0.44939     0.75270    -0.48114
          Y               0.77199    -0.05619     0.63315
          Z              -0.44953     0.65596     0.60633
   Rotational Symmetry Number is   1
   The Molecule is an Asymmetric Top
   Translational Enthalpy:        0.889 kcal/mol
   Rotational Enthalpy:           0.889 kcal/mol
   Vibrational Enthalpy:         77.881 kcal/mol
   gas constant (RT):             0.592 kcal/mol
   Translational Entropy:        39.921  cal/mol.K
   Rotational Entropy:           27.948  cal/mol.K
   Vibrational Entropy:          13.146  cal/mol.K

   Total Enthalpy:               80.251 kcal/mol
   Total Entropy:                81.015  cal/mol.K
 Total job time:  17368.05s(wall), 132170.33s(cpu) 
 Tue May  9 20:04:01 2023

        *************************************************************
        *                                                           *
        *  Thank you very much for using Q-Chem.  Have a nice day.  *
        *                                                           *
        *************************************************************


