
Running Job 1 of 1 Q_in.in
qchem Q_in.in_164862.0 /scratch/ari.fischer/qChem1531378.hpc-mn1/qchem164862/ 0
/usr/local/qchem-5.4.1/exe/qcprog.exe_s Q_in.in_164862.0 /scratch/ari.fischer/qChem1531378.hpc-mn1/qchem164862/
                  Welcome to Q-Chem
     A Quantum Leap Into The Future Of Chemistry


 Q-Chem 5.4, Q-Chem, Inc., Pleasanton, CA (2021)

 License issued to: Nanyang Technological University (site)

 E. Epifanovsky,  A. T. B. Gilbert,  Xintian Feng,  Joonho Lee,  Yuezhi Mao,  
 N. Mardirossian,  P. Pokhilko,  A. White,  M. Wormit,  M. P. Coons,  
 A. L. Dempwolff,  Zhengting Gan,  D. Hait,  P. R. Horn,  L. D. Jacobson,  
 I. Kaliman,  J. Kussmann,  A. W. Lange,  Ka Un Lao,  D. S. Levine,  Jie Liu,  
 S. C. McKenzie,  A. F. Morrison,  K. Nanda,  F. Plasser,  D. R. Rehn,  
 M. L. Vidal,  Zhi-Qiang You,  Ying Zhu,  B. Alam,  B. Albrecht,  
 A. Aldossary,  E. Alguire,  J. H. Andersen,  D. Barton,  K. Begam,  A. Behn,  
 Y. A. Bernard,  E. J. Berquist,  H. Burton,  A. Carreras,  K. Carter-Fenk,  
 R. Chakraborty,  A. D. Chien,  K. D. Closser,  V. Cofer-Shabica,  
 S. Dasgupta,  Jia Deng,  M. de Wergifosse,  M. Diedenhofen,  Hainam Do,  
 S. Ehlert,  Po-Tung Fang,  S. Fatehi,  Qingguo Feng,  T. Friedhoff,  
 J. Gayvert,  Qinghui Ge,  G. Gidofalvi,  M. Goldey,  J. Gomes,  
 C. Gonzalez-Espinoza,  S. Gulania,  A. Gunina,  M. W. D. Hanson-Heine,  
 P. H. P. Harbach,  A. W. Hauser,  M. F. Herbst,  M. Hernandez Vera,  
 M. Hodecker,  Z. C. Holden,  S. Houck,  Xunkun Huang,  Kerwin Hui,  
 B. C. Huynh,  M. Ivanov,  Hyunjun Ji,  Hanjie Jiang,  B. Kaduk,  S. Kaehler,  
 K. Khistyaev,  Jaehoon Kim,  P. Klunzinger,  Z. Koczor-Benda,  
 Joong Hoon Koh,  D. Kosenkov,  L. Koulias,  T. Kowalczyk,  C. M. Krauter,  
 K. Kue,  A. Kunitsa,  T. Kus,  A. Landau,  K. V. Lawler,  D. Lefrancois,  
 S. Lehtola,  Rain Li,  Yi-Pei Li,  Jiashu Liang,  M. Liebenthal,  
 Hung-Hsuan Lin,  You-Sheng Lin,  Fenglai Liu,  Kuan-Yu Liu,  
 M. Loipersberger,  A. Luenser,  A. Manjanath,  P. Manohar,  E. Mansoor,  
 S. F. Manzer,  Shan-Ping Mao,  A. V. Marenich,  T. Markovich,  S. Mason,  
 S. A. Maurer,  P. F. McLaughlin,  M. F. S. J. Menger,  J.-M. Mewes,  
 S. A. Mewes,  P. Morgante,  J. W. Mullinax,  K. J. Oosterbaan,  G. Paran,  
 Alexander C. Paul,  Suranjan K. Paul,  F. Pavosevic,  Zheng Pei,  S. Prager,  
 E. I. Proynov,  E. Ramos,  B. Rana,  A. E. Rask,  A. Rettig,  R. M. Richard,  
 F. Rob,  E. Rossomme,  T. Scheele,  M. Scheurer,  M. Schneider,  
 N. Sergueev,  S. M. Sharada,  W. Skomorowski,  D. W. Small,  C. J. Stein,  
 Yu-Chuan Su,  E. J. Sundstrom,  Zhen Tao,  J. Thirman,  T. Tsuchimochi,  
 N. M. Tubman,  S. P. Veccham,  O. Vydrov,  J. Wenzel,  J. Witte,  A. Yamada,  
 Kun Yao,  S. Yeganeh,  S. R. Yost,  A. Zech,  Igor Ying Zhang,  Xing Zhang,  
 Yu Zhang,  D. Zuev,  A. Aspuru-Guzik,  A. T. Bell,  N. A. Besley,  
 K. B. Bravaya,  B. R. Brooks,  D. Casanova,  Jeng-Da Chai,  S. Coriani,  
 C. J. Cramer,  A. E. DePrince, III,  R. A. DiStasio Jr.,  A. Dreuw,  
 B. D. Dunietz,  T. R. Furlani,  W. A. Goddard III,  S. Grimme,  
 S. Hammes-Schiffer,  T. Head-Gordon,  W. J. Hehre,  Chao-Ping Hsu,  
 T.-C. Jagau,  Yousung Jung,  A. Klamt,  Jing Kong,  D. S. Lambrecht,  
 WanZhen Liang,  N. J. Mayhall,  C. W. McCurdy,  J. B. Neaton,  
 C. Ochsenfeld,  J. A. Parkhill,  R. Peverati,  V. A. Rassolov,  Yihan Shao,  
 L. V. Slipchenko,  T. Stauch,  R. P. Steele,  J. E. Subotnik,  
 A. J. W. Thom,  A. Tkatchenko,  D. G. Truhlar,  T. Van Voorhis,  
 T. A. Wesolowski,  K. B. Whaley,  H. L. Woodcock III,  P. M. Zimmerman,  
 S. Faraji,  P. M. W. Gill,  M. Head-Gordon,  J. M. Herbert,  A. I. Krylov

 Additional authors for Version 5.4.1: 
 S. Kotaru,  Shaozhi Li,  Xiangyuan Li,  F. Matz,  A. Molle,  Haisheng Ren,  
 Yingli Su,  Hung-Yi Tsai,  C. Utku,  Fang Wang

 Contributors to earlier versions of Q-Chem not listed above: 
 R. D. Adamson,  B. Austin,  R. Baer,  J. Baker,  G. J. O. Beran,  
 K. Brandhorst,  S. T. Brown,  E. F. C. Byrd,  A. K. Chakraborty,  
 G. K. L. Chan,  Chun-Min Chang,  Yunqing Chen,  C.-L. Cheng,  
 Siu Hung Chien,  D. M. Chipman,  D. L. Crittenden,  H. Dachsel,  
 R. J. Doerksen,  A. D. Dutoi,  R. G. Edgar,  J. Fosso-Tande,  
 L. Fusti-Molnar,  D. Ghosh,  A. Ghysels,  A. Golubeva-Zadorozhnaya,  
 J. Gonthier,  M. S. Gordon,  S. R. Gwaltney,  G. Hawkins,  J. E. Herr,  
 A. Heyden,  S. Hirata,  E. G. Hohenstein,  G. Kedziora,  F. J. Keil,  
 C. Kelley,  Jihan Kim,  R. A. King,  R. Z. Khaliullin,  P. P. Korambath,  
 W. Kurlancheek,  A. Laurent,  A. M. Lee,  M. S. Lee,  S. V. Levchenko,  
 Ching Yeh Lin,  D. Liotard,  E. Livshits,  R. C. Lochan,  I. Lotan,  
 L. A. Martinez-Martinez,  P. E. Maslen,  N. Nair,  D. P. O'Neill,  
 D. Neuhauser,  E. Neuscamman,  C. M. Oana,  R. Olivares-Amaya,  R. Olson,  
 T. M. Perrine,  B. Peters,  P. A. Pieniazek,  A. Prociuk,  Y. M. Rhee,  
 J. Ritchie,  M. A. Rohrdanz,  E. Rosta,  N. J. Russ,  H. F. Schaefer III,  
 M. W. Schmidt,  N. E. Schultz,  S. Sharma,  N. Shenvi,  C. D. Sherrill,  
 A. C. Simmonett,  A. Sodt,  T. Stein,  D. Stuck,  K. S. Thanthiriwatte,  
 V. Vanovschi,  L. Vogt,  Tao Wang,  A. Warshel,  M. A. Watson,  
 C. F. Williams,  Q. Wu,  X. Xu,  Jun Yang,  W. Zhang,  Yan Zhao

 Please cite Q-Chem as follows:
 Y. Shao et al., Mol. Phys. 113, 184-215 (2015)
 DOI: 10.1080/00268976.2014.952696

 Q-Chem 5.4.1 for Intel X86 EM64T Linux

 Parts of Q-Chem use Armadillo 9.800.1 (Horizon Scraper).
 http://arma.sourceforge.net/

 Q-Chem begins on Tue May  9 09:31:06 2023  

 Host: 
0

     Scratch files written to /scratch/ari.fischer/qChem1531378.hpc-mn1/qchem164862//
 Aug1521 |scratch|qcdevops|jenkins|workspace|build_RNUM 8249   
 Processing $rem in /usr/local/qchem-5.4.1/config/preferences:
 Processing $rem in /home/ari.fischer/.qchemrc:
 Symmetry turned off for PCM/SM12/SMD calculation

 Checking the input file for inconsistencies... 	...done.

--------------------------------------------------------------
User input:
--------------------------------------------------------------
$molecule
0 2
C        -0.2081886940   -0.4080937011    0.7376191541
C        -0.6088026991   -1.4714580175    1.5318248077
C        -1.8102203612   -2.1424869145    1.2809874238
C        -2.6154536209   -1.7302630032    0.2109663426
C        -2.2327779443   -0.6710977504   -0.5933255762
C        -1.0149495902    0.0219017842   -0.3511892680
C        -0.6434875686    1.0968409625   -1.1779256558
H         0.7264594633    0.1044246445    0.9442897253
H         0.0214692046   -1.7848145344    2.3602660183
H        -2.1158214212   -2.9741551396    1.9086915901
H        -3.5502401424   -2.2463286953    0.0076812907
H        -2.8624425332   -0.3569237553   -1.4224328551
H        -1.2487034110    1.4365560304   -2.0112491368
O         0.5272007716    1.7545347041   -0.9328120003
H         0.6262626467    2.4639573858   -1.5876457604
$end

$rem
BASIS = 6-311++G(2df,2p)
GUI = 2
JOB_TYPE = Optimization
METHOD = wB97M-V
SCF_ALGORITHM = DIIS_GDM
MAX_SCF_CYCLES = 400
GEOM_OPT_MAX_CYCLES = 150
SCF_CONVERGENCE = 7
THRESH = 12
Solvent_method = SMD
$end
--------------------------------------------------------------
 ----------------------------------------------------------------
             Standard Nuclear Orientation (Angstroms)
    I     Atom           X                Y                Z
 ----------------------------------------------------------------
    1      C      -0.2081886940    -0.4080937011     0.7376191541
    2      C      -0.6088026991    -1.4714580175     1.5318248077
    3      C      -1.8102203612    -2.1424869145     1.2809874238
    4      C      -2.6154536209    -1.7302630032     0.2109663426
    5      C      -2.2327779443    -0.6710977504    -0.5933255762
    6      C      -1.0149495902     0.0219017842    -0.3511892680
    7      C      -0.6434875686     1.0968409625    -1.1779256558
    8      H       0.7264594633     0.1044246445     0.9442897253
    9      H       0.0214692046    -1.7848145344     2.3602660183
   10      H      -2.1158214212    -2.9741551396     1.9086915901
   11      H      -3.5502401424    -2.2463286953     0.0076812907
   12      H      -2.8624425332    -0.3569237553    -1.4224328551
   13      H      -1.2487034110     1.4365560304    -2.0112491368
   14      O       0.5272007716     1.7545347041    -0.9328120003
   15      H       0.6262626467     2.4639573858    -1.5876457604
 ----------------------------------------------------------------
 Nuclear Repulsion Energy =         330.07355263 hartrees
 There are       29 alpha and       28 beta electrons
 Requested basis set is 6-311++G(2df,2p)
 There are 106 shells and 342 basis functions

 Total QAlloc Memory Limit 288000 MB
 Mega-Array Size       188 MB
 MEM_STATIC part       192 MB
 
 Citation of the SMD model:
 Marenich, A.V.; Cramer, C.J.; Truhlar, D.G.
 J. Phys. Chem. B 2009, 113, 6378-6396.
 iSolventCode=           1
 Solvent: water                                                           
 
 vradii
            1           2           3           4           5           6
    1   1.8500000   1.8500000   1.8500000   1.8500000   1.8500000   1.8500000
            7           8           9          10          11          12
    1   1.8500000   1.2000000   1.2000000   1.2000000   1.2000000   1.2000000
           13          14          15
    1   1.2000000   1.5200000   1.2000000
 Changing PCM_VDW_RADII to SMD_RADIUS
 Discretize the solute cavity surface with Lebedev spheres
	Using 110 Lebedev grid points for each H atom
	Using 194 Lebedev grid points for other atoms
	Atomic van der Waals radii will be scaled by 1.20
 Remove points where switching function is < 1.0e-08
 Keep 1139 surface tesserae and discard 1183 interior tesserae
 Molecular Surface Area = 138.942 Angst**2
 A cutoff of  1.0D-12 yielded   5165 shell pairs
 There are     54602 function pairs (     68157 Cartesian)
 Smallest overlap matrix eigenvalue = 1.00E-06

 Scale SEOQF with 1.000000e-01/1.000000e-01/1.000000e-01

 Standard Electronic Orientation quadrupole field applied
 Nucleus-field energy     =     0.0000000063 hartrees
 Guess from superposition of atomic densities
 Warning:  Energy on first SCF cycle will be non-variational
 SAD guess density has 57.000000 electrons

 -----------------------------------------------------------------------
  General SCF calculation program by
  Eric Jon Sundstrom, Paul Horn, Yuezhi Mao, Dmitri Zuev, Alec White,
  David Stuck, Shaama M.S., Shane Yost, Joonho Lee, David Small,
  Daniel Levine, Susi Lehtola, Hugh Burton, Evgeny Epifanovsky,
  Bang C. Huynh
 -----------------------------------------------------------------------
 Exchange:     0.1500 Hartree-Fock + 1.0000 wB97M-V + LR-HF
 Correlation:  1.0000 wB97M-V
 Using SG-2 standard quadrature grid
 Nonlocal Correlation:  VV10 with C = 0.0100 and b = 6.00 and scale = 1.00000
 Grid used for NLC:  SG-1 standard quadrature
 
 Citation of the SMD model:
 Marenich, A.V.; Cramer, C.J.; Truhlar, D.G.
 J. Phys. Chem. B 2009, 113, 6378-6396.
 iSolventCode=           1
 Solvent: water                                                           
 
 vradii
            1           2           3           4           5           6
    1   1.8500000   1.8500000   1.8500000   1.8500000   1.8500000   1.8500000
            7           8           9          10          11          12
    1   1.8500000   1.2000000   1.2000000   1.2000000   1.2000000   1.2000000
           13          14          15
    1   1.2000000   1.5200000   1.2000000
 using 8 threads for integral computing
 -------------------------------------------------------
 OpenMP Integral computing Module                
 Release: version 1.0, May 2013, Q-Chem Inc. Pittsburgh 
 -------------------------------------------------------
 -------------------------------------------------------
 OpenMP BLAS3 based DFT computing Module                
 Release: version 1.0, May 2013, Q-Chem Inc. Pittsburgh 
 -------------------------------------------------------
 A unrestricted SCF calculation will be
 performed using DIIS, GDM
 SCF converges when RMS gradient is below 1.0e-07
 ---------------------------------------
  Cycle       Energy         DIIS error
 ---------------------------------------
    1    -348.5665907946      1.40e-02  
    2    -346.0441543924      1.09e-03  Done DIIS. Switching to GDM
 ---------------------------------------
  Cycle       Energy        RMS Gradient
 ---------------------------------------
    1    -346.0441543924      6.59e-02   Descent step
    2    -346.1079462380      3.40e-02   Normal BFGS step
    3    -346.1194329280      1.18e-02   Normal BFGS step
    4    -346.1208320577      7.73e-03   Normal BFGS step
    5    -346.1213664960      3.01e-03   Normal BFGS step
    6    -346.1215156559      1.49e-03   Normal BFGS step
    7    -346.1215389851      6.12e-04   Normal BFGS step
    8    -346.1215424671      3.92e-04   Normal BFGS step
    9    -346.1215431683      1.72e-04   Normal BFGS step
   10    -346.1215433515      6.60e-05   Normal BFGS step
   11    -346.1215434045      4.29e-05   Normal BFGS step
   12    -346.1215434205      2.76e-05   Normal BFGS step
   13    -346.1215434260      1.49e-05   Normal BFGS step
   14    -346.1215434273      4.38e-06   Normal BFGS step
   15    -346.1215434276      1.42e-06   Normal BFGS step
   16    -346.1215434276      8.26e-07   Normal BFGS step
   17    -346.1215434276      3.50e-07   Normal BFGS step
   18    -346.1215434276      1.47e-07   Normal BFGS step
   19    -346.1215434277      6.95e-08  Convergence criterion met
 ---------------------------------------
 SCF time:   CPU 1060.73s  wall 134.00s 
<S^2> =          0.785439707
(3)  G-ENP(liq) elect-nuc-pol free energy of system     -346.121543428 a.u.
(4)  G-CDS(liq) cavity-dispersion-solvent structure 
     free energy                                                4.0739 kcal/mol
(6)  G-S(liq) free energy of system                     -346.115051199 a.u.
 SCF   energy in the final basis set =     -346.1150511987
 Total energy in the final basis set =     -346.1150511987
 
 --------------------------------------------------------------
 
                    Orbital Energies (a.u.)
 --------------------------------------------------------------
 
 Alpha MOs
 -- Occupied --
-19.3717 -10.3996 -10.3544 -10.3446 -10.3428 -10.3423 -10.3420 -10.3398
 -1.1946  -0.9829  -0.8950  -0.8677  -0.7907  -0.7218  -0.6943  -0.6450
 -0.6262  -0.5711  -0.5461  -0.5314  -0.5310  -0.5184  -0.4784  -0.4777
 -0.4479  -0.4293  -0.3743  -0.3535  -0.2409
 -- Virtual --
  0.0233   0.0342   0.0369   0.0522   0.0550   0.0595   0.0709   0.0760
  0.0875   0.0961   0.0988   0.1128   0.1197   0.1286   0.1417   0.1459
  0.1534   0.1550   0.1612   0.1672   0.1696   0.1748   0.1789   0.1848
  0.1862   0.1906   0.1992   0.2057   0.2137   0.2253   0.2332   0.2486
  0.2561   0.2667   0.2723   0.2761   0.2842   0.2898   0.2948   0.2949
  0.3034   0.3240   0.3326   0.3398   0.3531   0.3606   0.3687   0.3926
  0.3950   0.4180   0.4273   0.4336   0.4666   0.4976   0.5008   0.5366
  0.5498   0.5740   0.5871   0.5900   0.6028   0.6052   0.6104   0.6158
  0.6254   0.6264   0.6381   0.6447   0.6546   0.6710   0.6820   0.6946
  0.7152   0.7164   0.7406   0.7422   0.7440   0.7493   0.7572   0.7645
  0.7652   0.7870   0.8111   0.8215   0.8354   0.8383   0.8386   0.8409
  0.8482   0.8676   0.8849   0.8895   0.8935   0.9028   0.9079   0.9356
  0.9673   1.0200   1.0311   1.0398   1.0468   1.0867   1.1008   1.1019
  1.1162   1.1274   1.1324   1.1553   1.1731   1.1876   1.2115   1.2127
  1.2155   1.2523   1.2585   1.2637   1.3102   1.3252   1.3600   1.3636
  1.3921   1.4017   1.4048   1.4211   1.4382   1.4490   1.4676   1.4689
  1.4819   1.4829   1.4929   1.5308   1.5710   1.5751   1.5874   1.6131
  1.6751   1.6943   1.7080   1.7653   1.7898   1.7972   1.8164   1.8235
  1.8584   1.9002   1.9127   1.9497   1.9830   2.0571   2.0767   2.0966
  2.1165   2.2215   2.3569   2.4125   2.4437   2.5690   2.6042   2.6248
  2.6313   2.6451   2.7228   2.7262   2.7548   2.7747   2.7908   2.8034
  2.8158   2.8341   2.8350   2.8393   2.8667   2.8738   2.8841   2.9065
  2.9143   2.9270   2.9313   2.9450   2.9567   2.9645   2.9812   3.0144
  3.0199   3.0351   3.0597   3.0968   3.1378   3.1393   3.1726   3.1926
  3.1947   3.2073   3.2344   3.2377   3.2481   3.2710   3.2718   3.2895
  3.2948   3.3062   3.3344   3.3527   3.3593   3.3929   3.4204   3.4219
  3.4403   3.4613   3.4673   3.4759   3.4947   3.5171   3.5262   3.5312
  3.5374   3.5514   3.5832   3.6033   3.6279   3.6310   3.6686   3.6784
  3.7193   3.7653   3.7697   3.7997   3.8037   3.8230   3.8348   3.8900
  3.8992   3.9269   3.9283   3.9388   3.9518   3.9524   3.9689   3.9970
  4.0618   4.0730   4.1112   4.1214   4.1366   4.1603   4.1817   4.2049
  4.2146   4.2514   4.2811   4.3171   4.3560   4.3999   4.4182   4.4411
  4.4521   4.4815   4.4911   4.5008   4.5095   4.5229   4.5617   4.5756
  4.5773   4.6045   4.6568   4.7083   4.7217   4.7915   4.8005   4.8009
  4.9115   5.0223   5.0272   5.1441   5.1521   5.1746   5.1988   5.2154
  5.2396   5.3074   5.3429   5.4135   5.4679   5.4967   5.5813   5.6333
  5.7599   5.7775   5.8424   5.8634   5.8761   5.8883   5.9970   6.2381
  6.3552   6.6039   6.7922   7.0267   7.2424   7.2990   7.3765   7.7135
  7.8032  24.2422  24.7803  24.8016  24.8803  25.0624  25.0781  25.4795
 50.5934
 
 Beta MOs
 -- Occupied --
-19.3682 -10.3901 -10.3567 -10.3442 -10.3436 -10.3416 -10.3394 -10.3365
 -1.1861  -0.9801  -0.8887  -0.8651  -0.7763  -0.7196  -0.6903  -0.6378
 -0.6227  -0.5664  -0.5439  -0.5290  -0.5172  -0.5051  -0.4728  -0.4642
 -0.4448  -0.4281  -0.3473  -0.3424
 -- Virtual --
  0.0028   0.0229   0.0339   0.0367   0.0520   0.0548   0.0640   0.0736
  0.0757   0.0872   0.0988   0.1041   0.1192   0.1282   0.1332   0.1419
  0.1457   0.1546   0.1559   0.1612   0.1670   0.1699   0.1764   0.1784
  0.1858   0.1864   0.1954   0.1995   0.2052   0.2134   0.2257   0.2319
  0.2492   0.2569   0.2671   0.2759   0.2818   0.2859   0.2906   0.2968
  0.2970   0.3049   0.3259   0.3369   0.3410   0.3545   0.3628   0.3706
  0.3945   0.3975   0.4194   0.4284   0.4345   0.4703   0.5011   0.5050
  0.5428   0.5523   0.5757   0.5902   0.6013   0.6043   0.6079   0.6195
  0.6214   0.6277   0.6298   0.6444   0.6467   0.6582   0.6768   0.6843
  0.6976   0.7197   0.7204   0.7421   0.7428   0.7452   0.7516   0.7616
  0.7684   0.7687   0.7893   0.8186   0.8310   0.8362   0.8394   0.8416
  0.8421   0.8506   0.8733   0.8863   0.8909   0.8965   0.9045   0.9171
  0.9384   0.9689   1.0209   1.0347   1.0408   1.0474   1.0896   1.1038
  1.1048   1.1182   1.1285   1.1361   1.1596   1.1783   1.1890   1.2133
  1.2159   1.2176   1.2529   1.2588   1.2715   1.3122   1.3273   1.3620
  1.3675   1.3933   1.4043   1.4098   1.4229   1.4396   1.4511   1.4724
  1.4727   1.4854   1.4863   1.4947   1.5364   1.5726   1.5777   1.5911
  1.6177   1.6806   1.6983   1.7131   1.7732   1.7937   1.8010   1.8227
  1.8273   1.8618   1.9060   1.9196   1.9517   1.9954   2.0607   2.0793
  2.0994   2.1197   2.2280   2.3612   2.4158   2.4532   2.5757   2.6066
  2.6332   2.6365   2.6606   2.7323   2.7373   2.7617   2.7926   2.8061
  2.8077   2.8182   2.8387   2.8489   2.8709   2.8794   2.8798   2.8908
  2.9156   2.9242   2.9353   2.9357   2.9610   2.9692   2.9705   2.9940
  3.0223   3.0274   3.0406   3.0701   3.1070   3.1539   3.1661   3.1802
  3.2002   3.2098   3.2152   3.2425   3.2454   3.2562   3.2836   3.2876
  3.2952   3.3028   3.3132   3.3571   3.3591   3.3765   3.4062   3.4262
  3.4460   3.4496   3.4685   3.4849   3.4891   3.5057   3.5241   3.5330
  3.5494   3.5576   3.5596   3.5866   3.6210   3.6377   3.6412   3.6824
  3.6856   3.7312   3.7709   3.7819   3.8117   3.8159   3.8302   3.8414
  3.8950   3.9030   3.9345   3.9393   3.9442   3.9600   3.9607   3.9747
  4.0062   4.0649   4.0831   4.1160   4.1287   4.1396   4.1705   4.1851
  4.2112   4.2220   4.2773   4.2969   4.3214   4.3615   4.4059   4.4244
  4.4458   4.4589   4.4890   4.5002   4.5127   4.5175   4.5328   4.5697
  4.5830   4.5832   4.6166   4.6613   4.7202   4.7266   4.7957   4.8072
  4.8087   4.9188   5.0300   5.0484   5.1510   5.1582   5.1939   5.2041
  5.2226   5.2523   5.3176   5.3523   5.4227   5.4744   5.5113   5.5936
  5.6427   5.7655   5.7855   5.8551   5.8718   5.9015   5.9031   6.0064
  6.2467   6.3633   6.6089   6.8008   7.0431   7.2575   7.3061   7.3896
  7.7208   7.8079  24.2429  24.7808  24.8034  24.8848  25.0639  25.0820
 25.4807  50.5965
 --------------------------------------------------------------
 
          Ground-State Mulliken Net Atomic Charges

     Atom                 Charge (a.u.)    Spin (a.u.)
  --------------------------------------------------------
      1 C                    -0.199928       0.198881
      2 C                    -0.219512      -0.092567
      3 C                    -0.500555       0.220563
      4 C                    -0.231860      -0.082107
      5 C                    -0.999323       0.204652
      6 C                     0.858526      -0.129943
      7 C                    -0.389745       0.622502
      8 H                     0.274906      -0.005867
      9 H                     0.290272       0.003538
     10 H                     0.287773      -0.006935
     11 H                     0.295415       0.003314
     12 H                     0.256666      -0.004919
     13 H                     0.281560      -0.015767
     14 O                    -0.350241       0.087006
     15 H                     0.346047      -0.002350
  --------------------------------------------------------
  Sum of atomic charges =    -0.000000
  Sum of spin   charges =     1.000000

 -----------------------------------------------------------------
                    Cartesian Multipole Moments
 -----------------------------------------------------------------
    Charge (ESU x 10^10)
                -0.0000
    Dipole Moment (Debye)
         X      -0.3874      Y       1.9980      Z      -2.3751
       Tot       3.1278
    Quadrupole Moments (Debye-Ang)
        XX     -45.6164     XY       2.2211     YY     -41.3352
        XZ       3.5696     YZ      -9.6875     ZZ     -41.4743
    Octopole Moments (Debye-Ang^2)
       XXX     145.1448    XXY      12.7868    XYY      48.2905
       YYY      82.8975    XXZ     -13.5462    XYZ       1.8472
       YYZ     -13.9197    XZZ      52.4641    YZZ      31.1363
       ZZZ     -22.0826
    Hexadecapole Moments (Debye-Ang^3)
      XXXX    -685.0095   XXXY    -169.6217   XXYY    -194.9559
      XYYY    -176.3365   YYYY    -568.9908   XXXZ      55.5930
      XXYZ      46.0482   XYYZ     -11.1134   YYYZ      93.5020
      XXZZ    -175.2376   XYZZ     -67.1050   YYZZ    -114.8562
      XZZZ      40.1273   YZZZ     119.9507   ZZZZ    -341.8152
 -----------------------------------------------------------------
 Calculating analytic gradient of the SCF energy
 Gradient of CDS energy
            1           2           3           4           5           6
    1   0.0003145   0.0003068  -0.0001508  -0.0004411  -0.0001528  -0.0000409
    2   0.0002416  -0.0001294  -0.0004165  -0.0002251   0.0001407  -0.0001075
    3  -0.0000039   0.0003783   0.0003161  -0.0001142  -0.0002692   0.0000801
            7           8           9          10          11          12
    1   0.0041513   0.0001239   0.0001242  -0.0000595  -0.0001841  -0.0000785
    2   0.0027156   0.0001123  -0.0000618  -0.0001618  -0.0001016   0.0000927
    3   0.0004657  -0.0000188   0.0001633   0.0001222  -0.0000400  -0.0001591
           13          14          15
    1  -0.0001146  -0.0040755   0.0002770
    2  -0.0000412  -0.0024105   0.0003525
    3  -0.0000474  -0.0007273  -0.0001457
 Gradient of SCF Energy
            1           2           3           4           5           6
    1  -0.0045011   0.0004837   0.0011257   0.0024312   0.0028181   0.0025786
    2  -0.0001048   0.0038230   0.0022650  -0.0014741  -0.0056264   0.0033934
    3  -0.0031255  -0.0037762  -0.0013118   0.0033671   0.0079372  -0.0017236
            7           8           9          10          11          12
    1   0.0079907   0.0000870   0.0023592  -0.0013426  -0.0049557  -0.0039723
    2  -0.0024601  -0.0005801  -0.0011260  -0.0035337  -0.0026160   0.0026572
    3   0.0089848   0.0006697   0.0031516   0.0026153  -0.0012044  -0.0060485
           13          14          15
    1  -0.0069734   0.0016130   0.0002581
    2   0.0053774  -0.0177112   0.0177162
    3  -0.0111253   0.0196260  -0.0180365
 Max gradient component =       1.963E-02
 RMS gradient           =       6.723E-03
 Computing fast CPCM-SWIG gradient
 Updating gradient with PCM contributions...
 -- total gradient after adding PCM contribution --
---------------------------------------------------
  Atom         X              Y              Z     
---------------------------------------------------
   1       0.000769       0.000687       0.000025
   2       0.000849      -0.000386       0.001055
   3      -0.000938      -0.001161       0.000542
   4      -0.001022      -0.001526       0.000657
   5      -0.000197       0.000864      -0.001060
   6      -0.000230       0.000261      -0.000508
   7       0.001504       0.002452      -0.001336
   8       0.002827       0.001749       0.000435
   9       0.001941      -0.000887       0.002569
  10      -0.000943      -0.002568       0.001908
  11      -0.002875      -0.001580      -0.000636
  12      -0.001808       0.000942      -0.002537
  13      -0.001946       0.000754      -0.002378
  14       0.002303      -0.004103       0.006114
  15      -0.000233       0.004503      -0.004849
---------------------------------------------------
 Number of fixed atoms: 0
 Gradient time:  CPU 162.86 s  wall 23.35 s
 Geometry Optimization Parameters
   NAtoms,    NIC,     NZ,  NCons,   NDum,   NFix, NCnnct, MaxDiis
       15      97       0       0       0       0       0       0


** GEOMETRY OPTIMIZATION IN DELOCALIZED INTERNAL COORDINATES **
   Searching for a Minimum

   Optimization Cycle:   1

                       Coordinates (Angstroms)
     ATOM                X               Y               Z
      1  C        -0.2081886940   -0.4080937011    0.7376191541
      2  C        -0.6088026991   -1.4714580175    1.5318248077
      3  C        -1.8102203612   -2.1424869145    1.2809874238
      4  C        -2.6154536209   -1.7302630032    0.2109663426
      5  C        -2.2327779443   -0.6710977504   -0.5933255762
      6  C        -1.0149495902    0.0219017842   -0.3511892680
      7  C        -0.6434875686    1.0968409625   -1.1779256558
      8  H         0.7264594633    0.1044246445    0.9442897253
      9  H         0.0214692046   -1.7848145344    2.3602660183
     10  H        -2.1158214212   -2.9741551396    1.9086915901
     11  H        -3.5502401424   -2.2463286953    0.0076812907
     12  H        -2.8624425332   -0.3569237553   -1.4224328551
     13  H        -1.2487034110    1.4365560304   -2.0112491368
     14  O         0.5272007716    1.7545347041   -0.9328120003
     15  H         0.6262626467    2.4639573858   -1.5876457604
   Point Group: c1    Number of degrees of freedom:    39


   Energy is   -346.115051199


 Attempting to generate delocalized internal coordinates
 Initial Hessian constructed with Jon Baker's OPTIMIZE code

 39 Hessian modes will be used to form the next step
  Hessian Eigenvalues:
     0.019811    0.020279    0.020628    0.021195    0.021607    0.021637
     0.022048    0.022408    0.022907    0.023031    0.023465    0.023601
     0.160000    0.160000    0.160000    0.160000    0.160000    0.160000
     0.160000    0.220000    0.220000    0.220000    0.234592    0.250000
     0.351061    0.351519    0.351667    0.352963    0.353029    0.354571
     0.397164    0.407589    0.442081    0.445234    0.446327    0.465522
     0.481972    0.519548    0.532717

 Minimum search - taking simple RFO step
 Searching for Lamda that Minimizes Along All modes
 Value Taken    Lamda =  -0.00064929
 Step Taken.  Stepsize is  0.040478

                             Maximum     Tolerance    Cnvgd?
         Gradient           0.009878      0.000300      NO
         Displacement       0.023376      0.001200      NO
         Energy change     *********      0.000001      NO


 New Cartesian Coordinates Obtained by Inverse Iteration

 Displacement from previous Coordinates is:  0.068883
 ----------------------------------------------------------------
             Standard Nuclear Orientation (Angstroms)
    I     Atom           X                Y                Z
 ----------------------------------------------------------------
    1      C      -0.2104161396    -0.4092333725     0.7364618864
    2      C      -0.6107277787    -1.4683769543     1.5271037646
    3      C      -1.8075437181    -2.1357434194     1.2760923374
    4      C      -2.6097093747    -1.7246275792     0.2097297767
    5      C      -2.2281182357    -0.6702134177    -0.5906164193
    6      C      -1.0145986416     0.0189771363    -0.3482029452
    7      C      -0.6479431970     1.0891804141    -1.1739320511
    8      H       0.7200839801     0.0998530962     0.9441261309
    9      H       0.0156686025    -1.7813168147     2.3520679351
   10      H      -2.1124752012    -2.9633860767     1.9008220376
   11      H      -3.5400305478    -2.2383703162     0.0068573975
   12      H      -2.8547935548    -0.3569037267    -1.4158994794
   13      H      -1.2521892344     1.4261829834    -2.0029599703
   14      O       0.5196331972     1.7498117712    -0.9343805473
   15      H       0.6234639439     2.4567602764    -1.5815237536
 ----------------------------------------------------------------
 Nuclear Repulsion Energy =         331.27688035 hartrees
 There are       29 alpha and       28 beta electrons
 Discretize the solute cavity surface with Lebedev spheres
	Using 110 Lebedev grid points for each H atom
	Using 194 Lebedev grid points for other atoms
	Atomic van der Waals radii will be scaled by 1.20
 Remove points where switching function is < 1.0e-08
 Keep 1135 surface tesserae and discard 1187 interior tesserae
 Molecular Surface Area = 138.373 Angst**2
 Applying Cartesian multipole field
    Component          Value
    ---------          -----
     (2,0,0)        1.00000E-11
     (0,2,0)        2.00000E-11
     (0,0,2)       -3.00000E-11
 Nucleus-field energy     =     0.0000000063 hartrees
 Requested basis set is 6-311++G(2df,2p)
 There are 106 shells and 342 basis functions
 A cutoff of  1.0D-12 yielded   5168 shell pairs
 There are     54670 function pairs (     68259 Cartesian)
 Smallest overlap matrix eigenvalue = 9.73E-07
 Linear dependence detected in AO basis
 Tighter screening thresholds may be required for diffuse basis sets
 Use S2THRESH > 14 and THRESH = 14 in case of SCF convergence issues
 Number of orthogonalized atomic orbitals = 341
 Maximum deviation from orthogonality = 5.677E-11
 Guess MOs from SCF MO coefficient file

 -----------------------------------------------------------------------
  General SCF calculation program by
  Eric Jon Sundstrom, Paul Horn, Yuezhi Mao, Dmitri Zuev, Alec White,
  David Stuck, Shaama M.S., Shane Yost, Joonho Lee, David Small,
  Daniel Levine, Susi Lehtola, Hugh Burton, Evgeny Epifanovsky,
  Bang C. Huynh
 -----------------------------------------------------------------------
 Exchange:     0.1500 Hartree-Fock + 1.0000 wB97M-V + LR-HF
 Correlation:  1.0000 wB97M-V
 Using SG-2 standard quadrature grid
 Nonlocal Correlation:  VV10 with C = 0.0100 and b = 6.00 and scale = 1.00000
 Grid used for NLC:  SG-1 standard quadrature
 Size of previous SCF MO coefficient file: 233926 (expected); 234612 (actual). 

 Q-Chem warning in module libgscf/gen_scfman/uhf.C, line 811:

 Inconsistent size for SCF MO coefficient file.  Please check basis and PURECART setting.

 
 Citation of the SMD model:
 Marenich, A.V.; Cramer, C.J.; Truhlar, D.G.
 J. Phys. Chem. B 2009, 113, 6378-6396.
 iSolventCode=           1
 Solvent: water                                                           
 
 vradii
            1           2           3           4           5           6
    1   1.8500000   1.8500000   1.8500000   1.8500000   1.8500000   1.8500000
            7           8           9          10          11          12
    1   1.8500000   1.2000000   1.2000000   1.2000000   1.2000000   1.2000000
           13          14          15
    1   1.2000000   1.5200000   1.2000000
 -------------------------------------------------------
 OpenMP BLAS3 based DFT computing Module                
 Release: version 1.0, May 2013, Q-Chem Inc. Pittsburgh 
 -------------------------------------------------------
 A unrestricted SCF calculation will be
 performed using Roothaan-Hall, DIIS, GDM
 SCF converges when RMS gradient is below 1.0e-07
 ---------------------------------------
  Cycle       Energy         DIIS error
 ---------------------------------------
    1    -294.3661447209      7.20e-03  Roothaan Step
 ---------------------------------------
  Cycle       Energy         DIIS error
 ---------------------------------------
    1    -339.5034916049      9.92e-03  
    2    -330.4561724052      1.76e-02  
    3    -344.9357347818      5.62e-03  Done DIIS. Switching to GDM
 ---------------------------------------
  Cycle       Energy        RMS Gradient
 ---------------------------------------
    1    -344.9357347818      6.41e-01   Descent step
    2    -345.7015063214      3.83e-01   Descent step
    3    -346.0048185272      7.38e-02   Descent step
    4    -346.0976480595      7.63e-02   Normal BFGS step
    5    -346.1141782757      2.46e-02   Normal BFGS step
    6    -346.1214247497      8.48e-03   Normal BFGS step
    7    -346.1216668665      3.46e-03   Normal BFGS step
    8    -346.1217687349      1.89e-03   Normal BFGS step
    9    -346.1217906755      7.88e-04   Normal BFGS step
   10    -346.1217949157      4.24e-04   Normal BFGS step
   11    -346.1217969013      2.25e-04   Normal BFGS step
   12    -346.1217974317      1.16e-04   Normal BFGS step
   13    -346.1217975413      6.56e-05   Normal BFGS step
   14    -346.1217975674      2.44e-05   Normal BFGS step
   15    -346.1217975719      1.16e-05   Normal BFGS step
   16    -346.1217975730      5.14e-06   Normal BFGS step
   17    -346.1217975732      1.45e-06   Normal BFGS step
   18    -346.1217975732      5.68e-07   Normal BFGS step
   19    -346.1217975733      2.46e-07   Normal BFGS step
   20    -346.1217975732      7.08e-08  Convergence criterion met
 ---------------------------------------
 SCF time:   CPU 1299.06s  wall 165.00s 
<S^2> =          0.784470755
(3)  G-ENP(liq) elect-nuc-pol free energy of system     -346.121797573 a.u.
(4)  G-CDS(liq) cavity-dispersion-solvent structure 
     free energy                                                4.0485 kcal/mol
(6)  G-S(liq) free energy of system                     -346.115345947 a.u.
 SCF   energy in the final basis set =     -346.1153459470
 Total energy in the final basis set =     -346.1153459470
 
 --------------------------------------------------------------
 
                    Orbital Energies (a.u.)
 --------------------------------------------------------------
 
 Alpha MOs
 -- Occupied --
-19.3708 -10.3980 -10.3521 -10.3422 -10.3405 -10.3400 -10.3396 -10.3374
 -1.1958  -0.9854  -0.8967  -0.8693  -0.7921  -0.7232  -0.6958  -0.6462
 -0.6283  -0.5715  -0.5472  -0.5321  -0.5319  -0.5196  -0.4796  -0.4775
 -0.4481  -0.4296  -0.3749  -0.3541  -0.2403
 -- Virtual --
  0.0235   0.0343   0.0369   0.0523   0.0551   0.0607   0.0712   0.0809
  0.0896   0.0969   0.0996   0.1131   0.1196   0.1287   0.1431   0.1461
  0.1536   0.1558   0.1614   0.1676   0.1709   0.1752   0.1826   0.1850
  0.1877   0.1909   0.2037   0.2137   0.2207   0.2257   0.2348   0.2492
  0.2578   0.2701   0.2749   0.2776   0.2881   0.2916   0.2952   0.3009
  0.3254   0.3285   0.3408   0.3525   0.3553   0.3629   0.3917   0.3942
  0.4156   0.4275   0.4332   0.4684   0.4971   0.5012   0.5368   0.5475
  0.5737   0.5885   0.5900   0.6015   0.6049   0.6102   0.6163   0.6190
  0.6283   0.6382   0.6453   0.6566   0.6711   0.6806   0.6951   0.7154
  0.7162   0.7398   0.7432   0.7433   0.7468   0.7566   0.7590   0.7671
  0.7726   0.7930   0.8137   0.8248   0.8362   0.8395   0.8411   0.8493
  0.8704   0.8875   0.8922   0.8966   0.9025   0.9111   0.9340   0.9665
  1.0216   1.0329   1.0403   1.0484   1.0894   1.1021   1.1029   1.1173
  1.1259   1.1306   1.1589   1.1752   1.1855   1.2014   1.2153   1.2173
  1.2560   1.2616   1.2675   1.3135   1.3270   1.3633   1.3675   1.3964
  1.4033   1.4090   1.4265   1.4417   1.4552   1.4673   1.4738   1.4864
  1.4880   1.4956   1.5354   1.5725   1.5770   1.5902   1.6150   1.6781
  1.6988   1.7088   1.7702   1.7817   1.8008   1.8041   1.8183   1.8642
  1.8982   1.9165   1.9557   1.9853   2.0607   2.0835   2.1019   2.1223
  2.2190   2.3535   2.4111   2.4443   2.5725   2.6008   2.6266   2.6306
  2.6391   2.7275   2.7298   2.7541   2.7779   2.7940   2.8089   2.8162
  2.8355   2.8372   2.8380   2.8673   2.8719   2.8846   2.9090   2.9157
  2.9253   2.9281   2.9349   2.9458   2.9642   2.9851   3.0003   3.0213
  3.0386   3.0619   3.1005   3.1405   3.1417   3.1749   3.1950   3.1954
  3.2129   3.2322   3.2385   3.2444   3.2729   3.2743   3.2898   3.2920
  3.3157   3.3332   3.3564   3.3686   3.3976   3.4238   3.4268   3.4427
  3.4649   3.4711   3.4808   3.4974   3.5141   3.5306   3.5316   3.5436
  3.5581   3.5893   3.6034   3.6315   3.6420   3.6710   3.6805   3.7303
  3.7689   3.7752   3.8085   3.8114   3.8314   3.8422   3.8890   3.9034
  3.9340   3.9371   3.9403   3.9591   3.9637   3.9755   4.0005   4.0721
  4.0787   4.1229   4.1321   4.1446   4.1701   4.1905   4.2114   4.2249
  4.2625   4.2925   4.3268   4.3658   4.4160   4.4298   4.4550   4.4618
  4.4974   4.5066   4.5169   4.5249   4.5403   4.5755   4.5933   4.5959
  4.6158   4.6735   4.7277   4.7420   4.8074   4.8176   4.8192   4.9279
  5.0349   5.0442   5.1608   5.1694   5.1762   5.2143   5.2244   5.2517
  5.3090   5.3458   5.4252   5.4852   5.5034   5.6033   5.6503   5.7774
  5.8037   5.8664   5.8919   5.8958   5.9032   6.0196   6.2785   6.3810
  6.6416   6.8051   7.0287   7.2445   7.3372   7.3737   7.7240   7.8038
 24.2486  24.7997  24.8195  24.9058  25.0952  25.1074  25.5146  50.5990
 
 Beta MOs
 -- Occupied --
-19.3672 -10.3886 -10.3544 -10.3418 -10.3411 -10.3392 -10.3371 -10.3341
 -1.1874  -0.9826  -0.8904  -0.8667  -0.7779  -0.7209  -0.6918  -0.6390
 -0.6246  -0.5668  -0.5449  -0.5297  -0.5183  -0.5062  -0.4726  -0.4652
 -0.4449  -0.4283  -0.3478  -0.3430
 -- Virtual --
  0.0035   0.0231   0.0340   0.0367   0.0521   0.0549   0.0651   0.0738
  0.0806   0.0894   0.0996   0.1043   0.1191   0.1283   0.1341   0.1433
  0.1460   0.1553   0.1562   0.1614   0.1674   0.1712   0.1768   0.1822
  0.1860   0.1879   0.1958   0.2033   0.2131   0.2205   0.2261   0.2334
  0.2497   0.2584   0.2707   0.2779   0.2843   0.2887   0.2947   0.2974
  0.3012   0.3276   0.3342   0.3425   0.3536   0.3564   0.3649   0.3949
  0.3961   0.4168   0.4289   0.4342   0.4722   0.4995   0.5064   0.5430
  0.5508   0.5750   0.5913   0.6010   0.6036   0.6076   0.6173   0.6213
  0.6232   0.6327   0.6444   0.6470   0.6602   0.6770   0.6824   0.6980
  0.7182   0.7207   0.7424   0.7439   0.7453   0.7489   0.7583   0.7634
  0.7705   0.7760   0.7958   0.8211   0.8326   0.8376   0.8399   0.8445
  0.8516   0.8761   0.8887   0.8938   0.8999   0.9044   0.9202   0.9362
  0.9681   1.0224   1.0365   1.0413   1.0490   1.0924   1.1037   1.1069
  1.1195   1.1285   1.1317   1.1631   1.1804   1.1877   1.2015   1.2181
  1.2214   1.2566   1.2619   1.2752   1.3155   1.3291   1.3654   1.3714
  1.3976   1.4058   1.4140   1.4282   1.4431   1.4573   1.4725   1.4772
  1.4905   1.4908   1.4974   1.5409   1.5741   1.5798   1.5940   1.6193
  1.6836   1.7029   1.7137   1.7761   1.7864   1.8024   1.8110   1.8245
  1.8684   1.9039   1.9234   1.9577   1.9976   2.0645   2.0863   2.1045
  2.1256   2.2256   2.3578   2.4141   2.4541   2.5793   2.6031   2.6285
  2.6424   2.6546   2.7359   2.7424   2.7609   2.7970   2.8091   2.8140
  2.8183   2.8400   2.8483   2.8714   2.8777   2.8813   2.8911   2.9179
  2.9256   2.9333   2.9368   2.9449   2.9611   2.9690   2.9990   3.0061
  3.0291   3.0441   3.0732   3.1092   3.1566   3.1680   3.1824   3.2016
  3.2120   3.2208   3.2426   3.2433   3.2526   3.2853   3.2904   3.2957
  3.2999   3.3228   3.3557   3.3634   3.3857   3.4101   3.4325   3.4476
  3.4535   3.4783   3.4860   3.4900   3.5080   3.5213   3.5377   3.5545
  3.5586   3.5673   3.5927   3.6209   3.6412   3.6524   3.6846   3.6879
  3.7420   3.7745   3.7871   3.8195   3.8247   3.8387   3.8489   3.8938
  3.9076   3.9415   3.9446   3.9482   3.9675   3.9727   3.9815   4.0093
  4.0751   4.0892   4.1279   4.1396   4.1476   4.1807   4.1939   4.2176
  4.2318   4.2883   4.3084   4.3312   4.3715   4.4220   4.4356   4.4597
  4.4692   4.5054   4.5156   4.5292   4.5323   4.5500   4.5833   4.6008
  4.6020   4.6273   4.6781   4.7396   4.7468   4.8133   4.8228   4.8271
  4.9351   5.0520   5.0564   5.1675   5.1755   5.1954   5.2197   5.2322
  5.2635   5.3193   5.3553   5.4343   5.4918   5.5176   5.6156   5.6597
  5.7841   5.8113   5.8796   5.9003   5.9106   5.9283   6.0287   6.2871
  6.3892   6.6467   6.8136   7.0451   7.2597   7.3448   7.3864   7.7312
  7.8085  24.2493  24.8003  24.8213  24.9103  25.0968  25.1111  25.5158
 50.6021
 --------------------------------------------------------------
 
          Ground-State Mulliken Net Atomic Charges

     Atom                 Charge (a.u.)    Spin (a.u.)
  --------------------------------------------------------
      1 C                    -0.025958       0.205742
      2 C                    -0.346195      -0.103070
      3 C                    -0.378549       0.233054
      4 C                    -0.396740      -0.091509
      5 C                    -0.718578       0.208823
      6 C                     0.600769      -0.131964
      7 C                    -0.372181       0.619934
      8 H                     0.270956      -0.005286
      9 H                     0.280362       0.002604
     10 H                     0.276682      -0.005403
     11 H                     0.280338       0.002374
     12 H                     0.260701      -0.004467
     13 H                     0.275964      -0.015652
     14 O                    -0.351847       0.087115
     15 H                     0.344275      -0.002295
  --------------------------------------------------------
  Sum of atomic charges =    -0.000000
  Sum of spin   charges =     1.000000

 -----------------------------------------------------------------
                    Cartesian Multipole Moments
 -----------------------------------------------------------------
    Charge (ESU x 10^10)
                -0.0000
    Dipole Moment (Debye)
         X      -0.3850      Y       1.9876      Z      -2.3575
       Tot       3.1075
    Quadrupole Moments (Debye-Ang)
        XX     -45.5782     XY       2.1775     YY     -41.3486
        XZ       3.5297     YZ      -9.5501     ZZ     -41.4959
    Octopole Moments (Debye-Ang^2)
       XXX     145.1492    XXY      12.9766    XYY      48.3986
       YYY      82.7153    XXZ     -13.4223    XYZ       1.7627
       YYZ     -13.8496    XZZ      52.4064    YZZ      30.9906
       ZZZ     -21.8596
    Hexadecapole Moments (Debye-Ang^3)
      XXXX    -682.2159   XXXY    -169.1058   XXYY    -194.2603
      XYYY    -175.5974   YYYY    -565.3778   XXXZ      54.9986
      XXYZ      45.8456   XYYZ     -10.7816   YYYZ      93.5594
      XXZZ    -174.3591   XYZZ     -66.6952   YYZZ    -114.6567
      XZZZ      39.7141   YZZZ     119.6258   ZZZZ    -339.8974
 -----------------------------------------------------------------
 Calculating analytic gradient of the SCF energy
 Gradient of CDS energy
            1           2           3           4           5           6
    1   0.0003112   0.0003039  -0.0001494  -0.0004382  -0.0001509  -0.0000421
    2   0.0002390  -0.0001290  -0.0004133  -0.0002225   0.0001377  -0.0001077
    3  -0.0000042   0.0003759   0.0003138  -0.0001144  -0.0002646   0.0000793
            7           8           9          10          11          12
    1   0.0040642   0.0001195   0.0001206  -0.0000579  -0.0001790  -0.0000748
    2   0.0026853   0.0001087  -0.0000602  -0.0001573  -0.0000988   0.0000918
    3   0.0004274  -0.0000185   0.0001588   0.0001187  -0.0000390  -0.0001551
           13          14          15
    1  -0.0001135  -0.0039881   0.0002744
    2  -0.0000469  -0.0023786   0.0003518
    3  -0.0000405  -0.0006909  -0.0001467
 Gradient of SCF Energy
            1           2           3           4           5           6
    1  -0.0038961  -0.0015863   0.0019540   0.0041834   0.0039060   0.0008064
    2  -0.0003337   0.0042086   0.0029118   0.0008488  -0.0060122   0.0015635
    3  -0.0025643  -0.0056851  -0.0014444   0.0024497   0.0091428  -0.0011414
            7           8           9          10          11          12
    1   0.0060191  -0.0028118   0.0002727  -0.0003280  -0.0018511  -0.0020687
    2  -0.0049649  -0.0022531  -0.0001540  -0.0007930  -0.0008693   0.0016557
    3   0.0099868   0.0001521   0.0004691   0.0005800  -0.0006153  -0.0034611
           13          14          15
    1  -0.0050014  -0.0001679   0.0005696
    2   0.0043992  -0.0137305   0.0135231
    3  -0.0085261   0.0140721  -0.0134150
 Max gradient component =       1.407E-02
 RMS gradient           =       5.411E-03
 Computing fast CPCM-SWIG gradient
 Updating gradient with PCM contributions...
 -- total gradient after adding PCM contribution --
---------------------------------------------------
  Atom         X              Y              Z     
---------------------------------------------------
   1      -0.000278      -0.000319       0.000156
   2      -0.000059       0.000308      -0.000332
   3      -0.000082       0.000343      -0.000405
   4       0.000499       0.000051       0.000291
   5       0.000442       0.000078       0.000247
   6      -0.000577      -0.000431      -0.000028
   7      -0.000602      -0.000275      -0.000205
   8      -0.000119      -0.000010      -0.000025
   9      -0.000085       0.000093      -0.000077
  10       0.000055       0.000118      -0.000084
  11       0.000129       0.000087      -0.000042
  12       0.000071      -0.000088       0.000058
  13       0.000018      -0.000141       0.000118
  14       0.000647      -0.000128       0.000694
  15      -0.000058       0.000313      -0.000365
---------------------------------------------------
 Number of fixed atoms: 0
 Gradient time:  CPU 162.83 s  wall 23.41 s
 Geometry Optimization Parameters
   NAtoms,    NIC,     NZ,  NCons,   NDum,   NFix, NCnnct, MaxDiis
       15      97       0       0       0       0       0       0

 Cartesian Hessian Update
 Hessian updated using BFGS update


** GEOMETRY OPTIMIZATION IN DELOCALIZED INTERNAL COORDINATES **
   Searching for a Minimum

   Optimization Cycle:   2

                       Coordinates (Angstroms)
     ATOM                X               Y               Z
      1  C        -0.2104161396   -0.4092333725    0.7364618864
      2  C        -0.6107277787   -1.4683769543    1.5271037646
      3  C        -1.8075437181   -2.1357434194    1.2760923374
      4  C        -2.6097093747   -1.7246275792    0.2097297767
      5  C        -2.2281182357   -0.6702134177   -0.5906164193
      6  C        -1.0145986416    0.0189771363   -0.3482029452
      7  C        -0.6479431970    1.0891804141   -1.1739320511
      8  H         0.7200839801    0.0998530962    0.9441261309
      9  H         0.0156686025   -1.7813168147    2.3520679351
     10  H        -2.1124752012   -2.9633860767    1.9008220376
     11  H        -3.5400305478   -2.2383703162    0.0068573975
     12  H        -2.8547935548   -0.3569037267   -1.4158994794
     13  H        -1.2521892344    1.4261829834   -2.0029599703
     14  O         0.5196331972    1.7498117712   -0.9343805473
     15  H         0.6234639439    2.4567602764   -1.5815237536
   Point Group: c1    Number of degrees of freedom:    39


   Energy is   -346.115345947

 Hessian updated using BFGS update

 36 Hessian modes will be used to form the next step
  Hessian Eigenvalues:
     0.019811    0.020278    0.020628    0.021195    0.021607    0.021637
     0.022048    0.022407    0.022907    0.023031    0.023465    0.023600
     0.158015    0.160000    0.160000    0.160000    0.160098    0.219406
     0.220014    0.234809    0.248480    0.350947    0.351548    0.351817
     0.352910    0.353216    0.354832    0.399328    0.407667    0.442275
     0.445550    0.459546    0.465723    0.502389    0.519491    0.529312

 Minimum search - taking simple RFO step
 Searching for Lamda that Minimizes Along All modes
 Value Taken    Lamda =  -0.00000779
 Step Taken.  Stepsize is  0.004532

                             Maximum     Tolerance    Cnvgd?
         Gradient           0.000976      0.000300      NO
         Displacement       0.001871      0.001200      NO
         Energy change     -0.000295      0.000001      NO


 New Cartesian Coordinates Obtained by Inverse Iteration

 Displacement from previous Coordinates is:  0.010432
 ----------------------------------------------------------------
             Standard Nuclear Orientation (Angstroms)
    I     Atom           X                Y                Z
 ----------------------------------------------------------------
    1      C      -0.2096474166    -0.4093343376     0.7373346453
    2      C      -0.6107696956    -1.4691951699     1.5279415457
    3      C      -1.8079649799    -2.1365992307     1.2765577983
    4      C      -2.6102002338    -1.7248990279     0.2095586654
    5      C      -2.2278778308    -0.6699976668    -0.5905767901
    6      C      -1.0135554889     0.0195740749    -0.3478208818
    7      C      -0.6475599053     1.0898533447    -1.1742652406
    8      H       0.7210238156     0.0993818444     0.9457297132
    9      H       0.0153497815    -1.7826548627     2.3531110336
   10      H      -2.1132901039    -2.9643877186     1.9012020724
   11      H      -3.5405983795    -2.2387674917     0.0065140250
   12      H      -2.8543046015    -0.3561841665    -1.4160024933
   13      H      -1.2522520896     1.4265980783    -2.0032843656
   14      O       0.5192170176     1.7512765253    -0.9367425723
   15      H       0.6227342107     2.4579298050    -1.5835110551
 ----------------------------------------------------------------
 Nuclear Repulsion Energy =         331.16577190 hartrees
 There are       29 alpha and       28 beta electrons
 Discretize the solute cavity surface with Lebedev spheres
	Using 110 Lebedev grid points for each H atom
	Using 194 Lebedev grid points for other atoms
	Atomic van der Waals radii will be scaled by 1.20
 Remove points where switching function is < 1.0e-08
 Keep 1134 surface tesserae and discard 1188 interior tesserae
 Molecular Surface Area = 138.416 Angst**2
 Applying Cartesian multipole field
    Component          Value
    ---------          -----
     (2,0,0)        1.00000E-11
     (0,2,0)        2.00000E-11
     (0,0,2)       -3.00000E-11
 Nucleus-field energy     =     0.0000000063 hartrees
 Requested basis set is 6-311++G(2df,2p)
 There are 106 shells and 342 basis functions
 A cutoff of  1.0D-12 yielded   5168 shell pairs
 There are     54670 function pairs (     68259 Cartesian)
 Smallest overlap matrix eigenvalue = 9.77E-07
 Linear dependence detected in AO basis
 Tighter screening thresholds may be required for diffuse basis sets
 Use S2THRESH > 14 and THRESH = 14 in case of SCF convergence issues
 Number of orthogonalized atomic orbitals = 341
 Maximum deviation from orthogonality = 6.973E-11
 Guess MOs from SCF MO coefficient file

 -----------------------------------------------------------------------
  General SCF calculation program by
  Eric Jon Sundstrom, Paul Horn, Yuezhi Mao, Dmitri Zuev, Alec White,
  David Stuck, Shaama M.S., Shane Yost, Joonho Lee, David Small,
  Daniel Levine, Susi Lehtola, Hugh Burton, Evgeny Epifanovsky,
  Bang C. Huynh
 -----------------------------------------------------------------------
 Exchange:     0.1500 Hartree-Fock + 1.0000 wB97M-V + LR-HF
 Correlation:  1.0000 wB97M-V
 Using SG-2 standard quadrature grid
 Nonlocal Correlation:  VV10 with C = 0.0100 and b = 6.00 and scale = 1.00000
 Grid used for NLC:  SG-1 standard quadrature
 Size of previous SCF MO coefficient file: 233926 (expected); 234612 (actual). 

 Q-Chem warning in module libgscf/gen_scfman/uhf.C, line 811:

 Inconsistent size for SCF MO coefficient file.  Please check basis and PURECART setting.

 
 Citation of the SMD model:
 Marenich, A.V.; Cramer, C.J.; Truhlar, D.G.
 J. Phys. Chem. B 2009, 113, 6378-6396.
 iSolventCode=           1
 Solvent: water                                                           
 
 vradii
            1           2           3           4           5           6
    1   1.8500000   1.8500000   1.8500000   1.8500000   1.8500000   1.8500000
            7           8           9          10          11          12
    1   1.8500000   1.2000000   1.2000000   1.2000000   1.2000000   1.2000000
           13          14          15
    1   1.2000000   1.5200000   1.2000000
 -------------------------------------------------------
 OpenMP BLAS3 based DFT computing Module                
 Release: version 1.0, May 2013, Q-Chem Inc. Pittsburgh 
 -------------------------------------------------------
 A unrestricted SCF calculation will be
 performed using Roothaan-Hall, DIIS, GDM
 SCF converges when RMS gradient is below 1.0e-07
 ---------------------------------------
  Cycle       Energy         DIIS error
 ---------------------------------------
    1    -346.1022799319      1.82e-04  Roothaan Step
 ---------------------------------------
  Cycle       Energy         DIIS error
 ---------------------------------------
    1    -346.1178349322      2.07e-04  
    2    -346.1207936126      1.39e-04  Done DIIS. Switching to GDM
 ---------------------------------------
  Cycle       Energy        RMS Gradient
 ---------------------------------------
    1    -346.1207936126      7.17e-03   Normal BFGS step
    2    -346.1211807911      6.54e-03   Normal BFGS step
    3    -346.1217957024      1.15e-03   Normal BFGS step
    4    -346.1218046784      6.48e-04   Normal BFGS step
    5    -346.1218116828      3.87e-04   Normal BFGS step
    6    -346.1218122241      1.70e-04   Normal BFGS step
    7    -346.1218124046      4.90e-05   Normal BFGS step
    8    -346.1218124352      2.02e-05   Normal BFGS step
    9    -346.1218124393      2.05e-05   Normal BFGS step
   10    -346.1218124404      6.47e-06   Normal BFGS step
   11    -346.1218124405      3.33e-06   Normal BFGS step
   12    -346.1218124406      9.47e-07   Normal BFGS step
   13    -346.1218124406      3.86e-07   Normal BFGS step
   14    -346.1218124406      2.16e-07   Normal BFGS step
   15    -346.1218124406      1.58e-07   Normal BFGS step
   16    -346.1218124406      6.59e-08  Convergence criterion met
 ---------------------------------------
 SCF time:   CPU 965.11s  wall 122.00s 
<S^2> =          0.784598358
(3)  G-ENP(liq) elect-nuc-pol free energy of system     -346.121812441 a.u.
(4)  G-CDS(liq) cavity-dispersion-solvent structure 
     free energy                                                4.0551 kcal/mol
(6)  G-S(liq) free energy of system                     -346.115350245 a.u.
 SCF   energy in the final basis set =     -346.1153502448
 Total energy in the final basis set =     -346.1153502448
 
 --------------------------------------------------------------
 
                    Orbital Energies (a.u.)
 --------------------------------------------------------------
 
 Alpha MOs
 -- Occupied --
-19.3708 -10.3981 -10.3523 -10.3424 -10.3407 -10.3402 -10.3398 -10.3376
 -1.1962  -0.9851  -0.8966  -0.8691  -0.7922  -0.7231  -0.6959  -0.6463
 -0.6282  -0.5717  -0.5470  -0.5320  -0.5319  -0.5195  -0.4795  -0.4774
 -0.4481  -0.4296  -0.3748  -0.3540  -0.2403
 -- Virtual --
  0.0235   0.0343   0.0369   0.0523   0.0551   0.0606   0.0712   0.0809
  0.0896   0.0968   0.0996   0.1130   0.1196   0.1287   0.1431   0.1461
  0.1536   0.1558   0.1614   0.1676   0.1709   0.1752   0.1826   0.1850
  0.1877   0.1909   0.2036   0.2136   0.2207   0.2257   0.2348   0.2492
  0.2578   0.2701   0.2746   0.2775   0.2881   0.2917   0.2952   0.3009
  0.3253   0.3286   0.3406   0.3524   0.3552   0.3627   0.3914   0.3941
  0.4154   0.4274   0.4331   0.4682   0.4970   0.5012   0.5368   0.5475
  0.5736   0.5882   0.5899   0.6014   0.6049   0.6103   0.6161   0.6189
  0.6281   0.6382   0.6453   0.6565   0.6711   0.6807   0.6950   0.7151
  0.7161   0.7397   0.7431   0.7432   0.7466   0.7564   0.7589   0.7669
  0.7726   0.7928   0.8136   0.8248   0.8362   0.8395   0.8411   0.8491
  0.8702   0.8873   0.8917   0.8962   0.9021   0.9109   0.9337   0.9663
  1.0214   1.0328   1.0403   1.0483   1.0892   1.1023   1.1027   1.1171
  1.1260   1.1303   1.1586   1.1750   1.1855   1.2012   1.2152   1.2174
  1.2557   1.2613   1.2670   1.3128   1.3267   1.3630   1.3671   1.3960
  1.4030   1.4087   1.4259   1.4412   1.4548   1.4673   1.4735   1.4859
  1.4872   1.4950   1.5350   1.5724   1.5768   1.5901   1.6149   1.6779
  1.6985   1.7087   1.7694   1.7813   1.8006   1.8036   1.8182   1.8642
  1.8979   1.9169   1.9553   1.9853   2.0603   2.0828   2.1017   2.1217
  2.2187   2.3537   2.4107   2.4448   2.5722   2.6009   2.6267   2.6301
  2.6390   2.7272   2.7292   2.7542   2.7777   2.7938   2.8085   2.8163
  2.8355   2.8371   2.8383   2.8672   2.8721   2.8845   2.9088   2.9156
  2.9255   2.9282   2.9350   2.9457   2.9643   2.9847   3.0005   3.0206
  3.0382   3.0618   3.1008   3.1403   3.1414   3.1746   3.1947   3.1950
  3.2124   3.2324   3.2384   3.2446   3.2728   3.2741   3.2894   3.2922
  3.3153   3.3331   3.3562   3.3678   3.3974   3.4240   3.4263   3.4424
  3.4650   3.4705   3.4802   3.4971   3.5144   3.5302   3.5315   3.5430
  3.5575   3.5887   3.6034   3.6310   3.6414   3.6709   3.6804   3.7295
  3.7690   3.7748   3.8079   3.8107   3.8305   3.8416   3.8890   3.9030
  3.9329   3.9361   3.9396   3.9585   3.9626   3.9748   4.0001   4.0712
  4.0785   4.1229   4.1319   4.1443   4.1695   4.1901   4.2109   4.2242
  4.2620   4.2919   4.3264   4.3655   4.4151   4.4289   4.4541   4.4615
  4.4956   4.5056   4.5155   4.5234   4.5386   4.5741   4.5917   4.5944
  4.6151   4.6725   4.7261   4.7402   4.8060   4.8160   4.8173   4.9271
  5.0350   5.0421   5.1591   5.1686   5.1762   5.2130   5.2227   5.2510
  5.3088   5.3447   5.4241   5.4836   5.5035   5.6017   5.6518   5.7761
  5.8017   5.8647   5.8908   5.8974   5.9017   6.0178   6.2758   6.3822
  6.6383   6.8064   7.0288   7.2448   7.3403   7.3733   7.7247   7.8037
 24.2488  24.7983  24.8182  24.9040  25.0924  25.1053  25.5106  50.5996
 
 Beta MOs
 -- Occupied --
-19.3672 -10.3887 -10.3546 -10.3420 -10.3413 -10.3394 -10.3373 -10.3343
 -1.1877  -0.9823  -0.8903  -0.8665  -0.7779  -0.7209  -0.6918  -0.6391
 -0.6245  -0.5669  -0.5448  -0.5297  -0.5182  -0.5062  -0.4724  -0.4652
 -0.4450  -0.4283  -0.3478  -0.3429
 -- Virtual --
  0.0035   0.0231   0.0340   0.0367   0.0521   0.0549   0.0650   0.0737
  0.0806   0.0894   0.0996   0.1043   0.1191   0.1283   0.1340   0.1433
  0.1460   0.1553   0.1562   0.1614   0.1674   0.1711   0.1768   0.1822
  0.1860   0.1879   0.1957   0.2033   0.2130   0.2204   0.2261   0.2334
  0.2497   0.2584   0.2708   0.2778   0.2841   0.2886   0.2947   0.2974
  0.3012   0.3276   0.3342   0.3424   0.3535   0.3563   0.3648   0.3946
  0.3960   0.4165   0.4287   0.4341   0.4720   0.4994   0.5063   0.5430
  0.5508   0.5750   0.5910   0.6010   0.6036   0.6077   0.6171   0.6213
  0.6231   0.6325   0.6445   0.6470   0.6600   0.6770   0.6824   0.6979
  0.7180   0.7206   0.7423   0.7438   0.7452   0.7487   0.7582   0.7633
  0.7704   0.7759   0.7956   0.8210   0.8326   0.8376   0.8399   0.8444
  0.8515   0.8759   0.8885   0.8933   0.8996   0.9040   0.9201   0.9359
  0.9679   1.0222   1.0364   1.0413   1.0488   1.0921   1.1039   1.1067
  1.1193   1.1285   1.1314   1.1628   1.1802   1.1877   1.2014   1.2182
  1.2212   1.2564   1.2616   1.2747   1.3148   1.3289   1.3651   1.3709
  1.3972   1.4055   1.4137   1.4277   1.4427   1.4569   1.4726   1.4770
  1.4898   1.4903   1.4968   1.5405   1.5739   1.5795   1.5939   1.6192
  1.6834   1.7026   1.7136   1.7754   1.7859   1.8022   1.8105   1.8244
  1.8683   1.9037   1.9238   1.9573   1.9977   2.0640   2.0856   2.1043
  2.1250   2.2252   2.3579   2.4137   2.4547   2.5790   2.6031   2.6286
  2.6418   2.6545   2.7353   2.7420   2.7610   2.7967   2.8089   2.8134
  2.8184   2.8400   2.8486   2.8713   2.8779   2.8812   2.8911   2.9178
  2.9255   2.9334   2.9368   2.9451   2.9611   2.9690   2.9985   3.0062
  3.0283   3.0437   3.0731   3.1094   3.1564   3.1678   3.1821   3.2012
  3.2117   3.2202   3.2429   3.2432   3.2529   3.2852   3.2902   3.2953
  3.3002   3.3223   3.3557   3.3631   3.3849   3.4100   3.4321   3.4478
  3.4531   3.4777   3.4862   3.4894   3.5077   3.5215   3.5372   3.5540
  3.5583   3.5665   3.5921   3.6210   3.6407   3.6519   3.6845   3.6878
  3.7412   3.7747   3.7866   3.8187   3.8241   3.8379   3.8483   3.8938
  3.9072   3.9403   3.9437   3.9477   3.9668   3.9715   3.9808   4.0089
  4.0742   4.0890   4.1277   4.1396   4.1473   4.1801   4.1936   4.2172
  4.2312   4.2878   4.3077   4.3307   4.3713   4.4211   4.4347   4.4588
  4.4688   4.5035   4.5146   4.5280   4.5306   4.5485   4.5820   4.5991
  4.6005   4.6266   4.6770   4.7380   4.7451   4.8119   4.8213   4.8252
  4.9343   5.0498   5.0564   5.1658   5.1748   5.1954   5.2184   5.2306
  5.2628   5.3192   5.3543   5.4332   5.4903   5.5178   5.6139   5.6612
  5.7828   5.8093   5.8779   5.8989   5.9122   5.9273   6.0269   6.2844
  6.3904   6.6433   6.8150   7.0452   7.2599   7.3479   7.3859   7.7319
  7.8084  24.2495  24.7989  24.8200  24.9085  25.0940  25.1091  25.5118
 50.6027
 --------------------------------------------------------------
 
          Ground-State Mulliken Net Atomic Charges

     Atom                 Charge (a.u.)    Spin (a.u.)
  --------------------------------------------------------
      1 C                    -0.027283       0.206431
      2 C                    -0.345779      -0.103396
      3 C                    -0.378432       0.233453
      4 C                    -0.396794      -0.091714
      5 C                    -0.717953       0.208865
      6 C                     0.599810      -0.132130
      7 C                    -0.371749       0.619364
      8 H                     0.271011      -0.005307
      9 H                     0.280446       0.002611
     10 H                     0.276739      -0.005414
     11 H                     0.280425       0.002377
     12 H                     0.260665      -0.004467
     13 H                     0.276055      -0.015649
     14 O                    -0.351371       0.087263
     15 H                     0.344211      -0.002286
  --------------------------------------------------------
  Sum of atomic charges =    -0.000000
  Sum of spin   charges =     1.000000

 -----------------------------------------------------------------
                    Cartesian Multipole Moments
 -----------------------------------------------------------------
    Charge (ESU x 10^10)
                -0.0000
    Dipole Moment (Debye)
         X      -0.3826      Y       1.9920      Z      -2.3594
       Tot       3.1115
    Quadrupole Moments (Debye-Ang)
        XX     -45.5854     XY       2.1797     YY     -41.3406
        XZ       3.5326     YZ      -9.5643     ZZ     -41.4916
    Octopole Moments (Debye-Ang^2)
       XXX     145.1577    XXY      12.9572    XYY      48.3764
       YYY      82.7532    XXZ     -13.4217    XYZ       1.7743
       YYZ     -13.8685    XZZ      52.4187    YZZ      31.0179
       ZZZ     -21.8925
    Hexadecapole Moments (Debye-Ang^3)
      XXXX    -682.3047   XXXY    -169.1046   XXYY    -194.2966
      XYYY    -175.6109   YYYY    -565.7473   XXXZ      55.0559
      XXYZ      45.9000   XYYZ     -10.7972   YYYZ      93.6140
      XXZZ    -174.4577   XYZZ     -66.7125   YYZZ    -114.6742
      XZZZ      39.7724   YZZZ     119.7251   ZZZZ    -340.2338
 -----------------------------------------------------------------
 Calculating analytic gradient of the SCF energy
 Gradient of CDS energy
            1           2           3           4           5           6
    1   0.0003120   0.0003041  -0.0001495  -0.0004392  -0.0001516  -0.0000419
    2   0.0002396  -0.0001296  -0.0004141  -0.0002226   0.0001378  -0.0001074
    3  -0.0000042   0.0003766   0.0003145  -0.0001150  -0.0002652   0.0000791
            7           8           9          10          11          12
    1   0.0040450   0.0001197   0.0001206  -0.0000580  -0.0001791  -0.0000747
    2   0.0026783   0.0001084  -0.0000604  -0.0001574  -0.0000989   0.0000919
    3   0.0004175  -0.0000180   0.0001589   0.0001188  -0.0000391  -0.0001551
           13          14          15
    1  -0.0001135  -0.0039669   0.0002731
    2  -0.0000467  -0.0023706   0.0003516
    3  -0.0000407  -0.0006806  -0.0001475
 Gradient of SCF Energy
            1           2           3           4           5           6
    1  -0.0036168  -0.0014494   0.0019025   0.0037500   0.0036104   0.0011554
    2  -0.0000731   0.0039791   0.0025774   0.0006647  -0.0059635   0.0018308
    3  -0.0026202  -0.0053297  -0.0011446   0.0023093   0.0088373  -0.0011313
            7           8           9          10          11          12
    1   0.0064094  -0.0027362   0.0003155  -0.0003748  -0.0019408  -0.0021054
    2  -0.0047415  -0.0022127  -0.0002110  -0.0008896  -0.0009620   0.0016900
    3   0.0100658   0.0001763   0.0005547   0.0006549  -0.0006008  -0.0035146
           13          14          15
    1  -0.0049518  -0.0005777   0.0006096
    2   0.0045428  -0.0134531   0.0132217
    3  -0.0086362   0.0134431  -0.0130640
 Max gradient component =       1.345E-02
 RMS gradient           =       5.295E-03
 Computing fast CPCM-SWIG gradient
 Updating gradient with PCM contributions...
 -- total gradient after adding PCM contribution --
---------------------------------------------------
  Atom         X              Y              Z     
---------------------------------------------------
   1       0.000040      -0.000039       0.000112
   2       0.000088       0.000086       0.000020
   3      -0.000139       0.000002      -0.000102
   4       0.000054      -0.000149       0.000156
   5       0.000149       0.000133      -0.000059
   6      -0.000227      -0.000141      -0.000042
   7      -0.000223      -0.000062      -0.000125
   8      -0.000058       0.000016       0.000001
   9      -0.000043       0.000035       0.000009
  10       0.000009       0.000021      -0.000009
  11       0.000036      -0.000006      -0.000029
  12       0.000028      -0.000054      -0.000001
  13       0.000064      -0.000004       0.000012
  14       0.000246       0.000170       0.000060
  15      -0.000024      -0.000008      -0.000004
---------------------------------------------------
 Number of fixed atoms: 0
 Gradient time:  CPU 163.83 s  wall 23.45 s
 Geometry Optimization Parameters
   NAtoms,    NIC,     NZ,  NCons,   NDum,   NFix, NCnnct, MaxDiis
       15      97       0       0       0       0       0       0

 Cartesian Hessian Update
 Hessian updated using BFGS update


** GEOMETRY OPTIMIZATION IN DELOCALIZED INTERNAL COORDINATES **
   Searching for a Minimum

   Optimization Cycle:   3

                       Coordinates (Angstroms)
     ATOM                X               Y               Z
      1  C        -0.2096474166   -0.4093343376    0.7373346453
      2  C        -0.6107696956   -1.4691951699    1.5279415457
      3  C        -1.8079649799   -2.1365992307    1.2765577983
      4  C        -2.6102002338   -1.7248990279    0.2095586654
      5  C        -2.2278778308   -0.6699976668   -0.5905767901
      6  C        -1.0135554889    0.0195740749   -0.3478208818
      7  C        -0.6475599053    1.0898533447   -1.1742652406
      8  H         0.7210238156    0.0993818444    0.9457297132
      9  H         0.0153497815   -1.7826548627    2.3531110336
     10  H        -2.1132901039   -2.9643877186    1.9012020724
     11  H        -3.5405983795   -2.2387674917    0.0065140250
     12  H        -2.8543046015   -0.3561841665   -1.4160024933
     13  H        -1.2522520896    1.4265980783   -2.0032843656
     14  O         0.5192170176    1.7512765253   -0.9367425723
     15  H         0.6227342107    2.4579298050   -1.5835110551
   Point Group: c1    Number of degrees of freedom:    39


   Energy is   -346.115350245

 Hessian updated using BFGS update

 36 Hessian modes will be used to form the next step
  Hessian Eigenvalues:
     0.019806    0.020262    0.020628    0.021194    0.021597    0.021637
     0.022047    0.022404    0.022906    0.023031    0.023465    0.023597
     0.153968    0.159964    0.160000    0.162387    0.218478    0.219999
     0.221067    0.235440    0.240046    0.349223    0.351270    0.351637
     0.352337    0.353135    0.354015    0.382584    0.402157    0.424857
     0.442294    0.453997    0.463778    0.492338    0.519371    0.577496

 Minimum search - taking simple RFO step
 Searching for Lamda that Minimizes Along All modes
 Value Taken    Lamda =  -0.00000052
 Step Taken.  Stepsize is  0.001414

                             Maximum     Tolerance    Cnvgd?
         Gradient           0.000264      0.000300     YES
         Displacement       0.000747      0.001200     YES
         Energy change     -0.000004      0.000001      NO


                       Distance Matrix (Angstroms)
             C (  1)   C (  2)   C (  3)   C (  4)   C (  5)   C (  6)
   C (  2)  1.381761
   C (  3)  2.414296  1.393520
   C (  4)  2.787815  2.408576  1.396984
   C (  5)  2.429928  2.782423  2.411107  1.378116
   C (  6)  1.416966  2.428406  2.814032  2.429636  1.417398
   C (  7)  2.468511  3.721828  4.214626  3.699967  2.436221  1.400879
   H (  8)  1.080911  2.138476  3.391879  3.868721  3.412946  2.165273
   H (  9)  2.132455  1.082214  2.146793  3.389936  3.864631  3.406128
   H ( 10)  3.392159  2.152322  1.081035  2.155205  3.389147  3.895067
   H ( 11)  3.869904  3.389820  2.150690  1.082095  2.130913  3.407581
   H ( 12)  3.410850  3.865107  3.393315  2.139022  1.082690  2.161149
   H ( 13)  3.459576  4.611580  4.874685  4.083213  2.709853  2.185693
   O ( 14)  2.828784  4.209866  5.042822  4.815709  3.678169  2.386423
   H ( 15)  3.781585  5.159940  5.932789  5.582385  4.346934  3.185899
             C (  7)   H (  8)   H (  9)   H ( 10)   H ( 11)   H ( 12)
   H (  8)  2.710799
   H (  9)  4.597079  2.453724
   H ( 10)  5.295634  4.281699  2.476252
   H ( 11)  4.565482  4.950807  4.284778  2.480640
   H ( 12)  2.649374  4.309094  4.947318  4.284352  2.457371
   H ( 13)  1.079964  3.788404  5.557364  5.938616  4.765577  2.467749
   O ( 14)  1.362082  2.512605  4.854451  6.100944  5.769947  4.006461
   H ( 15)  1.911220  3.459692  5.817944  7.002184  6.474603  4.476281
             H ( 13)   O ( 14)
   O ( 14)  2.093091
   H ( 15)  2.180694  0.963527
 
 Final energy is   -346.115350244820     


 ******************************
 **  OPTIMIZATION CONVERGED  **
 ******************************

                       Coordinates (Angstroms)
     ATOM                X               Y               Z
      1  C        -0.2096474166   -0.4093343376    0.7373346453
      2  C        -0.6107696956   -1.4691951699    1.5279415457
      3  C        -1.8079649799   -2.1365992307    1.2765577983
      4  C        -2.6102002338   -1.7248990279    0.2095586654
      5  C        -2.2278778308   -0.6699976668   -0.5905767901
      6  C        -1.0135554889    0.0195740749   -0.3478208818
      7  C        -0.6475599053    1.0898533447   -1.1742652406
      8  H         0.7210238156    0.0993818444    0.9457297132
      9  H         0.0153497815   -1.7826548627    2.3531110336
     10  H        -2.1132901039   -2.9643877186    1.9012020724
     11  H        -3.5405983795   -2.2387674917    0.0065140250
     12  H        -2.8543046015   -0.3561841665   -1.4160024933
     13  H        -1.2522520896    1.4265980783   -2.0032843656
     14  O         0.5192170176    1.7512765253   -0.9367425723
     15  H         0.6227342107    2.4579298050   -1.5835110551

Z-matrix Print:
$molecule
0 2
C 
C  1 1.400879
H  2 1.079964 1 123.011328
O  2 1.362082 1 119.467049 3 179.859824 0
H  4 0.963527 2 109.336470 1 -179.664758 0
C  1 1.416966 2 122.332705 3 -179.924717 0
H  6 1.080911 1 119.582524 2 0.037746 0
C  6 1.381761 1 120.375622 2 179.915616 0
H  8 1.082214 6 119.372713 1 -179.943426 0
C  8 1.393520 6 120.900058 1 0.033607 0
H  10 1.081035 8 120.341187 6 -179.968944 0
C  10 1.396984 8 119.340323 6 -0.000000 0
H  12 1.082095 10 119.809899 8 179.901743 0
C  12 1.378116 10 120.645804 8 -0.005396 0
H  14 1.082690 12 120.264695 10 179.989853 0
$end

 
 --------------------------------------------------------------
 
                    Orbital Energies (a.u.)
 --------------------------------------------------------------
 
 Alpha MOs
 -- Occupied --
-19.3708 -10.3981 -10.3523 -10.3424 -10.3407 -10.3402 -10.3398 -10.3376
 -1.1962  -0.9851  -0.8966  -0.8691  -0.7922  -0.7231  -0.6959  -0.6463
 -0.6282  -0.5717  -0.5470  -0.5320  -0.5319  -0.5195  -0.4795  -0.4774
 -0.4481  -0.4296  -0.3748  -0.3540  -0.2403
 -- Virtual --
  0.0235   0.0343   0.0369   0.0523   0.0551   0.0606   0.0712   0.0809
  0.0896   0.0968   0.0996   0.1130   0.1196   0.1287   0.1431   0.1461
  0.1536   0.1558   0.1614   0.1676   0.1709   0.1752   0.1826   0.1850
  0.1877   0.1909   0.2036   0.2136   0.2207   0.2257   0.2348   0.2492
  0.2578   0.2701   0.2746   0.2775   0.2881   0.2917   0.2952   0.3009
  0.3253   0.3286   0.3406   0.3524   0.3552   0.3627   0.3914   0.3941
  0.4154   0.4274   0.4331   0.4682   0.4970   0.5012   0.5368   0.5475
  0.5736   0.5882   0.5899   0.6014   0.6049   0.6103   0.6161   0.6189
  0.6281   0.6382   0.6453   0.6565   0.6711   0.6807   0.6950   0.7151
  0.7161   0.7397   0.7431   0.7432   0.7466   0.7564   0.7589   0.7669
  0.7726   0.7928   0.8136   0.8248   0.8362   0.8395   0.8411   0.8491
  0.8702   0.8873   0.8917   0.8962   0.9021   0.9109   0.9337   0.9663
  1.0214   1.0328   1.0403   1.0483   1.0892   1.1023   1.1027   1.1171
  1.1260   1.1303   1.1586   1.1750   1.1855   1.2012   1.2152   1.2174
  1.2557   1.2613   1.2670   1.3128   1.3267   1.3630   1.3671   1.3960
  1.4030   1.4087   1.4259   1.4412   1.4548   1.4673   1.4735   1.4859
  1.4872   1.4950   1.5350   1.5724   1.5768   1.5901   1.6149   1.6779
  1.6985   1.7087   1.7694   1.7813   1.8006   1.8036   1.8182   1.8642
  1.8979   1.9169   1.9553   1.9853   2.0603   2.0828   2.1017   2.1217
  2.2187   2.3537   2.4107   2.4448   2.5722   2.6009   2.6267   2.6301
  2.6390   2.7272   2.7292   2.7542   2.7777   2.7938   2.8085   2.8163
  2.8355   2.8371   2.8383   2.8672   2.8721   2.8845   2.9088   2.9156
  2.9255   2.9282   2.9350   2.9457   2.9643   2.9847   3.0005   3.0206
  3.0382   3.0618   3.1008   3.1403   3.1414   3.1746   3.1947   3.1950
  3.2124   3.2324   3.2384   3.2446   3.2728   3.2741   3.2894   3.2922
  3.3153   3.3331   3.3562   3.3678   3.3974   3.4240   3.4263   3.4424
  3.4650   3.4705   3.4802   3.4971   3.5144   3.5302   3.5315   3.5430
  3.5575   3.5887   3.6034   3.6310   3.6414   3.6709   3.6804   3.7295
  3.7690   3.7748   3.8079   3.8107   3.8305   3.8416   3.8890   3.9030
  3.9329   3.9361   3.9396   3.9585   3.9626   3.9748   4.0001   4.0712
  4.0785   4.1229   4.1319   4.1443   4.1695   4.1901   4.2109   4.2242
  4.2620   4.2919   4.3264   4.3655   4.4151   4.4289   4.4541   4.4615
  4.4956   4.5056   4.5155   4.5234   4.5386   4.5741   4.5917   4.5944
  4.6151   4.6725   4.7261   4.7402   4.8060   4.8160   4.8173   4.9271
  5.0350   5.0421   5.1591   5.1686   5.1762   5.2130   5.2227   5.2510
  5.3088   5.3447   5.4241   5.4836   5.5035   5.6017   5.6518   5.7761
  5.8017   5.8647   5.8908   5.8974   5.9017   6.0178   6.2758   6.3822
  6.6383   6.8064   7.0288   7.2448   7.3403   7.3733   7.7247   7.8037
 24.2488  24.7983  24.8182  24.9040  25.0924  25.1053  25.5106  50.5996
 
 Beta MOs
 -- Occupied --
-19.3672 -10.3887 -10.3546 -10.3420 -10.3413 -10.3394 -10.3373 -10.3343
 -1.1877  -0.9823  -0.8903  -0.8665  -0.7779  -0.7209  -0.6918  -0.6391
 -0.6245  -0.5669  -0.5448  -0.5297  -0.5182  -0.5062  -0.4724  -0.4652
 -0.4450  -0.4283  -0.3478  -0.3429
 -- Virtual --
  0.0035   0.0231   0.0340   0.0367   0.0521   0.0549   0.0650   0.0737
  0.0806   0.0894   0.0996   0.1043   0.1191   0.1283   0.1340   0.1433
  0.1460   0.1553   0.1562   0.1614   0.1674   0.1711   0.1768   0.1822
  0.1860   0.1879   0.1957   0.2033   0.2130   0.2204   0.2261   0.2334
  0.2497   0.2584   0.2708   0.2778   0.2841   0.2886   0.2947   0.2974
  0.3012   0.3276   0.3342   0.3424   0.3535   0.3563   0.3648   0.3946
  0.3960   0.4165   0.4287   0.4341   0.4720   0.4994   0.5063   0.5430
  0.5508   0.5750   0.5910   0.6010   0.6036   0.6077   0.6171   0.6213
  0.6231   0.6325   0.6445   0.6470   0.6600   0.6770   0.6824   0.6979
  0.7180   0.7206   0.7423   0.7438   0.7452   0.7487   0.7582   0.7633
  0.7704   0.7759   0.7956   0.8210   0.8326   0.8376   0.8399   0.8444
  0.8515   0.8759   0.8885   0.8933   0.8996   0.9040   0.9201   0.9359
  0.9679   1.0222   1.0364   1.0413   1.0488   1.0921   1.1039   1.1067
  1.1193   1.1285   1.1314   1.1628   1.1802   1.1877   1.2014   1.2182
  1.2212   1.2564   1.2616   1.2747   1.3148   1.3289   1.3651   1.3709
  1.3972   1.4055   1.4137   1.4277   1.4427   1.4569   1.4726   1.4770
  1.4898   1.4903   1.4968   1.5405   1.5739   1.5795   1.5939   1.6192
  1.6834   1.7026   1.7136   1.7754   1.7859   1.8022   1.8105   1.8244
  1.8683   1.9037   1.9238   1.9573   1.9977   2.0640   2.0856   2.1043
  2.1250   2.2252   2.3579   2.4137   2.4547   2.5790   2.6031   2.6286
  2.6418   2.6545   2.7353   2.7420   2.7610   2.7967   2.8089   2.8134
  2.8184   2.8400   2.8486   2.8713   2.8779   2.8812   2.8911   2.9178
  2.9255   2.9334   2.9368   2.9451   2.9611   2.9690   2.9985   3.0062
  3.0283   3.0437   3.0731   3.1094   3.1564   3.1678   3.1821   3.2012
  3.2117   3.2202   3.2429   3.2432   3.2529   3.2852   3.2902   3.2953
  3.3002   3.3223   3.3557   3.3631   3.3849   3.4100   3.4321   3.4478
  3.4531   3.4777   3.4862   3.4894   3.5077   3.5215   3.5372   3.5540
  3.5583   3.5665   3.5921   3.6210   3.6407   3.6519   3.6845   3.6878
  3.7412   3.7747   3.7866   3.8187   3.8241   3.8379   3.8483   3.8938
  3.9072   3.9403   3.9437   3.9477   3.9668   3.9715   3.9808   4.0089
  4.0742   4.0890   4.1277   4.1396   4.1473   4.1801   4.1936   4.2172
  4.2312   4.2878   4.3077   4.3307   4.3713   4.4211   4.4347   4.4588
  4.4688   4.5035   4.5146   4.5280   4.5306   4.5485   4.5820   4.5991
  4.6005   4.6266   4.6770   4.7380   4.7451   4.8119   4.8213   4.8252
  4.9343   5.0498   5.0564   5.1658   5.1748   5.1954   5.2184   5.2306
  5.2628   5.3192   5.3543   5.4332   5.4903   5.5178   5.6139   5.6612
  5.7828   5.8093   5.8779   5.8989   5.9122   5.9273   6.0269   6.2844
  6.3904   6.6433   6.8150   7.0452   7.2599   7.3479   7.3859   7.7319
  7.8084  24.2495  24.7989  24.8200  24.9085  25.0940  25.1091  25.5118
 50.6027
 --------------------------------------------------------------
 
          Ground-State Mulliken Net Atomic Charges

     Atom                 Charge (a.u.)    Spin (a.u.)
  --------------------------------------------------------
      1 C                    -0.027283       0.206431
      2 C                    -0.345779      -0.103396
      3 C                    -0.378432       0.233453
      4 C                    -0.396794      -0.091714
      5 C                    -0.717953       0.208865
      6 C                     0.599810      -0.132130
      7 C                    -0.371749       0.619364
      8 H                     0.271011      -0.005307
      9 H                     0.280446       0.002611
     10 H                     0.276739      -0.005414
     11 H                     0.280425       0.002377
     12 H                     0.260665      -0.004467
     13 H                     0.276055      -0.015649
     14 O                    -0.351371       0.087263
     15 H                     0.344211      -0.002286
  --------------------------------------------------------
  Sum of atomic charges =    -0.000000
  Sum of spin   charges =     1.000000

 -----------------------------------------------------------------
                    Cartesian Multipole Moments
 -----------------------------------------------------------------
    Charge (ESU x 10^10)
                -0.0000
    Dipole Moment (Debye)
         X      -0.3826      Y       1.9920      Z      -2.3594
       Tot       3.1115
    Quadrupole Moments (Debye-Ang)
        XX     -45.5854     XY       2.1797     YY     -41.3406
        XZ       3.5326     YZ      -9.5643     ZZ     -41.4916
    Octopole Moments (Debye-Ang^2)
       XXX     145.1577    XXY      12.9572    XYY      48.3764
       YYY      82.7532    XXZ     -13.4217    XYZ       1.7743
       YYZ     -13.8685    XZZ      52.4187    YZZ      31.0179
       ZZZ     -21.8925
    Hexadecapole Moments (Debye-Ang^3)
      XXXX    -682.3047   XXXY    -169.1046   XXYY    -194.2966
      XYYY    -175.6109   YYYY    -565.7473   XXXZ      55.0559
      XXYZ      45.9000   XYYZ     -10.7972   YYYZ      93.6140
      XXZZ    -174.4577   XYZZ     -66.7125   YYZZ    -114.6742
      XZZZ      39.7724   YZZZ     119.7251   ZZZZ    -340.2338
 -----------------------------------------------------------------
 Total job time:  493.71s(wall), 3830.70s(cpu) 
 Tue May  9 09:39:20 2023

        *************************************************************
        *                                                           *
        *  Thank you very much for using Q-Chem.  Have a nice day.  *
        *                                                           *
        *************************************************************


