
Running Job 1 of 1 Q_in.in
qchem Q_in.in_31131.0 /scratch/ari.fischer/qChem1517638.hpc-mn1/qchem31131/ 0
/usr/local/qchem-5.4.1/exe/qcprog.exe_s Q_in.in_31131.0 /scratch/ari.fischer/qChem1517638.hpc-mn1/qchem31131/
                  Welcome to Q-Chem
     A Quantum Leap Into The Future Of Chemistry


 Q-Chem 5.4, Q-Chem, Inc., Pleasanton, CA (2021)

 License issued to: Nanyang Technological University (site)

 E. Epifanovsky,  A. T. B. Gilbert,  Xintian Feng,  Joonho Lee,  Yuezhi Mao,  
 N. Mardirossian,  P. Pokhilko,  A. White,  M. Wormit,  M. P. Coons,  
 A. L. Dempwolff,  Zhengting Gan,  D. Hait,  P. R. Horn,  L. D. Jacobson,  
 I. Kaliman,  J. Kussmann,  A. W. Lange,  Ka Un Lao,  D. S. Levine,  Jie Liu,  
 S. C. McKenzie,  A. F. Morrison,  K. Nanda,  F. Plasser,  D. R. Rehn,  
 M. L. Vidal,  Zhi-Qiang You,  Ying Zhu,  B. Alam,  B. Albrecht,  
 A. Aldossary,  E. Alguire,  J. H. Andersen,  D. Barton,  K. Begam,  A. Behn,  
 Y. A. Bernard,  E. J. Berquist,  H. Burton,  A. Carreras,  K. Carter-Fenk,  
 R. Chakraborty,  A. D. Chien,  K. D. Closser,  V. Cofer-Shabica,  
 S. Dasgupta,  Jia Deng,  M. de Wergifosse,  M. Diedenhofen,  Hainam Do,  
 S. Ehlert,  Po-Tung Fang,  S. Fatehi,  Qingguo Feng,  T. Friedhoff,  
 J. Gayvert,  Qinghui Ge,  G. Gidofalvi,  M. Goldey,  J. Gomes,  
 C. Gonzalez-Espinoza,  S. Gulania,  A. Gunina,  M. W. D. Hanson-Heine,  
 P. H. P. Harbach,  A. W. Hauser,  M. F. Herbst,  M. Hernandez Vera,  
 M. Hodecker,  Z. C. Holden,  S. Houck,  Xunkun Huang,  Kerwin Hui,  
 B. C. Huynh,  M. Ivanov,  Hyunjun Ji,  Hanjie Jiang,  B. Kaduk,  S. Kaehler,  
 K. Khistyaev,  Jaehoon Kim,  P. Klunzinger,  Z. Koczor-Benda,  
 Joong Hoon Koh,  D. Kosenkov,  L. Koulias,  T. Kowalczyk,  C. M. Krauter,  
 K. Kue,  A. Kunitsa,  T. Kus,  A. Landau,  K. V. Lawler,  D. Lefrancois,  
 S. Lehtola,  Rain Li,  Yi-Pei Li,  Jiashu Liang,  M. Liebenthal,  
 Hung-Hsuan Lin,  You-Sheng Lin,  Fenglai Liu,  Kuan-Yu Liu,  
 M. Loipersberger,  A. Luenser,  A. Manjanath,  P. Manohar,  E. Mansoor,  
 S. F. Manzer,  Shan-Ping Mao,  A. V. Marenich,  T. Markovich,  S. Mason,  
 S. A. Maurer,  P. F. McLaughlin,  M. F. S. J. Menger,  J.-M. Mewes,  
 S. A. Mewes,  P. Morgante,  J. W. Mullinax,  K. J. Oosterbaan,  G. Paran,  
 Alexander C. Paul,  Suranjan K. Paul,  F. Pavosevic,  Zheng Pei,  S. Prager,  
 E. I. Proynov,  E. Ramos,  B. Rana,  A. E. Rask,  A. Rettig,  R. M. Richard,  
 F. Rob,  E. Rossomme,  T. Scheele,  M. Scheurer,  M. Schneider,  
 N. Sergueev,  S. M. Sharada,  W. Skomorowski,  D. W. Small,  C. J. Stein,  
 Yu-Chuan Su,  E. J. Sundstrom,  Zhen Tao,  J. Thirman,  T. Tsuchimochi,  
 N. M. Tubman,  S. P. Veccham,  O. Vydrov,  J. Wenzel,  J. Witte,  A. Yamada,  
 Kun Yao,  S. Yeganeh,  S. R. Yost,  A. Zech,  Igor Ying Zhang,  Xing Zhang,  
 Yu Zhang,  D. Zuev,  A. Aspuru-Guzik,  A. T. Bell,  N. A. Besley,  
 K. B. Bravaya,  B. R. Brooks,  D. Casanova,  Jeng-Da Chai,  S. Coriani,  
 C. J. Cramer,  A. E. DePrince, III,  R. A. DiStasio Jr.,  A. Dreuw,  
 B. D. Dunietz,  T. R. Furlani,  W. A. Goddard III,  S. Grimme,  
 S. Hammes-Schiffer,  T. Head-Gordon,  W. J. Hehre,  Chao-Ping Hsu,  
 T.-C. Jagau,  Yousung Jung,  A. Klamt,  Jing Kong,  D. S. Lambrecht,  
 WanZhen Liang,  N. J. Mayhall,  C. W. McCurdy,  J. B. Neaton,  
 C. Ochsenfeld,  J. A. Parkhill,  R. Peverati,  V. A. Rassolov,  Yihan Shao,  
 L. V. Slipchenko,  T. Stauch,  R. P. Steele,  J. E. Subotnik,  
 A. J. W. Thom,  A. Tkatchenko,  D. G. Truhlar,  T. Van Voorhis,  
 T. A. Wesolowski,  K. B. Whaley,  H. L. Woodcock III,  P. M. Zimmerman,  
 S. Faraji,  P. M. W. Gill,  M. Head-Gordon,  J. M. Herbert,  A. I. Krylov

 Additional authors for Version 5.4.1: 
 S. Kotaru,  Shaozhi Li,  Xiangyuan Li,  F. Matz,  A. Molle,  Haisheng Ren,  
 Yingli Su,  Hung-Yi Tsai,  C. Utku,  Fang Wang

 Contributors to earlier versions of Q-Chem not listed above: 
 R. D. Adamson,  B. Austin,  R. Baer,  J. Baker,  G. J. O. Beran,  
 K. Brandhorst,  S. T. Brown,  E. F. C. Byrd,  A. K. Chakraborty,  
 G. K. L. Chan,  Chun-Min Chang,  Yunqing Chen,  C.-L. Cheng,  
 Siu Hung Chien,  D. M. Chipman,  D. L. Crittenden,  H. Dachsel,  
 R. J. Doerksen,  A. D. Dutoi,  R. G. Edgar,  J. Fosso-Tande,  
 L. Fusti-Molnar,  D. Ghosh,  A. Ghysels,  A. Golubeva-Zadorozhnaya,  
 J. Gonthier,  M. S. Gordon,  S. R. Gwaltney,  G. Hawkins,  J. E. Herr,  
 A. Heyden,  S. Hirata,  E. G. Hohenstein,  G. Kedziora,  F. J. Keil,  
 C. Kelley,  Jihan Kim,  R. A. King,  R. Z. Khaliullin,  P. P. Korambath,  
 W. Kurlancheek,  A. Laurent,  A. M. Lee,  M. S. Lee,  S. V. Levchenko,  
 Ching Yeh Lin,  D. Liotard,  E. Livshits,  R. C. Lochan,  I. Lotan,  
 L. A. Martinez-Martinez,  P. E. Maslen,  N. Nair,  D. P. O'Neill,  
 D. Neuhauser,  E. Neuscamman,  C. M. Oana,  R. Olivares-Amaya,  R. Olson,  
 T. M. Perrine,  B. Peters,  P. A. Pieniazek,  A. Prociuk,  Y. M. Rhee,  
 J. Ritchie,  M. A. Rohrdanz,  E. Rosta,  N. J. Russ,  H. F. Schaefer III,  
 M. W. Schmidt,  N. E. Schultz,  S. Sharma,  N. Shenvi,  C. D. Sherrill,  
 A. C. Simmonett,  A. Sodt,  T. Stein,  D. Stuck,  K. S. Thanthiriwatte,  
 V. Vanovschi,  L. Vogt,  Tao Wang,  A. Warshel,  M. A. Watson,  
 C. F. Williams,  Q. Wu,  X. Xu,  Jun Yang,  W. Zhang,  Yan Zhao

 Please cite Q-Chem as follows:
 Y. Shao et al., Mol. Phys. 113, 184-215 (2015)
 DOI: 10.1080/00268976.2014.952696

 Q-Chem 5.4.1 for Intel X86 EM64T Linux

 Parts of Q-Chem use Armadillo 9.800.1 (Horizon Scraper).
 http://arma.sourceforge.net/

 Q-Chem begins on Tue Apr 25 17:48:17 2023  

 Host: 
0

     Scratch files written to /scratch/ari.fischer/qChem1517638.hpc-mn1/qchem31131//
 Aug1521 |scratch|qcdevops|jenkins|workspace|build_RNUM 8249   
 Processing $rem in /usr/local/qchem-5.4.1/config/preferences:
 Processing $rem in /home/ari.fischer/.qchemrc:
 Symmetry turned off for PCM/SM12/SMD calculation


!!********************************************.
!!******************Warning*******************.
!!Desired Analytical derivatives not available.
!!Finite difference job might take a long time.
!!********************************************.
!!********************************************.


 2-order derivative to be evaluated numerically with 1-order analytical derivatives

 Checking the input file for inconsistencies... 	...done.

--------------------------------------------------------------
User input:
--------------------------------------------------------------
$molecule
0 2
H         3.1711627128   -1.5681011383    0.9259192322
C         2.3163040038   -1.0192191611    0.5528821736
C         1.0845589564   -1.2021107681    1.1688172223
H         0.9805227254   -1.9045513691    1.9813108357
C         0.0001480820   -0.5163652375    0.6892742725
H        -0.9804752501   -0.6329238423    1.1289562506
C         0.1501363789    0.5353349957   -0.3271782886
C         0.1996431375    1.8931508519    0.5210247666
C         1.4443721374    0.5309714512   -1.0366130777
H         1.5298633483    1.1835538291   -1.8957550989
C         2.4979992486   -0.1713574588   -0.5664080986
H         3.4648451033   -0.1193252167   -1.0434362181
O        -0.9927926332    2.0737104114    1.2382346609
H         0.3544572491    2.6892077198   -0.2064963550
O        -0.9711997624    0.6485583694   -1.1682827165
H        -1.2053551115   -0.2895192404   -1.3565514210
H         1.0269764463    1.8554533975    1.2234251908
H        -1.7030545289    2.2411951207    0.6077979320
O        -1.0338575222   -2.0213154457   -1.1170302389
O        -2.2073009045   -2.3619213604   -0.6233517258
$end

$rem
BASIS = 6-311++G(2df,2p)
GUI = 2
JOB_TYPE = Frequency
METHOD = wB97M-V
SOLVENT_METHOD = SMD
SCF_ALGORITHM = DIIS_GDM
MAX_SCF_CYCLES = 400
SCF_CONVERGENCE = 7
THRESH = 12
UNRESTRICTED = 1
SYMMETRY_IGNORE = 1
$end
--------------------------------------------------------------
 ----------------------------------------------------------------
             Standard Nuclear Orientation (Angstroms)
    I     Atom           X                Y                Z
 ----------------------------------------------------------------
    1      H       3.1711627128    -1.5681011383     0.9259192322
    2      C       2.3163040038    -1.0192191611     0.5528821736
    3      C       1.0845589564    -1.2021107681     1.1688172223
    4      H       0.9805227254    -1.9045513691     1.9813108357
    5      C       0.0001480820    -0.5163652375     0.6892742725
    6      H      -0.9804752501    -0.6329238423     1.1289562506
    7      C       0.1501363789     0.5353349957    -0.3271782886
    8      C       0.1996431375     1.8931508519     0.5210247666
    9      C       1.4443721374     0.5309714512    -1.0366130777
   10      H       1.5298633483     1.1835538291    -1.8957550989
   11      C       2.4979992486    -0.1713574588    -0.5664080986
   12      H       3.4648451033    -0.1193252167    -1.0434362181
   13      O      -0.9927926332     2.0737104114     1.2382346609
   14      H       0.3544572491     2.6892077198    -0.2064963550
   15      O      -0.9711997624     0.6485583694    -1.1682827165
   16      H      -1.2053551115    -0.2895192404    -1.3565514210
   17      H       1.0269764463     1.8554533975     1.2234251908
   18      H      -1.7030545289     2.2411951207     0.6077979320
   19      O      -1.0338575222    -2.0213154457    -1.1170302389
   20      O      -2.2073009045    -2.3619213604    -0.6233517258
 ----------------------------------------------------------------
 Nuclear Repulsion Energy =         628.29991352 hartrees
 There are       42 alpha and       41 beta electrons
 Requested basis set is 6-311++G(2df,2p)
 There are 142 shells and 464 basis functions

 Total QAlloc Memory Limit 288000 MB
 Mega-Array Size       188 MB
 MEM_STATIC part       192 MB
 
 Citation of the SMD model:
 Marenich, A.V.; Cramer, C.J.; Truhlar, D.G.
 J. Phys. Chem. B 2009, 113, 6378-6396.
 iSolventCode=           1
 Solvent: water                                                           
 
 vradii
            1           2           3           4           5           6
    1   1.2000000   1.8500000   1.8500000   1.2000000   1.8500000   1.2000000
            7           8           9          10          11          12
    1   1.8500000   1.8500000   1.8500000   1.2000000   1.8500000   1.2000000
           13          14          15          16          17          18
    1   1.5200000   1.2000000   1.5200000   1.2000000   1.2000000   1.2000000
           19          20
    1   1.5200000   1.5200000
 Changing PCM_VDW_RADII to SMD_RADIUS
 Discretize the solute cavity surface with Lebedev spheres
	Using 110 Lebedev grid points for each H atom
	Using 194 Lebedev grid points for other atoms
	Atomic van der Waals radii will be scaled by 1.20
 Remove points where switching function is < 1.0e-08
 Keep 1529 surface tesserae and discard 1595 interior tesserae
 Molecular Surface Area = 178.819 Angst**2
 A cutoff of  1.0D-12 yielded   8993 shell pairs
 There are     95873 function pairs (    119314 Cartesian)
 Smallest overlap matrix eigenvalue = 9.02E-07
 Linear dependence detected in AO basis
 Tighter screening thresholds may be required for diffuse basis sets
 Use S2THRESH > 14 and THRESH = 14 in case of SCF convergence issues
 Number of orthogonalized atomic orbitals = 463
 Maximum deviation from orthogonality = 4.994E-11
 Guess from superposition of atomic densities
 Warning:  Energy on first SCF cycle will be non-variational
 SAD guess density has 83.000000 electrons

 -----------------------------------------------------------------------
  General SCF calculation program by
  Eric Jon Sundstrom, Paul Horn, Yuezhi Mao, Dmitri Zuev, Alec White,
  David Stuck, Shaama M.S., Shane Yost, Joonho Lee, David Small,
  Daniel Levine, Susi Lehtola, Hugh Burton, Evgeny Epifanovsky,
  Bang C. Huynh
 -----------------------------------------------------------------------
 Exchange:     0.1500 Hartree-Fock + 1.0000 wB97M-V + LR-HF
 Correlation:  1.0000 wB97M-V
 Using SG-2 standard quadrature grid
 Nonlocal Correlation:  VV10 with C = 0.0100 and b = 6.00 and scale = 1.00000
 Grid used for NLC:  SG-1 standard quadrature
 using 8 threads for integral computing
 -------------------------------------------------------
 OpenMP Integral computing Module                
 Release: version 1.0, May 2013, Q-Chem Inc. Pittsburgh 
 -------------------------------------------------------
 
 Citation of the SMD model:
 Marenich, A.V.; Cramer, C.J.; Truhlar, D.G.
 J. Phys. Chem. B 2009, 113, 6378-6396.
 iSolventCode=           1
 Solvent: water                                                           
 
 vradii
            1           2           3           4           5           6
    1   1.2000000   1.8500000   1.8500000   1.2000000   1.8500000   1.2000000
            7           8           9          10          11          12
    1   1.8500000   1.8500000   1.8500000   1.2000000   1.8500000   1.2000000
           13          14          15          16          17          18
    1   1.5200000   1.2000000   1.5200000   1.2000000   1.2000000   1.2000000
           19          20
    1   1.5200000   1.5200000
 -------------------------------------------------------
 OpenMP BLAS3 based DFT computing Module                
 Release: version 1.0, May 2013, Q-Chem Inc. Pittsburgh 
 -------------------------------------------------------
 A unrestricted SCF calculation will be
 performed using DIIS, GDM
 SCF converges when RMS gradient is below 1.0e-07
 ---------------------------------------
  Cycle       Energy         DIIS error
 ---------------------------------------
    1    -575.4705672530      1.15e-02  
    2    -572.7315501787      1.13e-03  Done DIIS. Switching to GDM
 ---------------------------------------
  Cycle       Energy        RMS Gradient
 ---------------------------------------
    1    -572.7315501787      4.47e-02   Descent step
    2    -572.8352182354      2.75e-02   Normal BFGS step
    3    -572.8517086006      2.05e-02   Normal BFGS step
    4    -572.8535968514      1.34e-02   Normal BFGS step
    5    -572.8543699846      6.48e-03   Normal BFGS step
    6    -572.8545949722      3.84e-03   Normal BFGS step
    7    -572.8546461440      1.46e-03   Normal BFGS step
    8    -572.8546569133      6.36e-04   Normal BFGS step
    9    -572.8546597010      5.83e-04   Normal BFGS step
   10    -572.8546616011      5.82e-04   Normal BFGS step
   11    -572.8546639503      5.92e-04   Normal BFGS step
   12    -572.8546661251      5.86e-04   Normal BFGS step
   13    -572.8546689242      7.69e-04   Normal BFGS step
   14    -572.8546720783      7.38e-04   Normal BFGS step
   15    -572.8546753814      6.85e-04   Normal BFGS step
   16    -572.8546784102      8.57e-04   Normal BFGS step
   17    -572.8546811524      6.78e-04   Normal BFGS step
   18    -572.8546828595      3.59e-04   Normal BFGS step
   19    -572.8546833934      9.11e-05   Normal BFGS step
   20    -572.8546834989      5.94e-05   Normal BFGS step
   21    -572.8546835304      3.54e-05   Normal BFGS step
   22    -572.8546835390      1.81e-05   Normal BFGS step
   23    -572.8546835413      6.99e-06   Normal BFGS step
   24    -572.8546835419      3.46e-06   Normal BFGS step
   25    -572.8546835419      1.25e-06   Normal BFGS step
   26    -572.8546835419      1.01e-06   Normal BFGS step
   27    -572.8546835420      4.23e-07   Normal BFGS step
   28    -572.8546835420      2.36e-07   Normal BFGS step
   29    -572.8546835420      1.01e-07   Normal BFGS step
   30    -572.8546835421      7.29e-08  Convergence criterion met
 ---------------------------------------
 SCF time:   CPU 3632.36s  wall 460.00s 
<S^2> =          0.756168947
(3)  G-ENP(liq) elect-nuc-pol free energy of system     -572.854683542 a.u.
(4)  G-CDS(liq) cavity-dispersion-solvent structure 
     free energy                                                3.0713 kcal/mol
(6)  G-S(liq) free energy of system                     -572.849789117 a.u.
 SCF   energy in the final basis set =     -572.8497891173
 Total energy in the final basis set =     -572.8497891173
 
 --------------------------------------------------------------
 
                    Orbital Energies (a.u.)
 --------------------------------------------------------------
 
 Alpha MOs
 -- Occupied --
-19.3602 -19.3547 -19.3528 -19.3459 -10.4351 -10.4185 -10.4145 -10.4120
-10.3958 -10.3722 -10.3703  -1.2403  -1.1890  -1.1643  -1.0184  -0.9165
 -0.9085  -0.8822  -0.8147  -0.7579  -0.7430  -0.6781  -0.6464  -0.6269
 -0.6098  -0.5847  -0.5786  -0.5629  -0.5508  -0.5394  -0.5373  -0.5238
 -0.5004  -0.4858  -0.4734  -0.4673  -0.4586  -0.4177  -0.3933  -0.3813
 -0.3362  -0.3079
 -- Virtual --
 -0.0633   0.0246   0.0341   0.0365   0.0484   0.0496   0.0563   0.0578
  0.0660   0.0830   0.0842   0.0992   0.1096   0.1118   0.1306   0.1324
  0.1407   0.1432   0.1519   0.1534   0.1546   0.1586   0.1597   0.1642
  0.1730   0.1770   0.1817   0.1858   0.1965   0.1992   0.2081   0.2099
  0.2128   0.2179   0.2211   0.2279   0.2330   0.2392   0.2522   0.2616
  0.2718   0.2800   0.2898   0.2951   0.2980   0.3015   0.3050   0.3121
  0.3125   0.3198   0.3320   0.3345   0.3405   0.3508   0.3535   0.3559
  0.3612   0.3665   0.3821   0.3880   0.3892   0.3964   0.4034   0.4156
  0.4197   0.4213   0.4283   0.4358   0.4652   0.4674   0.4795   0.4943
  0.5237   0.5408   0.5542   0.5673   0.5723   0.5783   0.5862   0.5978
  0.6115   0.6201   0.6243   0.6296   0.6377   0.6537   0.6567   0.6793
  0.6820   0.7002   0.7054   0.7097   0.7119   0.7249   0.7298   0.7320
  0.7477   0.7545   0.7621   0.7808   0.7967   0.8019   0.8078   0.8139
  0.8260   0.8327   0.8413   0.8505   0.8587   0.8713   0.8851   0.8885
  0.9001   0.9304   0.9429   0.9725   1.0095   1.0339   1.0424   1.0594
  1.0643   1.0744   1.0984   1.1048   1.1146   1.1296   1.1365   1.1434
  1.1562   1.1733   1.1861   1.1913   1.1947   1.2119   1.2262   1.2314
  1.2398   1.2456   1.2658   1.2721   1.2854   1.2944   1.2982   1.3131
  1.3150   1.3411   1.3540   1.3631   1.3646   1.3756   1.3848   1.3876
  1.3957   1.4115   1.4160   1.4343   1.4389   1.4463   1.4615   1.4672
  1.4803   1.4869   1.4905   1.5160   1.5248   1.5448   1.5478   1.5638
  1.5682   1.5810   1.5982   1.6055   1.6190   1.6444   1.6556   1.6739
  1.6853   1.6959   1.7217   1.7526   1.7580   1.7691   1.7849   1.8006
  1.8099   1.8412   1.8720   1.9061   1.9195   1.9415   1.9700   2.0400
  2.0485   2.0715   2.0952   2.1109   2.1347   2.2108   2.2451   2.2602
  2.2822   2.3355   2.3673   2.3910   2.4047   2.4669   2.4867   2.5317
  2.5923   2.6172   2.6210   2.6472   2.6813   2.7015   2.7124   2.7286
  2.7581   2.7834   2.7952   2.8043   2.8133   2.8363   2.8430   2.8542
  2.8755   2.8870   2.8990   2.9067   2.9176   2.9399   2.9417   2.9661
  2.9684   2.9790   3.0098   3.0358   3.0502   3.0691   3.0849   3.1282
  3.1461   3.1735   3.1801   3.1981   3.2088   3.2223   3.2304   3.2631
  3.2767   3.2783   3.2943   3.3073   3.3237   3.3393   3.3720   3.3779
  3.3938   3.4139   3.4245   3.4410   3.4488   3.4540   3.4708   3.4872
  3.5046   3.5193   3.5290   3.5570   3.5685   3.5767   3.6241   3.6383
  3.6640   3.6673   3.6926   3.7147   3.7344   3.7671   3.7753   3.8072
  3.8094   3.8305   3.8352   3.8427   3.8678   3.8705   3.8923   3.9261
  3.9340   3.9582   3.9724   3.9969   4.0087   4.0175   4.0305   4.0382
  4.0563   4.0927   4.1140   4.1344   4.1538   4.1851   4.1880   4.2007
  4.2335   4.2457   4.2536   4.2994   4.3176   4.3299   4.3450   4.3693
  4.4054   4.4140   4.4359   4.4458   4.4745   4.4775   4.5105   4.5294
  4.5490   4.5714   4.5746   4.5897   4.6147   4.6177   4.6362   4.6472
  4.6912   4.6980   4.7110   4.7316   4.7609   4.7766   4.7893   4.8035
  4.8497   4.8715   4.9570   5.0587   5.0780   5.1057   5.1112   5.1252
  5.1358   5.1375   5.1812   5.2236   5.2382   5.2420   5.2573   5.2702
  5.2847   5.2973   5.3034   5.3161   5.3505   5.3648   5.3770   5.4059
  5.4198   5.4582   5.4791   5.5032   5.5526   5.5923   5.6096   5.6258
  5.6346   5.6600   5.6827   5.7032   5.7239   5.7646   5.7813   5.8337
  5.8998   5.9263   5.9891   6.0624   6.1080   6.2287   6.4405   6.4714
  6.5067   6.6748   6.7263   6.8419   6.8680   6.9618   6.9809   7.0706
  7.1056   7.1397   7.1843   7.1974   7.2869   7.3139   7.3683   7.3739
  7.4271   7.4519   7.4872   7.5249   7.6581   7.7703   7.7862   7.8948
  7.9839   8.0456  24.2522  24.6144  24.6841  24.8182  24.8644  25.0754
 25.3998  50.4588  50.5493  50.5988  50.7015
 
 Beta MOs
 -- Occupied --
-19.3528 -19.3466 -19.3458 -19.3394 -10.4351 -10.4185 -10.4145 -10.4122
-10.3957 -10.3721 -10.3702  -1.2117  -1.1885  -1.1641  -1.0184  -0.9162
 -0.9085  -0.8411  -0.8139  -0.7579  -0.7429  -0.6776  -0.6463  -0.6264
 -0.6095  -0.5837  -0.5776  -0.5620  -0.5465  -0.5224  -0.5151  -0.4919
 -0.4864  -0.4770  -0.4670  -0.4580  -0.4534  -0.4166  -0.3925  -0.3776
 -0.2875
 -- Virtual --
 -0.0646   0.0181   0.0256   0.0347   0.0367   0.0485   0.0509   0.0571
  0.0580   0.0668   0.0834   0.0845   0.0997   0.1098   0.1124   0.1309
  0.1329   0.1416   0.1440   0.1522   0.1540   0.1548   0.1591   0.1604
  0.1645   0.1731   0.1773   0.1822   0.1868   0.1972   0.2011   0.2084
  0.2102   0.2131   0.2184   0.2217   0.2296   0.2345   0.2405   0.2542
  0.2625   0.2730   0.2804   0.2913   0.2957   0.2992   0.3067   0.3084
  0.3127   0.3136   0.3203   0.3340   0.3361   0.3416   0.3513   0.3560
  0.3618   0.3635   0.3680   0.3823   0.3890   0.3901   0.3966   0.4046
  0.4167   0.4213   0.4216   0.4299   0.4362   0.4655   0.4682   0.4805
  0.4963   0.5241   0.5410   0.5543   0.5677   0.5724   0.5783   0.5862
  0.5980   0.6115   0.6203   0.6245   0.6297   0.6379   0.6538   0.6569
  0.6794   0.6821   0.7005   0.7055   0.7099   0.7124   0.7250   0.7300
  0.7323   0.7479   0.7545   0.7625   0.7811   0.7975   0.8019   0.8080
  0.8140   0.8263   0.8333   0.8417   0.8510   0.8589   0.8718   0.8855
  0.8888   0.9002   0.9315   0.9433   0.9737   1.0124   1.0351   1.0427
  1.0600   1.0668   1.0755   1.0994   1.1056   1.1171   1.1304   1.1399
  1.1450   1.1581   1.1885   1.1906   1.1936   1.2009   1.2132   1.2312
  1.2379   1.2438   1.2500   1.2673   1.2755   1.2889   1.2998   1.3013
  1.3151   1.3205   1.3415   1.3556   1.3647   1.3658   1.3764   1.3860
  1.3888   1.3975   1.4132   1.4165   1.4361   1.4466   1.4483   1.4633
  1.4687   1.4850   1.4878   1.4942   1.5181   1.5289   1.5474   1.5514
  1.5647   1.5716   1.5832   1.6010   1.6089   1.6193   1.6489   1.6629
  1.6794   1.7010   1.7055   1.7267   1.7549   1.7602   1.7707   1.7877
  1.8017   1.8124   1.8566   1.8778   1.9087   1.9287   1.9426   1.9704
  2.0403   2.0487   2.0721   2.0959   2.1116   2.1400   2.2212   2.2497
  2.2671   2.2840   2.3588   2.3704   2.3949   2.4049   2.4706   2.4887
  2.5328   2.5924   2.6176   2.6215   2.6473   2.6814   2.7034   2.7147
  2.7324   2.7581   2.7843   2.7954   2.8048   2.8136   2.8365   2.8431
  2.8546   2.8756   2.8871   2.8992   2.9068   2.9178   2.9400   2.9419
  2.9662   2.9685   2.9791   3.0100   3.0358   3.0498   3.0691   3.0851
  3.1282   3.1460   3.1736   3.1801   3.1980   3.2088   3.2223   3.2304
  3.2631   3.2768   3.2783   3.2944   3.3073   3.3238   3.3393   3.3720
  3.3779   3.3937   3.4139   3.4246   3.4411   3.4490   3.4539   3.4708
  3.4873   3.5046   3.5195   3.5291   3.5571   3.5685   3.5767   3.6240
  3.6382   3.6641   3.6673   3.6928   3.7147   3.7343   3.7671   3.7753
  3.8072   3.8095   3.8305   3.8353   3.8426   3.8678   3.8706   3.8923
  3.9261   3.9340   3.9581   3.9723   3.9968   4.0087   4.0176   4.0305
  4.0382   4.0563   4.0927   4.1140   4.1345   4.1538   4.1851   4.1880
  4.2007   4.2336   4.2458   4.2537   4.2994   4.3177   4.3299   4.3449
  4.3693   4.4056   4.4141   4.4363   4.4459   4.4745   4.4776   4.5111
  4.5298   4.5492   4.5717   4.5754   4.5904   4.6162   4.6356   4.6492
  4.6524   4.6941   4.7001   4.7115   4.7325   4.7614   4.7885   4.8075
  4.8277   4.8596   4.8726   4.9571   5.0597   5.0873   5.1161   5.1341
  5.1439   5.1641   5.1978   5.2141   5.2480   5.2561   5.2674   5.2713
  5.2855   5.2984   5.3147   5.3245   5.3305   5.3542   5.3791   5.3885
  5.4128   5.4287   5.4592   5.4812   5.5062   5.5526   5.5932   5.6125
  5.6516   5.6590   5.6641   5.6830   5.7033   5.7239   5.7652   5.7814
  5.8337   5.8999   5.9264   5.9895   6.0624   6.1082   6.2288   6.4407
  6.5174   6.5184   6.6750   6.7276   6.9109   6.9386   7.0087   7.0425
  7.0938   7.1203   7.1894   7.1908   7.2259   7.2872   7.3147   7.3700
  7.3760   7.4478   7.4817   7.4993   7.5334   7.6582   7.7732   7.7865
  7.8955   8.0011   8.0637  24.2522  24.6144  24.6841  24.8182  24.8644
 25.0754  25.3998  50.4700  50.5597  50.5989  50.7017
 --------------------------------------------------------------
 
          Ground-State Mulliken Net Atomic Charges

     Atom                 Charge (a.u.)    Spin (a.u.)
  --------------------------------------------------------
      1 H                     0.306689      -0.000193
      2 C                    -0.070912      -0.005849
      3 C                    -0.499710       0.009554
      4 H                     0.303165       0.000918
      5 C                     0.034105      -0.000066
      6 H                     0.382395      -0.000001
      7 C                     0.338188      -0.013776
      8 C                    -0.606390       0.001527
      9 C                     0.026452       0.000057
     10 H                     0.351747       0.000075
     11 C                    -0.491069       0.006703
     12 H                     0.296347       0.000107
     13 O                    -0.375051       0.000073
     14 H                     0.253286       0.000076
     15 O                    -0.400556       0.001339
     16 H                     0.316252      -0.000184
     17 H                     0.259896       0.000007
     18 H                     0.351115      -0.000032
     19 O                    -0.336273       0.458939
     20 O                    -0.439678       0.540727
  --------------------------------------------------------
  Sum of atomic charges =    -0.000000
  Sum of spin   charges =     1.000000

 -----------------------------------------------------------------
                    Cartesian Multipole Moments
 -----------------------------------------------------------------
    Charge (ESU x 10^10)
                -0.0000
    Dipole Moment (Debye)
         X      12.4868      Y       6.8224      Z       3.2495
       Tot      14.5954
    Quadrupole Moments (Debye-Ang)
        XX     -58.4721     XY     -16.8627     YY     -78.3273
        XZ      -3.8708     YZ     -14.6149     ZZ     -66.6608
    Octopole Moments (Debye-Ang^2)
       XXX      34.5079    XXY      29.4093    XYY      31.8563
       YYY      83.0475    XXZ      11.3556    XYZ       4.1031
       YYZ      21.0141    XZZ       4.6756    YZZ       2.9078
       ZZZ      11.9233
    Hexadecapole Moments (Debye-Ang^3)
      XXXX    -808.0387   XXXY    -164.5025   XXYY    -339.5086
      XYYY    -143.7365   YYYY    -987.4273   XXXZ     -60.8442
      XXYZ     -55.3527   XYYZ     -24.4726   YYYZ    -143.3299
      XXZZ    -207.1009   XYZZ      -6.3353   YYZZ    -237.2412
      XZZZ     -37.3399   YZZZ     -94.8875   ZZZZ    -404.8372
 -----------------------------------------------------------------
 Calculating analytic gradient of the SCF energy
 Gradient of CDS energy
            1           2           3           4           5           6
    1   0.0001645   0.0003537  -0.0001772  -0.0000198  -0.0001280  -0.0001986
    2  -0.0001058  -0.0002585  -0.0002030  -0.0001338   0.0000411   0.0000329
    3   0.0000718   0.0001981   0.0003218   0.0001547  -0.0000058  -0.0000207
            7           8           9          10          11          12
    1  -0.0019658  -0.0025390  -0.0000701  -0.0000722   0.0003818   0.0001837
    2   0.0001066   0.0014326   0.0000759   0.0001699   0.0001002   0.0000099
    3  -0.0013783   0.0021951  -0.0002815  -0.0001448  -0.0002747  -0.0000906
           13          14          15          16          17          18
    1   0.0028574  -0.0000431   0.0020545  -0.0002469   0.0000232  -0.0004666
    2  -0.0007472  -0.0001503  -0.0000980  -0.0000158  -0.0002662   0.0001917
    3  -0.0017506  -0.0003284   0.0015143  -0.0003214   0.0000308   0.0000421
           19          20
    1  -0.0001014   0.0000099
    2  -0.0000814  -0.0001008
    3   0.0000737  -0.0000055
 Gradient of SCF Energy
            1           2           3           4           5           6
    1   0.0199321  -0.0077671  -0.0067881   0.0008266  -0.0070749   0.0017750
    2  -0.0115994   0.0096880   0.0035907  -0.0093137  -0.0025486   0.0016838
    3   0.0087354  -0.0028533  -0.0014673   0.0118500  -0.0025882   0.0034681
            7           8           9          10          11          12
    1   0.0028925  -0.0235591  -0.0137869   0.0038148  -0.0045209   0.0215202
    2  -0.0040458  -0.0106536   0.0073041   0.0119054  -0.0058970   0.0011924
    3  -0.0061377  -0.0003001   0.0112741  -0.0134986   0.0059489  -0.0098647
           13          14          15          16          17          18
    1   0.0064559   0.0036266  -0.0081039   0.0060484   0.0139639  -0.0047911
    2  -0.0016551   0.0094936  -0.0069709   0.0067374   0.0001093   0.0042386
    3   0.0080089  -0.0098516  -0.0057961   0.0025889   0.0086988  -0.0059869
           19          20
    1   0.0035186  -0.0079827
    2   0.0016663  -0.0049254
    3  -0.0034081   0.0011795
 Max gradient component =       2.356E-02
 RMS gradient           =       8.409E-03
 Computing fast CPCM-SWIG gradient
 Updating gradient with PCM contributions...
 -- total gradient after adding PCM contribution --
---------------------------------------------------
  Atom         X              Y              Z     
---------------------------------------------------
   1      -0.000006       0.000026       0.000031
   2      -0.000117      -0.000116       0.000145
   3       0.000159      -0.000039      -0.000020
   4      -0.000023       0.000004      -0.000002
   5       0.000031      -0.000082       0.000174
   6      -0.000148      -0.000060      -0.000261
   7      -0.000038       0.000117       0.000079
   8       0.000056      -0.000163      -0.000075
   9       0.000141      -0.000063      -0.000125
  10       0.000002      -0.000027       0.000017
  11      -0.000087       0.000157      -0.000061
  12       0.000006      -0.000011       0.000022
  13      -0.000107       0.000036       0.000035
  14      -0.000002       0.000009       0.000004
  15       0.000124      -0.000020      -0.000414
  16      -0.000226       0.000097       0.000440
  17       0.000020       0.000012      -0.000001
  18      -0.000009      -0.000009      -0.000001
  19       0.000241       0.000162       0.000025
  20      -0.000019      -0.000030      -0.000013
---------------------------------------------------
 Number of fixed atoms: 0
 Gradient time:  CPU 365.90 s  wall 53.34 s
 ######################################################
 ######################################################
 # Starting finite difference calculation for IDERIV  #
 Finite diff step size:  1.88973e-03 a.u.
 ----------------------------------------------------------------
             Standard Nuclear Orientation (Angstroms)
    I     Atom           X                Y                Z
 ----------------------------------------------------------------
    1      H       3.1721627128    -1.5681011383     0.9259192322
    2      C       2.3163040038    -1.0192191611     0.5528821736
    3      C       1.0845589564    -1.2021107681     1.1688172223
    4      H       0.9805227254    -1.9045513691     1.9813108357
    5      C       0.0001480820    -0.5163652375     0.6892742725
    6      H      -0.9804752501    -0.6329238423     1.1289562506
    7      C       0.1501363789     0.5353349957    -0.3271782886
    8      C       0.1996431375     1.8931508519     0.5210247666
    9      C       1.4443721374     0.5309714512    -1.0366130777
   10      H       1.5298633483     1.1835538291    -1.8957550989
   11      C       2.4979992486    -0.1713574588    -0.5664080986
   12      H       3.4648451033    -0.1193252167    -1.0434362181
   13      O      -0.9927926332     2.0737104114     1.2382346609
   14      H       0.3544572491     2.6892077198    -0.2064963550
   15      O      -0.9711997624     0.6485583694    -1.1682827165
   16      H      -1.2053551115    -0.2895192404    -1.3565514210
   17      H       1.0269764463     1.8554533975     1.2234251908
   18      H      -1.7030545289     2.2411951207     0.6077979320
   19      O      -1.0338575222    -2.0213154457    -1.1170302389
   20      O      -2.2073009045    -2.3619213604    -0.6233517258
 ----------------------------------------------------------------
 Nuclear Repulsion Energy =         628.29550732 hartrees
 There are       42 alpha and       41 beta electrons
 Discretize the solute cavity surface with Lebedev spheres
	Using 110 Lebedev grid points for each H atom
	Using 194 Lebedev grid points for other atoms
	Atomic van der Waals radii will be scaled by 1.20
 Remove points where switching function is < 1.0e-08
 Keep 1529 surface tesserae and discard 1595 interior tesserae
 Molecular Surface Area = 178.824 Angst**2
 Requested basis set is 6-311++G(2df,2p)
 There are 142 shells and 464 basis functions
 A cutoff of  1.0D-12 yielded   8993 shell pairs
 There are     95873 function pairs (    119314 Cartesian)
 Smallest overlap matrix eigenvalue = 9.02E-07
 Linear dependence detected in AO basis
 Tighter screening thresholds may be required for diffuse basis sets
 Use S2THRESH > 14 and THRESH = 14 in case of SCF convergence issues
 Number of orthogonalized atomic orbitals = 463
 Maximum deviation from orthogonality = 4.356E-11
 Guess MOs from SCF MO coefficient file

 -----------------------------------------------------------------------
  General SCF calculation program by
  Eric Jon Sundstrom, Paul Horn, Yuezhi Mao, Dmitri Zuev, Alec White,
  David Stuck, Shaama M.S., Shane Yost, Joonho Lee, David Small,
  Daniel Levine, Susi Lehtola, Hugh Burton, Evgeny Epifanovsky,
  Bang C. Huynh
 -----------------------------------------------------------------------
 Exchange:     0.1500 Hartree-Fock + 1.0000 wB97M-V + LR-HF
 Correlation:  1.0000 wB97M-V
 Using SG-2 standard quadrature grid
 Nonlocal Correlation:  VV10 with C = 0.0100 and b = 6.00 and scale = 1.00000
 Grid used for NLC:  SG-1 standard quadrature
 
 Citation of the SMD model:
 Marenich, A.V.; Cramer, C.J.; Truhlar, D.G.
 J. Phys. Chem. B 2009, 113, 6378-6396.
 iSolventCode=           1
 Solvent: water                                                           
 
 vradii
            1           2           3           4           5           6
    1   1.2000000   1.8500000   1.8500000   1.2000000   1.8500000   1.2000000
            7           8           9          10          11          12
    1   1.8500000   1.8500000   1.8500000   1.2000000   1.8500000   1.2000000
           13          14          15          16          17          18
    1   1.5200000   1.2000000   1.5200000   1.2000000   1.2000000   1.2000000
           19          20
    1   1.5200000   1.5200000
 -------------------------------------------------------
 OpenMP BLAS3 based DFT computing Module                
 Release: version 1.0, May 2013, Q-Chem Inc. Pittsburgh 
 -------------------------------------------------------
 A unrestricted SCF calculation will be
 performed using Roothaan-Hall, DIIS, GDM
 SCF converges when RMS gradient is below 1.0e-07
 ---------------------------------------
  Cycle       Energy         DIIS error
 ---------------------------------------
    1    -572.7807561431      2.29e-04  Roothaan Step
 ---------------------------------------
  Cycle       Energy         DIIS error
 ---------------------------------------
    1    -572.8354235121      2.98e-04  
    2    -572.8463372478      2.99e-04  Done DIIS. Switching to GDM
 ---------------------------------------
  Cycle       Energy        RMS Gradient
 ---------------------------------------
    1    -572.8463372478      1.97e-02   Normal BFGS step
    2    -572.8480899637      3.91e-02   Normal BFGS step
    3    -572.8541277039      1.44e-02   Normal BFGS step
    4    -572.8543856640      7.18e-03   Normal BFGS step
    5    -572.8546414422      2.31e-03   Normal BFGS step
    6    -572.8546663493      9.93e-04   Normal BFGS step
    7    -572.8546777058      8.90e-04   Normal BFGS step
    8    -572.8546805136      4.86e-04   Normal BFGS step
    9    -572.8546814059      1.69e-04   Normal BFGS step
   10    -572.8546816918      1.79e-04   Normal BFGS step
   11    -572.8546818298      1.75e-04   Normal BFGS step
   12    -572.8546819496      1.68e-04   Normal BFGS step
   13    -572.8546821307      1.56e-04   Normal BFGS step
   14    -572.8546823565      1.85e-04   Normal BFGS step
   15    -572.8546825839      2.17e-04   Normal BFGS step
   16    -572.8546828210      2.37e-04   Normal BFGS step
   17    -572.8546830614      1.62e-04   Normal BFGS step
   18    -572.8546832532      1.48e-04   Normal BFGS step
   19    -572.8546833604      1.22e-04   Normal BFGS step
   20    -572.8546834061      5.50e-05   Normal BFGS step
   21    -572.8546834202      1.82e-05   Normal BFGS step
   22    -572.8546834236      8.81e-06   Normal BFGS step
   23    -572.8546834244      6.80e-06   Normal BFGS step
   24    -572.8546834246      3.17e-06   Normal BFGS step
   25    -572.8546834247      2.83e-06   Normal BFGS step
   26    -572.8546834247      3.06e-07   Normal BFGS step
   27    -572.8546834247      3.23e-07   Normal BFGS step
   28    -572.8546834247      1.30e-07   Normal BFGS step
   29    -572.8546834247      5.17e-08  Convergence criterion met
 ---------------------------------------
 SCF time:   CPU 3690.08s  wall 467.00s 
<S^2> =          0.756168818
(3)  G-ENP(liq) elect-nuc-pol free energy of system     -572.854683425 a.u.
(4)  G-CDS(liq) cavity-dispersion-solvent structure 
     free energy                                                3.0715 kcal/mol
(6)  G-S(liq) free energy of system                     -572.849788688 a.u.
 SCF   energy in the final basis set =     -572.8497886878
 Total energy in the final basis set =     -572.8497886878
 
 --------------------------------------------------------------
 
                    Orbital Energies (a.u.)
 --------------------------------------------------------------
 
 Alpha MOs
 -- Occupied --
-19.3602 -19.3547 -19.3528 -19.3459 -10.4351 -10.4185 -10.4145 -10.4120
-10.3958 -10.3722 -10.3704  -1.2403  -1.1890  -1.1643  -1.0184  -0.9165
 -0.9085  -0.8822  -0.8147  -0.7579  -0.7430  -0.6781  -0.6464  -0.6269
 -0.6098  -0.5847  -0.5786  -0.5629  -0.5508  -0.5394  -0.5373  -0.5238
 -0.5003  -0.4858  -0.4734  -0.4673  -0.4586  -0.4177  -0.3933  -0.3813
 -0.3362  -0.3079
 -- Virtual --
 -0.0633   0.0246   0.0341   0.0365   0.0484   0.0496   0.0563   0.0578
  0.0660   0.0830   0.0842   0.0992   0.1096   0.1118   0.1306   0.1324
  0.1406   0.1432   0.1519   0.1534   0.1546   0.1586   0.1597   0.1642
  0.1730   0.1770   0.1817   0.1858   0.1965   0.1992   0.2081   0.2099
  0.2128   0.2179   0.2211   0.2279   0.2330   0.2392   0.2522   0.2616
  0.2718   0.2800   0.2898   0.2951   0.2980   0.3015   0.3050   0.3121
  0.3125   0.3198   0.3320   0.3345   0.3405   0.3508   0.3535   0.3559
  0.3612   0.3665   0.3821   0.3880   0.3891   0.3963   0.4034   0.4156
  0.4197   0.4213   0.4283   0.4358   0.4652   0.4674   0.4795   0.4943
  0.5237   0.5408   0.5542   0.5673   0.5723   0.5783   0.5861   0.5978
  0.6115   0.6201   0.6243   0.6296   0.6377   0.6537   0.6567   0.6793
  0.6820   0.7002   0.7054   0.7097   0.7119   0.7249   0.7298   0.7320
  0.7477   0.7545   0.7621   0.7808   0.7967   0.8019   0.8078   0.8139
  0.8260   0.8328   0.8413   0.8505   0.8587   0.8713   0.8850   0.8884
  0.9001   0.9303   0.9429   0.9725   1.0095   1.0338   1.0423   1.0593
  1.0643   1.0744   1.0984   1.1047   1.1146   1.1296   1.1364   1.1434
  1.1562   1.1733   1.1861   1.1913   1.1947   1.2119   1.2262   1.2313
  1.2398   1.2456   1.2658   1.2721   1.2854   1.2944   1.2982   1.3130
  1.3150   1.3411   1.3540   1.3631   1.3645   1.3756   1.3847   1.3876
  1.3956   1.4114   1.4160   1.4343   1.4389   1.4463   1.4614   1.4672
  1.4803   1.4869   1.4905   1.5160   1.5247   1.5447   1.5478   1.5637
  1.5680   1.5810   1.5982   1.6055   1.6190   1.6444   1.6556   1.6739
  1.6853   1.6959   1.7217   1.7526   1.7579   1.7691   1.7848   1.8007
  1.8099   1.8412   1.8720   1.9062   1.9195   1.9415   1.9700   2.0399
  2.0484   2.0715   2.0952   2.1109   2.1347   2.2107   2.2450   2.2602
  2.2822   2.3355   2.3673   2.3910   2.4047   2.4670   2.4867   2.5317
  2.5924   2.6172   2.6211   2.6472   2.6813   2.7015   2.7125   2.7286
  2.7580   2.7834   2.7951   2.8043   2.8133   2.8363   2.8429   2.8542
  2.8755   2.8870   2.8990   2.9067   2.9176   2.9399   2.9417   2.9661
  2.9684   2.9790   3.0098   3.0358   3.0501   3.0691   3.0849   3.1282
  3.1461   3.1734   3.1801   3.1980   3.2087   3.2223   3.2305   3.2631
  3.2767   3.2783   3.2943   3.3072   3.3237   3.3392   3.3720   3.3778
  3.3938   3.4139   3.4243   3.4411   3.4488   3.4539   3.4709   3.4872
  3.5045   3.5193   3.5290   3.5570   3.5686   3.5768   3.6241   3.6383
  3.6640   3.6673   3.6926   3.7146   3.7344   3.7671   3.7752   3.8072
  3.8093   3.8304   3.8352   3.8426   3.8677   3.8705   3.8921   3.9261
  3.9338   3.9581   3.9724   3.9970   4.0086   4.0175   4.0303   4.0382
  4.0562   4.0926   4.1139   4.1344   4.1537   4.1851   4.1880   4.2002
  4.2335   4.2457   4.2535   4.2994   4.3176   4.3299   4.3449   4.3692
  4.4053   4.4139   4.4359   4.4457   4.4744   4.4775   4.5104   4.5294
  4.5490   4.5713   4.5745   4.5896   4.6146   4.6176   4.6360   4.6471
  4.6912   4.6976   4.7109   4.7316   4.7609   4.7765   4.7892   4.8034
  4.8497   4.8714   4.9569   5.0585   5.0780   5.1057   5.1112   5.1252
  5.1358   5.1374   5.1812   5.2234   5.2381   5.2420   5.2571   5.2702
  5.2847   5.2973   5.3030   5.3161   5.3505   5.3648   5.3770   5.4059
  5.4198   5.4581   5.4791   5.5031   5.5525   5.5923   5.6096   5.6258
  5.6346   5.6600   5.6827   5.7032   5.7238   5.7645   5.7810   5.8330
  5.8998   5.9261   5.9891   6.0623   6.1080   6.2282   6.4404   6.4714
  6.5067   6.6748   6.7263   6.8419   6.8680   6.9618   6.9809   7.0706
  7.1056   7.1397   7.1843   7.1974   7.2869   7.3139   7.3683   7.3739
  7.4271   7.4519   7.4872   7.5249   7.6581   7.7702   7.7862   7.8948
  7.9839   8.0456  24.2518  24.6143  24.6841  24.8178  24.8644  25.0754
 25.3996  50.4588  50.5493  50.5988  50.7015
 
 Beta MOs
 -- Occupied --
-19.3528 -19.3466 -19.3459 -19.3394 -10.4351 -10.4185 -10.4145 -10.4122
-10.3957 -10.3721 -10.3703  -1.2117  -1.1885  -1.1641  -1.0184  -0.9162
 -0.9085  -0.8411  -0.8139  -0.7579  -0.7429  -0.6776  -0.6462  -0.6264
 -0.6095  -0.5837  -0.5776  -0.5620  -0.5465  -0.5224  -0.5150  -0.4918
 -0.4864  -0.4770  -0.4670  -0.4580  -0.4534  -0.4166  -0.3925  -0.3776
 -0.2875
 -- Virtual --
 -0.0646   0.0181   0.0256   0.0347   0.0367   0.0485   0.0509   0.0571
  0.0580   0.0668   0.0834   0.0845   0.0997   0.1098   0.1124   0.1309
  0.1329   0.1416   0.1440   0.1522   0.1540   0.1548   0.1591   0.1604
  0.1645   0.1731   0.1773   0.1822   0.1868   0.1972   0.2011   0.2084
  0.2102   0.2131   0.2184   0.2217   0.2296   0.2345   0.2405   0.2542
  0.2625   0.2730   0.2804   0.2913   0.2957   0.2992   0.3067   0.3084
  0.3127   0.3136   0.3203   0.3340   0.3361   0.3416   0.3513   0.3560
  0.3618   0.3635   0.3680   0.3822   0.3890   0.3900   0.3966   0.4046
  0.4167   0.4213   0.4216   0.4299   0.4362   0.4655   0.4682   0.4805
  0.4963   0.5241   0.5410   0.5543   0.5676   0.5724   0.5783   0.5862
  0.5980   0.6115   0.6203   0.6245   0.6297   0.6379   0.6538   0.6568
  0.6794   0.6821   0.7005   0.7055   0.7099   0.7123   0.7250   0.7299
  0.7323   0.7479   0.7545   0.7625   0.7811   0.7975   0.8020   0.8080
  0.8140   0.8263   0.8334   0.8417   0.8510   0.8589   0.8718   0.8855
  0.8888   0.9002   0.9314   0.9433   0.9737   1.0123   1.0351   1.0427
  1.0600   1.0667   1.0755   1.0994   1.1056   1.1171   1.1304   1.1399
  1.1450   1.1581   1.1885   1.1906   1.1936   1.2008   1.2132   1.2312
  1.2379   1.2438   1.2500   1.2673   1.2755   1.2889   1.2997   1.3013
  1.3151   1.3204   1.3415   1.3556   1.3646   1.3658   1.3764   1.3859
  1.3888   1.3974   1.4131   1.4165   1.4360   1.4466   1.4483   1.4633
  1.4686   1.4850   1.4878   1.4942   1.5181   1.5288   1.5473   1.5514
  1.5647   1.5715   1.5832   1.6010   1.6089   1.6193   1.6489   1.6629
  1.6794   1.7010   1.7055   1.7267   1.7549   1.7602   1.7707   1.7876
  1.8018   1.8124   1.8566   1.8778   1.9087   1.9287   1.9425   1.9703
  2.0403   2.0486   2.0721   2.0959   2.1116   2.1400   2.2212   2.2497
  2.2671   2.2840   2.3588   2.3704   2.3949   2.4049   2.4706   2.4887
  2.5328   2.5925   2.6176   2.6216   2.6474   2.6814   2.7034   2.7147
  2.7324   2.7580   2.7843   2.7953   2.8048   2.8136   2.8365   2.8430
  2.8546   2.8756   2.8871   2.8991   2.9068   2.9178   2.9400   2.9419
  2.9662   2.9684   2.9791   3.0100   3.0358   3.0498   3.0692   3.0851
  3.1282   3.1460   3.1735   3.1801   3.1980   3.2087   3.2223   3.2304
  3.2631   3.2768   3.2783   3.2944   3.3072   3.3238   3.3392   3.3720
  3.3778   3.3937   3.4139   3.4244   3.4411   3.4489   3.4538   3.4709
  3.4873   3.5045   3.5194   3.5291   3.5571   3.5685   3.5768   3.6240
  3.6381   3.6640   3.6673   3.6928   3.7147   3.7344   3.7671   3.7753
  3.8072   3.8093   3.8304   3.8352   3.8425   3.8678   3.8706   3.8922
  3.9262   3.9338   3.9581   3.9724   3.9969   4.0087   4.0176   4.0304
  4.0382   4.0562   4.0927   4.1140   4.1344   4.1537   4.1851   4.1880
  4.2003   4.2336   4.2459   4.2536   4.2994   4.3176   4.3299   4.3448
  4.3693   4.4055   4.4141   4.4363   4.4458   4.4744   4.4776   4.5109
  4.5298   4.5492   4.5716   4.5754   4.5902   4.6160   4.6355   4.6492
  4.6524   4.6940   4.6997   4.7114   4.7325   4.7614   4.7883   4.8074
  4.8276   4.8596   4.8725   4.9570   5.0596   5.0873   5.1161   5.1341
  5.1439   5.1640   5.1978   5.2140   5.2475   5.2560   5.2674   5.2713
  5.2855   5.2983   5.3147   5.3243   5.3305   5.3542   5.3791   5.3885
  5.4127   5.4286   5.4591   5.4811   5.5061   5.5526   5.5932   5.6125
  5.6516   5.6590   5.6641   5.6829   5.7033   5.7239   5.7651   5.7811
  5.8330   5.8998   5.9262   5.9894   6.0624   6.1082   6.2283   6.4405
  6.5174   6.5184   6.6750   6.7275   6.9109   6.9386   7.0087   7.0425
  7.0938   7.1203   7.1894   7.1908   7.2259   7.2872   7.3147   7.3700
  7.3760   7.4478   7.4817   7.4993   7.5334   7.6582   7.7732   7.7865
  7.8955   8.0011   8.0637  24.2518  24.6143  24.6841  24.8178  24.8644
 25.0754  25.3996  50.4700  50.5597  50.5989  50.7017
 --------------------------------------------------------------
 
          Ground-State Mulliken Net Atomic Charges

     Atom                 Charge (a.u.)    Spin (a.u.)
  --------------------------------------------------------
      1 H                     0.306617      -0.000192
      2 C                    -0.070798      -0.005845
      3 C                    -0.499934       0.009551
      4 H                     0.303188       0.000917
      5 C                     0.034052      -0.000067
      6 H                     0.382406      -0.000001
      7 C                     0.338195      -0.013775
      8 C                    -0.606415       0.001527
      9 C                     0.026438       0.000057
     10 H                     0.351748       0.000075
     11 C                    -0.490874       0.006700
     12 H                     0.296383       0.000107
     13 O                    -0.375050       0.000073
     14 H                     0.253286       0.000076
     15 O                    -0.400557       0.001339
     16 H                     0.316252      -0.000184
     17 H                     0.259900       0.000007
     18 H                     0.351115      -0.000032
     19 O                    -0.336272       0.458940
     20 O                    -0.439680       0.540726
  --------------------------------------------------------
  Sum of atomic charges =    -0.000000
  Sum of spin   charges =     1.000000

 -----------------------------------------------------------------
                    Cartesian Multipole Moments
 -----------------------------------------------------------------
    Charge (ESU x 10^10)
                -0.0000
    Dipole Moment (Debye)
         X      12.4873      Y       6.8226      Z       3.2493
       Tot      14.5958
    Quadrupole Moments (Debye-Ang)
        XX     -58.4685     XY     -16.8632     YY     -78.3287
        XZ      -3.8708     YZ     -14.6145     ZZ     -66.6618
    Octopole Moments (Debye-Ang^2)
       XXX      34.5238    XXY      29.4037    XYY      31.8537
       YYY      83.0529    XXZ      11.3579    XYZ       4.1029
       YYZ      21.0129    XZZ       4.6721    YZZ       2.9094
       ZZZ      11.9206
    Hexadecapole Moments (Debye-Ang^3)
      XXXX    -807.9862   XXXY    -164.5310   XXYY    -339.5116
      XYYY    -143.7222   YYYY    -987.4435   XXXZ     -60.8317
      XXYZ     -55.3578   XYYZ     -24.4749   YYYZ    -143.3255
      XXZZ    -207.1113   XYZZ      -6.3304   YYZZ    -237.2445
      XZZZ     -37.3494   YZZZ     -94.8837   ZZZZ    -404.8422
 -----------------------------------------------------------------
 Calculating analytic gradient of the SCF energy
 Gradient of CDS energy
            1           2           3           4           5           6
    1   0.0001658   0.0003522  -0.0001773  -0.0000198  -0.0001280  -0.0001986
    2  -0.0001060  -0.0002583  -0.0002028  -0.0001338   0.0000411   0.0000329
    3   0.0000716   0.0001982   0.0003217   0.0001547  -0.0000058  -0.0000207
            7           8           9          10          11          12
    1  -0.0019658  -0.0025390  -0.0000701  -0.0000722   0.0003820   0.0001837
    2   0.0001066   0.0014326   0.0000759   0.0001699   0.0001000   0.0000099
    3  -0.0013783   0.0021951  -0.0002815  -0.0001448  -0.0002745  -0.0000906
           13          14          15          16          17          18
    1   0.0028574  -0.0000431   0.0020545  -0.0002469   0.0000232  -0.0004666
    2  -0.0007472  -0.0001503  -0.0000980  -0.0000158  -0.0002662   0.0001917
    3  -0.0017506  -0.0003284   0.0015143  -0.0003214   0.0000308   0.0000421
           19          20
    1  -0.0001014   0.0000099
    2  -0.0000814  -0.0001008
    3   0.0000737  -0.0000055
 Gradient of SCF Energy
            1           2           3           4           5           6
    1   0.0204125  -0.0082151  -0.0068274   0.0008283  -0.0070897   0.0017735
    2  -0.0118235   0.0098903   0.0036222  -0.0093128  -0.0025464   0.0016843
    3   0.0088689  -0.0029878  -0.0014874   0.0118466  -0.0025803   0.0034663
            7           8           9          10          11          12
    1   0.0028958  -0.0235595  -0.0137862   0.0038153  -0.0045055   0.0215218
    2  -0.0040506  -0.0106540   0.0073054   0.0119043  -0.0059057   0.0011919
    3  -0.0061354  -0.0003001   0.0112794  -0.0134990   0.0059608  -0.0098658
           13          14          15          16          17          18
    1   0.0064560   0.0036267  -0.0081040   0.0060485   0.0139637  -0.0047911
    2  -0.0016548   0.0094936  -0.0069709   0.0067377   0.0001095   0.0042386
    3   0.0080091  -0.0098516  -0.0057966   0.0025890   0.0086987  -0.0059870
           19          20
    1   0.0035190  -0.0079824
    2   0.0016664  -0.0049255
    3  -0.0034076   0.0011795
 Max gradient component =       2.356E-02
 RMS gradient           =       8.448E-03
 Computing fast CPCM-SWIG gradient
 Updating gradient with PCM contributions...
 -- total gradient after adding PCM contribution --
---------------------------------------------------
  Atom         X              Y              Z     
---------------------------------------------------
   1       0.000460      -0.000213       0.000178
   2      -0.000568       0.000101       0.000002
   3       0.000134      -0.000010      -0.000037
   4      -0.000021       0.000003      -0.000004
   5       0.000023      -0.000081       0.000180
   6      -0.000149      -0.000059      -0.000262
   7      -0.000038       0.000116       0.000079
   8       0.000056      -0.000163      -0.000075
   9       0.000142      -0.000063      -0.000121
  10       0.000003      -0.000029       0.000017
  11      -0.000071       0.000152      -0.000053
  12       0.000007      -0.000012       0.000021
  13      -0.000107       0.000036       0.000035
  14      -0.000002       0.000009       0.000004
  15       0.000124      -0.000020      -0.000415
  16      -0.000226       0.000097       0.000440
  17       0.000020       0.000012      -0.000001
  18      -0.000009      -0.000009      -0.000001
  19       0.000241       0.000162       0.000025
  20      -0.000019      -0.000029      -0.000013
---------------------------------------------------
 Number of fixed atoms: 0
 Gradient time:  CPU 368.65 s  wall 53.08 s
 ----------------------------------------------------------------
             Standard Nuclear Orientation (Angstroms)
    I     Atom           X                Y                Z
 ----------------------------------------------------------------
    1      H       3.1701627128    -1.5681011383     0.9259192322
    2      C       2.3163040038    -1.0192191611     0.5528821736
    3      C       1.0845589564    -1.2021107681     1.1688172223
    4      H       0.9805227254    -1.9045513691     1.9813108357
    5      C       0.0001480820    -0.5163652375     0.6892742725
    6      H      -0.9804752501    -0.6329238423     1.1289562506
    7      C       0.1501363789     0.5353349957    -0.3271782886
    8      C       0.1996431375     1.8931508519     0.5210247666
    9      C       1.4443721374     0.5309714512    -1.0366130777
   10      H       1.5298633483     1.1835538291    -1.8957550989
   11      C       2.4979992486    -0.1713574588    -0.5664080986
   12      H       3.4648451033    -0.1193252167    -1.0434362181
   13      O      -0.9927926332     2.0737104114     1.2382346609
   14      H       0.3544572491     2.6892077198    -0.2064963550
   15      O      -0.9711997624     0.6485583694    -1.1682827165
   16      H      -1.2053551115    -0.2895192404    -1.3565514210
   17      H       1.0269764463     1.8554533975     1.2234251908
   18      H      -1.7030545289     2.2411951207     0.6077979320
   19      O      -1.0338575222    -2.0213154457    -1.1170302389
   20      O      -2.2073009045    -2.3619213604    -0.6233517258
 ----------------------------------------------------------------
 Nuclear Repulsion Energy =         628.30432265 hartrees
 There are       42 alpha and       41 beta electrons
 Discretize the solute cavity surface with Lebedev spheres
	Using 110 Lebedev grid points for each H atom
	Using 194 Lebedev grid points for other atoms
	Atomic van der Waals radii will be scaled by 1.20
 Remove points where switching function is < 1.0e-08
 Keep 1529 surface tesserae and discard 1595 interior tesserae
 Molecular Surface Area = 178.814 Angst**2
 Requested basis set is 6-311++G(2df,2p)
 There are 142 shells and 464 basis functions
 A cutoff of  1.0D-12 yielded   8993 shell pairs
 There are     95873 function pairs (    119314 Cartesian)
 Smallest overlap matrix eigenvalue = 9.02E-07
 Linear dependence detected in AO basis
 Tighter screening thresholds may be required for diffuse basis sets
 Use S2THRESH > 14 and THRESH = 14 in case of SCF convergence issues
 Number of orthogonalized atomic orbitals = 463
 Maximum deviation from orthogonality = 6.534E-11
 Guess MOs from SCF MO coefficient file

 -----------------------------------------------------------------------
  General SCF calculation program by
  Eric Jon Sundstrom, Paul Horn, Yuezhi Mao, Dmitri Zuev, Alec White,
  David Stuck, Shaama M.S., Shane Yost, Joonho Lee, David Small,
  Daniel Levine, Susi Lehtola, Hugh Burton, Evgeny Epifanovsky,
  Bang C. Huynh
 -----------------------------------------------------------------------
 Exchange:     0.1500 Hartree-Fock + 1.0000 wB97M-V + LR-HF
 Correlation:  1.0000 wB97M-V
 Using SG-2 standard quadrature grid
 Nonlocal Correlation:  VV10 with C = 0.0100 and b = 6.00 and scale = 1.00000
 Grid used for NLC:  SG-1 standard quadrature
 
 Citation of the SMD model:
 Marenich, A.V.; Cramer, C.J.; Truhlar, D.G.
 J. Phys. Chem. B 2009, 113, 6378-6396.
 iSolventCode=           1
 Solvent: water                                                           
 
 vradii
            1           2           3           4           5           6
    1   1.2000000   1.8500000   1.8500000   1.2000000   1.8500000   1.2000000
            7           8           9          10          11          12
    1   1.8500000   1.8500000   1.8500000   1.2000000   1.8500000   1.2000000
           13          14          15          16          17          18
    1   1.5200000   1.2000000   1.5200000   1.2000000   1.2000000   1.2000000
           19          20
    1   1.5200000   1.5200000
 -------------------------------------------------------
 OpenMP BLAS3 based DFT computing Module                
 Release: version 1.0, May 2013, Q-Chem Inc. Pittsburgh 
 -------------------------------------------------------
 A unrestricted SCF calculation will be
 performed using Roothaan-Hall, DIIS, GDM
 SCF converges when RMS gradient is below 1.0e-07
 ---------------------------------------
  Cycle       Energy         DIIS error
 ---------------------------------------
    1    -572.7807614923      2.29e-04  Roothaan Step
 ---------------------------------------
  Cycle       Energy         DIIS error
 ---------------------------------------
    1    -572.8353868614      2.99e-04  
    2    -572.8463125653      2.99e-04  Done DIIS. Switching to GDM
 ---------------------------------------
  Cycle       Energy        RMS Gradient
 ---------------------------------------
    1    -572.8463125653      1.97e-02   Normal BFGS step
    2    -572.8480709561      3.92e-02   Normal BFGS step
    3    -572.8541263632      1.45e-02   Normal BFGS step
    4    -572.8543849358      7.18e-03   Normal BFGS step
    5    -572.8546408562      2.30e-03   Normal BFGS step
    6    -572.8546656947      9.97e-04   Normal BFGS step
    7    -572.8546770695      8.90e-04   Normal BFGS step
    8    -572.8546798747      4.85e-04   Normal BFGS step
    9    -572.8546807660      1.70e-04   Normal BFGS step
   10    -572.8546810523      1.78e-04   Normal BFGS step
   11    -572.8546811896      1.74e-04   Normal BFGS step
   12    -572.8546813090      1.68e-04   Normal BFGS step
   13    -572.8546814899      1.56e-04   Normal BFGS step
   14    -572.8546817141      1.85e-04   Normal BFGS step
   15    -572.8546819399      2.16e-04   Normal BFGS step
   16    -572.8546821761      2.36e-04   Normal BFGS step
   17    -572.8546824162      1.62e-04   Normal BFGS step
   18    -572.8546826077      1.48e-04   Normal BFGS step
   19    -572.8546827148      1.22e-04   Normal BFGS step
   20    -572.8546827605      5.49e-05   Normal BFGS step
   21    -572.8546827746      1.82e-05   Normal BFGS step
   22    -572.8546827781      8.78e-06   Normal BFGS step
   23    -572.8546827788      6.84e-06   Normal BFGS step
   24    -572.8546827791      3.19e-06   Normal BFGS step
   25    -572.8546827791      2.87e-06   Normal BFGS step
   26    -572.8546827792      3.09e-07   Normal BFGS step
   27    -572.8546827792      3.17e-07   Normal BFGS step
   28    -572.8546827791      1.31e-07   Normal BFGS step
   29    -572.8546827791      5.20e-08  Convergence criterion met
 ---------------------------------------
 SCF time:   CPU 3683.63s  wall 467.00s 
<S^2> =          0.756169126
(3)  G-ENP(liq) elect-nuc-pol free energy of system     -572.854682779 a.u.
(4)  G-CDS(liq) cavity-dispersion-solvent structure 
     free energy                                                3.0711 kcal/mol
(6)  G-S(liq) free energy of system                     -572.849788664 a.u.
 SCF   energy in the final basis set =     -572.8497886640
 Total energy in the final basis set =     -572.8497886640
 
 --------------------------------------------------------------
 
                    Orbital Energies (a.u.)
 --------------------------------------------------------------
 
 Alpha MOs
 -- Occupied --
-19.3602 -19.3547 -19.3528 -19.3459 -10.4351 -10.4185 -10.4144 -10.4120
-10.3958 -10.3722 -10.3703  -1.2403  -1.1890  -1.1643  -1.0184  -0.9165
 -0.9085  -0.8822  -0.8147  -0.7579  -0.7430  -0.6781  -0.6465  -0.6269
 -0.6098  -0.5847  -0.5786  -0.5629  -0.5508  -0.5394  -0.5373  -0.5239
 -0.5004  -0.4858  -0.4734  -0.4673  -0.4586  -0.4177  -0.3933  -0.3813
 -0.3362  -0.3079
 -- Virtual --
 -0.0633   0.0246   0.0341   0.0365   0.0484   0.0496   0.0563   0.0578
  0.0660   0.0830   0.0843   0.0992   0.1096   0.1118   0.1306   0.1324
  0.1407   0.1432   0.1519   0.1534   0.1546   0.1586   0.1597   0.1642
  0.1730   0.1770   0.1817   0.1858   0.1965   0.1992   0.2081   0.2099
  0.2128   0.2179   0.2211   0.2279   0.2330   0.2392   0.2522   0.2616
  0.2718   0.2800   0.2898   0.2951   0.2980   0.3015   0.3050   0.3121
  0.3125   0.3198   0.3320   0.3345   0.3405   0.3508   0.3535   0.3559
  0.3612   0.3665   0.3821   0.3880   0.3893   0.3964   0.4034   0.4156
  0.4197   0.4213   0.4283   0.4358   0.4652   0.4674   0.4795   0.4943
  0.5237   0.5408   0.5542   0.5673   0.5723   0.5783   0.5862   0.5978
  0.6115   0.6201   0.6243   0.6296   0.6377   0.6537   0.6567   0.6793
  0.6820   0.7002   0.7054   0.7097   0.7120   0.7249   0.7298   0.7320
  0.7477   0.7545   0.7621   0.7808   0.7967   0.8019   0.8078   0.8139
  0.8260   0.8327   0.8413   0.8505   0.8587   0.8713   0.8851   0.8885
  0.9001   0.9304   0.9429   0.9726   1.0095   1.0339   1.0424   1.0594
  1.0643   1.0744   1.0984   1.1048   1.1146   1.1296   1.1365   1.1434
  1.1562   1.1733   1.1861   1.1913   1.1948   1.2119   1.2262   1.2315
  1.2398   1.2456   1.2658   1.2721   1.2854   1.2944   1.2982   1.3131
  1.3150   1.3411   1.3540   1.3631   1.3646   1.3756   1.3849   1.3876
  1.3958   1.4115   1.4161   1.4343   1.4389   1.4463   1.4615   1.4672
  1.4803   1.4869   1.4905   1.5161   1.5249   1.5448   1.5478   1.5638
  1.5683   1.5810   1.5982   1.6056   1.6190   1.6444   1.6556   1.6740
  1.6853   1.6959   1.7217   1.7526   1.7580   1.7691   1.7849   1.8005
  1.8099   1.8412   1.8720   1.9061   1.9195   1.9415   1.9701   2.0400
  2.0486   2.0715   2.0952   2.1109   2.1347   2.2108   2.2451   2.2602
  2.2822   2.3355   2.3673   2.3910   2.4047   2.4669   2.4867   2.5317
  2.5923   2.6172   2.6209   2.6471   2.6813   2.7015   2.7124   2.7286
  2.7582   2.7833   2.7952   2.8043   2.8133   2.8363   2.8430   2.8543
  2.8755   2.8870   2.8990   2.9067   2.9177   2.9399   2.9417   2.9661
  2.9684   2.9789   3.0098   3.0358   3.0502   3.0690   3.0849   3.1282
  3.1462   3.1736   3.1801   3.1981   3.2088   3.2223   3.2304   3.2631
  3.2767   3.2783   3.2942   3.3074   3.3238   3.3394   3.3720   3.3780
  3.3937   3.4139   3.4247   3.4410   3.4489   3.4540   3.4708   3.4872
  3.5047   3.5194   3.5291   3.5570   3.5685   3.5766   3.6241   3.6383
  3.6641   3.6673   3.6927   3.7147   3.7344   3.7672   3.7753   3.8072
  3.8096   3.8306   3.8353   3.8428   3.8678   3.8705   3.8924   3.9260
  3.9341   3.9582   3.9723   3.9967   4.0087   4.0175   4.0306   4.0382
  4.0564   4.0927   4.1140   4.1345   4.1540   4.1852   4.1880   4.2012
  4.2336   4.2457   4.2536   4.2994   4.3176   4.3300   4.3451   4.3693
  4.4054   4.4141   4.4359   4.4459   4.4745   4.4775   4.5107   4.5294
  4.5490   4.5715   4.5746   4.5898   4.6148   4.6178   4.6363   4.6472
  4.6912   4.6985   4.7112   4.7317   4.7609   4.7767   4.7895   4.8036
  4.8497   4.8716   4.9571   5.0588   5.0780   5.1057   5.1112   5.1253
  5.1358   5.1375   5.1812   5.2238   5.2384   5.2420   5.2575   5.2703
  5.2847   5.2974   5.3037   5.3162   5.3505   5.3648   5.3770   5.4060
  5.4199   5.4583   5.4792   5.5033   5.5526   5.5924   5.6096   5.6259
  5.6346   5.6601   5.6827   5.7032   5.7239   5.7647   5.7816   5.8343
  5.8999   5.9264   5.9891   6.0624   6.1080   6.2291   6.4407   6.4714
  6.5067   6.6748   6.7263   6.8419   6.8680   6.9618   6.9809   7.0706
  7.1056   7.1397   7.1843   7.1974   7.2869   7.3139   7.3683   7.3739
  7.4271   7.4519   7.4872   7.5249   7.6581   7.7703   7.7862   7.8948
  7.9839   8.0456  24.2527  24.6146  24.6841  24.8187  24.8645  25.0754
 25.3999  50.4588  50.5493  50.5988  50.7015
 
 Beta MOs
 -- Occupied --
-19.3528 -19.3466 -19.3458 -19.3394 -10.4351 -10.4185 -10.4144 -10.4122
-10.3957 -10.3722 -10.3702  -1.2117  -1.1885  -1.1641  -1.0184  -0.9162
 -0.9085  -0.8411  -0.8140  -0.7579  -0.7429  -0.6776  -0.6463  -0.6265
 -0.6095  -0.5837  -0.5776  -0.5620  -0.5465  -0.5225  -0.5151  -0.4919
 -0.4864  -0.4770  -0.4670  -0.4580  -0.4534  -0.4166  -0.3925  -0.3776
 -0.2875
 -- Virtual --
 -0.0646   0.0181   0.0256   0.0347   0.0367   0.0485   0.0509   0.0571
  0.0580   0.0668   0.0834   0.0845   0.0997   0.1098   0.1124   0.1309
  0.1329   0.1416   0.1440   0.1522   0.1540   0.1549   0.1591   0.1604
  0.1645   0.1731   0.1773   0.1822   0.1868   0.1972   0.2011   0.2084
  0.2102   0.2131   0.2184   0.2217   0.2296   0.2345   0.2405   0.2542
  0.2625   0.2730   0.2804   0.2913   0.2957   0.2992   0.3067   0.3085
  0.3127   0.3136   0.3203   0.3340   0.3361   0.3416   0.3513   0.3560
  0.3618   0.3635   0.3680   0.3823   0.3890   0.3901   0.3966   0.4046
  0.4167   0.4213   0.4216   0.4299   0.4362   0.4655   0.4682   0.4805
  0.4963   0.5241   0.5410   0.5543   0.5677   0.5724   0.5783   0.5863
  0.5980   0.6116   0.6203   0.6245   0.6297   0.6379   0.6538   0.6569
  0.6794   0.6821   0.7005   0.7055   0.7099   0.7124   0.7250   0.7300
  0.7323   0.7479   0.7545   0.7625   0.7811   0.7975   0.8019   0.8080
  0.8140   0.8263   0.8332   0.8417   0.8510   0.8589   0.8718   0.8855
  0.8888   0.9003   0.9315   0.9433   0.9737   1.0124   1.0352   1.0427
  1.0600   1.0668   1.0755   1.0994   1.1056   1.1171   1.1304   1.1399
  1.1450   1.1581   1.1885   1.1906   1.1936   1.2009   1.2132   1.2313
  1.2379   1.2438   1.2500   1.2673   1.2755   1.2889   1.2998   1.3013
  1.3150   1.3205   1.3415   1.3556   1.3647   1.3658   1.3764   1.3861
  1.3888   1.3977   1.4132   1.4165   1.4361   1.4466   1.4483   1.4634
  1.4687   1.4850   1.4878   1.4942   1.5181   1.5289   1.5474   1.5514
  1.5647   1.5718   1.5832   1.6010   1.6089   1.6193   1.6489   1.6630
  1.6794   1.7010   1.7055   1.7267   1.7549   1.7603   1.7707   1.7877
  1.8016   1.8124   1.8566   1.8778   1.9087   1.9287   1.9426   1.9704
  2.0404   2.0488   2.0721   2.0959   2.1116   2.1400   2.2212   2.2497
  2.2671   2.2840   2.3588   2.3704   2.3949   2.4049   2.4706   2.4887
  2.5328   2.5923   2.6176   2.6213   2.6473   2.6814   2.7035   2.7147
  2.7324   2.7583   2.7842   2.7955   2.8048   2.8136   2.8365   2.8431
  2.8546   2.8757   2.8871   2.8992   2.9068   2.9179   2.9400   2.9419
  2.9662   2.9685   2.9791   3.0100   3.0358   3.0499   3.0691   3.0852
  3.1282   3.1460   3.1736   3.1802   3.1981   3.2088   3.2223   3.2304
  3.2631   3.2768   3.2784   3.2944   3.3074   3.3239   3.3394   3.3720
  3.3780   3.3937   3.4138   3.4248   3.4410   3.4490   3.4539   3.4708
  3.4872   3.5047   3.5195   3.5291   3.5571   3.5685   3.5766   3.6240
  3.6382   3.6641   3.6673   3.6928   3.7147   3.7343   3.7671   3.7753
  3.8072   3.8097   3.8305   3.8353   3.8427   3.8678   3.8706   3.8925
  3.9261   3.9341   3.9581   3.9723   3.9967   4.0088   4.0176   4.0307
  4.0382   4.0564   4.0927   4.1140   4.1345   4.1540   4.1852   4.1880
  4.2012   4.2337   4.2458   4.2537   4.2995   4.3177   4.3300   4.3450
  4.3694   4.4057   4.4142   4.4363   4.4459   4.4745   4.4776   4.5113
  4.5298   4.5493   4.5718   4.5755   4.5905   4.6163   4.6357   4.6493
  4.6524   4.6942   4.7005   4.7116   4.7326   4.7614   4.7888   4.8075
  4.8277   4.8596   4.8727   4.9572   5.0598   5.0873   5.1161   5.1342
  5.1439   5.1641   5.1979   5.2141   5.2485   5.2563   5.2674   5.2713
  5.2856   5.2985   5.3147   5.3247   5.3305   5.3543   5.3791   5.3885
  5.4128   5.4287   5.4594   5.4813   5.5063   5.5526   5.5933   5.6126
  5.6516   5.6590   5.6642   5.6830   5.7033   5.7240   5.7653   5.7817
  5.8343   5.8999   5.9266   5.9895   6.0624   6.1083   6.2292   6.4408
  6.5174   6.5184   6.6750   6.7276   6.9109   6.9386   7.0087   7.0425
  7.0938   7.1203   7.1894   7.1908   7.2259   7.2872   7.3147   7.3700
  7.3760   7.4478   7.4817   7.4993   7.5334   7.6582   7.7732   7.7865
  7.8955   8.0011   8.0637  24.2527  24.6145  24.6841  24.8186  24.8645
 25.0754  25.4000  50.4700  50.5597  50.5989  50.7017
 --------------------------------------------------------------
 
          Ground-State Mulliken Net Atomic Charges

     Atom                 Charge (a.u.)    Spin (a.u.)
  --------------------------------------------------------
      1 H                     0.306762      -0.000194
      2 C                    -0.071026      -0.005854
      3 C                    -0.499485       0.009556
      4 H                     0.303142       0.000919
      5 C                     0.034158      -0.000065
      6 H                     0.382385      -0.000001
      7 C                     0.338180      -0.013777
      8 C                    -0.606364       0.001527
      9 C                     0.026466       0.000057
     10 H                     0.351745       0.000075
     11 C                    -0.491264       0.006705
     12 H                     0.296312       0.000107
     13 O                    -0.375051       0.000073
     14 H                     0.253287       0.000076
     15 O                    -0.400556       0.001339
     16 H                     0.316252      -0.000184
     17 H                     0.259893       0.000007
     18 H                     0.351114      -0.000032
     19 O                    -0.336273       0.458939
     20 O                    -0.439676       0.540728
  --------------------------------------------------------
  Sum of atomic charges =    -0.000000
  Sum of spin   charges =     1.000000

 -----------------------------------------------------------------
                    Cartesian Multipole Moments
 -----------------------------------------------------------------
    Charge (ESU x 10^10)
                -0.0000
    Dipole Moment (Debye)
         X      12.4864      Y       6.8221      Z       3.2497
       Tot      14.5949
    Quadrupole Moments (Debye-Ang)
        XX     -58.4756     XY     -16.8621     YY     -78.3258
        XZ      -3.8707     YZ     -14.6152     ZZ     -66.6598
    Octopole Moments (Debye-Ang^2)
       XXX      34.4921    XXY      29.4149    XYY      31.8589
       YYY      83.0420    XXZ      11.3533    XYZ       4.1033
       YYZ      21.0154    XZZ       4.6791    YZZ       2.9062
       ZZZ      11.9259
    Hexadecapole Moments (Debye-Ang^3)
      XXXX    -808.0911   XXXY    -164.4741   XXYY    -339.5056
      XYYY    -143.7507   YYYY    -987.4112   XXXZ     -60.8566
      XXYZ     -55.3475   XYYZ     -24.4702   YYYZ    -143.3343
      XXZZ    -207.0905   XYZZ      -6.3402   YYZZ    -237.2378
      XZZZ     -37.3303   YZZZ     -94.8913   ZZZZ    -404.8322
 -----------------------------------------------------------------
 Calculating analytic gradient of the SCF energy
 Gradient of CDS energy
            1           2           3           4           5           6
    1   0.0001632   0.0003553  -0.0001771  -0.0000198  -0.0001280  -0.0001986
    2  -0.0001056  -0.0002588  -0.0002031  -0.0001338   0.0000411   0.0000329
    3   0.0000719   0.0001979   0.0003219   0.0001547  -0.0000058  -0.0000207
            7           8           9          10          11          12
    1  -0.0019658  -0.0025390  -0.0000701  -0.0000722   0.0003815   0.0001837
    2   0.0001066   0.0014326   0.0000759   0.0001699   0.0001004   0.0000099
    3  -0.0013783   0.0021951  -0.0002815  -0.0001448  -0.0002748  -0.0000906
           13          14          15          16          17          18
    1   0.0028574  -0.0000431   0.0020545  -0.0002469   0.0000232  -0.0004666
    2  -0.0007472  -0.0001503  -0.0000980  -0.0000158  -0.0002662   0.0001917
    3  -0.0017506  -0.0003284   0.0015143  -0.0003214   0.0000308   0.0000421
           19          20
    1  -0.0001014   0.0000099
    2  -0.0000814  -0.0001008
    3   0.0000737  -0.0000055
 Gradient of SCF Energy
            1           2           3           4           5           6
    1   0.0194501  -0.0073175  -0.0067487   0.0008249  -0.0070601   0.0017765
    2  -0.0113739   0.0094844   0.0035591  -0.0093147  -0.0025508   0.0016833
    3   0.0086010  -0.0027178  -0.0014471   0.0118534  -0.0025961   0.0034698
            7           8           9          10          11          12
    1   0.0028890  -0.0235588  -0.0137875   0.0038143  -0.0045364   0.0215185
    2  -0.0040411  -0.0106532   0.0073029   0.0119065  -0.0058883   0.0011929
    3  -0.0061400  -0.0003002   0.0112687  -0.0134982   0.0059370  -0.0098636
           13          14          15          16          17          18
    1   0.0064559   0.0036266  -0.0081038   0.0060484   0.0139640  -0.0047910
    2  -0.0016554   0.0094935  -0.0069709   0.0067371   0.0001091   0.0042386
    3   0.0080086  -0.0098516  -0.0057957   0.0025887   0.0086988  -0.0059869
           19          20
    1   0.0035183  -0.0079830
    2   0.0016662  -0.0049253
    3  -0.0034085   0.0011796
 Max gradient component =       2.356E-02
 RMS gradient           =       8.370E-03
 Computing fast CPCM-SWIG gradient
 Updating gradient with PCM contributions...
 -- total gradient after adding PCM contribution --
---------------------------------------------------
  Atom         X              Y              Z     
---------------------------------------------------
   1      -0.000474       0.000266      -0.000118
   2       0.000337      -0.000335       0.000290
   3       0.000185      -0.000068      -0.000002
   4      -0.000025       0.000006      -0.000001
   5       0.000040      -0.000083       0.000168
   6      -0.000147      -0.000060      -0.000259
   7      -0.000039       0.000119       0.000078
   8       0.000056      -0.000163      -0.000075
   9       0.000139      -0.000062      -0.000129
  10       0.000002      -0.000026       0.000017
  11      -0.000102       0.000162      -0.000069
  12       0.000005      -0.000011       0.000024
  13      -0.000107       0.000036       0.000035
  14      -0.000002       0.000009       0.000004
  15       0.000124      -0.000020      -0.000414
  16      -0.000226       0.000097       0.000439
  17       0.000020       0.000012      -0.000001
  18      -0.000009      -0.000009      -0.000001
  19       0.000241       0.000162       0.000024
  20      -0.000020      -0.000030      -0.000012
---------------------------------------------------
 Number of fixed atoms: 0
 Gradient time:  CPU 366.17 s  wall 52.72 s
 ----------------------------------------------------------------
             Standard Nuclear Orientation (Angstroms)
    I     Atom           X                Y                Z
 ----------------------------------------------------------------
    1      H       3.1711627128    -1.5671011383     0.9259192322
    2      C       2.3163040038    -1.0192191611     0.5528821736
    3      C       1.0845589564    -1.2021107681     1.1688172223
    4      H       0.9805227254    -1.9045513691     1.9813108357
    5      C       0.0001480820    -0.5163652375     0.6892742725
    6      H      -0.9804752501    -0.6329238423     1.1289562506
    7      C       0.1501363789     0.5353349957    -0.3271782886
    8      C       0.1996431375     1.8931508519     0.5210247666
    9      C       1.4443721374     0.5309714512    -1.0366130777
   10      H       1.5298633483     1.1835538291    -1.8957550989
   11      C       2.4979992486    -0.1713574588    -0.5664080986
   12      H       3.4648451033    -0.1193252167    -1.0434362181
   13      O      -0.9927926332     2.0737104114     1.2382346609
   14      H       0.3544572491     2.6892077198    -0.2064963550
   15      O      -0.9711997624     0.6485583694    -1.1682827165
   16      H      -1.2053551115    -0.2895192404    -1.3565514210
   17      H       1.0269764463     1.8554533975     1.2234251908
   18      H      -1.7030545289     2.2411951207     0.6077979320
   19      O      -1.0338575222    -2.0213154457    -1.1170302389
   20      O      -2.2073009045    -2.3619213604    -0.6233517258
 ----------------------------------------------------------------
 Nuclear Repulsion Energy =         628.30259008 hartrees
 There are       42 alpha and       41 beta electrons
 Discretize the solute cavity surface with Lebedev spheres
	Using 110 Lebedev grid points for each H atom
	Using 194 Lebedev grid points for other atoms
	Atomic van der Waals radii will be scaled by 1.20
 Remove points where switching function is < 1.0e-08
 Keep 1529 surface tesserae and discard 1595 interior tesserae
 Molecular Surface Area = 178.816 Angst**2
 Requested basis set is 6-311++G(2df,2p)
 There are 142 shells and 464 basis functions
 A cutoff of  1.0D-12 yielded   8993 shell pairs
 There are     95873 function pairs (    119314 Cartesian)
 Smallest overlap matrix eigenvalue = 9.03E-07
 Linear dependence detected in AO basis
 Tighter screening thresholds may be required for diffuse basis sets
 Use S2THRESH > 14 and THRESH = 14 in case of SCF convergence issues
 Number of orthogonalized atomic orbitals = 463
 Maximum deviation from orthogonality = 5.997E-11
 Guess MOs from SCF MO coefficient file

 -----------------------------------------------------------------------
  General SCF calculation program by
  Eric Jon Sundstrom, Paul Horn, Yuezhi Mao, Dmitri Zuev, Alec White,
  David Stuck, Shaama M.S., Shane Yost, Joonho Lee, David Small,
  Daniel Levine, Susi Lehtola, Hugh Burton, Evgeny Epifanovsky,
  Bang C. Huynh
 -----------------------------------------------------------------------
 Exchange:     0.1500 Hartree-Fock + 1.0000 wB97M-V + LR-HF
 Correlation:  1.0000 wB97M-V
 Using SG-2 standard quadrature grid
 Nonlocal Correlation:  VV10 with C = 0.0100 and b = 6.00 and scale = 1.00000
 Grid used for NLC:  SG-1 standard quadrature
 
 Citation of the SMD model:
 Marenich, A.V.; Cramer, C.J.; Truhlar, D.G.
 J. Phys. Chem. B 2009, 113, 6378-6396.
 iSolventCode=           1
 Solvent: water                                                           
 
 vradii
            1           2           3           4           5           6
    1   1.2000000   1.8500000   1.8500000   1.2000000   1.8500000   1.2000000
            7           8           9          10          11          12
    1   1.8500000   1.8500000   1.8500000   1.2000000   1.8500000   1.2000000
           13          14          15          16          17          18
    1   1.5200000   1.2000000   1.5200000   1.2000000   1.2000000   1.2000000
           19          20
    1   1.5200000   1.5200000
 -------------------------------------------------------
 OpenMP BLAS3 based DFT computing Module                
 Release: version 1.0, May 2013, Q-Chem Inc. Pittsburgh 
 -------------------------------------------------------
 A unrestricted SCF calculation will be
 performed using Roothaan-Hall, DIIS, GDM
 SCF converges when RMS gradient is below 1.0e-07
 ---------------------------------------
  Cycle       Energy         DIIS error
 ---------------------------------------
    1    -572.7807557645      2.29e-04  Roothaan Step
 ---------------------------------------
  Cycle       Energy         DIIS error
 ---------------------------------------
[...]
 Force Cnst:      0.9617                 1.1065                 2.8562
 Red. Mass:       1.1695                 1.3166                 3.0724
 IR Active:          YES                    YES                    YES
 IR Intens:       47.344                168.489                118.075
 Raman Active:       YES                    YES                    YES
               X      Y      Z        X      Y      Z        X      Y      Z
 H         -0.134 -0.066  0.148   -0.006  0.002  0.003    0.015  0.029 -0.021
 C         -0.024  0.006  0.003   -0.004  0.002 -0.002   -0.011  0.000  0.002
 C         -0.041  0.009 -0.001   -0.010  0.002  0.003    0.007  0.012 -0.016
 H         -0.269  0.058  0.011   -0.125  0.023  0.005   -0.100  0.036 -0.014
 C          0.036 -0.023  0.024    0.005 -0.001  0.002    0.013  0.002  0.005
 H          0.178 -0.334  0.249    0.028 -0.063  0.036   -0.004  0.032 -0.033
 C         -0.010 -0.011 -0.050    0.009  0.004  0.046    0.044 -0.037  0.030
 C          0.016  0.005 -0.011   -0.050 -0.008  0.057    0.262 -0.025 -0.133
 C          0.017 -0.006  0.029    0.021 -0.003 -0.007    0.031  0.004  0.018
 H          0.457 -0.190 -0.062    0.294 -0.107 -0.058   -0.063 -0.041 -0.021
 C         -0.013  0.026 -0.036   -0.012  0.014 -0.014   -0.029  0.005  0.003
 H         -0.206  0.380 -0.383   -0.076  0.156 -0.125   -0.067  0.075 -0.057
 O         -0.024  0.007  0.020    0.083 -0.018 -0.068   -0.200  0.008  0.108
 H         -0.064  0.088  0.063    0.153 -0.282 -0.202    0.598 -0.223 -0.283
 O          0.029 -0.002  0.024   -0.032  0.007 -0.029   -0.044  0.001 -0.031
 H         -0.020  0.021 -0.021    0.070 -0.046  0.050   -0.019 -0.003 -0.020
 H          0.100 -0.081 -0.114   -0.319  0.320  0.388    0.089  0.346  0.102
 H          0.107 -0.013 -0.139   -0.330  0.043  0.434   -0.325  0.068  0.259
 O          0.008  0.003 -0.001    0.005  0.001 -0.001   -0.075 -0.022  0.028
 O         -0.007 -0.002  0.003   -0.005 -0.001  0.002    0.074  0.022 -0.031
 TransDip   0.194 -0.068 -0.078   -0.218  0.137  0.326    0.231 -0.221 -0.138

 Mode:                34                     35                     36
 Frequency:      1261.30                1276.55                1328.94
 Force Cnst:      8.2516                 1.7493                 3.1034
 Red. Mass:       8.8035                 1.8219                 2.9825
 IR Active:          YES                    YES                    YES
 IR Intens:      155.181                 36.217                185.727
 Raman Active:       YES                    YES                    YES
               X      Y      Z        X      Y      Z        X      Y      Z
 H         -0.061 -0.080  0.079   -0.064 -0.047  0.080   -0.097 -0.048  0.099
 C          0.029  0.003 -0.009   -0.001 -0.002  0.001    0.011  0.019 -0.034
 C         -0.041  0.024 -0.002    0.030 -0.002 -0.002   -0.020  0.065 -0.062
 H          0.128 -0.025 -0.023   -0.029 -0.003 -0.013   -0.342  0.161 -0.037
 C         -0.006 -0.067  0.009    0.039  0.023 -0.037    0.068 -0.085  0.066
 H          0.022 -0.020  0.075   -0.119  0.408 -0.295   -0.104  0.273 -0.251
 C          0.086  0.041 -0.075   -0.148 -0.057  0.162    0.240 -0.066  0.187
 C          0.127 -0.040 -0.068    0.012  0.046 -0.009   -0.057 -0.022 -0.051
 C         -0.033  0.004  0.008    0.016  0.029 -0.042    0.036 -0.010 -0.020
 H         -0.304  0.122  0.070    0.497 -0.151 -0.136   -0.076  0.040  0.017
 C          0.004 -0.025  0.033   -0.002  0.017 -0.027   -0.056 -0.016  0.050
 H         -0.041  0.025 -0.046    0.064 -0.051  0.091   -0.168  0.176 -0.130
 O         -0.097  0.014  0.048   -0.015 -0.015  0.014    0.027  0.008  0.020
 H          0.217 -0.072 -0.087    0.153 -0.087 -0.123   -0.087  0.336  0.334
 O         -0.032  0.026 -0.013    0.040 -0.035  0.005   -0.138  0.010 -0.103
 H          0.244 -0.138  0.197   -0.379  0.178 -0.281   -0.135  0.028 -0.109
 H          0.030  0.221  0.064    0.058 -0.160 -0.072   -0.137  0.051  0.047
 H         -0.212  0.040  0.183    0.060 -0.011 -0.074    0.273 -0.015 -0.270
 O          0.436  0.129 -0.171    0.045  0.018 -0.020    0.002  0.006 -0.000
 O         -0.432 -0.128  0.182   -0.045 -0.013  0.019   -0.002 -0.001  0.001
 TransDip   0.380  0.099  0.073   -0.139  0.105 -0.083    0.432 -0.053  0.027

 Mode:                37                     38                     39
 Frequency:      1362.01                1368.04                1402.14
 Force Cnst:      1.4608                 1.5305                 1.4241
 Red. Mass:       1.3366                 1.3880                 1.2294
 IR Active:          YES                    YES                    YES
 IR Intens:      126.926                 44.488                 52.101
 Raman Active:       YES                    YES                    YES
               X      Y      Z        X      Y      Z        X      Y      Z
 H         -0.177 -0.140  0.230   -0.121 -0.096  0.161   -0.015 -0.019  0.028
 C          0.049  0.026 -0.048    0.036  0.019 -0.035    0.006 -0.001  0.001
 C         -0.021  0.009 -0.002   -0.015  0.004 -0.000    0.004 -0.008  0.008
 H         -0.191  0.041  0.005   -0.125  0.032  0.011    0.009 -0.014  0.005
 C          0.037 -0.062  0.042    0.030 -0.041  0.034   -0.006  0.006 -0.004
 H         -0.083  0.178 -0.165   -0.065  0.136 -0.135   -0.003 -0.011  0.004
 C         -0.013 -0.034 -0.013   -0.063  0.008 -0.055   -0.040 -0.002 -0.042
 C          0.000  0.032  0.006    0.056 -0.088 -0.021   -0.042 -0.006 -0.074
 C         -0.080  0.035 -0.007   -0.062  0.019  0.007   -0.020  0.004  0.009
 H          0.248 -0.048 -0.043    0.128 -0.027 -0.012    0.054 -0.025 -0.006
 C          0.021 -0.010  0.001    0.018 -0.007 -0.000    0.005  0.010 -0.016
 H          0.104 -0.166  0.145    0.087 -0.142  0.120    0.051 -0.075  0.064
 O         -0.014 -0.001  0.004    0.002  0.020 -0.027    0.018 -0.011  0.071
 H         -0.003 -0.119 -0.154   -0.238  0.412  0.461    0.272 -0.045 -0.063
 O         -0.013  0.059 -0.014    0.038 -0.013  0.026    0.019  0.008  0.015
 H          0.531 -0.242  0.413   -0.115  0.058 -0.085    0.105 -0.042  0.071
 H          0.070 -0.274 -0.097   -0.028  0.499  0.118   -0.435  0.333  0.387
 H         -0.025 -0.004  0.013   -0.184  0.023  0.196    0.461 -0.030 -0.451
 O         -0.013 -0.010  0.010   -0.007 -0.001  0.005    0.000 -0.002  0.000
 O          0.014  0.004 -0.006    0.008  0.002 -0.003   -0.001 -0.000  0.000
 TransDip   0.351  0.067  0.050    0.124 -0.006 -0.173    0.122 -0.112 -0.161

 Mode:                40                     41                     42
 Frequency:      1437.73                1458.70                1481.27
 Force Cnst:      2.3543                 3.5106                 2.5380
 Red. Mass:       1.9331                 2.8002                 1.9632
 IR Active:          YES                    YES                    YES
 IR Intens:      117.728                634.037                189.670
 Raman Active:       YES                    YES                    YES
               X      Y      Z        X      Y      Z        X      Y      Z
 H         -0.177 -0.127  0.221    0.026  0.073 -0.089    0.148  0.003 -0.055
 C          0.012  0.007 -0.015   -0.122 -0.047  0.098    0.041 -0.057  0.054
 C          0.104 -0.026 -0.002    0.229 -0.042 -0.023   -0.114  0.012  0.022
 H         -0.405  0.090  0.041   -0.302  0.052 -0.011    0.473 -0.114 -0.008
 C         -0.069 -0.022  0.051   -0.092  0.079 -0.041   -0.001  0.067 -0.069
 H         -0.088 -0.064  0.029   -0.090  0.044 -0.009    0.177 -0.249  0.214
 C          0.138  0.095 -0.081   -0.039 -0.103  0.041    0.108 -0.061  0.075
 C         -0.027  0.014  0.032   -0.003 -0.019 -0.021    0.046 -0.013 -0.036
 C         -0.062 -0.035  0.077    0.104 -0.059  0.046   -0.097  0.012  0.036
 H          0.131 -0.081  0.078    0.061 -0.102  0.031    0.420 -0.152 -0.025
 C         -0.041  0.078 -0.080   -0.069  0.108 -0.110    0.000  0.080 -0.100
 H          0.181 -0.320  0.335    0.035 -0.070  0.090    0.208 -0.268  0.263
 O          0.001 -0.005  0.001    0.001  0.005 -0.013   -0.013  0.010  0.006
 H          0.155 -0.218 -0.188   -0.014  0.338  0.364   -0.257  0.141  0.081
 O         -0.011 -0.043  0.006   -0.018  0.046 -0.013   -0.041  0.007 -0.031
 H         -0.360  0.161 -0.281    0.471 -0.195  0.352    0.011 -0.015  0.005
 H          0.065 -0.064 -0.079    0.109  0.164 -0.134   -0.094 -0.107  0.119
 H          0.008  0.000 -0.007   -0.043 -0.003  0.040   -0.024  0.006  0.018
 O          0.004  0.005 -0.005    0.016 -0.001 -0.016    0.001  0.001  0.000
 O         -0.004 -0.001  0.002   -0.021 -0.007  0.009   -0.001 -0.000  0.000
 TransDip  -0.316 -0.054  0.135   -0.556 -0.433  0.392    0.376 -0.166  0.160

 Mode:                43                     44                     45
 Frequency:      1484.42                1582.89                1667.48
 Force Cnst:      1.5733                 5.1026                 9.7663
 Red. Mass:       1.2118                 3.4565                 5.9615
 IR Active:          YES                    YES                    YES
 IR Intens:       55.662                  7.525                187.984
 Raman Active:       YES                    YES                    YES
               X      Y      Z        X      Y      Z        X      Y      Z
 H          0.042  0.003 -0.021    0.403  0.283 -0.495    0.008 -0.176  0.170
 C          0.020 -0.007  0.003   -0.168 -0.128  0.213    0.145 -0.034 -0.005
 C         -0.055  0.011  0.005   -0.008  0.126 -0.144   -0.241  0.084 -0.021
 H          0.142 -0.033 -0.008    0.088  0.132 -0.175    0.247 -0.021 -0.059
 C          0.016  0.003 -0.009    0.107 -0.162  0.147    0.145 -0.117  0.085
 H          0.044 -0.046  0.032   -0.129  0.276 -0.285    0.016  0.184 -0.163
 C          0.017 -0.020  0.006    0.003  0.055 -0.084   -0.122  0.023 -0.060
 C         -0.103 -0.016  0.036    0.000  0.010  0.013   -0.007  0.026  0.034
 C         -0.030  0.011 -0.003   -0.094  0.019  0.022    0.337 -0.173  0.079
 H          0.077 -0.012 -0.011    0.139 -0.030 -0.003   -0.383  0.001  0.188
 C          0.012 -0.000 -0.004    0.095  0.033 -0.079   -0.279  0.215 -0.158
 H          0.032 -0.032  0.025    0.110  0.040 -0.099   -0.059 -0.235  0.328
 O          0.009 -0.008 -0.008    0.003 -0.001 -0.001    0.010 -0.005 -0.010
 H          0.651  0.009  0.204   -0.009 -0.076 -0.087   -0.014 -0.059 -0.075
 O         -0.004  0.006 -0.003    0.012 -0.002  0.007    0.014  0.010  0.015
 H          0.031 -0.014  0.023   -0.029  0.017 -0.020    0.050 -0.024  0.042
 H          0.349  0.381 -0.458   -0.010 -0.027  0.024    0.018 -0.017  0.009
 H          0.011 -0.008 -0.013    0.001  0.001  0.002   -0.006  0.001  0.015
 O         -0.002 -0.000  0.002   -0.001 -0.000  0.000   -0.002 -0.001  0.004
 O          0.002  0.001 -0.001    0.001  0.000 -0.000    0.004  0.001 -0.002
 TransDip   0.183  0.145  0.049    0.027 -0.079  0.027    0.330 -0.259  0.129

 Mode:                46                     47                     48
 Frequency:      3085.09                3169.60                3208.83
 Force Cnst:      5.9526                 6.5581                 6.6152
 Red. Mass:       1.0615                 1.1079                 1.0904
 IR Active:          YES                    YES                    YES
 IR Intens:       28.460                  8.320                  0.751
 Raman Active:       YES                    YES                    YES
               X      Y      Z        X      Y      Z        X      Y      Z
 H         -0.000 -0.000 -0.000    0.002 -0.002  0.001    0.701 -0.450  0.306
 C          0.000  0.000 -0.000   -0.000  0.000 -0.000   -0.062  0.039 -0.026
 C         -0.000 -0.000  0.000    0.000  0.000  0.000    0.001 -0.011  0.012
 H          0.000  0.001 -0.001   -0.000 -0.001  0.001    0.017  0.128 -0.148
 C          0.000  0.001 -0.000    0.000  0.000 -0.000    0.005  0.001 -0.003
 H          0.000 -0.001 -0.000   -0.003 -0.000  0.001   -0.054 -0.007  0.025
 C          0.001 -0.002  0.000   -0.000 -0.000 -0.001    0.001 -0.000 -0.000
 C         -0.038 -0.052  0.026   -0.053  0.030 -0.074    0.000 -0.000  0.001
 C         -0.001  0.001 -0.001   -0.000 -0.001  0.001   -0.002 -0.015  0.020
 H          0.000 -0.005  0.005    0.001  0.011 -0.014    0.024  0.176 -0.233
 C          0.000 -0.000  0.001    0.000  0.000 -0.000    0.021  0.000 -0.009
 H          0.001  0.000 -0.000   -0.001  0.000  0.001   -0.248 -0.012  0.121
 O          0.000 -0.000 -0.000    0.001 -0.000  0.001   -0.000  0.000  0.000
 H          0.114  0.648 -0.598   -0.062 -0.323  0.287    0.001  0.005 -0.003
 O         -0.000  0.000  0.000    0.000  0.000  0.000   -0.000  0.000 -0.000
 H          0.001  0.001  0.001    0.000 -0.002  0.000   -0.001 -0.004 -0.001
 H          0.339 -0.024  0.298    0.675 -0.029  0.586   -0.005  0.000 -0.004
 H         -0.002  0.004 -0.003   -0.004  0.000 -0.016   -0.000 -0.000  0.000
 O          0.000  0.000 -0.000    0.000 -0.000 -0.000   -0.000 -0.000  0.000
 O         -0.000 -0.000  0.000   -0.000 -0.000  0.000    0.000  0.000 -0.000
 TransDip  -0.103 -0.119  0.066   -0.062 -0.001 -0.069   -0.007  0.021 -0.016

 Mode:                49                     50                     51
 Frequency:      3213.79                3227.01                3235.66
 Force Cnst:      6.6406                 6.6920                 6.7678
 Red. Mass:       1.0912                 1.0907                 1.0972
 IR Active:          YES                    YES                    YES
 IR Intens:        0.558                  0.864                  0.857
 Raman Active:       YES                    YES                    YES
               X      Y      Z        X      Y      Z        X      Y      Z
 H          0.272 -0.175  0.119    0.124 -0.078  0.053    0.106 -0.071  0.050
 C         -0.024  0.015 -0.011   -0.012  0.006 -0.004   -0.008  0.008 -0.007
 C          0.000 -0.005  0.005    0.008  0.024 -0.029   -0.001 -0.015  0.017
 H          0.007  0.058 -0.067   -0.046 -0.294  0.342    0.023  0.164 -0.189
 C          0.004  0.000 -0.001   -0.069 -0.009  0.031   -0.015 -0.001  0.006
 H         -0.044 -0.005  0.020    0.789  0.097 -0.356    0.161  0.019 -0.072
 C         -0.002  0.000  0.000   -0.000  0.001 -0.001    0.001  0.000 -0.001
 C         -0.001  0.001 -0.001   -0.000  0.000  0.000    0.000 -0.000  0.000
 C          0.005  0.048 -0.063    0.000  0.003 -0.003    0.002 -0.018  0.022
 H         -0.073 -0.542  0.716   -0.003 -0.027  0.035    0.021  0.173 -0.228
 C         -0.014 -0.004  0.011    0.004 -0.000 -0.002   -0.073 -0.003  0.034
 H          0.201  0.013 -0.102   -0.050 -0.002  0.024    0.799  0.043 -0.394
 O          0.000 -0.000  0.000    0.000  0.000 -0.000   -0.000  0.000 -0.000
 H         -0.001 -0.011  0.007    0.000 -0.001 -0.000    0.000  0.002 -0.001
 O          0.000 -0.000  0.000    0.000 -0.000  0.000   -0.000 -0.000 -0.000
 H          0.001  0.003  0.001    0.002  0.004  0.003    0.001  0.001  0.001
 H          0.008 -0.000  0.007    0.002  0.000  0.001   -0.002  0.000 -0.002
 H          0.000  0.000 -0.000    0.000  0.000 -0.000   -0.000 -0.000 -0.000
 O         -0.000  0.000  0.000   -0.000 -0.000 -0.000   -0.000 -0.000 -0.000
 O          0.000  0.000 -0.000    0.000  0.000 -0.000   -0.000 -0.000  0.000
 TransDip  -0.023  0.006  0.006    0.002  0.007 -0.029   -0.027 -0.011  0.006

 Mode:                52                     53                     54
 Frequency:      3240.56                3342.46                3816.31
 Force Cnst:      6.7989                 7.0306                 9.1510
 Red. Mass:       1.0989                 1.0681                 1.0664
 IR Active:          YES                    YES                    YES
 IR Intens:        0.209                489.219                164.296
 Raman Active:       YES                    YES                    YES
               X      Y      Z        X      Y      Z        X      Y      Z
 H          0.161 -0.102  0.069    0.003 -0.001  0.001    0.000 -0.000  0.000
 C         -0.017  0.009 -0.005    0.001  0.001 -0.002    0.000  0.000 -0.000
 C          0.006  0.049 -0.056   -0.003  0.000 -0.000   -0.000  0.000 -0.000
 H         -0.078 -0.537  0.621    0.001 -0.003  0.003    0.000 -0.000  0.000
 C          0.038  0.002 -0.014    0.003  0.002  0.003    0.000  0.000 -0.000
 H         -0.403 -0.047  0.179   -0.005 -0.001  0.001    0.000 -0.000  0.000
 C          0.001 -0.001  0.001   -0.003 -0.003 -0.003    0.000 -0.001 -0.000
 C          0.000 -0.000  0.000    0.001  0.001  0.001   -0.001  0.001 -0.002
 C          0.000 -0.005  0.007   -0.001  0.000  0.001   -0.000  0.000  0.000
 H          0.006  0.051 -0.067   -0.000  0.002 -0.003    0.000  0.000 -0.000
 C         -0.021 -0.001  0.011    0.001 -0.001  0.001    0.000 -0.000  0.000
 H          0.232  0.013 -0.116   -0.001 -0.001  0.001    0.000  0.000  0.000
 O         -0.000 -0.000  0.000    0.000  0.000 -0.000   -0.047  0.011 -0.039
 H          0.000  0.003 -0.002   -0.001 -0.003  0.000    0.003 -0.003 -0.000
 O         -0.000  0.000 -0.000   -0.018 -0.059 -0.014    0.000  0.000 -0.000
 H         -0.002 -0.006 -0.003    0.310  0.917  0.241   -0.000 -0.001  0.000
 H         -0.002  0.000 -0.002    0.000  0.003  0.003    0.012 -0.003  0.008
 H         -0.000 -0.000 -0.000    0.002 -0.002 -0.001    0.744 -0.180  0.641
 O          0.000  0.000  0.000   -0.001  0.002 -0.002    0.000  0.000 -0.000
 O         -0.000 -0.000  0.000   -0.001 -0.001  0.001   -0.000 -0.000  0.000
 TransDip  -0.011  0.000  0.010    0.035  0.708  0.003    0.347 -0.140  0.168

 STANDARD THERMODYNAMIC QUANTITIES AT   298.15 K  AND     1.00 ATM

   This Molecule has  1 Imaginary Frequencies
   Zero point vibrational energy:       96.374 kcal/mol

   Atom    1 Element H  Has Mass    1.00783
   Atom    2 Element C  Has Mass   12.00000
   Atom    3 Element C  Has Mass   12.00000
   Atom    4 Element H  Has Mass    1.00783
   Atom    5 Element C  Has Mass   12.00000
   Atom    6 Element H  Has Mass    1.00783
   Atom    7 Element C  Has Mass   12.00000
   Atom    8 Element C  Has Mass   12.00000
   Atom    9 Element C  Has Mass   12.00000
   Atom   10 Element H  Has Mass    1.00783
   Atom   11 Element C  Has Mass   12.00000
   Atom   12 Element H  Has Mass    1.00783
   Atom   13 Element O  Has Mass   15.99491
   Atom   14 Element H  Has Mass    1.00783
   Atom   15 Element O  Has Mass   15.99491
   Atom   16 Element H  Has Mass    1.00783
   Atom   17 Element H  Has Mass    1.00783
   Atom   18 Element H  Has Mass    1.00783
   Atom   19 Element O  Has Mass   15.99491
   Atom   20 Element O  Has Mass   15.99491
   Molecular Mass:   157.050110 amu
   Principal axes and moments of inertia in amu*Bohr^2:
                             1           2           3
    Eigenvalues --     1478.94394  1795.31388  2457.65279
          X               0.65727     0.74461    -0.11643
          Y               0.70949    -0.66343    -0.23765
          Z               0.25420    -0.07359     0.96435
   Rotational Symmetry Number is   1
   The Molecule is an Asymmetric Top
   Translational Enthalpy:        0.889 kcal/mol
   Rotational Enthalpy:           0.889 kcal/mol
   Vibrational Enthalpy:        101.556 kcal/mol
   gas constant (RT):             0.592 kcal/mol
   Translational Entropy:        41.063  cal/mol.K
   Rotational Entropy:           30.257  cal/mol.K
   Vibrational Entropy:          33.436  cal/mol.K

   Total Enthalpy:              103.926 kcal/mol
   Total Entropy:               104.756  cal/mol.K
 Total job time:  62740.16s(wall), 488805.06s(cpu) 
 Wed Apr 26 11:13:58 2023

        *************************************************************
        *                                                           *
        *  Thank you very much for using Q-Chem.  Have a nice day.  *
        *                                                           *
        *************************************************************


