
Running Job 1 of 2 Q_in.in
qchem Q_in.in_69378.0 /scratch/ari.fischer/qChem1516909.hpc-mn1/qchem69378/ 0
/usr/local/qchem-5.4.1/exe/qcprog.exe_s Q_in.in_69378.0 /scratch/ari.fischer/qChem1516909.hpc-mn1/qchem69378/
                  Welcome to Q-Chem
     A Quantum Leap Into The Future Of Chemistry


 Q-Chem 5.4, Q-Chem, Inc., Pleasanton, CA (2021)

 License issued to: Nanyang Technological University (site)

 E. Epifanovsky,  A. T. B. Gilbert,  Xintian Feng,  Joonho Lee,  Yuezhi Mao,  
 N. Mardirossian,  P. Pokhilko,  A. White,  M. Wormit,  M. P. Coons,  
 A. L. Dempwolff,  Zhengting Gan,  D. Hait,  P. R. Horn,  L. D. Jacobson,  
 I. Kaliman,  J. Kussmann,  A. W. Lange,  Ka Un Lao,  D. S. Levine,  Jie Liu,  
 S. C. McKenzie,  A. F. Morrison,  K. Nanda,  F. Plasser,  D. R. Rehn,  
 M. L. Vidal,  Zhi-Qiang You,  Ying Zhu,  B. Alam,  B. Albrecht,  
 A. Aldossary,  E. Alguire,  J. H. Andersen,  D. Barton,  K. Begam,  A. Behn,  
 Y. A. Bernard,  E. J. Berquist,  H. Burton,  A. Carreras,  K. Carter-Fenk,  
 R. Chakraborty,  A. D. Chien,  K. D. Closser,  V. Cofer-Shabica,  
 S. Dasgupta,  Jia Deng,  M. de Wergifosse,  M. Diedenhofen,  Hainam Do,  
 S. Ehlert,  Po-Tung Fang,  S. Fatehi,  Qingguo Feng,  T. Friedhoff,  
 J. Gayvert,  Qinghui Ge,  G. Gidofalvi,  M. Goldey,  J. Gomes,  
 C. Gonzalez-Espinoza,  S. Gulania,  A. Gunina,  M. W. D. Hanson-Heine,  
 P. H. P. Harbach,  A. W. Hauser,  M. F. Herbst,  M. Hernandez Vera,  
 M. Hodecker,  Z. C. Holden,  S. Houck,  Xunkun Huang,  Kerwin Hui,  
 B. C. Huynh,  M. Ivanov,  Hyunjun Ji,  Hanjie Jiang,  B. Kaduk,  S. Kaehler,  
 K. Khistyaev,  Jaehoon Kim,  P. Klunzinger,  Z. Koczor-Benda,  
 Joong Hoon Koh,  D. Kosenkov,  L. Koulias,  T. Kowalczyk,  C. M. Krauter,  
 K. Kue,  A. Kunitsa,  T. Kus,  A. Landau,  K. V. Lawler,  D. Lefrancois,  
 S. Lehtola,  Rain Li,  Yi-Pei Li,  Jiashu Liang,  M. Liebenthal,  
 Hung-Hsuan Lin,  You-Sheng Lin,  Fenglai Liu,  Kuan-Yu Liu,  
 M. Loipersberger,  A. Luenser,  A. Manjanath,  P. Manohar,  E. Mansoor,  
 S. F. Manzer,  Shan-Ping Mao,  A. V. Marenich,  T. Markovich,  S. Mason,  
 S. A. Maurer,  P. F. McLaughlin,  M. F. S. J. Menger,  J.-M. Mewes,  
 S. A. Mewes,  P. Morgante,  J. W. Mullinax,  K. J. Oosterbaan,  G. Paran,  
 Alexander C. Paul,  Suranjan K. Paul,  F. Pavosevic,  Zheng Pei,  S. Prager,  
 E. I. Proynov,  E. Ramos,  B. Rana,  A. E. Rask,  A. Rettig,  R. M. Richard,  
 F. Rob,  E. Rossomme,  T. Scheele,  M. Scheurer,  M. Schneider,  
 N. Sergueev,  S. M. Sharada,  W. Skomorowski,  D. W. Small,  C. J. Stein,  
 Yu-Chuan Su,  E. J. Sundstrom,  Zhen Tao,  J. Thirman,  T. Tsuchimochi,  
 N. M. Tubman,  S. P. Veccham,  O. Vydrov,  J. Wenzel,  J. Witte,  A. Yamada,  
 Kun Yao,  S. Yeganeh,  S. R. Yost,  A. Zech,  Igor Ying Zhang,  Xing Zhang,  
 Yu Zhang,  D. Zuev,  A. Aspuru-Guzik,  A. T. Bell,  N. A. Besley,  
 K. B. Bravaya,  B. R. Brooks,  D. Casanova,  Jeng-Da Chai,  S. Coriani,  
 C. J. Cramer,  A. E. DePrince, III,  R. A. DiStasio Jr.,  A. Dreuw,  
 B. D. Dunietz,  T. R. Furlani,  W. A. Goddard III,  S. Grimme,  
 S. Hammes-Schiffer,  T. Head-Gordon,  W. J. Hehre,  Chao-Ping Hsu,  
 T.-C. Jagau,  Yousung Jung,  A. Klamt,  Jing Kong,  D. S. Lambrecht,  
 WanZhen Liang,  N. J. Mayhall,  C. W. McCurdy,  J. B. Neaton,  
 C. Ochsenfeld,  J. A. Parkhill,  R. Peverati,  V. A. Rassolov,  Yihan Shao,  
 L. V. Slipchenko,  T. Stauch,  R. P. Steele,  J. E. Subotnik,  
 A. J. W. Thom,  A. Tkatchenko,  D. G. Truhlar,  T. Van Voorhis,  
 T. A. Wesolowski,  K. B. Whaley,  H. L. Woodcock III,  P. M. Zimmerman,  
 S. Faraji,  P. M. W. Gill,  M. Head-Gordon,  J. M. Herbert,  A. I. Krylov

 Additional authors for Version 5.4.1: 
 S. Kotaru,  Shaozhi Li,  Xiangyuan Li,  F. Matz,  A. Molle,  Haisheng Ren,  
 Yingli Su,  Hung-Yi Tsai,  C. Utku,  Fang Wang

 Contributors to earlier versions of Q-Chem not listed above: 
 R. D. Adamson,  B. Austin,  R. Baer,  J. Baker,  G. J. O. Beran,  
 K. Brandhorst,  S. T. Brown,  E. F. C. Byrd,  A. K. Chakraborty,  
 G. K. L. Chan,  Chun-Min Chang,  Yunqing Chen,  C.-L. Cheng,  
 Siu Hung Chien,  D. M. Chipman,  D. L. Crittenden,  H. Dachsel,  
 R. J. Doerksen,  A. D. Dutoi,  R. G. Edgar,  J. Fosso-Tande,  
 L. Fusti-Molnar,  D. Ghosh,  A. Ghysels,  A. Golubeva-Zadorozhnaya,  
 J. Gonthier,  M. S. Gordon,  S. R. Gwaltney,  G. Hawkins,  J. E. Herr,  
 A. Heyden,  S. Hirata,  E. G. Hohenstein,  G. Kedziora,  F. J. Keil,  
 C. Kelley,  Jihan Kim,  R. A. King,  R. Z. Khaliullin,  P. P. Korambath,  
 W. Kurlancheek,  A. Laurent,  A. M. Lee,  M. S. Lee,  S. V. Levchenko,  
 Ching Yeh Lin,  D. Liotard,  E. Livshits,  R. C. Lochan,  I. Lotan,  
 L. A. Martinez-Martinez,  P. E. Maslen,  N. Nair,  D. P. O'Neill,  
 D. Neuhauser,  E. Neuscamman,  C. M. Oana,  R. Olivares-Amaya,  R. Olson,  
 T. M. Perrine,  B. Peters,  P. A. Pieniazek,  A. Prociuk,  Y. M. Rhee,  
 J. Ritchie,  M. A. Rohrdanz,  E. Rosta,  N. J. Russ,  H. F. Schaefer III,  
 M. W. Schmidt,  N. E. Schultz,  S. Sharma,  N. Shenvi,  C. D. Sherrill,  
 A. C. Simmonett,  A. Sodt,  T. Stein,  D. Stuck,  K. S. Thanthiriwatte,  
 V. Vanovschi,  L. Vogt,  Tao Wang,  A. Warshel,  M. A. Watson,  
 C. F. Williams,  Q. Wu,  X. Xu,  Jun Yang,  W. Zhang,  Yan Zhao

 Please cite Q-Chem as follows:
 Y. Shao et al., Mol. Phys. 113, 184-215 (2015)
 DOI: 10.1080/00268976.2014.952696

 Q-Chem 5.4.1 for Intel X86 EM64T Linux

 Parts of Q-Chem use Armadillo 9.800.1 (Horizon Scraper).
 http://arma.sourceforge.net/

 Q-Chem begins on Mon Apr 24 08:28:40 2023  

 Host: 
0

     Scratch files written to /scratch/ari.fischer/qChem1516909.hpc-mn1/qchem69378//
 Aug1521 |scratch|qcdevops|jenkins|workspace|build_RNUM 8249   
 Processing $rem in /usr/local/qchem-5.4.1/config/preferences:
 Processing $rem in /home/ari.fischer/.qchemrc:
 Now reading second FSM geometry
 Symmetry turned off for PCM/SM12/SMD calculation

 Checking the input file for inconsistencies... 	...done.

--------------------------------------------------------------
User input:
--------------------------------------------------------------
$molecule
0 2
H    3.5391428   -1.7421113    0.5942510
C    2.6866891   -1.1188581    0.3672128
C    1.4249692   -1.4059154    0.9368798
H    1.3271690   -2.2567805    1.5986874
C    0.3381777   -0.6408123    0.6660319
H   -0.6244594   -0.8687746    1.1041310
C    0.3974867    0.5472155   -0.2434058
C   -0.0621804    1.8245237    0.4715519
C    1.7617092    0.7678162   -0.8175680
H    1.8645486    1.6013802   -1.5014941
C    2.8207097   -0.0245493   -0.5172491
H    3.7843842    0.1764818   -0.9671306
O   -1.3788945    1.7085005    0.9891637
H    0.0032242    2.6540413   -0.2383335
O   -0.5706787    0.3946652   -1.3159823
H   -0.4264316   -0.4681633   -1.7224482
H    0.5978269    2.0299872    1.3115470
H   -1.9519582    1.4352357    0.2630051
O   -2.9318666   -1.6597280   -0.4723355
O   -3.3298235   -0.7794021    0.2339871
****
H    3.3794461   -1.2559457   -0.1515855
C    2.4381166   -0.7506514    0.0134443
C    1.2911293   -1.4210742    0.0201050
H    1.2330015   -2.4898796   -0.1357708
C    0.0248916   -0.6913542    0.3427229
H   -0.1360924   -0.6837676    1.4241632
C   -0.0123753    0.7524158   -0.1740775
C   -1.1549554    1.5615797    0.4413104
C    1.3078636    1.4043023    0.1675357
H    1.3083024    2.4820165    0.2733871
C    2.4360185    0.7003829    0.2309673
H    3.3793251    1.1986468    0.4102493
O   -2.4231812    1.2006328   -0.0917033
H   -1.0024895    2.6081409    0.1811831
O   -0.1373409    0.7793740   -1.5977328
H   -1.0790289    0.6909084   -1.8022077
H   -1.1380140    1.4649950    1.5278960
H   -2.7201634    0.3840922    0.3237931
O   -1.1154948   -1.3976647   -0.2336797
O   -1.3384032   -2.5250037    0.3785744
$end

$rem
BASIS = 6-311++G(2df,2p)
GUI = 2
JOB_TYPE = FSM
FSM_MODE = 2
METHOD = wB97M-v
MAX_SCF_CYCLES = 120
FSM_NGRAD = 6
FSM_NNODE = 20
SCF_CONVERGENCE = 7
THRESH = 12
SCF_ALGORITHM = DIIS_GDM
solvent_method = SMD
$end

--------------------------------------------------------------
 ----------------------------------------------------------------
             Standard Nuclear Orientation (Angstroms)
    I     Atom           X                Y                Z
 ----------------------------------------------------------------
    1      H       3.5391428000    -1.7421113000     0.5942510000
    2      C       2.6866891000    -1.1188581000     0.3672128000
    3      C       1.4249692000    -1.4059154000     0.9368798000
    4      H       1.3271690000    -2.2567805000     1.5986874000
    5      C       0.3381777000    -0.6408123000     0.6660319000
    6      H      -0.6244594000    -0.8687746000     1.1041310000
    7      C       0.3974867000     0.5472155000    -0.2434058000
    8      C      -0.0621804000     1.8245237000     0.4715519000
    9      C       1.7617092000     0.7678162000    -0.8175680000
   10      H       1.8645486000     1.6013802000    -1.5014941000
   11      C       2.8207097000    -0.0245493000    -0.5172491000
   12      H       3.7843842000     0.1764818000    -0.9671306000
   13      O      -1.3788945000     1.7085005000     0.9891637000
   14      H       0.0032242000     2.6540413000    -0.2383335000
   15      O      -0.5706787000     0.3946652000    -1.3159823000
   16      H      -0.4264316000    -0.4681633000    -1.7224482000
   17      H       0.5978269000     2.0299872000     1.3115470000
   18      H      -1.9519582000     1.4352357000     0.2630051000
   19      O      -2.9318666000    -1.6597280000    -0.4723355000
   20      O      -3.3298235000    -0.7794021000     0.2339871000
 ----------------------------------------------------------------
 Nuclear Repulsion Energy =         607.74254011 hartrees
 There are       42 alpha and       41 beta electrons
 Requested basis set is 6-311++G(2df,2p)
 There are 142 shells and 464 basis functions

 Total QAlloc Memory Limit 288000 MB
 Mega-Array Size       188 MB
 MEM_STATIC part       192 MB
 beginning FSman 

*******************************************
*******************************************
******** Starting FSM Calculation *********
*******************************************
*******************************************
-FSM parameters:
 Maximum displacement of each coordinate during optimization (Angstrom)      0.05
 Maximum optimization steps for each new node                                6
 The scaling factor for optimization (hartrees/Angstrom^2)                   1.75
 The number of LST interpolations used for reparameterization                100
-Aligning product structure to maximum coincidence with the reactant structure
 Total R --> P Distance 4.434599
 New node interpolation distace (Angstroms): 0.22
-Performing force calculation on reactant structure in state:0
 ----------------------------------------------------------------
             Standard Nuclear Orientation (Angstroms)
    I     Atom           X                Y                Z
 ----------------------------------------------------------------
    1      H       3.5391428000    -1.7421113000     0.5942510000
    2      C       2.6866891000    -1.1188581000     0.3672128000
    3      C       1.4249692000    -1.4059154000     0.9368798000
    4      H       1.3271690000    -2.2567805000     1.5986874000
    5      C       0.3381777000    -0.6408123000     0.6660319000
    6      H      -0.6244594000    -0.8687746000     1.1041310000
    7      C       0.3974867000     0.5472155000    -0.2434058000
    8      C      -0.0621804000     1.8245237000     0.4715519000
    9      C       1.7617092000     0.7678162000    -0.8175680000
   10      H       1.8645486000     1.6013802000    -1.5014941000
   11      C       2.8207097000    -0.0245493000    -0.5172491000
   12      H       3.7843842000     0.1764818000    -0.9671306000
   13      O      -1.3788945000     1.7085005000     0.9891637000
   14      H       0.0032242000     2.6540413000    -0.2383335000
   15      O      -0.5706787000     0.3946652000    -1.3159823000
   16      H      -0.4264316000    -0.4681633000    -1.7224482000
   17      H       0.5978269000     2.0299872000     1.3115470000
   18      H      -1.9519582000     1.4352357000     0.2630051000
   19      O      -2.9318666000    -1.6597280000    -0.4723355000
   20      O      -3.3298235000    -0.7794021000     0.2339871000
 ----------------------------------------------------------------
 Nuclear Repulsion Energy =         607.74254011 hartrees
 There are       42 alpha and       41 beta electrons
 
 Citation of the SMD model:
 Marenich, A.V.; Cramer, C.J.; Truhlar, D.G.
 J. Phys. Chem. B 2009, 113, 6378-6396.
 iSolventCode=           1
 Solvent: water                                                           
 
 vradii
            1           2           3           4           5           6
    1   1.2000000   1.8500000   1.8500000   1.2000000   1.8500000   1.2000000
            7           8           9          10          11          12
    1   1.8500000   1.8500000   1.8500000   1.2000000   1.8500000   1.2000000
           13          14          15          16          17          18
    1   1.5200000   1.2000000   1.5200000   1.2000000   1.2000000   1.2000000
           19          20
    1   1.5200000   1.5200000
 Changing PCM_VDW_RADII to SMD_RADIUS
 Discretize the solute cavity surface with Lebedev spheres
	Using 110 Lebedev grid points for each H atom
	Using 194 Lebedev grid points for other atoms
	Atomic van der Waals radii will be scaled by 1.20
 Remove points where switching function is < 1.0e-08
 Keep 1596 surface tesserae and discard 1528 interior tesserae
 Molecular Surface Area = 192.121 Angst**2
 Requested basis set is 6-311++G(2df,2p)
 There are 142 shells and 464 basis functions
 A cutoff of  1.0D-12 yielded   8775 shell pairs
 There are     92587 function pairs (    114841 Cartesian)
 Smallest overlap matrix eigenvalue = 5.93E-07
 Linear dependence detected in AO basis
 Tighter screening thresholds may be required for diffuse basis sets
 Use S2THRESH > 14 and THRESH = 14 in case of SCF convergence issues
 Number of orthogonalized atomic orbitals = 463
 Maximum deviation from orthogonality = 6.910E-11

 Scale SEOQF with 1.000000e-01/1.000000e-01/1.000000e-01

 Standard Electronic Orientation quadrupole field applied
 Nucleus-field energy     =     0.0000000152 hartrees
 Guess from superposition of atomic densities
 Warning:  Energy on first SCF cycle will be non-variational
 SAD guess density has 83.000000 electrons

 -----------------------------------------------------------------------
  General SCF calculation program by
  Eric Jon Sundstrom, Paul Horn, Yuezhi Mao, Dmitri Zuev, Alec White,
  David Stuck, Shaama M.S., Shane Yost, Joonho Lee, David Small,
  Daniel Levine, Susi Lehtola, Hugh Burton, Evgeny Epifanovsky,
  Bang C. Huynh
 -----------------------------------------------------------------------
 Exchange:     0.1500 Hartree-Fock + 1.0000 wB97M-V + LR-HF
 Correlation:  1.0000 wB97M-V
 Using SG-2 standard quadrature grid
 Nonlocal Correlation:  VV10 with C = 0.0100 and b = 6.00 and scale = 1.00000
 Grid used for NLC:  SG-1 standard quadrature
 
 Citation of the SMD model:
 Marenich, A.V.; Cramer, C.J.; Truhlar, D.G.
 J. Phys. Chem. B 2009, 113, 6378-6396.
 iSolventCode=           1
 Solvent: water                                                           
 
 vradii
            1           2           3           4           5           6
    1   1.2000000   1.8500000   1.8500000   1.2000000   1.8500000   1.2000000
            7           8           9          10          11          12
    1   1.8500000   1.8500000   1.8500000   1.2000000   1.8500000   1.2000000
           13          14          15          16          17          18
    1   1.5200000   1.2000000   1.5200000   1.2000000   1.2000000   1.2000000
           19          20
    1   1.5200000   1.5200000
 using 8 threads for integral computing
 -------------------------------------------------------
 OpenMP Integral computing Module                
 Release: version 1.0, May 2013, Q-Chem Inc. Pittsburgh 
 -------------------------------------------------------
 -------------------------------------------------------
 OpenMP BLAS3 based DFT computing Module                
 Release: version 1.0, May 2013, Q-Chem Inc. Pittsburgh 
 -------------------------------------------------------
 A unrestricted SCF calculation will be
 performed using DIIS, GDM
 SCF converges when RMS gradient is below 1.0e-07
 ---------------------------------------
  Cycle       Energy         DIIS error
 ---------------------------------------
    1    -575.5306167211      1.16e-02  
    2    -572.5059953109      1.51e-03  Done DIIS. Switching to GDM
 ---------------------------------------
  Cycle       Energy        RMS Gradient
 ---------------------------------------
    1    -572.5059953109      4.52e-01   Descent step
    2    -572.7337146468      1.09e-01   Dog-leg BFGS step
    3    -572.7827185699      9.83e-02   Normal BFGS step
    4    -572.8063275148      9.65e-02   Normal BFGS step
    5    -572.8145600219      5.27e-02   Normal BFGS step
    6    -572.8260705906      8.43e-02   Dog-leg BFGS step
    7    -572.8449278282      4.62e-02   Normal BFGS step
    8    -572.8532861349      1.60e-02   Normal BFGS step
    9    -572.8553006365      1.77e-02   Normal BFGS step
   10    -572.8554819589      1.76e-02   Normal BFGS step
   11    -572.8559614711      3.09e-03   Normal BFGS step
   12    -572.8559737163      4.32e-03   Normal BFGS step
   13    -572.8560020633      7.40e-04   Normal BFGS step
   14    -572.8560061490      5.58e-04   Normal BFGS step
   15    -572.8560093885      3.92e-04   Normal BFGS step
   16    -572.8560104465      1.87e-04   Normal BFGS step
   17    -572.8560106615      1.29e-04   Normal BFGS step
   18    -572.8560107784      6.27e-05   Normal BFGS step
   19    -572.8560108007      2.22e-05   Normal BFGS step
   20    -572.8560108081      2.15e-05   Normal BFGS step
   21    -572.8560108117      2.01e-05   Normal BFGS step
   22    -572.8560108139      1.84e-05   Normal BFGS step
   23    -572.8560108164      2.18e-05   Normal BFGS step
   24    -572.8560108204      2.57e-05   Normal BFGS step
   25    -572.8560108285      3.00e-05   Normal BFGS step
   26    -572.8560108455      4.84e-05   Normal BFGS step
   27    -572.8560108832      8.63e-05   Normal BFGS step
   28    -572.8560109659      1.22e-04   Normal BFGS step
   29    -572.8560111349      1.76e-04   Normal BFGS step
   30    -572.8560114126      1.87e-04   Normal BFGS step
   31    -572.8560117240      1.46e-04   Normal BFGS step
   32    -572.8560119520      8.39e-05   Normal BFGS step
   33    -572.8560120258      6.18e-05   Normal BFGS step
   34    -572.8560120538      3.00e-05   Normal BFGS step
   35    -572.8560120628      1.65e-05   Normal BFGS step
   36    -572.8560120635      2.36e-05   Normal BFGS step
   37    -572.8560120643      3.65e-06   Normal BFGS step
   38    -572.8560120644      2.57e-06   Normal BFGS step
   39    -572.8560120645      1.41e-06   Normal BFGS step
   40    -572.8560120645      6.43e-07   Normal BFGS step
   41    -572.8560120645      3.88e-07   Normal BFGS step
   42    -572.8560120645      1.77e-07   Normal BFGS step
   43    -572.8560120645      6.28e-08  Convergence criterion met
 ---------------------------------------
 SCF time:   CPU 5899.96s  wall 750.00s 
<S^2> =          1.791049297
(3)  G-ENP(liq) elect-nuc-pol free energy of system     -572.856012064 a.u.
(4)  G-CDS(liq) cavity-dispersion-solvent structure 
     free energy                                                3.3345 kcal/mol
(6)  G-S(liq) free energy of system                     -572.850698152 a.u.
 SCF   energy in the final basis set =     -572.8506981519
 Total energy in the final basis set =     -572.8506981519
 
 --------------------------------------------------------------
 
                    Orbital Energies (a.u.)
 --------------------------------------------------------------
 
 Alpha MOs
 -- Occupied --
-19.4769 -19.4766 -19.3409 -19.3375 -10.4078 -10.3855 -10.3524 -10.3476
-10.3472 -10.3435 -10.3431  -1.4149  -1.1709  -1.1458  -0.9765  -0.9174
 -0.8848  -0.8770  -0.7965  -0.7224  -0.7200  -0.6627  -0.6573  -0.6437
 -0.6132  -0.6070  -0.5896  -0.5801  -0.5566  -0.5477  -0.5262  -0.5215
 -0.4921  -0.4694  -0.4564  -0.4495  -0.4374  -0.4012  -0.3905  -0.3889
 -0.3617  -0.2713
 -- Virtual --
 -0.0312   0.0255   0.0364   0.0393   0.0481   0.0545   0.0584   0.0598
  0.0666   0.0844   0.0867   0.0990   0.1106   0.1213   0.1300   0.1339
  0.1389   0.1527   0.1542   0.1570   0.1597   0.1621   0.1639   0.1654
  0.1756   0.1800   0.1836   0.1898   0.1960   0.2023   0.2080   0.2097
  0.2117   0.2203   0.2217   0.2266   0.2383   0.2400   0.2474   0.2571
  0.2646   0.2720   0.2818   0.2929   0.2949   0.3019   0.3052   0.3166
  0.3211   0.3292   0.3304   0.3344   0.3404   0.3489   0.3515   0.3588
  0.3662   0.3746   0.3816   0.3917   0.3975   0.4096   0.4127   0.4205
  0.4262   0.4281   0.4330   0.4366   0.4500   0.4693   0.4811   0.4883
  0.5471   0.5486   0.5605   0.5704   0.5892   0.5995   0.6024   0.6114
  0.6215   0.6257   0.6308   0.6417   0.6574   0.6633   0.6693   0.6760
  0.6889   0.7007   0.7089   0.7178   0.7214   0.7306   0.7395   0.7455
  0.7458   0.7603   0.7629   0.7750   0.7850   0.8010   0.8094   0.8195
  0.8288   0.8381   0.8510   0.8588   0.8645   0.8720   0.8850   0.8971
  0.9077   0.9165   0.9451   0.9985   1.0002   1.0356   1.0413   1.0634
  1.0697   1.0766   1.0817   1.0898   1.1029   1.1075   1.1251   1.1358
  1.1410   1.1528   1.1660   1.1743   1.1867   1.1934   1.1975   1.2065
  1.2155   1.2232   1.2419   1.2534   1.2636   1.2704   1.2777   1.3028
  1.3062   1.3367   1.3432   1.3543   1.3553   1.3600   1.3814   1.3981
  1.4015   1.4109   1.4245   1.4311   1.4351   1.4429   1.4545   1.4574
  1.4625   1.4766   1.4915   1.4944   1.5180   1.5334   1.5360   1.5436
  1.5583   1.5724   1.5853   1.5977   1.6102   1.6232   1.6298   1.6522
  1.6635   1.6925   1.7129   1.7246   1.7424   1.7572   1.7684   1.7778
  1.8041   1.8161   1.8261   1.8566   1.8634   1.9100   1.9701   1.9992
  2.0356   2.0475   2.0730   2.0909   2.1170   2.1573   2.2178   2.2938
  2.3047   2.3386   2.3511   2.3777   2.4010   2.4213   2.4411   2.4581
  2.5941   2.6021   2.6185   2.6337   2.6608   2.6861   2.7076   2.7211
  2.7725   2.8027   2.8062   2.8183   2.8255   2.8424   2.8551   2.8733
  2.8854   2.8943   2.9063   2.9143   2.9320   2.9382   2.9460   2.9598
  2.9803   2.9871   2.9903   3.0370   3.0432   3.0721   3.1167   3.1464
  3.1647   3.1784   3.1945   3.1956   3.2051   3.2386   3.2448   3.2569
  3.2729   3.2882   3.3080   3.3186   3.3412   3.3527   3.3702   3.4007
  3.4175   3.4348   3.4371   3.4527   3.4749   3.4931   3.4974   3.5013
  3.5210   3.5348   3.5433   3.5508   3.5962   3.6121   3.6489   3.6525
  3.6691   3.6772   3.7108   3.7172   3.7366   3.7600   3.7949   3.8059
  3.8198   3.8224   3.8528   3.8661   3.8862   3.8999   3.9096   3.9162
  3.9319   3.9592   3.9805   3.9907   4.0085   4.0151   4.0390   4.0620
  4.0968   4.1027   4.1422   4.1553   4.1599   4.1798   4.2009   4.2031
  4.2395   4.2571   4.2619   4.3131   4.3342   4.3386   4.3504   4.3694
  4.4027   4.4338   4.4435   4.4654   4.4790   4.4961   4.5056   4.5165
  4.5430   4.5640   4.5662   4.5902   4.5956   4.5980   4.6176   4.6232
  4.6369   4.6575   4.6631   4.7034   4.7163   4.7281   4.7858   4.8193
  4.9110   4.9238   4.9342   4.9408   4.9930   5.0018   5.0468   5.0890
  5.1186   5.1460   5.1514   5.1581   5.1903   5.1926   5.1939   5.2117
  5.2310   5.2355   5.3053   5.3156   5.3290   5.3642   5.3681   5.3906
  5.4188   5.4487   5.4844   5.5132   5.5692   5.5903   5.6215   5.6361
  5.6779   5.6964   5.7284   5.7354   5.7792   5.7844   5.7858   5.8647
  5.8713   5.9321   5.9675   5.9796   6.1136   6.1899   6.4587   6.5653
  6.6512   6.7271   6.7545   6.8367   6.8581   6.8682   6.8875   6.9129
  6.9923   7.0489   7.1064   7.1577   7.3052   7.3254   7.3524   7.3605
  7.3824   7.4005   7.4306   7.4620   7.6547   7.7822   7.8082   7.8582
  8.1240   8.1380  24.2590  24.6240  24.7046  24.8191  24.8720  25.0985
 25.4069  50.4292  50.5524  50.6059  50.6674
 
 Beta MOs
 -- Occupied --
-19.4768 -19.4766 -19.3392 -19.3374 -10.4085 -10.3845 -10.3460 -10.3457
-10.3447 -10.3423 -10.3419  -1.4148  -1.1687  -1.1437  -0.9697  -0.9173
 -0.8785  -0.8718  -0.7868  -0.7174  -0.7158  -0.6637  -0.6550  -0.6435
 -0.6084  -0.6016  -0.5893  -0.5756  -0.5542  -0.5434  -0.5241  -0.5193
 -0.4860  -0.4635  -0.4481  -0.4370  -0.4273  -0.3955  -0.3919  -0.3821
 -0.3461
 -- Virtual --
 -0.0312  -0.0251   0.0249   0.0360   0.0390   0.0477   0.0544   0.0583
  0.0598   0.0812   0.0854   0.0867   0.0999   0.1108   0.1217   0.1303
  0.1348   0.1385   0.1523   0.1543   0.1572   0.1613   0.1621   0.1658
  0.1679   0.1751   0.1799   0.1837   0.1907   0.1959   0.2023   0.2087
  0.2101   0.2178   0.2218   0.2226   0.2289   0.2384   0.2404   0.2473
  0.2563   0.2653   0.2721   0.2813   0.2938   0.2970   0.3034   0.3076
  0.3174   0.3231   0.3290   0.3325   0.3374   0.3434   0.3507   0.3525
  0.3591   0.3682   0.3752   0.3837   0.3927   0.3989   0.4110   0.4133
  0.4210   0.4270   0.4298   0.4343   0.4376   0.4500   0.4700   0.4840
  0.4889   0.5488   0.5519   0.5629   0.5746   0.5907   0.6034   0.6071
  0.6170   0.6232   0.6289   0.6325   0.6438   0.6608   0.6656   0.6715
  0.6820   0.6927   0.7036   0.7102   0.7247   0.7260   0.7331   0.7419
  0.7477   0.7499   0.7642   0.7677   0.7783   0.7879   0.8023   0.8129
  0.8215   0.8326   0.8379   0.8561   0.8629   0.8706   0.8730   0.8880
  0.8996   0.9113   0.9187   0.9473   0.9995   1.0033   1.0353   1.0423
  1.0670   1.0710   1.0763   1.0819   1.0940   1.1011   1.1144   1.1267
  1.1425   1.1501   1.1540   1.1703   1.1749   1.1883   1.1917   1.1937
  1.2076   1.2134   1.2240   1.2435   1.2552   1.2660   1.2710   1.2781
  1.3039   1.3063   1.3378   1.3455   1.3553   1.3565   1.3648   1.3850
  1.3994   1.4015   1.4244   1.4313   1.4332   1.4354   1.4446   1.4521
  1.4618   1.4653   1.4786   1.4942   1.4979   1.5218   1.5354   1.5392
  1.5480   1.5613   1.5765   1.5878   1.6004   1.6140   1.6224   1.6317
  1.6541   1.6669   1.6967   1.7168   1.7273   1.7468   1.7601   1.7702
  1.7798   1.8089   1.8181   1.8276   1.8636   1.8709   1.9124   1.9746
  2.0028   2.0380   2.0511   2.0778   2.0970   2.1192   2.1599   2.2209
  2.2957   2.3065   2.3384   2.3607   2.3738   2.3984   2.4231   2.4438
  2.4599   2.6002   2.6057   2.6216   2.6476   2.6640   2.6966   2.7146
  2.7312   2.7811   2.8125   2.8226   2.8253   2.8351   2.8505   2.8600
  2.8842   2.8993   2.9017   2.9208   2.9252   2.9417   2.9476   2.9624
  2.9793   2.9909   2.9978   3.0072   3.0514   3.0641   3.0882   3.1295
  3.1560   3.1694   3.1888   3.1998   3.2056   3.2124   3.2467   3.2557
  3.2699   3.2842   3.2916   3.3150   3.3278   3.3533   3.3606   3.3832
  3.4106   3.4261   3.4409   3.4459   3.4611   3.4826   3.5052   3.5066
  3.5111   3.5287   3.5425   3.5534   3.5638   3.6082   3.6255   3.6566
  3.6669   3.6787   3.6865   3.7200   3.7226   3.7469   3.7721   3.8010
  3.8142   3.8268   3.8313   3.8626   3.8763   3.8979   3.9058   3.9189
  3.9208   3.9425   3.9681   3.9899   3.9983   4.0199   4.0238   4.0483
  4.0709   4.1042   4.1095   4.1449   4.1621   4.1665   4.1863   4.2048
  4.2110   4.2473   4.2612   4.2701   4.3205   4.3370   4.3443   4.3642
  4.3765   4.4071   4.4412   4.4489   4.4772   4.4881   4.5073   4.5135
  4.5212   4.5521   4.5727   4.5867   4.5956   4.5977   4.6010   4.6059
  4.6287   4.6500   4.6678   4.6752   4.7107   4.7249   4.7398   4.7944
  4.8297   4.9120   4.9308   4.9328   4.9408   5.0098   5.0202   5.0620
  5.0665   5.1343   5.1581   5.1630   5.1710   5.1842   5.1926   5.1939
  5.2043   5.2395   5.2480   5.3095   5.3164   5.3315   5.3641   5.3716
  5.3931   5.4277   5.4539   5.4865   5.5182   5.5768   5.5947   5.6240
  5.6448   5.6792   5.6986   5.7342   5.7431   5.7841   5.7847   5.7880
  5.8731   5.8903   5.9368   5.9747   5.9844   6.1157   6.2038   6.4687
  6.5701   6.6526   6.7273   6.7549   6.8394   6.8480   6.8682   6.8841
  6.9235   7.0015   7.0400   7.1075   7.1601   7.3071   7.3271   7.3544
  7.3657   7.3864   7.3949   7.4340   7.4649   7.6550   7.7845   7.8101
  7.8638   8.1242   8.1384  24.2609  24.6257  24.7054  24.8225  24.8746
 25.1001  25.4094  50.4292  50.5524  50.6064  50.6683
 --------------------------------------------------------------
 
          Ground-State Mulliken Net Atomic Charges

     Atom                 Charge (a.u.)    Spin (a.u.)
  --------------------------------------------------------
      1 H                     0.289453      -0.010008
      2 C                    -0.361847       0.517984
      3 C                    -0.460454      -0.160730
      4 H                     0.291620       0.005300
      5 C                    -0.170843       0.374644
      6 H                     0.264660      -0.006416
      7 C                     0.290324      -0.012755
      8 C                    -0.510436       0.022264
      9 C                    -0.241056       0.378735
     10 H                     0.304422      -0.008560
     11 C                    -0.355743      -0.149455
     12 H                     0.293653       0.005360
     13 O                    -0.400044       0.003859
     14 H                     0.236552       0.003203
     15 O                    -0.400843       0.028792
     16 H                     0.321857       0.000209
     17 H                     0.224710       0.002760
     18 H                     0.344846       0.001153
     19 O                     0.018925       0.001114
     20 O                     0.020246       0.002547
  --------------------------------------------------------
  Sum of atomic charges =     0.000000
  Sum of spin   charges =     1.000000

 -----------------------------------------------------------------
                    Cartesian Multipole Moments
 -----------------------------------------------------------------
    Charge (ESU x 10^10)
                 0.0000
    Dipole Moment (Debye)
         X       2.3722      Y      -2.0042      Z      -1.3831
       Tot       3.3996
    Quadrupole Moments (Debye-Ang)
        XX     -59.5799     XY       2.2528     YY     -63.4598
        XZ       1.6149     YZ      -3.8320     ZZ     -67.8353
    Octopole Moments (Debye-Ang^2)
       XXX     -17.6883    XXY     -10.7123    XYY      -0.9327
       YYY      -5.6399    XXZ     -10.9466    XYZ      -0.3428
       YYZ      -4.2198    XZZ      -6.3207    YZZ     -11.0322
       ZZZ     -10.9650
    Hexadecapole Moments (Debye-Ang^3)
      XXXX   -1433.3305   XXXY     -24.3791   XXYY    -358.5286
      XYYY       9.5670   YYYY    -630.6991   XXXZ       3.0964
      XXYZ     -22.1847   XYYZ      22.6268   YYYZ     -16.0032
      XXZZ    -321.0198   XYZZ      17.1120   YYZZ    -152.8616
      XZZZ      18.9812   YZZZ      14.7258   ZZZZ    -315.4244
 -----------------------------------------------------------------
 Calculating analytic gradient of the SCF energy
 Gradient of CDS energy
            1           2           3           4           5           6
    1   0.0001587   0.0004578  -0.0001658  -0.0000189  -0.0002379  -0.0001500
    2  -0.0001160  -0.0003255  -0.0003278  -0.0001642   0.0000107   0.0000556
    3   0.0000423   0.0001299   0.0002940   0.0001277   0.0001683  -0.0000268
            7           8           9          10          11          12
    1  -0.0001770  -0.0002110  -0.0000096  -0.0000730   0.0003706   0.0001860
    2   0.0000362   0.0009579   0.0001943   0.0001794   0.0001767   0.0000388
    3  -0.0000930   0.0004088  -0.0001936  -0.0001095  -0.0002434  -0.0000868
           13          14          15          16          17          18
    1   0.0001596   0.0000719   0.0000857  -0.0000529   0.0001004  -0.0003484
    2  -0.0003591  -0.0001211  -0.0000081  -0.0001242  -0.0002152   0.0002287
    3  -0.0000333  -0.0003105   0.0002836  -0.0004638   0.0001218  -0.0000768
           19          20
    1  -0.0001301  -0.0000162
    2  -0.0000035  -0.0001137
    3   0.0000532   0.0000079
 Gradient of SCF Energy
            1           2           3           4           5           6
    1   0.0059053  -0.0056265  -0.0016054  -0.0002743   0.0029746  -0.0022393
    2  -0.0044212   0.0038969   0.0044508  -0.0050664   0.0004048  -0.0022834
    3   0.0015193  -0.0005754  -0.0022141   0.0035799  -0.0001347   0.0004142
            7           8           9          10          11          12
    1   0.0029194  -0.0023520  -0.0045013   0.0009703  -0.0025411   0.0063251
    2  -0.0001802  -0.0023059  -0.0013694   0.0045244  -0.0016909   0.0011425
    3  -0.0015692  -0.0000876   0.0035920  -0.0030938   0.0023483  -0.0029056
           13          14          15          16          17          18
    1  -0.0006048   0.0013224  -0.0023052   0.0018593   0.0022536  -0.0018977
    2   0.0024732   0.0014439   0.0096025  -0.0099081   0.0006445  -0.0010268
    3   0.0081501  -0.0017669   0.0003685  -0.0038123   0.0000659  -0.0041741
           19          20
    1   0.0014446  -0.0020269
    2  -0.0037888   0.0034577
    3  -0.0030273   0.0033229
 Max gradient component =       9.908E-03
 RMS gradient           =       3.454E-03
 Computing fast CPCM-SWIG gradient
 Updating gradient with PCM contributions...
 -- total gradient after adding PCM contribution --
---------------------------------------------------
  Atom         X              Y              Z     
---------------------------------------------------
   1      -0.000006      -0.000006       0.000002
   2       0.000120       0.000044      -0.000087
   3      -0.000226       0.000027      -0.000031
   4      -0.000012      -0.000009      -0.000009
   5       0.000189       0.000006       0.000143
   6       0.000032       0.000005      -0.000008
   7      -0.000056       0.000075       0.000029
   8       0.000066      -0.000021      -0.000047
   9      -0.000013       0.000028       0.000000
  10       0.000005      -0.000004       0.000004
  11       0.000032      -0.000073       0.000046
  12       0.000001      -0.000010       0.000006
  13      -0.000055      -0.000021       0.000009
  14       0.000014       0.000006       0.000010
  15       0.000051      -0.000011      -0.000012
  16      -0.000016       0.000010      -0.000024
  17       0.000004       0.000005       0.000015
  18       0.000097       0.000034       0.000019
  19       0.000107      -0.000612      -0.000537
  20      -0.000333       0.000528       0.000470
---------------------------------------------------
 Number of fixed atoms: 0
 Gradient time:  CPU 388.51 s  wall 57.10 s
-Performing force calculation on product structure in state0
 ----------------------------------------------------------------
             Standard Nuclear Orientation (Angstroms)
    I     Atom           X                Y                Z
 ----------------------------------------------------------------
    1      H       2.9891835647    -2.2840977809     0.1202845392
    2      C       2.2724391295    -1.4757598340     0.1593430886
    3      C       1.0065937523    -1.6965135489     0.4969734198
    4      H       0.6266635043    -2.6777522057     0.7476620598
    5      C       0.0750035100    -0.5321291657     0.6245670291
    6      H       0.1261351938    -0.1227187300     1.6371158789
    7      C       0.3440170908     0.5953412447    -0.3801147390
    8      C      -0.3946233434     1.8849721253    -0.0192819936
    9      C       1.8327187272     0.8561503238    -0.4009090302
   10      H       2.1514448681     1.8478463724    -0.6969245746
   11      C       2.7129633279    -0.1153673995    -0.1694304690
   12      H       3.7736091342     0.0788568617    -0.2562849514
   13      O      -1.7892026970     1.8037508616    -0.2863671517
   14      H      -0.0091626221     2.6810164817    -0.6548414505
   15      O      -0.0306527164     0.1986873607    -1.7012603748
   16      H      -0.9808859006     0.3598800861    -1.7877834206
   17      H      -0.2036699334     2.1456698980     1.0227627981
   18      H      -2.2183109260     1.3093798762     0.4200588483
   19      O      -1.3028226496    -0.9758079721     0.4339369901
   20      O      -1.7116966143    -1.7066524551     1.4309951035
 ----------------------------------------------------------------
 Nuclear Repulsion Energy =         651.82472292 hartrees
 There are       42 alpha and       41 beta electrons
 Discretize the solute cavity surface with Lebedev spheres
	Using 110 Lebedev grid points for each H atom
	Using 194 Lebedev grid points for other atoms
	Atomic van der Waals radii will be scaled by 1.20
 Remove points where switching function is < 1.0e-08
 Keep 1496 surface tesserae and discard 1628 interior tesserae
 Molecular Surface Area = 170.561 Angst**2
 Applying Cartesian multipole field
    Component          Value
    ---------          -----
     (2,0,0)        1.00000E-11
     (0,2,0)        2.00000E-11
     (0,0,2)       -3.00000E-11
 Nucleus-field energy     =     0.0000000116 hartrees
 Requested basis set is 6-311++G(2df,2p)
 There are 142 shells and 464 basis functions
 A cutoff of  1.0D-12 yielded   9073 shell pairs
 There are     97348 function pairs (    121428 Cartesian)
 Smallest overlap matrix eigenvalue = 1.45E-06
 Guess from superposition of atomic densities
 Warning:  Energy on first SCF cycle will be non-variational
 SAD guess density has 83.000000 electrons

 -----------------------------------------------------------------------
  General SCF calculation program by
  Eric Jon Sundstrom, Paul Horn, Yuezhi Mao, Dmitri Zuev, Alec White,
  David Stuck, Shaama M.S., Shane Yost, Joonho Lee, David Small,
  Daniel Levine, Susi Lehtola, Hugh Burton, Evgeny Epifanovsky,
  Bang C. Huynh
 -----------------------------------------------------------------------
 Exchange:     0.1500 Hartree-Fock + 1.0000 wB97M-V + LR-HF
 Correlation:  1.0000 wB97M-V
 Using SG-2 standard quadrature grid
 Nonlocal Correlation:  VV10 with C = 0.0100 and b = 6.00 and scale = 1.00000
 Grid used for NLC:  SG-1 standard quadrature
 
 Citation of the SMD model:
 Marenich, A.V.; Cramer, C.J.; Truhlar, D.G.
 J. Phys. Chem. B 2009, 113, 6378-6396.
 iSolventCode=           1
 Solvent: water                                                           
 
 vradii
            1           2           3           4           5           6
    1   1.2000000   1.8500000   1.8500000   1.2000000   1.8500000   1.2000000
            7           8           9          10          11          12
    1   1.8500000   1.8500000   1.8500000   1.2000000   1.8500000   1.2000000
           13          14          15          16          17          18
    1   1.5200000   1.2000000   1.5200000   1.2000000   1.2000000   1.2000000
           19          20
    1   1.5200000   1.5200000
 -------------------------------------------------------
 OpenMP BLAS3 based DFT computing Module                
 Release: version 1.0, May 2013, Q-Chem Inc. Pittsburgh 
 -------------------------------------------------------
 A unrestricted SCF calculation will be
 performed using DIIS, GDM
 SCF converges when RMS gradient is below 1.0e-07
 ---------------------------------------
  Cycle       Energy         DIIS error
 ---------------------------------------
    1    -575.7762399225      1.17e-02  
    2    -572.7490544131      1.26e-03  Done DIIS. Switching to GDM
 ---------------------------------------
  Cycle       Energy        RMS Gradient
 ---------------------------------------
    1    -572.7490544131      8.13e-02   Descent step
    2    -572.8744252215      2.02e-02   Normal BFGS step
    3    -572.8923065953      2.96e-02   Normal BFGS step
    4    -572.8958304093      6.10e-03   Normal BFGS step
    5    -572.8969269854      4.19e-03   Normal BFGS step
    6    -572.8971415138      3.65e-03   Normal BFGS step
    7    -572.8972129049      1.72e-03   Normal BFGS step
    8    -572.8972335018      5.06e-04   Normal BFGS step
    9    -572.8972359528      3.50e-04   Normal BFGS step
   10    -572.8972366760      1.04e-04   Normal BFGS step
   11    -572.8972367455      3.31e-05   Normal BFGS step
   12    -572.8972367617      3.52e-05   Normal BFGS step
   13    -572.8972367673      3.05e-05   Normal BFGS step
   14    -572.8972367715      2.14e-05   Normal BFGS step
   15    -572.8972367742      1.35e-05   Normal BFGS step
   16    -572.8972367759      5.57e-06   Normal BFGS step
   17    -572.8972367763      3.37e-06   Normal BFGS step
   18    -572.8972367765      2.55e-06   Normal BFGS step
   19    -572.8972367766      1.43e-06   Normal BFGS step
   20    -572.8972367766      8.72e-07   Normal BFGS step
   21    -572.8972367766      7.13e-07   Normal BFGS step
   22    -572.8972367766      3.31e-07   Normal BFGS step
   23    -572.8972367766      9.99e-08  Convergence criterion met
 ---------------------------------------
 SCF time:   CPU 3504.32s  wall 445.00s 
<S^2> =          0.753963049
(3)  G-ENP(liq) elect-nuc-pol free energy of system     -572.897236777 a.u.
(4)  G-CDS(liq) cavity-dispersion-solvent structure 
     free energy                                                3.1315 kcal/mol
(6)  G-S(liq) free energy of system                     -572.892246373 a.u.
 SCF   energy in the final basis set =     -572.8922463731
 Total energy in the final basis set =     -572.8922463731
 
 --------------------------------------------------------------
 
                    Orbital Energies (a.u.)
 --------------------------------------------------------------
 
 Alpha MOs
 -- Occupied --
-19.4674 -19.4187 -19.3442 -19.3439 -10.4175 -10.4142 -10.3892 -10.3533
-10.3526 -10.3499 -10.3490  -1.3479  -1.1793  -1.1515  -1.0286  -0.9684
 -0.8933  -0.8658  -0.8025  -0.7387  -0.7244  -0.6645  -0.6538  -0.6399
 -0.6247  -0.6109  -0.6058  -0.5714  -0.5689  -0.5351  -0.5295  -0.5169
 -0.4945  -0.4682  -0.4528  -0.4448  -0.4369  -0.4195  -0.4006  -0.3975
 -0.3774  -0.3303
 -- Virtual --
  0.0192   0.0270   0.0366   0.0404   0.0456   0.0541   0.0593   0.0673
  0.0769   0.0825   0.1013   0.1109   0.1215   0.1242   0.1299   0.1341
  0.1401   0.1444   0.1479   0.1546   0.1601   0.1626   0.1645   0.1739
  0.1747   0.1787   0.1862   0.1908   0.1972   0.2000   0.2057   0.2102
  0.2113   0.2146   0.2218   0.2307   0.2388   0.2443   0.2537   0.2641
  0.2660   0.2706   0.2839   0.2902   0.2927   0.2942   0.3154   0.3170
  0.3229   0.3249   0.3288   0.3351   0.3444   0.3480   0.3676   0.3755
  0.3778   0.3828   0.3853   0.3887   0.4000   0.4036   0.4069   0.4130
  0.4212   0.4318   0.4362   0.4401   0.4566   0.4645   0.4766   0.4863
  0.5057   0.5256   0.5531   0.5559   0.5640   0.5670   0.5929   0.5966
  0.6124   0.6193   0.6285   0.6310   0.6358   0.6443   0.6686   0.6718
  0.6762   0.6834   0.6924   0.7056   0.7087   0.7201   0.7344   0.7364
  0.7458   0.7529   0.7577   0.7689   0.7925   0.8034   0.8175   0.8246
  0.8285   0.8334   0.8513   0.8647   0.8679   0.8789   0.8927   0.9042
  0.9156   0.9313   0.9656   0.9913   0.9948   1.0117   1.0247   1.0505
  1.0736   1.0855   1.0935   1.1110   1.1159   1.1214   1.1359   1.1475
  1.1497   1.1631   1.1753   1.1861   1.1929   1.2038   1.2174   1.2254
  1.2322   1.2463   1.2549   1.2664   1.2701   1.2822   1.2884   1.3122
  1.3170   1.3296   1.3329   1.3417   1.3518   1.3689   1.3821   1.3929
  1.4006   1.4169   1.4248   1.4410   1.4511   1.4588   1.4699   1.4920
  1.4964   1.4996   1.5167   1.5361   1.5445   1.5524   1.5604   1.5686
  1.5789   1.5922   1.6060   1.6163   1.6375   1.6599   1.6617   1.6853
  1.6933   1.7073   1.7219   1.7404   1.7579   1.7669   1.7997   1.8099
  1.8184   1.8354   1.8795   1.8967   1.9343   1.9709   1.9943   2.0074
  2.0486   2.0742   2.0863   2.1219   2.1451   2.1818   2.2204   2.2532
  2.2623   2.2899   2.3245   2.3616   2.3905   2.4115   2.4439   2.4540
  2.4962   2.6190   2.6351   2.6738   2.6759   2.6852   2.7063   2.7473
  2.7676   2.7733   2.7831   2.8136   2.8258   2.8425   2.8515   2.8626
  2.8692   2.8940   2.9125   2.9281   2.9393   2.9420   2.9712   2.9721
  2.9845   2.9957   3.0245   3.0498   3.0779   3.0976   3.1275   3.1408
  3.1733   3.1782   3.1969   3.2226   3.2304   3.2361   3.2536   3.2679
  3.2933   3.3063   3.3284   3.3452   3.3575   3.3868   3.4060   3.4154
  3.4340   3.4471   3.4564   3.4686   3.4772   3.4997   3.5044   3.5172
  3.5374   3.5568   3.5731   3.5815   3.6161   3.6363   3.6613   3.6720
  3.6856   3.6938   3.7230   3.7439   3.7677   3.7773   3.7938   3.7977
  3.8209   3.8214   3.8391   3.8408   3.8704   3.8795   3.9023   3.9101
  3.9241   3.9379   3.9478   3.9582   3.9801   3.9862   4.0057   4.0474
  4.0667   4.0793   4.0966   4.1259   4.1318   4.1451   4.1707   4.1991
  4.2155   4.2320   4.2445   4.2762   4.2864   4.3038   4.3076   4.3226
  4.3449   4.3843   4.4087   4.4284   4.4368   4.4567   4.4740   4.5074
  4.5162   4.5387   4.5635   4.5996   4.6092   4.6406   4.6504   4.6535
  4.6692   4.6886   4.7107   4.7336   4.7646   4.7872   4.8076   4.8246
  4.8869   4.9239   4.9545   4.9721   4.9920   5.0503   5.0862   5.1007
  5.1038   5.1229   5.1426   5.1871   5.2340   5.2551   5.2677   5.2767
  5.2964   5.3249   5.3301   5.3602   5.3763   5.4027   5.4149   5.4407
  5.4773   5.5051   5.5177   5.5369   5.5655   5.6075   5.6211   5.6578
  5.6720   5.6919   5.7031   5.7296   5.7569   5.7684   5.7959   5.8479
  5.9242   5.9466   5.9547   6.0415   6.0740   6.1251   6.2630   6.4775
  6.4960   6.6053   6.6410   6.6677   6.8487   6.9116   6.9858   7.1027
  7.1391   7.1565   7.2302   7.2877   7.3016   7.3292   7.3456   7.3811
  7.4190   7.4581   7.4661   7.5155   7.6696   7.7180   7.7935   7.8270
  7.8665   8.0731   8.1173  24.3094  24.5578  24.7083  24.7514  24.8264
 25.1701  25.3475  50.4387  50.5581  50.6192  50.7022
 
 Beta MOs
 -- Occupied --
-19.4567 -19.4002 -19.3441 -19.3439 -10.4175 -10.4145 -10.3892 -10.3533
-10.3523 -10.3500 -10.3490  -1.3216  -1.1790  -1.1514  -1.0071  -0.9578
 -0.8930  -0.8595  -0.7993  -0.7350  -0.7217  -0.6558  -0.6469  -0.6296
 -0.6140  -0.6071  -0.5827  -0.5669  -0.5559  -0.5320  -0.5229  -0.4984
 -0.4893  -0.4668  -0.4512  -0.4403  -0.4313  -0.4151  -0.3833  -0.3828
 -0.3302
 -- Virtual --
 -0.0341   0.0200   0.0272   0.0368   0.0405   0.0460   0.0543   0.0594
  0.0677   0.0771   0.0829   0.1014   0.1116   0.1217   0.1247   0.1303
  0.1344   0.1422   0.1455   0.1487   0.1553   0.1604   0.1631   0.1653
  0.1742   0.1749   0.1796   0.1874   0.1929   0.1981   0.2002   0.2061
  0.2107   0.2120   0.2149   0.2228   0.2316   0.2416   0.2456   0.2572
  0.2643   0.2675   0.2738   0.2845   0.2908   0.2942   0.2962   0.3161
  0.3181   0.3233   0.3253   0.3292   0.3359   0.3455   0.3503   0.3685
  0.3758   0.3784   0.3837   0.3880   0.3896   0.4003   0.4040   0.4086
  0.4141   0.4235   0.4341   0.4372   0.4407   0.4575   0.4660   0.4775
  0.4874   0.5067   0.5266   0.5541   0.5562   0.5643   0.5678   0.5932
  0.5969   0.6128   0.6194   0.6288   0.6313   0.6361   0.6447   0.6690
  0.6723   0.6763   0.6838   0.6925   0.7059   0.7089   0.7204   0.7354
  0.7368   0.7464   0.7532   0.7582   0.7691   0.7925   0.8037   0.8177
  0.8251   0.8285   0.8342   0.8515   0.8649   0.8682   0.8799   0.8938
  0.9048   0.9158   0.9318   0.9661   0.9916   0.9958   1.0133   1.0253
  1.0510   1.0740   1.0875   1.0952   1.1115   1.1168   1.1234   1.1364
  1.1506   1.1522   1.1661   1.1793   1.1883   1.2006   1.2100   1.2224
  1.2334   1.2387   1.2527   1.2607   1.2697   1.2733   1.2870   1.2906
  1.3143   1.3181   1.3321   1.3368   1.3430   1.3540   1.3698   1.3844
  1.3936   1.4027   1.4190   1.4263   1.4427   1.4522   1.4599   1.4705
  1.4932   1.4976   1.5026   1.5186   1.5385   1.5460   1.5545   1.5628
  1.5707   1.5805   1.5936   1.6090   1.6202   1.6385   1.6629   1.6709
  1.6880   1.7090   1.7136   1.7325   1.7440   1.7640   1.7717   1.8024
  1.8141   1.8205   1.8372   1.8815   1.9045   1.9368   1.9718   1.9965
  2.0109   2.0515   2.0747   2.0891   2.1241   2.1501   2.1838   2.2216
  2.2640   2.2724   2.2956   2.3304   2.3744   2.3942   2.4145   2.4451
  2.4545   2.4975   2.6195   2.6355   2.6743   2.6766   2.6882   2.7091
  2.7489   2.7701   2.7737   2.7837   2.8138   2.8263   2.8429   2.8526
  2.8628   2.8693   2.8942   2.9128   2.9288   2.9397   2.9423   2.9714
  2.9724   2.9849   2.9958   3.0246   3.0504   3.0787   3.0981   3.1276
  3.1411   3.1738   3.1783   3.1971   3.2228   3.2306   3.2364   3.2539
  3.2683   3.2936   3.3070   3.3288   3.3454   3.3578   3.3872   3.4062
  3.4157   3.4344   3.4473   3.4567   3.4690   3.4774   3.4998   3.5048
  3.5174   3.5377   3.5570   3.5735   3.5822   3.6166   3.6366   3.6614
  3.6723   3.6859   3.6940   3.7232   3.7440   3.7679   3.7775   3.7939
  3.7978   3.8212   3.8217   3.8395   3.8409   3.8703   3.8798   3.9026
  3.9104   3.9247   3.9380   3.9481   3.9586   3.9803   3.9866   4.0060
  4.0479   4.0670   4.0796   4.0970   4.1261   4.1320   4.1457   4.1708
  4.1995   4.2160   4.2324   4.2450   4.2768   4.2868   4.3047   4.3078
  4.3230   4.3457   4.3845   4.4089   4.4292   4.4387   4.4579   4.4747
  4.5085   4.5173   4.5393   4.5720   4.6017   4.6140   4.6410   4.6545
  4.6677   4.6749   4.6910   4.7119   4.7378   4.7668   4.7919   4.8096
  4.8313   4.8965   4.9396   4.9588   4.9762   4.9954   5.0646   5.1073
  5.1371   5.1470   5.1543   5.1899   5.2122   5.2539   5.2716   5.2859
  5.2929   5.3046   5.3319   5.3443   5.3685   5.3794   5.4068   5.4206
  5.4551   5.4841   5.5099   5.5236   5.5413   5.5748   5.6097   5.6295
  5.6665   5.6737   5.6940   5.7045   5.7313   5.7613   5.7700   5.8074
  5.8621   5.9250   5.9500   5.9566   6.0419   6.0742   6.1258   6.2636
  6.5130   6.5253   6.6139   6.6441   6.6696   6.9323   6.9875   7.0419
  7.1349   7.1445   7.1661   7.2529   7.3044   7.3099   7.3344   7.3635
  7.3938   7.4359   7.4696   7.4998   7.5222   7.6698   7.7184   7.7940
  7.8390   7.8688   8.0869   8.1364  24.3094  24.5579  24.7082  24.7512
 24.8264  25.1702  25.3475  50.4515  50.5673  50.6195  50.7024
 --------------------------------------------------------------
 
          Ground-State Mulliken Net Atomic Charges

     Atom                 Charge (a.u.)    Spin (a.u.)
  --------------------------------------------------------
      1 H                     0.285948       0.000952
      2 C                    -0.662315      -0.003064
      3 C                     0.124510       0.015086
      4 H                     0.309798      -0.001754
      5 C                    -0.520013       0.007633
      6 H                     0.284856       0.006423
      7 C                     0.362410      -0.006070
      8 C                    -0.391285      -0.001707
      9 C                    -0.438250      -0.001329
     10 H                     0.286217       0.000143
     11 C                    -0.150815       0.002554
     12 H                     0.302546       0.000035
     13 O                    -0.418547       0.003472
     14 H                     0.244424      -0.000065
     15 O                    -0.388056       0.000707
     16 H                     0.345607       0.000416
     17 H                     0.235046       0.000425
     18 H                     0.336795      -0.000817
     19 O                     0.045445       0.317554
     20 O                    -0.194320       0.659405
  --------------------------------------------------------
  Sum of atomic charges =    -0.000000
  Sum of spin   charges =     1.000000

 -----------------------------------------------------------------
                    Cartesian Multipole Moments
 -----------------------------------------------------------------
    Charge (ESU x 10^10)
                -0.0000
    Dipole Moment (Debye)
         X       2.9952      Y       1.7603      Z       2.6367
       Tot       4.3615
    Quadrupole Moments (Debye-Ang)
        XX     -61.6501     XY      -2.0078     YY     -64.9229
        XZ       1.1434     YZ       3.3434     ZZ     -70.8425
    Octopole Moments (Debye-Ang^2)
       XXX     -23.3098    XXY       0.8243    XYY       6.1808
       YYY       6.8357    XXZ      -4.8337    XYZ     -11.9547
       YYZ      -1.1899    XZZ     -27.2576    YZZ      12.3044
       ZZZ       4.2031
    Hexadecapole Moments (Debye-Ang^3)
      XXXX    -895.0613   XXXY      42.2709   XXYY    -306.5525
      XYYY      76.9436   YYYY    -721.6123   XXXZ      33.6745
      XXYZ      51.6916   XYYZ      13.4503   YYYZ     100.6595
      XXZZ    -234.0383   XYZZ      17.9897   YYZZ    -186.2494
      XZZZ      67.2437   YZZZ     114.0791   ZZZZ    -334.4941
 -----------------------------------------------------------------
 Calculating analytic gradient of the SCF energy
 Gradient of CDS energy
            1           2           3           4           5           6
    1   0.0001354   0.0002352  -0.0001711  -0.0001479  -0.0001710  -0.0000424
    2  -0.0001527  -0.0004908  -0.0003302  -0.0001317   0.0001312   0.0000667
    3  -0.0000074   0.0000250   0.0000697   0.0000606  -0.0000916   0.0001677
            7           8           9          10          11          12
    1  -0.0001767  -0.0002549   0.0000626  -0.0000076   0.0004552   0.0002010
    2  -0.0001361   0.0009525   0.0002791   0.0001710   0.0002563   0.0000368
    3  -0.0000228   0.0002122  -0.0001370  -0.0000575  -0.0000659  -0.0000165
           13          14          15          16          17          18
    1   0.0002446   0.0001280   0.0001162  -0.0002651   0.0000835  -0.0004799
    2  -0.0002234  -0.0000894   0.0000027  -0.0000608  -0.0002760   0.0000612
    3  -0.0000954  -0.0002427   0.0002648  -0.0004150   0.0001568   0.0001703
           19          20
    1   0.0001010  -0.0000460
    2  -0.0000738   0.0000074
    3   0.0000481  -0.0000236
 Gradient of SCF Energy
            1           2           3           4           5           6
    1   0.0051295  -0.0056504   0.0039023  -0.0004961  -0.0105510   0.0004690
    2  -0.0052402   0.0009076   0.0077443  -0.0041621  -0.0067990   0.0060012
    3   0.0001703  -0.0006282   0.0008926   0.0009384  -0.0095348   0.0102774
            7           8           9          10          11          12
    1   0.0090405  -0.0111751  -0.0068544   0.0022869  -0.0030643   0.0083768
    2   0.0024628  -0.0127011  -0.0006338   0.0081914  -0.0030931   0.0015154
    3  -0.0040359  -0.0077344   0.0025651  -0.0013496   0.0016498  -0.0004689
           13          14          15          16          17          18
    1   0.0038141   0.0048557   0.0054687  -0.0040572   0.0017973  -0.0034803
    2   0.0103228   0.0049970  -0.0031194   0.0006118   0.0018887  -0.0065171
    3  -0.0115949  -0.0025283  -0.0048295   0.0012148   0.0120869   0.0118179
           19          20
    1   0.0007043  -0.0005162
    2  -0.0021538  -0.0002234
    3   0.0002624   0.0008290
 Max gradient component =       1.270E-02
 RMS gradient           =       5.758E-03
 Computing fast CPCM-SWIG gradient
 Updating gradient with PCM contributions...
 -- total gradient after adding PCM contribution --
---------------------------------------------------
  Atom         X              Y              Z     
---------------------------------------------------
   1      -0.000021      -0.000040       0.000050
   2      -0.000084       0.000100      -0.000002
   3       0.000163       0.000059       0.000138
   4       0.000015      -0.000066      -0.000041
   5       0.000039      -0.000083      -0.000113
   6      -0.000083       0.000032       0.000014
   7      -0.000144       0.000299      -0.000056
   8      -0.000009      -0.000095      -0.000061
   9       0.000032      -0.000141       0.000119
  10      -0.000008       0.000049      -0.000007
  11       0.000051      -0.000073      -0.000102
  12      -0.000110      -0.000035      -0.000077
  13       0.000144      -0.000025      -0.000011
  14       0.000064       0.000065      -0.000139
  15       0.000136       0.000132       0.000044
  16      -0.000106      -0.000126      -0.000261
  17      -0.000075      -0.000025       0.000054
  18      -0.000108      -0.000002       0.000206
  19       0.000005      -0.000002       0.000274
  20       0.000098      -0.000024      -0.000028
---------------------------------------------------
 Number of fixed atoms: 0
 Gradient time:  CPU 449.34 s  wall 64.21 s

STARTING FREEZING STRING ITERATION # 1
 The distance between the innermost nodes (Angstroms): 4.435
-Adding two new nodes
 The distance between the previous and current R_nodes (Angstroms): 0.2326
 The distance between the previous and current P_nodes (Angstroms): 0.2061
-Optimizing new reactant side node
 Using BFGS, step: 2 E_tol 0.0415
 max_steps 6, node_spacing 0.2217, sigma 0.7000
 ----------------------------------------------------------------
             Standard Nuclear Orientation (Angstroms)
    I     Atom           X                Y                Z
 ----------------------------------------------------------------
    1      H       3.5114131255    -1.7820255189     0.5713523424
    2      C       2.6660927125    -1.1446658806     0.3568708392
    3      C       1.4048636514    -1.4296553094     0.9135288754
    4      H       1.2947217523    -2.2936884883     1.5560403497
    5      C       0.3281870478    -0.6332899469     0.6580087824
    6      H      -0.6158297201    -0.8302402841     1.1459857510
    7      C       0.3925034343     0.5509631738    -0.2534082085
    8      C      -0.0814865457     1.8319229241     0.4441729255
    9      C       1.7684822985     0.7741385553    -0.7995462012
   10      H       1.8893341659     1.6199342834    -1.4653607234
   11      C       2.8180172453    -0.0277147803    -0.4998961948
   12      H       3.7900205788     0.1770062454    -0.9297390589
   13      O      -1.4039277743     1.7361914228     0.9453574891
   14      H       0.0014631420     2.6603245825    -0.2646871136
   15      O      -0.5502427120     0.4086682183    -1.3444375710
   16      H      -0.4389789179    -0.4631044764    -1.7378046513
   17      H       0.5590857546     2.0387663405     1.2992651982
   18      H      -1.9779119505     1.4326634484     0.2338247749
   19      O      -2.8339051176    -1.6570067135    -0.4380626256
   20      O      -3.2817931838    -0.8447374438     0.3260878110
 ----------------------------------------------------------------
 Nuclear Repulsion Energy =         608.79795385 hartrees
 There are       42 alpha and       41 beta electrons
 Discretize the solute cavity surface with Lebedev spheres
	Using 110 Lebedev grid points for each H atom
	Using 194 Lebedev grid points for other atoms
	Atomic van der Waals radii will be scaled by 1.20
 Remove points where switching function is < 1.0e-08
 Keep 1608 surface tesserae and discard 1516 interior tesserae
 Molecular Surface Area = 192.307 Angst**2
 Applying Cartesian multipole field
    Component          Value
    ---------          -----
     (2,0,0)        1.00000E-11
     (0,2,0)        2.00000E-11
     (0,0,2)       -3.00000E-11
 Nucleus-field energy     =     0.0000000153 hartrees
 Requested basis set is 6-311++G(2df,2p)
 There are 142 shells and 464 basis functions
 A cutoff of  1.0D-12 yielded   8790 shell pairs
 There are     92826 function pairs (    115169 Cartesian)
 Smallest overlap matrix eigenvalue = 5.98E-07
 Linear dependence detected in AO basis
 Tighter screening thresholds may be required for diffuse basis sets
 Use S2THRESH > 14 and THRESH = 14 in case of SCF convergence issues
 Number of orthogonalized atomic orbitals = 463
 Maximum deviation from orthogonality = 3.971E-11
 Guess from superposition of atomic densities
 Warning:  Energy on first SCF cycle will be non-variational
 SAD guess density has 83.000000 electrons

 -----------------------------------------------------------------------
  General SCF calculation program by
  Eric Jon Sundstrom, Paul Horn, Yuezhi Mao, Dmitri Zuev, Alec White,
  David Stuck, Shaama M.S., Shane Yost, Joonho Lee, David Small,
  Daniel Levine, Susi Lehtola, Hugh Burton, Evgeny Epifanovsky,
  Bang C. Huynh
 -----------------------------------------------------------------------
 Exchange:     0.1500 Hartree-Fock + 1.0000 wB97M-V + LR-HF
 Correlation:  1.0000 wB97M-V
 Using SG-2 standard quadrature grid
 Nonlocal Correlation:  VV10 with C = 0.0100 and b = 6.00 and scale = 1.00000
 Grid used for NLC:  SG-1 standard quadrature
 
 Citation of the SMD model:
 Marenich, A.V.; Cramer, C.J.; Truhlar, D.G.
 J. Phys. Chem. B 2009, 113, 6378-6396.
 iSolventCode=           1
 Solvent: water                                                           
 
 vradii
            1           2           3           4           5           6
    1   1.2000000   1.8500000   1.8500000   1.2000000   1.8500000   1.2000000
            7           8           9          10          11          12
    1   1.8500000   1.8500000   1.8500000   1.2000000   1.8500000   1.2000000
           13          14          15          16          17          18
    1   1.5200000   1.2000000   1.5200000   1.2000000   1.2000000   1.2000000
           19          20
    1   1.5200000   1.5200000
 -------------------------------------------------------
 OpenMP BLAS3 based DFT computing Module                
 Release: version 1.0, May 2013, Q-Chem Inc. Pittsburgh 
 -------------------------------------------------------
 A unrestricted SCF calculation will be
 performed using DIIS, GDM
 SCF converges when RMS gradient is below 1.0e-07
 ---------------------------------------
  Cycle       Energy         DIIS error
 ---------------------------------------
    1    -575.5262874750      1.16e-02  
    2    -572.5557567650      1.41e-03  Done DIIS. Switching to GDM
 ---------------------------------------
  Cycle       Energy        RMS Gradient
 ---------------------------------------
    1    -572.5557567650      5.92e-01   Descent step
    2    -572.7403776705      7.91e-02   Descent step
    3    -572.7708443013      2.30e-01   Normal BFGS step
    4    -572.8103500873      6.86e-02   Normal BFGS step
    5    -572.8182782524      2.36e-02   Normal BFGS step
    6    -572.8193294884      7.46e-03   Normal BFGS step
    7    -572.8200506729      1.92e-02   Normal BFGS step
    8    -572.8207175265      3.39e-02  Line search: understep
    9    -572.8349585855      1.34e-01   Normal BFGS step
   10    -572.8323326199      9.77e-02  Line search: overstep
   11    -572.8424722145      1.21e-01   Dog-leg BFGS step
   12    -572.8703067913      4.74e-02   Normal BFGS step
   13    -572.8706535315      6.03e-02   Normal BFGS step
   14    -572.8747472310      1.05e-02   Normal BFGS step
   15    -572.8750068548      5.04e-03   Normal BFGS step
   16    -572.8751224187      2.30e-03   Normal BFGS step
   17    -572.8751448875      2.31e-03   Normal BFGS step
   18    -572.8751610255      5.73e-04   Normal BFGS step
   19    -572.8751631171      3.32e-04   Normal BFGS step
   20    -572.8751644102      2.65e-04   Normal BFGS step
   21    -572.8751647273      1.55e-04   Normal BFGS step
   22    -572.8751648445      4.97e-05   Normal BFGS step
   23    -572.8751648701      2.64e-05   Normal BFGS step
   24    -572.8751648753      1.46e-05   Normal BFGS step
   25    -572.8751648772      8.98e-06   Normal BFGS step
   26    -572.8751648777      3.23e-06   Normal BFGS step
   27    -572.8751648778      1.10e-06   Normal BFGS step
   28    -572.8751648778      7.37e-07   Normal BFGS step
   29    -572.8751648778      3.19e-07   Normal BFGS step
   30    -572.8751648778      1.05e-07   Normal BFGS step
   31    -572.8751648777      7.29e-08  Convergence criterion met
 ---------------------------------------
 SCF time:   CPU 4487.36s  wall 570.00s 
<S^2> =          1.796362605
(3)  G-ENP(liq) elect-nuc-pol free energy of system     -572.875164878 a.u.
(4)  G-CDS(liq) cavity-dispersion-solvent structure 
     free energy                                                3.3223 kcal/mol
(6)  G-S(liq) free energy of system                     -572.869870447 a.u.
 SCF   energy in the final basis set =     -572.8698704468
 Total energy in the final basis set =     -572.8698704468
 
 --------------------------------------------------------------
 
                    Orbital Energies (a.u.)
 --------------------------------------------------------------
 
 Alpha MOs
 -- Occupied --
-19.4890 -19.4888 -19.3389 -19.3370 -10.4089 -10.3840 -10.3460 -10.3457
-10.3445 -10.3424 -10.3420  -1.4366  -1.1691  -1.1444  -0.9698  -0.9598
 -0.8794  -0.8711  -0.7874  -0.7180  -0.7164  -0.6757  -0.6749  -0.6636
 -0.6557  -0.6073  -0.6033  -0.5769  -0.5537  -0.5435  -0.5230  -0.5187
 -0.4857  -0.4643  -0.4493  -0.4361  -0.4275  -0.4102  -0.4096  -0.3935
 -0.3837  -0.3459
 -- Virtual --
 -0.0256   0.0250   0.0361   0.0391   0.0479   0.0542   0.0582   0.0597
  0.0811   0.0857   0.0866   0.0997   0.1109   0.1225   0.1305   0.1348
  0.1378   0.1525   0.1536   0.1575   0.1610   0.1622   0.1651   0.1676
  0.1750   0.1802   0.1840   0.1896   0.1962   0.2028   0.2061   0.2118
  0.2164   0.2213   0.2230   0.2287   0.2370   0.2385   0.2452   0.2585
  0.2648   0.2725   0.2841   0.2938   0.2989   0.3017   0.3040   0.3171
  0.3223   0.3290   0.3335   0.3374   0.3420   0.3485   0.3531   0.3550
  0.3655   0.3750   0.3844   0.3918   0.3970   0.4022   0.4108   0.4191
  0.4280   0.4293   0.4327   0.4389   0.4519   0.4758   0.4837   0.4916
  0.5489   0.5523   0.5629   0.5739   0.5910   0.6037   0.6074   0.6164
  0.6228   0.6293   0.6337   0.6454   0.6611   0.6678   0.6724   0.6801
  0.6952   0.7022   0.7098   0.7236   0.7265   0.7340   0.7451   0.7479
  0.7517   0.7651   0.7658   0.7757   0.7901   0.8016   0.8133   0.8210
  0.8326   0.8380   0.8553   0.8647   0.8672   0.8734   0.8885   0.8993
  0.9133   0.9171   0.9493   0.9936   1.0050   1.0308   1.0436   1.0608
  1.0708   1.0751   1.0805   1.0924   1.0975   1.1101   1.1184   1.1281
  1.1410   1.1527   1.1673   1.1694   1.1833   1.1896   1.1978   1.2068
  1.2147   1.2229   1.2448   1.2532   1.2617   1.2702   1.2785   1.2999
  1.3048   1.3369   1.3439   1.3501   1.3584   1.3633   1.3858   1.3953
  1.3992   1.4043   1.4222   1.4295   1.4354   1.4418   1.4498   1.4600
  1.4660   1.4792   1.4917   1.4953   1.5115   1.5313   1.5370   1.5473
  1.5645   1.5782   1.5903   1.5944   1.6119   1.6187   1.6333   1.6545
  1.6631   1.6981   1.7111   1.7200   1.7368   1.7483   1.7577   1.7766
  1.8106   1.8192   1.8291   1.8659   1.8723   1.9018   1.9743   2.0041
  2.0337   2.0540   2.0761   2.1001   2.1268   2.1608   2.2227   2.2903
  2.3033   2.3166   2.3414   2.3597   2.4005   2.4263   2.4421   2.4534
  2.6007   2.6024   2.6230   2.6478   2.6643   2.6964   2.7086   2.7307
  2.7821   2.8115   2.8232   2.8244   2.8365   2.8485   2.8560   2.8866
  2.8996   2.9058   2.9207   2.9229   2.9437   2.9500   2.9645   2.9799
  2.9962   2.9983   3.0093   3.0534   3.0669   3.0897   3.1278   3.1520
  3.1679   3.1889   3.1983   3.2091   3.2121   3.2462   3.2562   3.2699
  3.2841   3.2914   3.3133   3.3272   3.3555   3.3661   3.3821   3.4135
  3.4287   3.4421   3.4515   3.4594   3.4831   3.5036   3.5059   3.5160
  3.5298   3.5479   3.5532   3.5601   3.6111   3.6246   3.6575   3.6693
  3.6768   3.6847   3.7176   3.7281   3.7407   3.7751   3.7949   3.8107
  3.8267   3.8350   3.8589   3.8803   3.8979   3.9039   3.9126   3.9176
  3.9354   3.9630   3.9927   3.9997   4.0212   4.0286   4.0478   4.0831
  4.1037   4.1102   4.1460   4.1608   4.1685   4.1869   4.1999   4.2098
  4.2493   4.2673   4.2703   4.3187   4.3369   4.3462   4.3653   4.3795
  4.4101   4.4398   4.4459   4.4760   4.4837   4.5079   4.5150   4.5250
  4.5511   4.5550   4.5659   4.5750   4.5776   4.5825   4.5981   4.6322
  4.6513   4.6665   4.6805   4.7107   4.7179   4.7385   4.7955   4.8281
  4.8983   4.9027   4.9049   4.9366   4.9845   5.0059   5.0178   5.0698
  5.1059   5.1158   5.1488   5.1505   5.1519   5.1611   5.1636   5.2019
  5.2422   5.2468   5.3086   5.3151   5.3279   5.3358   5.3703   5.3950
  5.4273   5.4544   5.4869   5.5147   5.5788   5.5949   5.6184   5.6521
  5.6797   5.7043   5.7381   5.7415   5.7446   5.7457   5.7877   5.8776
  5.8938   5.9381   5.9845   5.9910   6.1302   6.1995   6.4681   6.5806
  6.6580   6.6683   6.6957   6.8050   6.8089   6.8120   6.8186   6.8930
  6.9732   6.9830   7.1087   7.1551   7.3083   7.3283   7.3509   7.3565
  7.3615   7.3928   7.4286   7.4650   7.6666   7.7864   7.8139   7.8659
  8.0941   8.1054  24.2641  24.6319  24.7093  24.8280  24.8736  25.0948
 25.4065  50.4209  50.5278  50.6082  50.6695
 
 Beta MOs
 -- Occupied --
-19.4588 -19.4584 -19.3407 -19.3371 -10.4081 -10.3849 -10.3520 -10.3480
-10.3472 -10.3434 -10.3432  -1.3803  -1.1714  -1.1465  -0.9765  -0.8857
 -0.8763  -0.8731  -0.7969  -0.7228  -0.7207  -0.6578  -0.6198  -0.6127
 -0.6071  -0.5830  -0.5703  -0.5680  -0.5552  -0.5479  -0.5249  -0.5209
 -0.4916  -0.4703  -0.4564  -0.4505  -0.4361  -0.3991  -0.3892  -0.3619
 -0.2718
 -- Virtual --
 -0.0128  -0.0128   0.0256   0.0365   0.0394   0.0482   0.0545   0.0584
  0.0601   0.0660   0.0850   0.0873   0.0990   0.1109   0.1223   0.1302
  0.1341   0.1395   0.1531   0.1540   0.1576   0.1611   0.1623   0.1643
  0.1652   0.1756   0.1804   0.1847   0.1899   0.1975   0.2033   0.2067
  0.2102   0.2131   0.2206   0.2223   0.2286   0.2395   0.2410   0.2458
  0.2608   0.2650   0.2749   0.2856   0.2941   0.2983   0.3003   0.3051
  0.3187   0.3245   0.3305   0.3336   0.3349   0.3407   0.3487   0.3531
  0.3564   0.3684   0.3758   0.3833   0.3913   0.3975   0.4085   0.4156
  0.4254   0.4284   0.4293   0.4315   0.4381   0.4556   0.4769   0.4808
  0.4928   0.5478   0.5489   0.5604   0.5700   0.5894   0.6000   0.6030
  0.6113   0.6209   0.6261   0.6315   0.6434   0.6580   0.6656   0.6711
  0.6745   0.6914   0.7000   0.7085   0.7187   0.7204   0.7308   0.7429
  0.7446   0.7487   0.7584   0.7641   0.7727   0.7879   0.8004   0.8110
  0.8189   0.8288   0.8388   0.8509   0.8598   0.8625   0.8733   0.8855
  0.8972   0.9110   0.9169   0.9477   0.9935   1.0039   1.0367   1.0458
  1.0714   1.0739   1.0762   1.0864   1.0968   1.1072   1.1209   1.1221
  1.1443   1.1537   1.1583   1.1692   1.1766   1.1907   1.1969   1.2067
  1.2080   1.2211   1.2249   1.2450   1.2538   1.2654   1.2702   1.2788
  1.3021   1.3084   1.3367   1.3423   1.3541   1.3581   1.3648   1.3843
  1.3967   1.4062   1.4272   1.4310   1.4330   1.4396   1.4460   1.4562
  1.4626   1.4682   1.4812   1.4898   1.4941   1.5155   1.5336   1.5450
  1.5485   1.5645   1.5772   1.5933   1.6024   1.6102   1.6322   1.6371
  1.6549   1.6631   1.6961   1.7096   1.7250   1.7450   1.7650   1.7846
  1.7997   1.8122   1.8210   1.8369   1.8617   1.8672   1.9021   1.9705
  2.0016   2.0335   2.0499   2.0712   2.0946   2.1250   2.1586   2.2202
  2.2895   2.3021   2.3501   2.3742   2.3811   2.4069   2.4252   2.4406
  2.4528   2.5957   2.6035   2.6323   2.6369   2.6610   2.6863   2.7031
  2.7198   2.7733   2.8041   2.8047   2.8193   2.8250   2.8406   2.8520
  2.8750   2.8869   2.8968   2.9045   2.9149   2.9323   2.9404   2.9495
  2.9593   2.9831   2.9896   2.9954   3.0366   3.0487   3.0727   3.1139
  3.1432   3.1629   3.1787   3.1944   3.1983   3.2047   3.2382   3.2447
  3.2582   3.2743   3.2859   3.3056   3.3184   3.3434   3.3571   3.3708
  3.4054   3.4190   3.4356   3.4420   3.4512   3.4754   3.4902   3.4989
  3.5045   3.5230   3.5400   3.5433   3.5479   3.5979   3.6129   3.6483
  3.6551   3.6671   3.6764   3.7088   3.7218   3.7302   3.7629   3.7893
  3.8024   3.8211   3.8252   3.8491   3.8701   3.8865   3.8985   3.9040
  3.9133   3.9247   3.9539   3.9831   3.9927   4.0105   4.0187   4.0382
  4.0745   4.0971   4.1024   4.1424   4.1550   4.1619   4.1805   4.1959
  4.2018   4.2414   4.2623   4.2643   4.3114   4.3324   4.3409   4.3527
  4.3724   4.4058   4.4322   4.4403   4.4643   4.4763   4.4998   4.5060
  4.5212   4.5428   4.5576   4.5877   4.6058   4.6194   4.6258   4.6279
  4.6306   4.6394   4.6564   4.6669   4.7049   4.7098   4.7273   4.7873
  4.8182   4.9231   4.9374   4.9805   4.9853   4.9927   5.0533   5.0816
  5.1133   5.1429   5.1496   5.1706   5.1877   5.1932   5.2292   5.2327
  5.2356   5.2361   5.2399   5.3045   5.3149   5.3281   5.3669   5.3818
  5.3923   5.4188   5.4505   5.4846   5.5095   5.5710   5.5908   5.6172
  5.6412   5.6782   5.7026   5.7313   5.7362   5.7796   5.8054   5.8062
  5.8677   5.8756   5.9330   5.9767   5.9884   6.1280   6.1861   6.4584
  6.5767   6.6599   6.8023   6.8264   6.8858   6.8892   6.9371   6.9465
  6.9543   7.0522   7.0616   7.1112   7.1531   7.3064   7.3303   7.3547
  7.3900   7.4021   7.4085   7.4257   7.4651   7.6665   7.7847   7.8118
  7.8601   8.1258   8.1578  24.2623  24.6301  24.7086  24.8244  24.8712
 25.0932  25.4040  50.4448  50.5516  50.6079  50.6685
 --------------------------------------------------------------
 
          Ground-State Mulliken Net Atomic Charges

     Atom                 Charge (a.u.)    Spin (a.u.)
  --------------------------------------------------------
      1 H                     0.290080       0.009945
      2 C                    -0.333910      -0.511985
      3 C                    -0.441287       0.164047
      4 H                     0.291226      -0.005295
      5 C                    -0.216340      -0.391931
      6 H                     0.270983       0.007195
      7 C                     0.278343       0.012351
      8 C                    -0.505007      -0.020759
      9 C                    -0.238475      -0.367745
     10 H                     0.301513       0.008156
     11 C                    -0.357034       0.146502
     12 H                     0.293333      -0.005247
     13 O                    -0.401160      -0.004542
     14 H                     0.237134      -0.003342
     15 O                    -0.396708      -0.032439
     16 H                     0.321368       0.000973
     17 H                     0.222747      -0.002910
     18 H                     0.342573       0.000926
     19 O                     0.021989       1.000047
     20 O                     0.018631       0.996052
  --------------------------------------------------------
  Sum of atomic charges =     0.000000
  Sum of spin   charges =     1.000000

 -----------------------------------------------------------------
                    Cartesian Multipole Moments
 -----------------------------------------------------------------
    Charge (ESU x 10^10)
                 0.0000
    Dipole Moment (Debye)
         X       2.2930      Y      -2.1477      Z      -1.2755
       Tot       3.3908
    Quadrupole Moments (Debye-Ang)
        XX     -59.5944     XY       2.3606     YY     -63.5619
        XZ       1.6570     YZ      -3.6962     ZZ     -67.8472
    Octopole Moments (Debye-Ang^2)
       XXX     -18.6921    XXY     -10.6676    XYY      -0.4646
       YYY      -6.4602    XXZ     -11.3195    XYZ      -0.3432
       YYZ      -4.2551    XZZ      -7.5479    YZZ     -10.7561
       ZZZ     -10.1454
    Hexadecapole Moments (Debye-Ang^3)
      XXXX   -1402.3067   XXXY     -21.1683   XXYY    -355.1264
      XYYY      13.6573   YYYY    -643.1384   XXXZ      10.6530
      XXYZ     -20.3284   XYYZ      24.9844   YYYZ     -12.8108
      XXZZ    -315.9618   XYZZ      17.9620   YYZZ    -154.3004
      XZZZ      25.5479   YZZZ      20.5174   ZZZZ    -310.6249
 -----------------------------------------------------------------
 Calculating analytic gradient of the SCF energy
 Gradient of CDS energy
            1           2           3           4           5           6
    1   0.0001577   0.0004452  -0.0001661  -0.0000213  -0.0002300  -0.0001514
    2  -0.0001189  -0.0003367  -0.0003356  -0.0001667   0.0000315   0.0000518
    3   0.0000400   0.0001255   0.0002819   0.0001240   0.0001654  -0.0000281
            7           8           9          10          11          12
    1  -0.0001797  -0.0003462  -0.0000077  -0.0000686   0.0003750   0.0001876
    2   0.0000362   0.0009335   0.0001922   0.0001808   0.0001840   0.0000395
    3  -0.0000853   0.0004311  -0.0001962  -0.0001061  -0.0002333  -0.0000829
           13          14          15          16          17          18
    1   0.0003096   0.0000677   0.0000880  -0.0000478   0.0000872  -0.0003563
    2  -0.0003414  -0.0001179  -0.0000054  -0.0001271  -0.0002124   0.0002261
    3  -0.0000678  -0.0003079   0.0002880  -0.0004654   0.0001348  -0.0000900
           19          20
    1  -0.0001292  -0.0000137
    2   0.0000001  -0.0001135
    3   0.0000585   0.0000141
 Gradient of SCF Energy
            1           2           3           4           5           6
    1   0.0057340  -0.0077302   0.0028912  -0.0000138   0.0010186  -0.0007314
    2  -0.0046066   0.0044704   0.0009195  -0.0062545   0.0045072  -0.0017586
    3   0.0014292   0.0012819  -0.0010142   0.0027073  -0.0038316   0.0025067
            7           8           9          10          11          12
    1   0.0008860  -0.0036147  -0.0043725   0.0013005  -0.0031214   0.0063503
    2  -0.0024821  -0.0034498  -0.0021058   0.0043192  -0.0004930   0.0009828
    3  -0.0022338  -0.0026455   0.0038237  -0.0027030   0.0018821  -0.0025940
           13          14          15          16          17          18
    1   0.0006875   0.0009901   0.0008595   0.0002500   0.0014200  -0.0024853
    2   0.0043381   0.0015682   0.0096124  -0.0083851   0.0003107  -0.0013699
    3   0.0063409  -0.0009195   0.0009768  -0.0036239   0.0006540  -0.0024374
           19          20
    1   0.0048347  -0.0051531
    2  -0.0087131   0.0085898
    3  -0.0082999   0.0087001
 Max gradient component =       9.612E-03
 RMS gradient           =       4.110E-03
 Computing fast CPCM-SWIG gradient
 Updating gradient with PCM contributions...
 -- total gradient after adding PCM contribution --
---------------------------------------------------
  Atom         X              Y              Z     
---------------------------------------------------
   1      -0.000129      -0.000077      -0.000032
   2      -0.002088       0.000346       0.001934
   3       0.004234      -0.003575       0.001250
   4       0.000343      -0.000923      -0.000922
   5      -0.001993       0.003890      -0.003260
   6       0.001834       0.000534       0.001809
   7      -0.001942      -0.001869      -0.000738
   8      -0.001298      -0.001455      -0.002477
   9      -0.000151      -0.000712       0.000347
  10       0.000270      -0.000047       0.000115
  11      -0.000424       0.000977      -0.000272
  12       0.000077      -0.000139       0.000131
  13       0.001200       0.001316      -0.001817
  14      -0.000376       0.000327       0.000636
  15       0.002760      -0.000233       0.000861
  16      -0.001218       0.001701       0.000006
  17      -0.000780      -0.000244       0.000636
  18      -0.000318       0.000199       0.001754
  19       0.003029      -0.005479      -0.005300
  20      -0.003030       0.005465       0.005338
---------------------------------------------------
 Number of fixed atoms: 0
 Gradient time:  CPU 390.17 s  wall 56.79 s
 ----------------------------------------------------------------
             Standard Nuclear Orientation (Angstroms)
    I     Atom           X                Y                Z
 ----------------------------------------------------------------
    1      H       3.5108536958    -1.7832945657     0.5704768717
    2      C       2.6739480732    -1.1470872113     0.3484144630
    3      C       1.3865622816    -1.4157431814     0.9074090887
    4      H       1.2920179648    -2.2913240383     1.5580591516
    5      C       0.3360625009    -0.6490902686     0.6711427968
    6      H      -0.6229972999    -0.8308513470     1.1401077729
    7      C       0.4004071010     0.5589484141    -0.2506728258
    8      C      -0.0767345278     1.8382901027     0.4535426563
    9      C       1.7694143773     0.7773796011    -0.8002506375
[...]
           19          20
    1  -0.0001014   0.0000099
    2  -0.0000814  -0.0001008
    3   0.0000737  -0.0000055
 Gradient of SCF Energy
            1           2           3           4           5           6
    1   0.0199321  -0.0077671  -0.0067881   0.0008266  -0.0070749   0.0017750
    2  -0.0115994   0.0096880   0.0035906  -0.0093137  -0.0025486   0.0016838
    3   0.0087354  -0.0028532  -0.0014673   0.0118500  -0.0025882   0.0034681
            7           8           9          10          11          12
    1   0.0028924  -0.0235592  -0.0137869   0.0038148  -0.0045209   0.0215202
    2  -0.0040458  -0.0106536   0.0073041   0.0119054  -0.0058970   0.0011924
    3  -0.0061377  -0.0003001   0.0112741  -0.0134986   0.0059489  -0.0098647
           13          14          15          16          17          18
    1   0.0064559   0.0036266  -0.0081039   0.0060484   0.0139639  -0.0047911
    2  -0.0016551   0.0094936  -0.0069709   0.0067374   0.0001093   0.0042386
    3   0.0080089  -0.0098516  -0.0057961   0.0025889   0.0086988  -0.0059869
           19          20
    1   0.0035186  -0.0079827
    2   0.0016663  -0.0049254
    3  -0.0034081   0.0011795
 Max gradient component =       2.356E-02
 RMS gradient           =       8.409E-03
 Computing fast CPCM-SWIG gradient
 Updating gradient with PCM contributions...
 -- total gradient after adding PCM contribution --
---------------------------------------------------
  Atom         X              Y              Z     
---------------------------------------------------
   1      -0.000006       0.000026       0.000031
   2      -0.000117      -0.000116       0.000145
   3       0.000159      -0.000039      -0.000020
   4      -0.000023       0.000004      -0.000002
   5       0.000031      -0.000082       0.000174
   6      -0.000148      -0.000060      -0.000261
   7      -0.000038       0.000117       0.000079
   8       0.000056      -0.000163      -0.000075
   9       0.000141      -0.000063      -0.000125
  10       0.000002      -0.000027       0.000017
  11      -0.000087       0.000157      -0.000061
  12       0.000006      -0.000011       0.000022
  13      -0.000107       0.000036       0.000035
  14      -0.000002       0.000009       0.000004
  15       0.000124      -0.000020      -0.000414
  16      -0.000226       0.000097       0.000440
  17       0.000020       0.000012      -0.000001
  18      -0.000009      -0.000009      -0.000001
  19       0.000241       0.000162       0.000025
  20      -0.000019      -0.000030      -0.000013
---------------------------------------------------
 Number of fixed atoms: 0
 Gradient time:  CPU 444.10 s  wall 64.28 s
 Geometry Optimization Parameters
   NAtoms,    NIC,     NZ,  NCons,   NDum,   NFix, NCnnct, MaxDiis
       20     154       0       0       0       0       0       0

 Cartesian Hessian Update
 Hessian updated using Powell/Murtagh-Sargent update
  Mixing factors:     0.997306 Powell                      0.002694 Murtagh-Sargent


** GEOMETRY OPTIMIZATION IN DELOCALIZED INTERNAL COORDINATES **
   Searching for a Transition State

   Optimization Cycle:  83

                       Coordinates (Angstroms)
     ATOM                X               Y               Z
      1  H         3.1711627128   -1.5681011383    0.9259192322
      2  C         2.3163040038   -1.0192191611    0.5528821736
      3  C         1.0845589564   -1.2021107681    1.1688172223
      4  H         0.9805227254   -1.9045513691    1.9813108357
      5  C         0.0001480820   -0.5163652375    0.6892742725
      6  H        -0.9804752501   -0.6329238423    1.1289562506
      7  C         0.1501363789    0.5353349957   -0.3271782886
      8  C         0.1996431375    1.8931508519    0.5210247666
      9  C         1.4443721374    0.5309714512   -1.0366130777
     10  H         1.5298633483    1.1835538291   -1.8957550989
     11  C         2.4979992486   -0.1713574588   -0.5664080986
     12  H         3.4648451033   -0.1193252167   -1.0434362181
     13  O        -0.9927926332    2.0737104114    1.2382346609
     14  H         0.3544572491    2.6892077198   -0.2064963550
     15  O        -0.9711997624    0.6485583694   -1.1682827165
     16  H        -1.2053551115   -0.2895192404   -1.3565514210
     17  H         1.0269764463    1.8554533975    1.2234251908
     18  H        -1.7030545289    2.2411951207    0.6077979320
     19  O        -1.0338575222   -2.0213154457   -1.1170302389
     20  O        -2.2073009045   -2.3619213604   -0.6233517258
   Point Group: c1    Number of degrees of freedom:    54


   Energy is   -572.849789118

 Hessian updated using Powell/Murtagh-Sargent update
  Mixing factors:     0.996341 Powell                      0.003659 Murtagh-Sargent

 54 Hessian modes will be used to form the next step
  Hessian Eigenvalues:
    -0.014773    0.000973    0.002930    0.005747    0.009132    0.012317
     0.014751    0.017309    0.019941    0.021831    0.023740    0.024565
     0.025555    0.027264    0.035716    0.047548    0.049658    0.054657
     0.061751    0.073573    0.079093    0.103802    0.114117    0.119453
     0.139778    0.149526    0.158817    0.159047    0.159814    0.160682
     0.161169    0.178068    0.216283    0.218785    0.226903    0.270238
     0.286458    0.313953    0.340218    0.342926    0.357048    0.359440
     0.360422    0.362148    0.363302    0.379421    0.416438    0.441232
     0.447654    0.502432    0.514210    0.536954    0.544728    0.588329

 Transition state search - taking P-RFO step
 Searching for Lamda that Maximizes Along the Lowest mode
 Value Taken    Lamda =   0.00000289
 Searching for Lamda that Minimizes Along All other modes
 Value Taken    Lamda =  -0.00000391
 Step Taken.  Stepsize is  0.031789

                             Maximum     Tolerance    Cnvgd?
         Gradient           0.000207      0.000300     YES
         Displacement       0.011292      0.001200      NO
         Energy change     -0.000001      0.000001     YES

 Final energy is   -572.849789117504     


 ******************************
 **  OPTIMIZATION CONVERGED  **
 ******************************

                       Coordinates (Angstroms)
     ATOM                X               Y               Z
      1  H         3.1711627128   -1.5681011383    0.9259192322
      2  C         2.3163040038   -1.0192191611    0.5528821736
      3  C         1.0845589564   -1.2021107681    1.1688172223
      4  H         0.9805227254   -1.9045513691    1.9813108357
      5  C         0.0001480820   -0.5163652375    0.6892742725
      6  H        -0.9804752501   -0.6329238423    1.1289562506
      7  C         0.1501363789    0.5353349957   -0.3271782886
      8  C         0.1996431375    1.8931508519    0.5210247666
      9  C         1.4443721374    0.5309714512   -1.0366130777
     10  H         1.5298633483    1.1835538291   -1.8957550989
     11  C         2.4979992486   -0.1713574588   -0.5664080986
     12  H         3.4648451033   -0.1193252167   -1.0434362181
     13  O        -0.9927926332    2.0737104114    1.2382346609
     14  H         0.3544572491    2.6892077198   -0.2064963550
     15  O        -0.9711997624    0.6485583694   -1.1682827165
     16  H        -1.2053551115   -0.2895192404   -1.3565514210
     17  H         1.0269764463    1.8554533975    1.2234251908
     18  H        -1.7030545289    2.2411951207    0.6077979320
     19  O        -1.0338575222   -2.0213154457   -1.1170302389
     20  O        -2.2073009045   -2.3619213604   -0.6233517258

Z-matrix Print:
$molecule
0 2
O 
H  1 0.985020
C  1 1.406297 2 103.131599
C  3 1.470288 1 112.937791 2 -42.438817 0
H  4 1.080985 3 116.799050 1 -38.074201 0
C  4 1.369728 3 121.290871 1 149.568837 0
H  6 1.079070 4 120.876163 3 174.044938 0
C  6 1.389252 4 118.738355 3 -8.606535 0
H  8 1.082225 6 118.735081 4 -179.433573 0
C  8 1.415872 6 122.894913 4 -1.140557 0
H  10 1.079377 8 119.550391 6 -175.953831 0
C  10 1.350736 8 119.107987 6 2.343675 0
H  12 1.082265 10 121.887278 8 -179.303811 0
C  3 1.601738 1 105.849923 2 -155.700350 0
H  14 1.085941 3 109.672348 1 177.844145 0
H  14 1.089477 3 105.674906 1 -63.123637 0
O  14 1.403173 3 110.700888 1 57.853489 0
H  17 0.964351 14 108.306587 3 -67.994986 0
O  2 1.756673 1 152.821729 3 7.637566 0
O  19 1.317839 2 102.647160 1 115.438548 0
$end

 
 --------------------------------------------------------------
 
                    Orbital Energies (a.u.)
 --------------------------------------------------------------
 
 Alpha MOs
 -- Occupied --
-19.3602 -19.3547 -19.3528 -19.3459 -10.4351 -10.4185 -10.4145 -10.4120
-10.3958 -10.3722 -10.3703  -1.2403  -1.1890  -1.1643  -1.0184  -0.9165
 -0.9085  -0.8822  -0.8147  -0.7579  -0.7430  -0.6781  -0.6464  -0.6269
 -0.6098  -0.5847  -0.5786  -0.5629  -0.5508  -0.5394  -0.5373  -0.5238
 -0.5004  -0.4858  -0.4734  -0.4673  -0.4586  -0.4177  -0.3933  -0.3813
 -0.3362  -0.3079
 -- Virtual --
 -0.0633   0.0246   0.0341   0.0365   0.0484   0.0496   0.0563   0.0578
  0.0660   0.0830   0.0842   0.0992   0.1096   0.1118   0.1306   0.1324
  0.1407   0.1432   0.1519   0.1534   0.1546   0.1586   0.1597   0.1642
  0.1730   0.1770   0.1817   0.1858   0.1965   0.1992   0.2081   0.2099
  0.2128   0.2179   0.2211   0.2279   0.2330   0.2392   0.2522   0.2616
  0.2718   0.2800   0.2898   0.2951   0.2980   0.3015   0.3050   0.3121
  0.3125   0.3198   0.3320   0.3345   0.3405   0.3508   0.3535   0.3559
  0.3612   0.3665   0.3821   0.3880   0.3892   0.3964   0.4034   0.4156
  0.4197   0.4213   0.4283   0.4358   0.4652   0.4674   0.4795   0.4943
  0.5237   0.5408   0.5542   0.5673   0.5723   0.5783   0.5862   0.5978
  0.6115   0.6201   0.6243   0.6296   0.6377   0.6537   0.6567   0.6793
  0.6820   0.7002   0.7054   0.7097   0.7119   0.7249   0.7298   0.7320
  0.7477   0.7545   0.7621   0.7808   0.7967   0.8019   0.8078   0.8139
  0.8260   0.8327   0.8413   0.8505   0.8587   0.8713   0.8851   0.8885
  0.9001   0.9304   0.9429   0.9725   1.0095   1.0339   1.0424   1.0594
  1.0643   1.0744   1.0984   1.1048   1.1146   1.1296   1.1365   1.1434
  1.1562   1.1733   1.1861   1.1913   1.1947   1.2119   1.2262   1.2314
  1.2398   1.2456   1.2658   1.2721   1.2854   1.2944   1.2982   1.3131
  1.3150   1.3411   1.3540   1.3631   1.3646   1.3756   1.3848   1.3876
  1.3957   1.4115   1.4160   1.4343   1.4389   1.4463   1.4615   1.4672
  1.4803   1.4869   1.4905   1.5160   1.5248   1.5448   1.5478   1.5638
  1.5682   1.5810   1.5982   1.6055   1.6190   1.6444   1.6556   1.6739
  1.6853   1.6959   1.7217   1.7526   1.7580   1.7691   1.7849   1.8006
  1.8099   1.8412   1.8720   1.9061   1.9195   1.9415   1.9700   2.0400
  2.0485   2.0715   2.0952   2.1109   2.1347   2.2108   2.2451   2.2602
  2.2822   2.3355   2.3673   2.3910   2.4047   2.4669   2.4867   2.5317
  2.5923   2.6172   2.6210   2.6472   2.6813   2.7015   2.7124   2.7286
  2.7581   2.7834   2.7952   2.8043   2.8133   2.8363   2.8430   2.8542
  2.8755   2.8870   2.8990   2.9067   2.9176   2.9399   2.9417   2.9661
  2.9684   2.9790   3.0098   3.0358   3.0502   3.0691   3.0849   3.1282
  3.1461   3.1735   3.1801   3.1981   3.2088   3.2223   3.2304   3.2631
  3.2767   3.2783   3.2943   3.3073   3.3237   3.3393   3.3720   3.3779
  3.3938   3.4139   3.4245   3.4410   3.4488   3.4540   3.4708   3.4872
  3.5046   3.5193   3.5290   3.5570   3.5685   3.5767   3.6241   3.6383
  3.6640   3.6673   3.6926   3.7147   3.7344   3.7671   3.7753   3.8072
  3.8094   3.8305   3.8352   3.8427   3.8678   3.8705   3.8923   3.9261
  3.9340   3.9582   3.9724   3.9969   4.0087   4.0175   4.0305   4.0382
  4.0563   4.0927   4.1140   4.1344   4.1538   4.1851   4.1880   4.2007
  4.2335   4.2457   4.2536   4.2994   4.3176   4.3299   4.3450   4.3693
  4.4054   4.4140   4.4359   4.4458   4.4745   4.4775   4.5105   4.5294
  4.5490   4.5714   4.5746   4.5897   4.6147   4.6177   4.6362   4.6472
  4.6912   4.6980   4.7110   4.7316   4.7609   4.7766   4.7893   4.8035
  4.8497   4.8715   4.9570   5.0587   5.0780   5.1057   5.1112   5.1252
  5.1358   5.1375   5.1812   5.2236   5.2382   5.2420   5.2573   5.2702
  5.2847   5.2973   5.3034   5.3161   5.3505   5.3648   5.3770   5.4059
  5.4198   5.4582   5.4791   5.5032   5.5526   5.5923   5.6096   5.6258
  5.6346   5.6600   5.6827   5.7032   5.7239   5.7646   5.7813   5.8337
  5.8998   5.9263   5.9891   6.0624   6.1080   6.2287   6.4405   6.4714
  6.5067   6.6748   6.7263   6.8419   6.8680   6.9618   6.9809   7.0706
  7.1056   7.1397   7.1843   7.1974   7.2869   7.3139   7.3683   7.3739
  7.4271   7.4519   7.4872   7.5249   7.6581   7.7703   7.7862   7.8948
  7.9839   8.0456  24.2522  24.6144  24.6841  24.8182  24.8644  25.0754
 25.3998  50.4588  50.5493  50.5988  50.7015
 
 Beta MOs
 -- Occupied --
-19.3528 -19.3466 -19.3458 -19.3394 -10.4351 -10.4185 -10.4145 -10.4122
-10.3957 -10.3721 -10.3702  -1.2117  -1.1885  -1.1641  -1.0184  -0.9162
 -0.9085  -0.8411  -0.8139  -0.7579  -0.7429  -0.6776  -0.6463  -0.6264
 -0.6095  -0.5837  -0.5776  -0.5620  -0.5465  -0.5224  -0.5151  -0.4919
 -0.4864  -0.4770  -0.4670  -0.4580  -0.4534  -0.4166  -0.3925  -0.3776
 -0.2875
 -- Virtual --
 -0.0646   0.0181   0.0256   0.0347   0.0367   0.0485   0.0509   0.0571
  0.0580   0.0668   0.0834   0.0845   0.0997   0.1098   0.1124   0.1309
  0.1329   0.1416   0.1440   0.1522   0.1540   0.1548   0.1591   0.1604
  0.1645   0.1731   0.1773   0.1822   0.1868   0.1972   0.2011   0.2084
  0.2102   0.2131   0.2184   0.2217   0.2296   0.2345   0.2405   0.2542
  0.2625   0.2730   0.2804   0.2913   0.2957   0.2992   0.3067   0.3084
  0.3127   0.3136   0.3203   0.3340   0.3361   0.3416   0.3513   0.3560
  0.3618   0.3635   0.3680   0.3823   0.3890   0.3901   0.3966   0.4046
  0.4167   0.4213   0.4216   0.4299   0.4362   0.4655   0.4682   0.4805
  0.4963   0.5241   0.5410   0.5543   0.5677   0.5724   0.5783   0.5862
  0.5980   0.6115   0.6203   0.6245   0.6297   0.6379   0.6538   0.6569
  0.6794   0.6821   0.7005   0.7055   0.7099   0.7124   0.7250   0.7300
  0.7323   0.7479   0.7545   0.7625   0.7811   0.7975   0.8019   0.8080
  0.8140   0.8263   0.8333   0.8417   0.8510   0.8589   0.8718   0.8855
  0.8888   0.9002   0.9315   0.9433   0.9737   1.0124   1.0351   1.0427
  1.0600   1.0668   1.0755   1.0994   1.1056   1.1171   1.1304   1.1399
  1.1450   1.1581   1.1885   1.1906   1.1936   1.2009   1.2132   1.2312
  1.2379   1.2438   1.2500   1.2673   1.2755   1.2889   1.2998   1.3013
  1.3151   1.3205   1.3415   1.3556   1.3647   1.3658   1.3764   1.3860
  1.3888   1.3975   1.4132   1.4165   1.4361   1.4466   1.4483   1.4633
  1.4687   1.4850   1.4878   1.4942   1.5181   1.5289   1.5474   1.5514
  1.5647   1.5716   1.5832   1.6010   1.6089   1.6193   1.6489   1.6629
  1.6794   1.7010   1.7055   1.7267   1.7549   1.7602   1.7707   1.7877
  1.8017   1.8124   1.8566   1.8778   1.9087   1.9287   1.9426   1.9704
  2.0403   2.0487   2.0721   2.0959   2.1116   2.1400   2.2212   2.2497
  2.2671   2.2840   2.3588   2.3704   2.3949   2.4049   2.4706   2.4887
  2.5328   2.5924   2.6176   2.6215   2.6473   2.6814   2.7034   2.7147
  2.7324   2.7581   2.7843   2.7954   2.8048   2.8136   2.8365   2.8431
  2.8546   2.8756   2.8871   2.8992   2.9068   2.9178   2.9400   2.9419
  2.9662   2.9685   2.9791   3.0100   3.0358   3.0498   3.0691   3.0851
  3.1282   3.1460   3.1736   3.1801   3.1980   3.2088   3.2223   3.2304
  3.2631   3.2768   3.2783   3.2944   3.3073   3.3238   3.3393   3.3720
  3.3779   3.3937   3.4139   3.4246   3.4411   3.4490   3.4539   3.4708
  3.4873   3.5046   3.5195   3.5291   3.5571   3.5685   3.5767   3.6240
  3.6382   3.6641   3.6673   3.6928   3.7147   3.7343   3.7671   3.7753
  3.8072   3.8095   3.8305   3.8353   3.8426   3.8678   3.8706   3.8923
  3.9261   3.9340   3.9581   3.9723   3.9968   4.0087   4.0176   4.0305
  4.0382   4.0563   4.0927   4.1140   4.1345   4.1538   4.1851   4.1880
  4.2007   4.2336   4.2458   4.2537   4.2994   4.3177   4.3299   4.3449
  4.3693   4.4056   4.4141   4.4363   4.4459   4.4745   4.4776   4.5111
  4.5298   4.5492   4.5717   4.5754   4.5904   4.6162   4.6356   4.6492
  4.6524   4.6941   4.7001   4.7115   4.7325   4.7614   4.7885   4.8075
  4.8277   4.8596   4.8726   4.9571   5.0597   5.0873   5.1161   5.1341
  5.1439   5.1641   5.1978   5.2141   5.2480   5.2561   5.2674   5.2713
  5.2855   5.2984   5.3147   5.3245   5.3305   5.3542   5.3791   5.3885
  5.4128   5.4287   5.4592   5.4812   5.5062   5.5526   5.5932   5.6125
  5.6516   5.6590   5.6641   5.6830   5.7033   5.7239   5.7652   5.7814
  5.8337   5.8999   5.9264   5.9895   6.0624   6.1082   6.2288   6.4407
  6.5174   6.5184   6.6750   6.7276   6.9109   6.9386   7.0087   7.0425
  7.0938   7.1203   7.1894   7.1908   7.2259   7.2872   7.3147   7.3700
  7.3760   7.4478   7.4817   7.4993   7.5334   7.6582   7.7732   7.7865
  7.8955   8.0011   8.0637  24.2522  24.6144  24.6841  24.8182  24.8644
 25.0754  25.3998  50.4700  50.5597  50.5989  50.7017
 --------------------------------------------------------------
 
          Ground-State Mulliken Net Atomic Charges

     Atom                 Charge (a.u.)    Spin (a.u.)
  --------------------------------------------------------
      1 H                     0.306689      -0.000193
      2 C                    -0.070912      -0.005849
      3 C                    -0.499710       0.009553
      4 H                     0.303165       0.000918
      5 C                     0.034105      -0.000066
      6 H                     0.382395      -0.000001
      7 C                     0.338188      -0.013776
      8 C                    -0.606390       0.001527
      9 C                     0.026452       0.000057
     10 H                     0.351747       0.000075
     11 C                    -0.491069       0.006703
     12 H                     0.296347       0.000107
     13 O                    -0.375051       0.000073
     14 H                     0.253286       0.000076
     15 O                    -0.400556       0.001339
     16 H                     0.316252      -0.000184
     17 H                     0.259896       0.000007
     18 H                     0.351115      -0.000032
     19 O                    -0.336273       0.458939
     20 O                    -0.439678       0.540727
  --------------------------------------------------------
  Sum of atomic charges =    -0.000000
  Sum of spin   charges =     1.000000

 -----------------------------------------------------------------
                    Cartesian Multipole Moments
 -----------------------------------------------------------------
    Charge (ESU x 10^10)
                -0.0000
    Dipole Moment (Debye)
         X      12.4868      Y       6.8224      Z       3.2495
       Tot      14.5954
    Quadrupole Moments (Debye-Ang)
        XX     -58.4721     XY     -16.8627     YY     -78.3273
        XZ      -3.8708     YZ     -14.6149     ZZ     -66.6608
    Octopole Moments (Debye-Ang^2)
       XXX      34.5079    XXY      29.4093    XYY      31.8563
       YYY      83.0475    XXZ      11.3556    XYZ       4.1031
       YYZ      21.0141    XZZ       4.6756    YZZ       2.9078
       ZZZ      11.9233
    Hexadecapole Moments (Debye-Ang^3)
      XXXX    -808.0387   XXXY    -164.5025   XXYY    -339.5086
      XYYY    -143.7365   YYYY    -987.4273   XXXZ     -60.8442
      XXYZ     -55.3527   XYYZ     -24.4726   YYYZ    -143.3299
      XXZZ    -207.1009   XYZZ      -6.3353   YYZZ    -237.2412
      XZZZ     -37.3399   YZZZ     -94.8875   ZZZZ    -404.8372
 -----------------------------------------------------------------
 Total job time:  55198.23s(wall), 426969.51s(cpu) 
 Tue Apr 25 12:22:03 2023

        *************************************************************
        *                                                           *
        *  Thank you very much for using Q-Chem.  Have a nice day.  *
        *                                                           *
        *************************************************************


