
Running Job 1 of 2 Q_in.in
qchem Q_in.in_331697.0 /scratch/ari.fischer/qChem1828099.hpc-mn1/qchem331697/ 0
/usr/local/qchem-5.4.1/exe/qcprog.exe_s Q_in.in_331697.0 /scratch/ari.fischer/qChem1828099.hpc-mn1/qchem331697/
                  Welcome to Q-Chem
     A Quantum Leap Into The Future Of Chemistry


 Q-Chem 5.4, Q-Chem, Inc., Pleasanton, CA (2021)

 License issued to: Nanyang Technological University (site)

 E. Epifanovsky,  A. T. B. Gilbert,  Xintian Feng,  Joonho Lee,  Yuezhi Mao,  
 N. Mardirossian,  P. Pokhilko,  A. White,  M. Wormit,  M. P. Coons,  
 A. L. Dempwolff,  Zhengting Gan,  D. Hait,  P. R. Horn,  L. D. Jacobson,  
 I. Kaliman,  J. Kussmann,  A. W. Lange,  Ka Un Lao,  D. S. Levine,  Jie Liu,  
 S. C. McKenzie,  A. F. Morrison,  K. Nanda,  F. Plasser,  D. R. Rehn,  
 M. L. Vidal,  Zhi-Qiang You,  Ying Zhu,  B. Alam,  B. Albrecht,  
 A. Aldossary,  E. Alguire,  J. H. Andersen,  D. Barton,  K. Begam,  A. Behn,  
 Y. A. Bernard,  E. J. Berquist,  H. Burton,  A. Carreras,  K. Carter-Fenk,  
 R. Chakraborty,  A. D. Chien,  K. D. Closser,  V. Cofer-Shabica,  
 S. Dasgupta,  Jia Deng,  M. de Wergifosse,  M. Diedenhofen,  Hainam Do,  
 S. Ehlert,  Po-Tung Fang,  S. Fatehi,  Qingguo Feng,  T. Friedhoff,  
 J. Gayvert,  Qinghui Ge,  G. Gidofalvi,  M. Goldey,  J. Gomes,  
 C. Gonzalez-Espinoza,  S. Gulania,  A. Gunina,  M. W. D. Hanson-Heine,  
 P. H. P. Harbach,  A. W. Hauser,  M. F. Herbst,  M. Hernandez Vera,  
 M. Hodecker,  Z. C. Holden,  S. Houck,  Xunkun Huang,  Kerwin Hui,  
 B. C. Huynh,  M. Ivanov,  Hyunjun Ji,  Hanjie Jiang,  B. Kaduk,  S. Kaehler,  
 K. Khistyaev,  Jaehoon Kim,  P. Klunzinger,  Z. Koczor-Benda,  
 Joong Hoon Koh,  D. Kosenkov,  L. Koulias,  T. Kowalczyk,  C. M. Krauter,  
 K. Kue,  A. Kunitsa,  T. Kus,  A. Landau,  K. V. Lawler,  D. Lefrancois,  
 S. Lehtola,  Rain Li,  Yi-Pei Li,  Jiashu Liang,  M. Liebenthal,  
 Hung-Hsuan Lin,  You-Sheng Lin,  Fenglai Liu,  Kuan-Yu Liu,  
 M. Loipersberger,  A. Luenser,  A. Manjanath,  P. Manohar,  E. Mansoor,  
 S. F. Manzer,  Shan-Ping Mao,  A. V. Marenich,  T. Markovich,  S. Mason,  
 S. A. Maurer,  P. F. McLaughlin,  M. F. S. J. Menger,  J.-M. Mewes,  
 S. A. Mewes,  P. Morgante,  J. W. Mullinax,  K. J. Oosterbaan,  G. Paran,  
 Alexander C. Paul,  Suranjan K. Paul,  F. Pavosevic,  Zheng Pei,  S. Prager,  
 E. I. Proynov,  E. Ramos,  B. Rana,  A. E. Rask,  A. Rettig,  R. M. Richard,  
 F. Rob,  E. Rossomme,  T. Scheele,  M. Scheurer,  M. Schneider,  
 N. Sergueev,  S. M. Sharada,  W. Skomorowski,  D. W. Small,  C. J. Stein,  
 Yu-Chuan Su,  E. J. Sundstrom,  Zhen Tao,  J. Thirman,  T. Tsuchimochi,  
 N. M. Tubman,  S. P. Veccham,  O. Vydrov,  J. Wenzel,  J. Witte,  A. Yamada,  
 Kun Yao,  S. Yeganeh,  S. R. Yost,  A. Zech,  Igor Ying Zhang,  Xing Zhang,  
 Yu Zhang,  D. Zuev,  A. Aspuru-Guzik,  A. T. Bell,  N. A. Besley,  
 K. B. Bravaya,  B. R. Brooks,  D. Casanova,  Jeng-Da Chai,  S. Coriani,  
 C. J. Cramer,  A. E. DePrince, III,  R. A. DiStasio Jr.,  A. Dreuw,  
 B. D. Dunietz,  T. R. Furlani,  W. A. Goddard III,  S. Grimme,  
 S. Hammes-Schiffer,  T. Head-Gordon,  W. J. Hehre,  Chao-Ping Hsu,  
 T.-C. Jagau,  Yousung Jung,  A. Klamt,  Jing Kong,  D. S. Lambrecht,  
 WanZhen Liang,  N. J. Mayhall,  C. W. McCurdy,  J. B. Neaton,  
 C. Ochsenfeld,  J. A. Parkhill,  R. Peverati,  V. A. Rassolov,  Yihan Shao,  
 L. V. Slipchenko,  T. Stauch,  R. P. Steele,  J. E. Subotnik,  
 A. J. W. Thom,  A. Tkatchenko,  D. G. Truhlar,  T. Van Voorhis,  
 T. A. Wesolowski,  K. B. Whaley,  H. L. Woodcock III,  P. M. Zimmerman,  
 S. Faraji,  P. M. W. Gill,  M. Head-Gordon,  J. M. Herbert,  A. I. Krylov

 Additional authors for Version 5.4.1: 
 S. Kotaru,  Shaozhi Li,  Xiangyuan Li,  F. Matz,  A. Molle,  Haisheng Ren,  
 Yingli Su,  Hung-Yi Tsai,  C. Utku,  Fang Wang

 Contributors to earlier versions of Q-Chem not listed above: 
 R. D. Adamson,  B. Austin,  R. Baer,  J. Baker,  G. J. O. Beran,  
 K. Brandhorst,  S. T. Brown,  E. F. C. Byrd,  A. K. Chakraborty,  
 G. K. L. Chan,  Chun-Min Chang,  Yunqing Chen,  C.-L. Cheng,  
 Siu Hung Chien,  D. M. Chipman,  D. L. Crittenden,  H. Dachsel,  
 R. J. Doerksen,  A. D. Dutoi,  R. G. Edgar,  J. Fosso-Tande,  
 L. Fusti-Molnar,  D. Ghosh,  A. Ghysels,  A. Golubeva-Zadorozhnaya,  
 J. Gonthier,  M. S. Gordon,  S. R. Gwaltney,  G. Hawkins,  J. E. Herr,  
 A. Heyden,  S. Hirata,  E. G. Hohenstein,  G. Kedziora,  F. J. Keil,  
 C. Kelley,  Jihan Kim,  R. A. King,  R. Z. Khaliullin,  P. P. Korambath,  
 W. Kurlancheek,  A. Laurent,  A. M. Lee,  M. S. Lee,  S. V. Levchenko,  
 Ching Yeh Lin,  D. Liotard,  E. Livshits,  R. C. Lochan,  I. Lotan,  
 L. A. Martinez-Martinez,  P. E. Maslen,  N. Nair,  D. P. O'Neill,  
 D. Neuhauser,  E. Neuscamman,  C. M. Oana,  R. Olivares-Amaya,  R. Olson,  
 T. M. Perrine,  B. Peters,  P. A. Pieniazek,  A. Prociuk,  Y. M. Rhee,  
 J. Ritchie,  M. A. Rohrdanz,  E. Rosta,  N. J. Russ,  H. F. Schaefer III,  
 M. W. Schmidt,  N. E. Schultz,  S. Sharma,  N. Shenvi,  C. D. Sherrill,  
 A. C. Simmonett,  A. Sodt,  T. Stein,  D. Stuck,  K. S. Thanthiriwatte,  
 V. Vanovschi,  L. Vogt,  Tao Wang,  A. Warshel,  M. A. Watson,  
 C. F. Williams,  Q. Wu,  X. Xu,  Jun Yang,  W. Zhang,  Yan Zhao

 Please cite Q-Chem as follows:
 Y. Shao et al., Mol. Phys. 113, 184-215 (2015)
 DOI: 10.1080/00268976.2014.952696

 Q-Chem 5.4.1 for Intel X86 EM64T Linux

 Parts of Q-Chem use Armadillo 9.800.1 (Horizon Scraper).
 http://arma.sourceforge.net/

 Q-Chem begins on Wed Nov  1 13:02:32 2023  

 Host: 
0

     Scratch files written to /scratch/ari.fischer/qChem1828099.hpc-mn1/qchem331697//
 Aug1521 |scratch|qcdevops|jenkins|workspace|build_RNUM 8249   
 Processing $rem in /usr/local/qchem-5.4.1/config/preferences:
 Processing $rem in /home/ari.fischer/.qchemrc:
 Symmetry turned off for PCM/SM12/SMD calculation


!!********************************************.
!!******************Warning*******************.
!!Desired Analytical derivatives not available.
!!Finite difference job might take a long time.
!!********************************************.
!!********************************************.


 2-order derivative to be evaluated numerically with 1-order analytical derivatives

 Checking the input file for inconsistencies... 	...done.

--------------------------------------------------------------
User input:
--------------------------------------------------------------
$molecule
0 2
C        -0.6591179312   -0.0056694126    0.6290506165
C        -1.9675173264    0.4790632724    1.1943640848
O        -2.3341356947    1.7838763755    0.7783832765
C         0.0896052480    0.7063571706   -0.2213610395
C         1.3881056707    0.1936004388   -0.7583431131
O         1.3011366358   -0.0463816429   -2.1803619267
C         1.8157362478   -1.0940109005   -0.1252503467
O         2.4911411500   -0.0251634709    1.6643504653
O         1.6652422307   -0.1157915866    2.5740159764
C         0.9209642412   -1.8948080982    0.5662314273
C        -0.2387069140   -1.3337386033    1.0332604876
H        -1.8959929351    0.5094006308    2.2824419428
H        -2.7527507614   -0.2399577956    0.9445151598
H        -2.5118545709    1.7634319802   -0.1683359860
H        -0.2313625359    1.6804195331   -0.5691909840
H         2.1712734525    0.9386122561   -0.5907728667
H         1.2191672797    0.8107032208   -2.6145839032
H         1.2086331936   -2.8904322163    0.8739339309
H        -0.9011050734   -1.9067730441    1.6704994587
H         2.7716971930   -1.4878280073   -0.4433868608
$end

$rem
BASIS = 6-311++G(2df,2p)
GUI = 2
JOB_TYPE = Frequency
METHOD = wB97M-V
SOLVENT_METHOD = SMD
SCF_ALGORITHM = DIIS_GDM
MAX_SCF_CYCLES = 400
SCF_CONVERGENCE = 7
THRESH = 12
$end

--------------------------------------------------------------
 ----------------------------------------------------------------
             Standard Nuclear Orientation (Angstroms)
    I     Atom           X                Y                Z
 ----------------------------------------------------------------
    1      C      -0.6591179312    -0.0056694126     0.6290506165
    2      C      -1.9675173264     0.4790632724     1.1943640848
    3      O      -2.3341356947     1.7838763755     0.7783832765
    4      C       0.0896052480     0.7063571706    -0.2213610395
    5      C       1.3881056707     0.1936004388    -0.7583431131
    6      O       1.3011366358    -0.0463816429    -2.1803619267
    7      C       1.8157362478    -1.0940109005    -0.1252503467
    8      O       2.4911411500    -0.0251634709     1.6643504653
    9      O       1.6652422307    -0.1157915866     2.5740159764
   10      C       0.9209642412    -1.8948080982     0.5662314273
   11      C      -0.2387069140    -1.3337386033     1.0332604876
   12      H      -1.8959929351     0.5094006308     2.2824419428
   13      H      -2.7527507614    -0.2399577956     0.9445151598
   14      H      -2.5118545709     1.7634319802    -0.1683359860
   15      H      -0.2313625359     1.6804195331    -0.5691909840
   16      H       2.1712734525     0.9386122561    -0.5907728667
   17      H       1.2191672797     0.8107032208    -2.6145839032
   18      H       1.2086331936    -2.8904322163     0.8739339309
   19      H      -0.9011050734    -1.9067730441     1.6704994587
   20      H       2.7716971930    -1.4878280073    -0.4433868608
 ----------------------------------------------------------------
 Nuclear Repulsion Energy =         627.72042192 hartrees
 There are       42 alpha and       41 beta electrons
 Requested basis set is 6-311++G(2df,2p)
 There are 142 shells and 464 basis functions

 Total QAlloc Memory Limit 288000 MB
 Mega-Array Size       188 MB
 MEM_STATIC part       192 MB
 
 Citation of the SMD model:
 Marenich, A.V.; Cramer, C.J.; Truhlar, D.G.
 J. Phys. Chem. B 2009, 113, 6378-6396.
 iSolventCode=           1
 Solvent: water                                                           
 
 vradii
            1           2           3           4           5           6
    1   1.8500000   1.8500000   1.5200000   1.8500000   1.8500000   1.5200000
            7           8           9          10          11          12
    1   1.8500000   1.5200000   1.5200000   1.8500000   1.8500000   1.2000000
           13          14          15          16          17          18
    1   1.2000000   1.2000000   1.2000000   1.2000000   1.2000000   1.2000000
           19          20
    1   1.2000000   1.2000000
 Changing PCM_VDW_RADII to SMD_RADIUS
 Discretize the solute cavity surface with Lebedev spheres
	Using 110 Lebedev grid points for each H atom
	Using 194 Lebedev grid points for other atoms
	Atomic van der Waals radii will be scaled by 1.20
 Remove points where switching function is < 1.0e-08
 Keep 1520 surface tesserae and discard 1604 interior tesserae
 Molecular Surface Area = 174.084 Angst**2
 A cutoff of  1.0D-12 yielded   8922 shell pairs
 There are     95615 function pairs (    119176 Cartesian)
 Smallest overlap matrix eigenvalue = 1.22E-06
 Guess from superposition of atomic densities
 Warning:  Energy on first SCF cycle will be non-variational
 SAD guess density has 83.000000 electrons

 -----------------------------------------------------------------------
  General SCF calculation program by
  Eric Jon Sundstrom, Paul Horn, Yuezhi Mao, Dmitri Zuev, Alec White,
  David Stuck, Shaama M.S., Shane Yost, Joonho Lee, David Small,
  Daniel Levine, Susi Lehtola, Hugh Burton, Evgeny Epifanovsky,
  Bang C. Huynh
 -----------------------------------------------------------------------
 Exchange:     0.1500 Hartree-Fock + 1.0000 wB97M-V + LR-HF
 Correlation:  1.0000 wB97M-V
 Using SG-2 standard quadrature grid
 Nonlocal Correlation:  VV10 with C = 0.0100 and b = 6.00 and scale = 1.00000
 Grid used for NLC:  SG-1 standard quadrature
 using 32 threads for integral computing
 -------------------------------------------------------
 OpenMP Integral computing Module                
 Release: version 1.0, May 2013, Q-Chem Inc. Pittsburgh 
 -------------------------------------------------------
 
 Citation of the SMD model:
 Marenich, A.V.; Cramer, C.J.; Truhlar, D.G.
 J. Phys. Chem. B 2009, 113, 6378-6396.
 iSolventCode=           1
 Solvent: water                                                           
 
 vradii
            1           2           3           4           5           6
    1   1.8500000   1.8500000   1.5200000   1.8500000   1.8500000   1.5200000
            7           8           9          10          11          12
    1   1.8500000   1.5200000   1.5200000   1.8500000   1.8500000   1.2000000
           13          14          15          16          17          18
    1   1.2000000   1.2000000   1.2000000   1.2000000   1.2000000   1.2000000
           19          20
    1   1.2000000   1.2000000
 -------------------------------------------------------
 OpenMP BLAS3 based DFT computing Module                
 Release: version 1.0, May 2013, Q-Chem Inc. Pittsburgh 
 -------------------------------------------------------
 A unrestricted SCF calculation will be
 performed using DIIS, GDM
 SCF converges when RMS gradient is below 1.0e-07
 ---------------------------------------
  Cycle       Energy         DIIS error
 ---------------------------------------
    1    -575.5722392900      1.16e-02  
    2    -572.7279678223      1.17e-03  Done DIIS. Switching to GDM
 ---------------------------------------
  Cycle       Energy        RMS Gradient
 ---------------------------------------
    1    -572.7279678223      1.17e-01   Descent step
    2    -572.8414247003      1.42e-02   Normal BFGS step
    3    -572.8580825068      3.47e-02   Normal BFGS step
    4    -572.8605864561      1.75e-02   Normal BFGS step
    5    -572.8618631734      1.09e-02   Normal BFGS step
    6    -572.8623618262      1.24e-02   Normal BFGS step
    7    -572.8629524230      1.15e-02   Normal BFGS step
    8    -572.8637799291      1.29e-02   Normal BFGS step
    9    -572.8645471706      1.69e-02   Normal BFGS step
   10    -572.8658180912      9.31e-03   Normal BFGS step
   11    -572.8660015394      3.92e-03   Normal BFGS step
   12    -572.8660440987      1.48e-03   Normal BFGS step
   13    -572.8660526721      1.42e-03   Normal BFGS step
   14    -572.8660574232      6.96e-04   Normal BFGS step
   15    -572.8660590183      5.23e-04   Normal BFGS step
   16    -572.8660597543      3.06e-04   Normal BFGS step
   17    -572.8660600782      1.10e-04   Normal BFGS step
   18    -572.8660601586      5.16e-05   Normal BFGS step
   19    -572.8660601904      2.27e-05   Normal BFGS step
   20    -572.8660601958      9.65e-06   Normal BFGS step
   21    -572.8660601968      4.99e-06   Normal BFGS step
   22    -572.8660601971      2.53e-06   Normal BFGS step
   23    -572.8660601971      1.69e-06   Normal BFGS step
   24    -572.8660601971      9.11e-07   Normal BFGS step
   25    -572.8660601972      7.17e-07   Normal BFGS step
   26    -572.8660601972      2.86e-07   Normal BFGS step
   27    -572.8660601972      1.98e-07   Normal BFGS step
   28    -572.8660601972      9.11e-08  Convergence criterion met
 ---------------------------------------
 SCF time:   CPU 5466.17s  wall 219.00s 
<S^2> =          1.163734204
(3)  G-ENP(liq) elect-nuc-pol free energy of system     -572.866060197 a.u.
(4)  G-CDS(liq) cavity-dispersion-solvent structure 
     free energy                                                3.0820 kcal/mol
(6)  G-S(liq) free energy of system                     -572.861148701 a.u.
 SCF   energy in the final basis set =     -572.8611487009
 Total energy in the final basis set =     -572.8611487009
 
 --------------------------------------------------------------
 
                    Orbital Energies (a.u.)
 --------------------------------------------------------------
 
 Alpha MOs
 -- Occupied --
-19.4540 -19.4363 -19.3409 -19.3397 -10.4047 -10.3890 -10.3740 -10.3655
-10.3579 -10.3452 -10.3434  -1.3741  -1.1595  -1.1569  -0.9836  -0.9355
 -0.8941  -0.8661  -0.8007  -0.7401  -0.7067  -0.6491  -0.6426  -0.6307
 -0.6216  -0.6136  -0.6056  -0.5828  -0.5696  -0.5443  -0.5369  -0.5220
 -0.4885  -0.4732  -0.4669  -0.4311  -0.4143  -0.4020  -0.3901  -0.3810
 -0.3760  -0.3348
 -- Virtual --
 -0.0232   0.0248   0.0347   0.0362   0.0472   0.0543   0.0556   0.0650
  0.0812   0.0856   0.0884   0.0966   0.1029   0.1177   0.1232   0.1365
  0.1403   0.1438   0.1486   0.1525   0.1537   0.1592   0.1640   0.1679
  0.1721   0.1784   0.1841   0.1890   0.1949   0.2006   0.2050   0.2103
  0.2157   0.2240   0.2259   0.2342   0.2404   0.2482   0.2578   0.2632
  0.2725   0.2887   0.2926   0.2988   0.3016   0.3038   0.3066   0.3106
  0.3160   0.3206   0.3221   0.3378   0.3479   0.3501   0.3565   0.3647
  0.3741   0.3796   0.3839   0.3849   0.3928   0.3951   0.4020   0.4099
  0.4212   0.4270   0.4326   0.4407   0.4468   0.4745   0.4804   0.4836
  0.5058   0.5211   0.5427   0.5546   0.5668   0.5788   0.5930   0.6023
  0.6091   0.6222   0.6308   0.6450   0.6470   0.6570   0.6652   0.6709
  0.6793   0.6902   0.7041   0.7092   0.7154   0.7223   0.7375   0.7431
  0.7521   0.7529   0.7596   0.7723   0.7785   0.7933   0.8022   0.8099
  0.8261   0.8308   0.8481   0.8627   0.8710   0.8767   0.8787   0.8991
  0.9055   0.9376   0.9561   0.9667   0.9798   0.9956   1.0250   1.0359
  1.0473   1.0524   1.0680   1.0892   1.0970   1.1076   1.1194   1.1349
  1.1459   1.1511   1.1580   1.1717   1.1790   1.1984   1.2116   1.2328
  1.2381   1.2426   1.2492   1.2527   1.2630   1.2758   1.2818   1.2917
  1.3079   1.3177   1.3193   1.3269   1.3507   1.3629   1.3669   1.3717
  1.3928   1.4010   1.4072   1.4176   1.4255   1.4483   1.4587   1.4630
  1.4802   1.4885   1.4971   1.5094   1.5350   1.5359   1.5472   1.5548
  1.5646   1.5772   1.5979   1.6122   1.6231   1.6379   1.6453   1.6606
  1.6676   1.6794   1.7030   1.7242   1.7394   1.7714   1.7806   1.7820
  1.7932   1.8054   1.8287   1.8671   1.8915   1.9243   1.9750   1.9843
  2.0030   2.0102   2.0355   2.0733   2.0877   2.1408   2.1585   2.1913
  2.2563   2.2867   2.3163   2.3528   2.3669   2.3812   2.4024   2.4059
  2.4532   2.5510   2.6229   2.6625   2.6680   2.6851   2.7088   2.7243
  2.7517   2.7961   2.8033   2.8242   2.8341   2.8588   2.8675   2.8739
  2.8976   2.9080   2.9397   2.9466   2.9513   2.9713   2.9809   3.0064
  3.0193   3.0278   3.0394   3.0534   3.0634   3.0789   3.0850   3.1180
  3.1290   3.1554   3.1729   3.1844   3.2024   3.2142   3.2403   3.2574
  3.2851   3.3073   3.3188   3.3321   3.3478   3.3546   3.3747   3.3783
  3.4028   3.4182   3.4298   3.4522   3.4752   3.4951   3.5118   3.5172
  3.5286   3.5503   3.5618   3.5809   3.5923   3.6233   3.6385   3.6492
  3.6628   3.6761   3.6923   3.6996   3.7381   3.7485   3.7645   3.7710
  3.7807   3.7925   3.7987   3.8230   3.8323   3.8498   3.8686   3.8961
  3.9030   3.9235   3.9468   3.9555   3.9899   4.0256   4.0499   4.0633
  4.0694   4.0827   4.1331   4.1473   4.1547   4.1723   4.2111   4.2157
  4.2209   4.2539   4.2730   4.2879   4.2968   4.3250   4.3339   4.3548
  4.3745   4.3759   4.3880   4.4119   4.4203   4.4411   4.4641   4.4955
  4.5245   4.5521   4.5566   4.5703   4.5906   4.6055   4.6131   4.6317
  4.6600   4.6727   4.6817   4.7035   4.7251   4.7390   4.7890   4.8396
  4.8488   4.9194   4.9662   4.9738   5.0057   5.0215   5.0289   5.0888
  5.0987   5.1587   5.1652   5.1818   5.2023   5.2088   5.2208   5.2253
  5.2419   5.2811   5.2963   5.3043   5.3157   5.3236   5.3371   5.3660
  5.3768   5.4215   5.4618   5.4706   5.5095   5.5513   5.5896   5.6056
  5.6403   5.6803   5.6928   5.6963   5.7123   5.7274   5.7370   5.7490
  5.8248   5.9166   5.9415   6.0029   6.0294   6.0603   6.1037   6.3525
  6.5813   6.6536   6.7440   6.7728   6.8312   6.8561   6.9515   7.0097
  7.0528   7.0708   7.0990   7.1299   7.1716   7.3156   7.3225   7.3271
  7.3427   7.3669   7.3874   7.3934   7.4782   7.6539   7.6619   7.7921
  7.8261   8.1097   8.1725  24.3261  24.6343  24.8027  24.8338  24.8601
 25.1492  25.3855  50.5006  50.5230  50.5976  50.6134
 
 Beta MOs
 -- Occupied --
-19.4299 -19.4129 -19.3419 -19.3397 -10.4042 -10.3891 -10.3786 -10.3696
-10.3566 -10.3454 -10.3432  -1.3293  -1.1599  -1.1588  -0.9869  -0.9032
 -0.8777  -0.8569  -0.8028  -0.7448  -0.7084  -0.6424  -0.6389  -0.6154
 -0.5892  -0.5844  -0.5711  -0.5668  -0.5454  -0.5406  -0.5298  -0.5232
 -0.4898  -0.4753  -0.4684  -0.4327  -0.4191  -0.4029  -0.3892  -0.3532
 -0.2862
 -- Virtual --
 -0.0177  -0.0009   0.0249   0.0349   0.0362   0.0476   0.0546   0.0554
  0.0651   0.0790   0.0825   0.0878   0.0966   0.1041   0.1173   0.1239
  0.1360   0.1386   0.1436   0.1482   0.1514   0.1548   0.1586   0.1641
  0.1685   0.1729   0.1792   0.1847   0.1886   0.1952   0.2019   0.2052
  0.2114   0.2160   0.2245   0.2270   0.2326   0.2401   0.2486   0.2590
  0.2659   0.2734   0.2886   0.2931   0.2998   0.3017   0.3043   0.3063
  0.3101   0.3222   0.3224   0.3246   0.3429   0.3474   0.3494   0.3578
  0.3652   0.3745   0.3793   0.3840   0.3847   0.3934   0.3962   0.4027
  0.4109   0.4241   0.4283   0.4336   0.4406   0.4548   0.4742   0.4802
  0.4850   0.5076   0.5211   0.5418   0.5547   0.5664   0.5772   0.5917
  0.6003   0.6082   0.6207   0.6289   0.6432   0.6459   0.6560   0.6630
  0.6720   0.6784   0.6891   0.7023   0.7081   0.7127   0.7214   0.7351
  0.7413   0.7509   0.7519   0.7589   0.7722   0.7764   0.7931   0.8014
  0.8092   0.8259   0.8291   0.8447   0.8609   0.8696   0.8739   0.8779
  0.8976   0.9044   0.9382   0.9555   0.9660   0.9793   0.9957   1.0254
  1.0367   1.0496   1.0546   1.0679   1.0907   1.0988   1.1075   1.1202
  1.1421   1.1522   1.1559   1.1580   1.1733   1.1808   1.2108   1.2194
  1.2343   1.2379   1.2504   1.2532   1.2548   1.2703   1.2778   1.2917
  1.3024   1.3116   1.3183   1.3253   1.3298   1.3520   1.3625   1.3686
  1.3736   1.3936   1.4014   1.4071   1.4164   1.4256   1.4537   1.4610
  1.4630   1.4805   1.4916   1.4969   1.5093   1.5352   1.5383   1.5486
  1.5604   1.5677   1.5804   1.6012   1.6134   1.6332   1.6408   1.6460
  1.6610   1.6809   1.6857   1.7085   1.7289   1.7404   1.7692   1.7808
  1.7881   1.8016   1.8050   1.8460   1.8668   1.8934   1.9350   1.9761
  1.9884   2.0036   2.0132   2.0399   2.0784   2.0862   2.1411   2.1573
  2.1914   2.2553   2.2879   2.3291   2.3708   2.3806   2.3838   2.4079
  2.4232   2.4524   2.5497   2.6185   2.6637   2.6716   2.6792   2.7076
  2.7230   2.7449   2.7907   2.7975   2.8162   2.8285   2.8539   2.8596
  2.8724   2.8921   2.9011   2.9333   2.9405   2.9424   2.9684   2.9747
  2.9998   3.0108   3.0170   3.0319   3.0478   3.0564   3.0656   3.0824
  3.1131   3.1212   3.1463   3.1711   3.1787   3.1974   3.2101   3.2339
  3.2523   3.2807   3.2994   3.3141   3.3263   3.3425   3.3503   3.3703
  3.3730   3.3970   3.4116   3.4262   3.4481   3.4721   3.4864   3.5049
  3.5110   3.5232   3.5439   3.5565   3.5730   3.5861   3.6137   3.6340
  3.6436   3.6580   3.6679   3.6865   3.6941   3.7342   3.7429   3.7576
  3.7696   3.7771   3.7905   3.7954   3.8209   3.8280   3.8447   3.8620
  3.8893   3.8975   3.9196   3.9422   3.9496   3.9861   4.0206   4.0461
  4.0568   4.0653   4.0803   4.1298   4.1416   4.1515   4.1672   4.2080
  4.2128   4.2182   4.2502   4.2688   4.2840   4.2909   4.3221   4.3303
  4.3516   4.3686   4.3716   4.3845   4.4084   4.4156   4.4346   4.4592
  4.4906   4.5215   4.5447   4.5552   4.5703   4.5983   4.6074   4.6274
  4.6382   4.6714   4.6882   4.6998   4.7089   4.7269   4.7402   4.8027
  4.8358   4.8440   4.9172   4.9621   4.9787   5.0363   5.0479   5.0773
  5.1040   5.1592   5.1696   5.1904   5.2132   5.2396   5.2471   5.2707
  5.2796   5.2843   5.2893   5.2985   5.3126   5.3178   5.3455   5.3697
  5.3754   5.3858   5.4229   5.4589   5.4687   5.5086   5.5466   5.5882
  5.6027   5.6352   5.6786   5.6919   5.6951   5.7049   5.7348   5.7720
  5.7856   5.8189   5.9135   5.9353   5.9994   6.0280   6.0591   6.0964
  6.3467   6.5801   6.6535   6.8074   6.8186   6.9339   6.9580   7.0436
  7.0840   7.0990   7.1200   7.1221   7.1503   7.2394   7.3159   7.3208
  7.3273   7.3412   7.3674   7.3897   7.4409   7.5171   7.6537   7.6598
  7.7921   7.8229   8.1398   8.2043  24.3249  24.6331  24.8028  24.8337
 24.8566  25.1483  25.3844  50.5191  50.5419  50.5977  50.6127
 --------------------------------------------------------------
 
          Ground-State Mulliken Net Atomic Charges

     Atom                 Charge (a.u.)    Spin (a.u.)
  --------------------------------------------------------
      1 C                     0.203655       0.060896
      2 C                    -0.419739      -0.011391
      3 O                    -0.446636      -0.000527
      4 C                    -0.313755      -0.143736
      5 C                    -0.863328      -0.009628
      6 O                    -0.427992      -0.012859
      7 C                     0.400204      -0.272986
      8 O                    -0.050827       0.780252
      9 O                    -0.095318       0.784066
     10 C                    -0.969056       0.060201
     11 C                     0.345825      -0.235645
     12 H                     0.222400       0.002666
     13 H                     0.225579       0.002009
     14 H                     0.334128       0.000316
     15 H                     0.285365       0.003201
     16 H                     0.268248      -0.015325
     17 H                     0.333156      -0.004457
     18 H                     0.279192      -0.004553
     19 H                     0.338847       0.007617
     20 H                     0.350050       0.009883
  --------------------------------------------------------
  Sum of atomic charges =     0.000000
  Sum of spin   charges =     1.000000

 -----------------------------------------------------------------
                    Cartesian Multipole Moments
 -----------------------------------------------------------------
    Charge (ESU x 10^10)
                 0.0000
    Dipole Moment (Debye)
         X      -1.3981      Y      -0.7340      Z      -2.5392
       Tot       2.9901
    Quadrupole Moments (Debye-Ang)
        XX     -64.0183     XY       4.0768     YY     -62.5023
        XZ      -2.9731     YZ     -12.9946     ZZ     -71.8418
    Octopole Moments (Debye-Ang^2)
       XXX     -71.5631    XXY      -5.8821    XYY      -5.9638
       YYY       3.4662    XXZ     -47.4317    XYZ       5.4080
       YYZ     -36.9273    XZZ     -42.3375    YZZ      17.7207
       ZZZ     -99.4539
    Hexadecapole Moments (Debye-Ang^3)
      XXXX   -1064.9572   XXXY     166.6002   XXYY    -261.9601
      XYYY     165.3700   YYYY    -486.2904   XXXZ      29.7108
      XXYZ     -31.0154   XYYZ      28.2836   YYYZ     -21.3671
      XXZZ    -334.3585   XYZZ      76.5652   YYZZ    -198.4971
      XZZZ     -12.4750   YZZZ     -14.7261   ZZZZ    -775.0092
 -----------------------------------------------------------------
 Calculating analytic gradient of the SCF energy
 Gradient of CDS energy
            1           2           3           4           5           6
    1   0.0001544  -0.0007695   0.0003127  -0.0001037   0.0001442   0.0000052
    2  -0.0000125   0.0004699  -0.0002708   0.0001579  -0.0000744  -0.0000657
    3   0.0001394   0.0003854  -0.0000054  -0.0000230  -0.0002336   0.0002620
            7           8           9          10          11          12
    1   0.0001881  -0.0000288   0.0000433   0.0000895  -0.0002385   0.0002092
    2  -0.0000217   0.0000270   0.0000690  -0.0003229  -0.0001673   0.0000116
    3  -0.0000899   0.0000505  -0.0000042   0.0000056   0.0000699   0.0001257
           13          14          15          16          17          18
    1   0.0000702  -0.0003266  -0.0000652   0.0001401   0.0000337   0.0000555
    2  -0.0002189   0.0003139   0.0000984   0.0001043   0.0001943  -0.0001920
    3  -0.0001432  -0.0002750   0.0000353   0.0001038  -0.0004773   0.0000593
           19          20
    1  -0.0001204   0.0002065
    2  -0.0000699  -0.0000303
    3   0.0000891  -0.0000744
 Gradient of SCF Energy
            1           2           3           4           5           6
    1  -0.0018640   0.0054948   0.0016549   0.0108062  -0.0066913   0.0005107
    2  -0.0051202   0.0104254   0.0043755  -0.0024213  -0.0103391  -0.0170689
    3   0.0005314  -0.0066293   0.0179496   0.0044881  -0.0007570   0.0030416
            7           8           9          10          11          12
    1  -0.0032748  -0.0020183   0.0021847  -0.0011726   0.0006046  -0.0003013
    2   0.0078144  -0.0001870   0.0005859   0.0038276   0.0036937  -0.0027056
    3   0.0037089   0.0025403  -0.0022747  -0.0036518  -0.0012017   0.0033540
           13          14          15          16          17          18
    1  -0.0054245  -0.0017571  -0.0019404   0.0044494  -0.0010923   0.0014232
    2  -0.0056157  -0.0024793   0.0073021   0.0055451   0.0152149  -0.0061895
    3  -0.0019438  -0.0147539  -0.0050535  -0.0007257  -0.0042920   0.0016687
           19          20
    1  -0.0062512   0.0046594
    2  -0.0047301  -0.0019280
    3   0.0049682  -0.0009673
 Max gradient component =       1.795E-02
 RMS gradient           =       5.993E-03
 Computing fast CPCM-SWIG gradient
 Updating gradient with PCM contributions...
 -- total gradient after adding PCM contribution --
---------------------------------------------------
  Atom         X              Y              Z     
---------------------------------------------------
   1      -0.000013       0.000023      -0.000002
   2       0.000001       0.000017      -0.000011
   3       0.000010       0.000012      -0.000014
   4      -0.000011      -0.000027       0.000001
   5       0.000078      -0.000037      -0.000001
   6       0.000005      -0.000007       0.000004
   7      -0.000035       0.000066       0.000006
   8       0.000083       0.000003      -0.000096
   9      -0.000099      -0.000007       0.000123
  10      -0.000026      -0.000070       0.000001
  11       0.000007       0.000018       0.000010
  12       0.000000       0.000020      -0.000008
  13      -0.000001       0.000019      -0.000005
  14       0.000015       0.000022      -0.000012
  15       0.000014      -0.000002      -0.000011
  16       0.000013      -0.000014      -0.000000
  17       0.000008      -0.000022      -0.000002
  18      -0.000016      -0.000006       0.000013
  19      -0.000012       0.000013       0.000006
  20      -0.000021      -0.000024      -0.000001
---------------------------------------------------
 Number of fixed atoms: 0
 Gradient time:  CPU 536.86 s  wall 26.44 s
 ######################################################
 ######################################################
 # Starting finite difference calculation for IDERIV  #
 Finite diff step size:  1.88973e-03 a.u.
 ----------------------------------------------------------------
             Standard Nuclear Orientation (Angstroms)
    I     Atom           X                Y                Z
 ----------------------------------------------------------------
    1      C      -0.6581179312    -0.0056694126     0.6290506165
    2      C      -1.9675173264     0.4790632724     1.1943640848
    3      O      -2.3341356947     1.7838763755     0.7783832765
    4      C       0.0896052480     0.7063571706    -0.2213610395
    5      C       1.3881056707     0.1936004388    -0.7583431131
    6      O       1.3011366358    -0.0463816429    -2.1803619267
    7      C       1.8157362478    -1.0940109005    -0.1252503467
    8      O       2.4911411500    -0.0251634709     1.6643504653
    9      O       1.6652422307    -0.1157915866     2.5740159764
   10      C       0.9209642412    -1.8948080982     0.5662314273
   11      C      -0.2387069140    -1.3337386033     1.0332604876
   12      H      -1.8959929351     0.5094006308     2.2824419428
   13      H      -2.7527507614    -0.2399577956     0.9445151598
   14      H      -2.5118545709     1.7634319802    -0.1683359860
   15      H      -0.2313625359     1.6804195331    -0.5691909840
   16      H       2.1712734525     0.9386122561    -0.5907728667
   17      H       1.2191672797     0.8107032208    -2.6145839032
   18      H       1.2086331936    -2.8904322163     0.8739339309
   19      H      -0.9011050734    -1.9067730441     1.6704994587
   20      H       2.7716971930    -1.4878280073    -0.4433868608
 ----------------------------------------------------------------
 Nuclear Repulsion Energy =         627.73044663 hartrees
 There are       42 alpha and       41 beta electrons
 Discretize the solute cavity surface with Lebedev spheres
	Using 110 Lebedev grid points for each H atom
	Using 194 Lebedev grid points for other atoms
	Atomic van der Waals radii will be scaled by 1.20
 Remove points where switching function is < 1.0e-08
 Keep 1520 surface tesserae and discard 1604 interior tesserae
 Molecular Surface Area = 174.082 Angst**2
 Requested basis set is 6-311++G(2df,2p)
 There are 142 shells and 464 basis functions
 A cutoff of  1.0D-12 yielded   8922 shell pairs
 There are     95615 function pairs (    119176 Cartesian)
 Smallest overlap matrix eigenvalue = 1.22E-06
 Guess MOs from SCF MO coefficient file

 -----------------------------------------------------------------------
  General SCF calculation program by
  Eric Jon Sundstrom, Paul Horn, Yuezhi Mao, Dmitri Zuev, Alec White,
  David Stuck, Shaama M.S., Shane Yost, Joonho Lee, David Small,
  Daniel Levine, Susi Lehtola, Hugh Burton, Evgeny Epifanovsky,
  Bang C. Huynh
 -----------------------------------------------------------------------
 Exchange:     0.1500 Hartree-Fock + 1.0000 wB97M-V + LR-HF
 Correlation:  1.0000 wB97M-V
 Using SG-2 standard quadrature grid
 Nonlocal Correlation:  VV10 with C = 0.0100 and b = 6.00 and scale = 1.00000
 Grid used for NLC:  SG-1 standard quadrature
 
 Citation of the SMD model:
 Marenich, A.V.; Cramer, C.J.; Truhlar, D.G.
 J. Phys. Chem. B 2009, 113, 6378-6396.
 iSolventCode=           1
 Solvent: water                                                           
 
 vradii
            1           2           3           4           5           6
    1   1.8500000   1.8500000   1.5200000   1.8500000   1.8500000   1.5200000
            7           8           9          10          11          12
    1   1.8500000   1.5200000   1.5200000   1.8500000   1.8500000   1.2000000
           13          14          15          16          17          18
    1   1.2000000   1.2000000   1.2000000   1.2000000   1.2000000   1.2000000
           19          20
    1   1.2000000   1.2000000
 -------------------------------------------------------
 OpenMP BLAS3 based DFT computing Module                
 Release: version 1.0, May 2013, Q-Chem Inc. Pittsburgh 
 -------------------------------------------------------
 A unrestricted SCF calculation will be
 performed using Roothaan-Hall, DIIS, GDM
 SCF converges when RMS gradient is below 1.0e-07
 ---------------------------------------
  Cycle       Energy         DIIS error
 ---------------------------------------
    1    -572.8315069763      1.75e-04  Roothaan Step
 ---------------------------------------
  Cycle       Energy         DIIS error
 ---------------------------------------
    1    -572.8598534726      1.96e-04  
    2    -572.8640791702      1.61e-04  Done DIIS. Switching to GDM
 ---------------------------------------
  Cycle       Energy        RMS Gradient
 ---------------------------------------
    1    -572.8640791702      1.19e-02   Normal BFGS step
    2    -572.8637569869      2.02e-02  Line search: overstep
    3    -572.8658471777      3.80e-03   Normal BFGS step
    4    -572.8659762257      3.71e-03   Normal BFGS step
    5    -572.8660364619      1.54e-03   Normal BFGS step
    6    -572.8660473475      1.16e-03   Normal BFGS step
    7    -572.8660522781      1.15e-03   Normal BFGS step
    8    -572.8660562711      5.51e-04   Normal BFGS step
    9    -572.8660582758      3.24e-04   Normal BFGS step
   10    -572.8660590932      3.03e-04   Normal BFGS step
   11    -572.8660593920      1.62e-04   Normal BFGS step
   12    -572.8660594762      5.42e-05   Normal BFGS step
   13    -572.8660595046      4.89e-05   Normal BFGS step
   14    -572.8660595160      2.71e-05   Normal BFGS step
   15    -572.8660595205      1.05e-05   Normal BFGS step
   16    -572.8660595215      4.88e-06   Normal BFGS step
   17    -572.8660595218      2.66e-06   Normal BFGS step
   18    -572.8660595218      8.13e-07   Normal BFGS step
   19    -572.8660595218      4.63e-07   Normal BFGS step
   20    -572.8660595218      2.63e-07   Normal BFGS step
   21    -572.8660595218      1.63e-07   Normal BFGS step
   22    -572.8660595219      8.66e-08  Convergence criterion met
 ---------------------------------------
 SCF time:   CPU 4539.20s  wall 183.00s 
<S^2> =          1.163725640
(3)  G-ENP(liq) elect-nuc-pol free energy of system     -572.866059522 a.u.
(4)  G-CDS(liq) cavity-dispersion-solvent structure 
     free energy                                                3.0822 kcal/mol
(6)  G-S(liq) free energy of system                     -572.861147733 a.u.
 SCF   energy in the final basis set =     -572.8611477326
 Total energy in the final basis set =     -572.8611477326
 
 --------------------------------------------------------------
 
                    Orbital Energies (a.u.)
 --------------------------------------------------------------
 
 Alpha MOs
 -- Occupied --
-19.4541 -19.4363 -19.3409 -19.3397 -10.4047 -10.3891 -10.3740 -10.3655
-10.3578 -10.3452 -10.3433  -1.3741  -1.1595  -1.1569  -0.9837  -0.9355
 -0.8940  -0.8661  -0.8007  -0.7402  -0.7067  -0.6491  -0.6426  -0.6307
 -0.6216  -0.6136  -0.6056  -0.5828  -0.5696  -0.5442  -0.5369  -0.5220
 -0.4885  -0.4732  -0.4669  -0.4311  -0.4143  -0.4020  -0.3900  -0.3810
 -0.3760  -0.3349
 -- Virtual --
 -0.0232   0.0248   0.0347   0.0362   0.0472   0.0543   0.0556   0.0650
  0.0812   0.0856   0.0884   0.0966   0.1029   0.1177   0.1232   0.1365
  0.1403   0.1438   0.1486   0.1525   0.1537   0.1592   0.1640   0.1679
  0.1721   0.1784   0.1841   0.1890   0.1949   0.2006   0.2050   0.2103
  0.2157   0.2240   0.2259   0.2342   0.2405   0.2482   0.2578   0.2632
  0.2725   0.2887   0.2927   0.2988   0.3016   0.3038   0.3065   0.3106
  0.3160   0.3206   0.3221   0.3378   0.3479   0.3501   0.3565   0.3647
  0.3741   0.3796   0.3839   0.3849   0.3928   0.3951   0.4020   0.4100
  0.4211   0.4269   0.4325   0.4407   0.4468   0.4745   0.4804   0.4836
  0.5058   0.5211   0.5427   0.5546   0.5668   0.5789   0.5931   0.6023
  0.6091   0.6222   0.6308   0.6451   0.6470   0.6570   0.6652   0.6709
  0.6793   0.6903   0.7041   0.7092   0.7154   0.7223   0.7374   0.7431
  0.7521   0.7529   0.7596   0.7723   0.7785   0.7933   0.8022   0.8099
  0.8261   0.8308   0.8481   0.8627   0.8710   0.8767   0.8788   0.8992
  0.9055   0.9376   0.9561   0.9667   0.9798   0.9956   1.0250   1.0359
  1.0473   1.0525   1.0680   1.0892   1.0969   1.1075   1.1195   1.1349
  1.1459   1.1511   1.1580   1.1717   1.1790   1.1984   1.2116   1.2328
  1.2381   1.2427   1.2493   1.2527   1.2631   1.2758   1.2818   1.2917
  1.3079   1.3177   1.3194   1.3268   1.3507   1.3629   1.3670   1.3717
  1.3928   1.4011   1.4072   1.4177   1.4254   1.4483   1.4587   1.4629
  1.4801   1.4886   1.4971   1.5095   1.5350   1.5359   1.5472   1.5549
  1.5646   1.5773   1.5980   1.6122   1.6231   1.6379   1.6454   1.6606
  1.6675   1.6794   1.7030   1.7242   1.7393   1.7714   1.7806   1.7820
  1.7932   1.8054   1.8287   1.8672   1.8915   1.9242   1.9750   1.9843
  2.0030   2.0102   2.0355   2.0733   2.0877   2.1407   2.1585   2.1912
  2.2564   2.2866   2.3163   2.3528   2.3669   2.3812   2.4023   2.4059
  2.4532   2.5511   2.6229   2.6625   2.6679   2.6851   2.7087   2.7243
  2.7517   2.7960   2.8032   2.8242   2.8340   2.8588   2.8674   2.8738
  2.8976   2.9079   2.9397   2.9465   2.9512   2.9712   2.9809   3.0062
  3.0193   3.0279   3.0394   3.0535   3.0633   3.0788   3.0851   3.1181
  3.1290   3.1554   3.1730   3.1845   3.2025   3.2142   3.2402   3.2575
  3.2852   3.3073   3.3188   3.3320   3.3481   3.3547   3.3746   3.3783
  3.4027   3.4183   3.4298   3.4522   3.4751   3.4951   3.5119   3.5174
  3.5286   3.5504   3.5618   3.5808   3.5923   3.6233   3.6385   3.6493
  3.6628   3.6760   3.6924   3.6996   3.7380   3.7486   3.7646   3.7711
  3.7807   3.7924   3.7988   3.8229   3.8324   3.8499   3.8687   3.8963
  3.9031   3.9234   3.9469   3.9554   3.9900   4.0257   4.0497   4.0632
  4.0692   4.0826   4.1328   4.1472   4.1546   4.1722   4.2111   4.2157
  4.2210   4.2541   4.2729   4.2880   4.2968   4.3251   4.3340   4.3549
  4.3746   4.3762   4.3880   4.4119   4.4204   4.4411   4.4641   4.4955
  4.5245   4.5521   4.5565   4.5704   4.5906   4.6056   4.6131   4.6319
  4.6600   4.6726   4.6817   4.7037   4.7251   4.7392   4.7891   4.8399
  4.8489   4.9193   4.9663   4.9743   5.0057   5.0215   5.0290   5.0889
  5.0990   5.1587   5.1653   5.1820   5.2024   5.2089   5.2210   5.2254
  5.2419   5.2811   5.2963   5.3043   5.3156   5.3236   5.3371   5.3660
  5.3768   5.4216   5.4619   5.4708   5.5093   5.5514   5.5895   5.6056
  5.6401   5.6803   5.6928   5.6963   5.7123   5.7273   5.7370   5.7490
  5.8250   5.9167   5.9416   6.0030   6.0295   6.0600   6.1039   6.3534
  6.5813   6.6534   6.7440   6.7728   6.8313   6.8561   6.9515   7.0097
  7.0527   7.0708   7.0990   7.1300   7.1716   7.3156   7.3224   7.3270
  7.3427   7.3669   7.3874   7.3934   7.4782   7.6538   7.6619   7.7921
  7.8261   8.1097   8.1726  24.3258  24.6342  24.8028  24.8327  24.8604
 25.1502  25.3866  50.5006  50.5230  50.5976  50.6134
 
 Beta MOs
 -- Occupied --
-19.4299 -19.4129 -19.3419 -19.3397 -10.4042 -10.3891 -10.3786 -10.3696
-10.3566 -10.3454 -10.3432  -1.3293  -1.1599  -1.1588  -0.9869  -0.9032
 -0.8777  -0.8569  -0.8027  -0.7448  -0.7084  -0.6424  -0.6389  -0.6154
 -0.5892  -0.5844  -0.5711  -0.5668  -0.5454  -0.5406  -0.5298  -0.5232
 -0.4898  -0.4753  -0.4684  -0.4327  -0.4191  -0.4029  -0.3891  -0.3533
 -0.2862
 -- Virtual --
 -0.0177  -0.0009   0.0249   0.0349   0.0362   0.0477   0.0546   0.0554
  0.0651   0.0790   0.0825   0.0878   0.0966   0.1041   0.1173   0.1239
  0.1360   0.1386   0.1436   0.1482   0.1514   0.1548   0.1586   0.1641
  0.1685   0.1729   0.1792   0.1847   0.1886   0.1952   0.2019   0.2052
  0.2114   0.2160   0.2245   0.2270   0.2326   0.2402   0.2487   0.2590
  0.2659   0.2735   0.2886   0.2931   0.2998   0.3017   0.3043   0.3062
  0.3101   0.3222   0.3224   0.3246   0.3429   0.3474   0.3494   0.3578
  0.3652   0.3745   0.3793   0.3840   0.3847   0.3934   0.3962   0.4027
  0.4109   0.4240   0.4283   0.4336   0.4406   0.4548   0.4743   0.4802
  0.4850   0.5076   0.5212   0.5418   0.5547   0.5663   0.5773   0.5918
  0.6003   0.6082   0.6207   0.6289   0.6432   0.6459   0.6561   0.6630
  0.6720   0.6785   0.6892   0.7023   0.7082   0.7127   0.7214   0.7351
  0.7413   0.7509   0.7519   0.7589   0.7722   0.7765   0.7931   0.8014
  0.8092   0.8260   0.8290   0.8447   0.8610   0.8696   0.8739   0.8779
  0.8976   0.9044   0.9382   0.9554   0.9660   0.9794   0.9957   1.0254
  1.0367   1.0496   1.0547   1.0679   1.0906   1.0987   1.1075   1.1202
  1.1421   1.1522   1.1559   1.1580   1.1733   1.1808   1.2109   1.2194
  1.2343   1.2379   1.2505   1.2532   1.2548   1.2704   1.2778   1.2917
  1.3024   1.3116   1.3183   1.3253   1.3297   1.3521   1.3625   1.3686
  1.3736   1.3936   1.4015   1.4072   1.4164   1.4255   1.4537   1.4610
  1.4629   1.4805   1.4917   1.4969   1.5094   1.5352   1.5384   1.5486
  1.5604   1.5677   1.5805   1.6012   1.6133   1.6332   1.6407   1.6460
  1.6610   1.6808   1.6857   1.7085   1.7290   1.7404   1.7692   1.7808
  1.7881   1.8016   1.8050   1.8460   1.8669   1.8934   1.9348   1.9761
  1.9883   2.0036   2.0133   2.0400   2.0784   2.0863   2.1410   2.1573
  2.1914   2.2554   2.2878   2.3291   2.3708   2.3805   2.3838   2.4078
  2.4232   2.4524   2.5498   2.6185   2.6637   2.6716   2.6792   2.7075
  2.7230   2.7448   2.7907   2.7974   2.8162   2.8284   2.8539   2.8595
  2.8723   2.8921   2.9010   2.9333   2.9405   2.9423   2.9683   2.9746
  2.9997   3.0108   3.0171   3.0319   3.0479   3.0562   3.0655   3.0825
  3.1132   3.1212   3.1463   3.1712   3.1789   3.1974   3.2101   3.2339
  3.2524   3.2807   3.2993   3.3141   3.3263   3.3427   3.3504   3.3702
  3.3730   3.3968   3.4116   3.4263   3.4481   3.4720   3.4863   3.5050
  3.5113   3.5232   3.5440   3.5565   3.5728   3.5861   3.6138   3.6340
  3.6437   3.6581   3.6679   3.6865   3.6940   3.7342   3.7429   3.7576
  3.7697   3.7770   3.7904   3.7955   3.8208   3.8280   3.8449   3.8620
  3.8895   3.8976   3.9195   3.9423   3.9495   3.9862   4.0206   4.0460
  4.0567   4.0651   4.0803   4.1296   4.1415   4.1513   4.1671   4.2080
  4.2128   4.2184   4.2503   4.2687   4.2841   4.2908   4.3222   4.3303
  4.3517   4.3688   4.3718   4.3845   4.4084   4.4156   4.4347   4.4592
  4.4907   4.5215   4.5447   4.5551   4.5705   4.5984   4.6073   4.6277
  4.6382   4.6714   4.6883   4.7000   4.7088   4.7269   4.7403   4.8028
  4.8360   4.8441   4.9171   4.9624   4.9791   5.0363   5.0480   5.0773
  5.1042   5.1592   5.1698   5.1906   5.2133   5.2396   5.2471   5.2707
  5.2796   5.2844   5.2893   5.2985   5.3126   5.3177   5.3455   5.3698
  5.3754   5.3859   5.4229   5.4591   5.4689   5.5084   5.5467   5.5882
  5.6027   5.6350   5.6786   5.6918   5.6951   5.7048   5.7349   5.7720
  5.7856   5.8191   5.9136   5.9354   5.9995   6.0281   6.0588   6.0966
  6.3476   6.5801   6.6533   6.8074   6.8186   6.9340   6.9580   7.0436
  7.0840   7.0989   7.1200   7.1221   7.1503   7.2394   7.3159   7.3208
  7.3273   7.3412   7.3674   7.3897   7.4409   7.5171   7.6536   7.6598
  7.7920   7.8229   8.1398   8.2043  24.3246  24.6331  24.8028  24.8327
 24.8568  25.1494  25.3856  50.5191  50.5419  50.5977  50.6127
 --------------------------------------------------------------
 
          Ground-State Mulliken Net Atomic Charges

     Atom                 Charge (a.u.)    Spin (a.u.)
  --------------------------------------------------------
      1 C                     0.205586       0.060638
      2 C                    -0.419373      -0.011377
      3 O                    -0.446584      -0.000528
      4 C                    -0.315140      -0.143381
      5 C                    -0.862646      -0.009648
      6 O                    -0.428015      -0.012851
      7 C                     0.399409      -0.272973
      8 O                    -0.050821       0.780261
      9 O                    -0.095275       0.784077
     10 C                    -0.967895       0.060140
     11 C                     0.343987      -0.235683
     12 H                     0.222425       0.002654
     13 H                     0.225507       0.001999
     14 H                     0.334117       0.000315
     15 H                     0.285292       0.003196
     16 H                     0.268208      -0.015326
     17 H                     0.333155      -0.004458
     18 H                     0.279167      -0.004556
     19 H                     0.338824       0.007616
     20 H                     0.350069       0.009888
  --------------------------------------------------------
  Sum of atomic charges =     0.000000
  Sum of spin   charges =     1.000000

 -----------------------------------------------------------------
                    Cartesian Multipole Moments
 -----------------------------------------------------------------
    Charge (ESU x 10^10)
                 0.0000
    Dipole Moment (Debye)
         X      -1.3969      Y      -0.7343      Z      -2.5397
       Tot       2.9901
    Quadrupole Moments (Debye-Ang)
        XX     -64.0207     XY       4.0779     YY     -62.5001
        XZ      -2.9697     YZ     -12.9963     ZZ     -71.8418
    Octopole Moments (Debye-Ang^2)
       XXX     -71.5725    XXY      -5.8838    XYY      -5.9702
       YYY       3.4660    XXZ     -47.4332    XYZ       5.4105
       YYZ     -36.9264    XZZ     -42.3384    YZZ      17.7175
       ZZZ     -99.4555
    Hexadecapole Moments (Debye-Ang^3)
      XXXX   -1064.9277   XXXY     166.6014   XXYY    -261.9562
      XYYY     165.3817   YYYY    -486.2840   XXXZ      29.7155
      XXYZ     -31.0174   XYYZ      28.2793   YYYZ     -21.3754
      XXZZ    -334.3584   XYZZ      76.5701   YYZZ    -198.4911
      XZZZ     -12.4642   YZZZ     -14.7367   ZZZZ    -775.0182
 -----------------------------------------------------------------
 Calculating analytic gradient of the SCF energy
 Gradient of CDS energy
            1           2           3           4           5           6
    1   0.0001556  -0.0007703   0.0003128  -0.0001040   0.0001442   0.0000052
    2  -0.0000127   0.0004698  -0.0002708   0.0001577  -0.0000744  -0.0000657
    3   0.0001392   0.0003853  -0.0000055  -0.0000228  -0.0002336   0.0002620
            7           8           9          10          11          12
    1   0.0001881  -0.0000288   0.0000433   0.0000895  -0.0002387   0.0002093
    2  -0.0000217   0.0000270   0.0000690  -0.0003230  -0.0001670   0.0000116
    3  -0.0000899   0.0000505  -0.0000042   0.0000056   0.0000698   0.0001256
           13          14          15          16          17          18
    1   0.0000702  -0.0003266  -0.0000652   0.0001401   0.0000337   0.0000555
    2  -0.0002188   0.0003141   0.0000985   0.0001043   0.0001943  -0.0001920
    3  -0.0001430  -0.0002750   0.0000353   0.0001038  -0.0004773   0.0000593
           19          20
    1  -0.0001204   0.0002065
    2  -0.0000699  -0.0000303
    3   0.0000891  -0.0000744
 Gradient of SCF Energy
            1           2           3           4           5           6
    1  -0.0008309   0.0051553   0.0016431   0.0103927  -0.0067160   0.0005095
    2  -0.0051193   0.0104704   0.0043946  -0.0026399  -0.0103730  -0.0170686
    3   0.0000752  -0.0065364   0.0179520   0.0047924  -0.0007194   0.0030463
            7           8           9          10          11          12
    1  -0.0032807  -0.0020136   0.0021779  -0.0011683   0.0003812  -0.0003024
    2   0.0078081  -0.0001847   0.0005846   0.0038882   0.0038235  -0.0027082
    3   0.0037070   0.0025377  -0.0022740  -0.0036722  -0.0012015   0.0033527
           13          14          15          16          17          18
    1  -0.0054678  -0.0017556  -0.0019188   0.0044422  -0.0010935   0.0014193
    2  -0.0056000  -0.0024784   0.0073174   0.0055488   0.0152169  -0.0061849
    3  -0.0019135  -0.0147555  -0.0050675  -0.0007235  -0.0042923   0.0016790
           19          20
    1  -0.0062341   0.0046605
    2  -0.0047668  -0.0019287
    3   0.0049812  -0.0009676
 Max gradient component =       1.795E-02
 RMS gradient           =       5.981E-03
 Computing fast CPCM-SWIG gradient
 Updating gradient with PCM contributions...
 -- total gradient after adding PCM contribution --
---------------------------------------------------
  Atom         X              Y              Z     
---------------------------------------------------
   1       0.001037       0.000006      -0.000459
   2      -0.000341       0.000078       0.000077
   3      -0.000001       0.000031      -0.000012
   4      -0.000436      -0.000226       0.000308
   5       0.000051      -0.000067       0.000036
   6       0.000003      -0.000005       0.000008
   7      -0.000037       0.000059       0.000004
   8       0.000087       0.000005      -0.000098
   9      -0.000105      -0.000008       0.000123
  10      -0.000027      -0.000012      -0.000020
  11      -0.000214       0.000135       0.000012
  12      -0.000001       0.000018      -0.000004
  13      -0.000045       0.000030       0.000023
  14       0.000015       0.000023      -0.000014
  15       0.000035       0.000008      -0.000022
  16       0.000006      -0.000011       0.000001
  17       0.000007      -0.000021      -0.000002
  18      -0.000020      -0.000000       0.000023
  19       0.000005      -0.000020       0.000017
  20      -0.000020      -0.000024      -0.000001
---------------------------------------------------
 Number of fixed atoms: 0
 Gradient time:  CPU 537.94 s  wall 26.64 s
 ----------------------------------------------------------------
             Standard Nuclear Orientation (Angstroms)
    I     Atom           X                Y                Z
 ----------------------------------------------------------------
    1      C      -0.6601179312    -0.0056694126     0.6290506165
    2      C      -1.9675173264     0.4790632724     1.1943640848
    3      O      -2.3341356947     1.7838763755     0.7783832765
    4      C       0.0896052480     0.7063571706    -0.2213610395
    5      C       1.3881056707     0.1936004388    -0.7583431131
    6      O       1.3011366358    -0.0463816429    -2.1803619267
    7      C       1.8157362478    -1.0940109005    -0.1252503467
    8      O       2.4911411500    -0.0251634709     1.6643504653
    9      O       1.6652422307    -0.1157915866     2.5740159764
   10      C       0.9209642412    -1.8948080982     0.5662314273
   11      C      -0.2387069140    -1.3337386033     1.0332604876
   12      H      -1.8959929351     0.5094006308     2.2824419428
   13      H      -2.7527507614    -0.2399577956     0.9445151598
   14      H      -2.5118545709     1.7634319802    -0.1683359860
   15      H      -0.2313625359     1.6804195331    -0.5691909840
   16      H       2.1712734525     0.9386122561    -0.5907728667
   17      H       1.2191672797     0.8107032208    -2.6145839032
   18      H       1.2086331936    -2.8904322163     0.8739339309
   19      H      -0.9011050734    -1.9067730441     1.6704994587
   20      H       2.7716971930    -1.4878280073    -0.4433868608
 ----------------------------------------------------------------
 Nuclear Repulsion Energy =         627.71040469 hartrees
 There are       42 alpha and       41 beta electrons
 Discretize the solute cavity surface with Lebedev spheres
	Using 110 Lebedev grid points for each H atom
	Using 194 Lebedev grid points for other atoms
	Atomic van der Waals radii will be scaled by 1.20
 Remove points where switching function is < 1.0e-08
 Keep 1520 surface tesserae and discard 1604 interior tesserae
 Molecular Surface Area = 174.085 Angst**2
 Requested basis set is 6-311++G(2df,2p)
 There are 142 shells and 464 basis functions
 A cutoff of  1.0D-12 yielded   8922 shell pairs
 There are     95615 function pairs (    119176 Cartesian)
 Smallest overlap matrix eigenvalue = 1.22E-06
 Guess MOs from SCF MO coefficient file

 -----------------------------------------------------------------------
  General SCF calculation program by
  Eric Jon Sundstrom, Paul Horn, Yuezhi Mao, Dmitri Zuev, Alec White,
  David Stuck, Shaama M.S., Shane Yost, Joonho Lee, David Small,
  Daniel Levine, Susi Lehtola, Hugh Burton, Evgeny Epifanovsky,
  Bang C. Huynh
 -----------------------------------------------------------------------
 Exchange:     0.1500 Hartree-Fock + 1.0000 wB97M-V + LR-HF
 Correlation:  1.0000 wB97M-V
 Using SG-2 standard quadrature grid
 Nonlocal Correlation:  VV10 with C = 0.0100 and b = 6.00 and scale = 1.00000
 Grid used for NLC:  SG-1 standard quadrature
 
 Citation of the SMD model:
 Marenich, A.V.; Cramer, C.J.; Truhlar, D.G.
 J. Phys. Chem. B 2009, 113, 6378-6396.
 iSolventCode=           1
 Solvent: water                                                           
 
 vradii
            1           2           3           4           5           6
    1   1.8500000   1.8500000   1.5200000   1.8500000   1.8500000   1.5200000
            7           8           9          10          11          12
    1   1.8500000   1.5200000   1.5200000   1.8500000   1.8500000   1.2000000
           13          14          15          16          17          18
    1   1.2000000   1.2000000   1.2000000   1.2000000   1.2000000   1.2000000
           19          20
    1   1.2000000   1.2000000
 -------------------------------------------------------
 OpenMP BLAS3 based DFT computing Module                
 Release: version 1.0, May 2013, Q-Chem Inc. Pittsburgh 
 -------------------------------------------------------
 A unrestricted SCF calculation will be
 performed using Roothaan-Hall, DIIS, GDM
 SCF converges when RMS gradient is below 1.0e-07
 ---------------------------------------
  Cycle       Energy         DIIS error
 ---------------------------------------
    1    -572.8315052065      1.75e-04  Roothaan Step
 ---------------------------------------
  Cycle       Energy         DIIS error
 ---------------------------------------
    1    -572.8598477038      1.96e-04  
    2    -572.8640749269      1.61e-04  Done DIIS. Switching to GDM
 ---------------------------------------
  Cycle       Energy        RMS Gradient
 ---------------------------------------
    1    -572.8640749269      1.20e-02   Normal BFGS step
    2    -572.8637422245      2.04e-02  Line search: overstep
    3    -572.8658455824      3.82e-03   Normal BFGS step
    4    -572.8659749868      3.71e-03   Normal BFGS step
    5    -572.8660358323      1.54e-03   Normal BFGS step
    6    -572.8660466751      1.16e-03   Normal BFGS step
    7    -572.8660516358      1.15e-03   Normal BFGS step
    8    -572.8660556508      5.47e-04   Normal BFGS step
    9    -572.8660576407      3.24e-04   Normal BFGS step
   10    -572.8660584586      3.04e-04   Normal BFGS step
   11    -572.8660587568      1.63e-04   Normal BFGS step
   12    -572.8660588423      5.54e-05   Normal BFGS step
   13    -572.8660588715      4.93e-05   Normal BFGS step
   14    -572.8660588833      2.73e-05   Normal BFGS step
   15    -572.8660588880      1.06e-05   Normal BFGS step
   16    -572.8660588890      4.94e-06   Normal BFGS step
   17    -572.8660588892      2.69e-06   Normal BFGS step
   18    -572.8660588893      8.18e-07   Normal BFGS step
   19    -572.8660588893      4.63e-07   Normal BFGS step
   20    -572.8660588893      2.64e-07   Normal BFGS step
   21    -572.8660588893      1.70e-07   Normal BFGS step
   22    -572.8660588893      9.14e-08  Convergence criterion met
 ---------------------------------------
 SCF time:   CPU 4528.34s  wall 182.00s 
<S^2> =          1.163743010
(3)  G-ENP(liq) elect-nuc-pol free energy of system     -572.866058889 a.u.
(4)  G-CDS(liq) cavity-dispersion-solvent structure 
     free energy                                                3.0818 kcal/mol
(6)  G-S(liq) free energy of system                     -572.861147684 a.u.
 SCF   energy in the final basis set =     -572.8611476838
 Total energy in the final basis set =     -572.8611476838
 
 --------------------------------------------------------------
 
                    Orbital Energies (a.u.)
 --------------------------------------------------------------
 
 Alpha MOs
 -- Occupied --
-19.4540 -19.4363 -19.3409 -19.3397 -10.4047 -10.3890 -10.3740 -10.3656
-10.3579 -10.3452 -10.3434  -1.3741  -1.1595  -1.1569  -0.9836  -0.9355
 -0.8941  -0.8661  -0.8008  -0.7401  -0.7067  -0.6491  -0.6426  -0.6307
 -0.6217  -0.6136  -0.6056  -0.5828  -0.5697  -0.5443  -0.5369  -0.5221
 -0.4885  -0.4731  -0.4669  -0.4311  -0.4143  -0.4020  -0.3901  -0.3810
 -0.3759  -0.3348
 -- Virtual --
 -0.0232   0.0248   0.0347   0.0362   0.0472   0.0543   0.0556   0.0650
  0.0812   0.0855   0.0884   0.0965   0.1029   0.1177   0.1232   0.1365
  0.1403   0.1437   0.1486   0.1525   0.1537   0.1592   0.1640   0.1679
  0.1721   0.1784   0.1841   0.1890   0.1949   0.2006   0.2050   0.2103
  0.2157   0.2240   0.2259   0.2341   0.2404   0.2481   0.2577   0.2632
  0.2724   0.2886   0.2926   0.2989   0.3017   0.3038   0.3067   0.3106
  0.3160   0.3206   0.3221   0.3378   0.3479   0.3501   0.3565   0.3647
  0.3741   0.3797   0.3839   0.3849   0.3928   0.3951   0.4020   0.4099
  0.4212   0.4271   0.4326   0.4407   0.4468   0.4744   0.4804   0.4836
  0.5059   0.5210   0.5428   0.5546   0.5669   0.5788   0.5929   0.6023
  0.6091   0.6222   0.6308   0.6450   0.6470   0.6570   0.6653   0.6709
  0.6792   0.6902   0.7041   0.7092   0.7154   0.7223   0.7375   0.7432
  0.7520   0.7529   0.7596   0.7723   0.7784   0.7933   0.8021   0.8099
  0.8260   0.8308   0.8481   0.8627   0.8710   0.8766   0.8787   0.8991
  0.9056   0.9377   0.9562   0.9667   0.9797   0.9956   1.0249   1.0359
  1.0473   1.0524   1.0680   1.0892   1.0971   1.1076   1.1194   1.1349
  1.1459   1.1511   1.1580   1.1717   1.1791   1.1984   1.2116   1.2328
  1.2381   1.2426   1.2492   1.2527   1.2629   1.2758   1.2818   1.2916
  1.3079   1.3177   1.3192   1.3269   1.3506   1.3629   1.3669   1.3718
  1.3928   1.4010   1.4071   1.4175   1.4256   1.4483   1.4586   1.4630
  1.4802   1.4885   1.4971   1.5093   1.5350   1.5359   1.5472   1.5548
  1.5646   1.5772   1.5979   1.6123   1.6231   1.6380   1.6453   1.6605
  1.6676   1.6794   1.7030   1.7242   1.7394   1.7714   1.7805   1.7820
  1.7932   1.8054   1.8287   1.8671   1.8915   1.9244   1.9750   1.9843
  2.0030   2.0102   2.0355   2.0734   2.0876   2.1409   2.1585   2.1913
  2.2563   2.2868   2.3163   2.3528   2.3669   2.3813   2.4026   2.4059
  2.4532   2.5510   2.6229   2.6624   2.6681   2.6850   2.7089   2.7243
  2.7517   2.7962   2.8034   2.8242   2.8342   2.8588   2.8676   2.8739
  2.8976   2.9080   2.9398   2.9466   2.9514   2.9713   2.9810   3.0065
  3.0193   3.0278   3.0394   3.0532   3.0636   3.0789   3.0849   3.1179
  3.1290   3.1554   3.1729   3.1842   3.2023   3.2142   3.2403   3.2573
  3.2851   3.3073   3.3188   3.3321   3.3475   3.3545   3.3748   3.3784
  3.4030   3.4182   3.4298   3.4523   3.4753   3.4951   3.5117   3.5170
  3.5286   3.5502   3.5617   3.5811   3.5922   3.6232   3.6384   3.6491
  3.6627   3.6762   3.6923   3.6996   3.7381   3.7485   3.7645   3.7709
  3.7808   3.7925   3.7987   3.8231   3.8322   3.8497   3.8686   3.8959
  3.9030   3.9236   3.9467   3.9556   3.9898   4.0256   4.0501   4.0634
  4.0695   4.0828   4.1333   4.1474   4.1549   4.1724   4.2110   4.2157
  4.2208   4.2538   4.2730   4.2878   4.2969   4.3250   4.3339   4.3547
  4.3745   4.3756   4.3880   4.4119   4.4203   4.4410   4.4641   4.4954
  4.5246   4.5522   4.5567   4.5702   4.5907   4.6054   4.6131   4.6315
  4.6600   4.6728   4.6817   4.7032   4.7251   4.7388   4.7889   4.8394
  4.8488   4.9195   4.9662   4.9734   5.0056   5.0215   5.0288   5.0887
  5.0984   5.1587   5.1652   5.1816   5.2023   5.2087   5.2206   5.2253
  5.2419   5.2811   5.2963   5.3043   5.3159   5.3236   5.3371   5.3659
  5.3768   5.4214   5.4617   5.4705   5.5097   5.5513   5.5896   5.6056
  5.6405   5.6803   5.6928   5.6963   5.7124   5.7274   5.7370   5.7490
  5.8247   5.9166   5.9413   6.0028   6.0293   6.0606   6.1035   6.3516
  6.5812   6.6537   6.7440   6.7728   6.8312   6.8561   6.9515   7.0097
  7.0528   7.0708   7.0990   7.1299   7.1716   7.3156   7.3225   7.3271
  7.3427   7.3669   7.3874   7.3934   7.4781   7.6540   7.6619   7.7922
  7.8261   8.1097   8.1725  24.3265  24.6343  24.8027  24.8348  24.8599
 25.1482  25.3843  50.5006  50.5231  50.5976  50.6134
 
 Beta MOs
 -- Occupied --
-19.4299 -19.4129 -19.3420 -19.3397 -10.4042 -10.3891 -10.3786 -10.3696
-10.3567 -10.3455 -10.3432  -1.3293  -1.1599  -1.1588  -0.9868  -0.9033
 -0.8777  -0.8569  -0.8028  -0.7447  -0.7084  -0.6424  -0.6389  -0.6154
 -0.5892  -0.5844  -0.5711  -0.5668  -0.5454  -0.5406  -0.5298  -0.5233
 -0.4898  -0.4752  -0.4684  -0.4327  -0.4190  -0.4028  -0.3893  -0.3531
 -0.2862
 -- Virtual --
 -0.0177  -0.0009   0.0249   0.0349   0.0362   0.0476   0.0546   0.0554
  0.0651   0.0790   0.0825   0.0878   0.0966   0.1041   0.1173   0.1238
  0.1360   0.1386   0.1436   0.1482   0.1513   0.1548   0.1586   0.1641
  0.1685   0.1729   0.1792   0.1847   0.1886   0.1952   0.2019   0.2052
  0.2114   0.2160   0.2245   0.2270   0.2325   0.2401   0.2486   0.2590
  0.2659   0.2734   0.2886   0.2931   0.2998   0.3018   0.3043   0.3064
  0.3101   0.3222   0.3224   0.3246   0.3429   0.3474   0.3494   0.3578
  0.3652   0.3745   0.3793   0.3840   0.3847   0.3934   0.3962   0.4027
  0.4108   0.4241   0.4284   0.4336   0.4406   0.4548   0.4742   0.4802
  0.4850   0.5076   0.5211   0.5419   0.5547   0.5664   0.5772   0.5916
  0.6003   0.6083   0.6207   0.6290   0.6432   0.6459   0.6560   0.6631
  0.6720   0.6784   0.6891   0.7024   0.7081   0.7127   0.7214   0.7351
  0.7413   0.7509   0.7519   0.7589   0.7722   0.7764   0.7931   0.8013
  0.8092   0.8259   0.8291   0.8447   0.8609   0.8696   0.8738   0.8778
  0.8975   0.9045   0.9382   0.9555   0.9660   0.9793   0.9957   1.0253
  1.0367   1.0496   1.0546   1.0679   1.0907   1.0989   1.1075   1.1201
  1.1421   1.1522   1.1559   1.1580   1.1733   1.1809   1.2108   1.2193
  1.2343   1.2379   1.2504   1.2532   1.2548   1.2702   1.2778   1.2916
  1.3025   1.3116   1.3183   1.3252   1.3298   1.3520   1.3624   1.3686
  1.3736   1.3936   1.4014   1.4070   1.4163   1.4256   1.4537   1.4609
  1.4631   1.4806   1.4916   1.4969   1.5093   1.5352   1.5382   1.5486
  1.5604   1.5677   1.5804   1.6012   1.6134   1.6332   1.6408   1.6460
  1.6610   1.6809   1.6857   1.7084   1.7289   1.7405   1.7692   1.7807
  1.7881   1.8016   1.8050   1.8460   1.8668   1.8934   1.9351   1.9761
  1.9884   2.0036   2.0131   2.0399   2.0784   2.0862   2.1412   2.1573
  2.1914   2.2553   2.2880   2.3291   2.3708   2.3807   2.3838   2.4080
  2.4231   2.4524   2.5497   2.6184   2.6637   2.6717   2.6791   2.7077
  2.7229   2.7449   2.7908   2.7976   2.8162   2.8285   2.8539   2.8597
  2.8724   2.8921   2.9011   2.9333   2.9406   2.9425   2.9685   2.9747
  3.0000   3.0108   3.0169   3.0319   3.0477   3.0565   3.0656   3.0822
  3.1130   3.1212   3.1464   3.1711   3.1786   3.1973   3.2101   3.2339
  3.2522   3.2807   3.2994   3.3140   3.3263   3.3422   3.3503   3.3704
  3.3730   3.3971   3.4115   3.4262   3.4481   3.4721   3.4864   3.5048
  3.5108   3.5233   3.5437   3.5564   3.5731   3.5860   3.6136   3.6339
  3.6435   3.6579   3.6680   3.6864   3.6941   3.7343   3.7429   3.7576
  3.7695   3.7771   3.7905   3.7954   3.8210   3.8279   3.8446   3.8619
  3.8891   3.8975   3.9197   3.9421   3.9496   3.9860   4.0205   4.0463
  4.0568   4.0655   4.0804   4.1300   4.1417   4.1517   4.1672   4.2079
  4.2128   4.2181   4.2500   4.2688   4.2839   4.2909   4.3221   4.3302
  4.3515   4.3684   4.3714   4.3845   4.4084   4.4156   4.4346   4.4593
  4.4905   4.5215   4.5448   4.5554   4.5702   4.5982   4.6075   4.6272
  4.6382   4.6715   4.6882   4.6997   4.7089   4.7269   4.7400   4.8026
  4.8356   4.8438   4.9172   4.9619   4.9783   5.0363   5.0477   5.0773
  5.1037   5.1592   5.1694   5.1902   5.2130   5.2396   5.2471   5.2707
  5.2796   5.2843   5.2893   5.2985   5.3127   5.3180   5.3455   5.3697
  5.3754   5.3858   5.4228   5.4588   5.4686   5.5088   5.5466   5.5883
  5.6027   5.6354   5.6786   5.6919   5.6950   5.7049   5.7348   5.7720
  5.7856   5.8188   5.9135   5.9351   5.9994   6.0279   6.0594   6.0963
  6.3458   6.5800   6.6536   6.8074   6.8186   6.9339   6.9580   7.0436
  7.0840   7.0990   7.1200   7.1221   7.1503   7.2394   7.3160   7.3208
  7.3273   7.3412   7.3675   7.3897   7.4409   7.5171   7.6538   7.6598
  7.7921   7.8229   8.1398   8.2042  24.3253  24.6332  24.8027  24.8347
 24.8564  25.1473  25.3832  50.5192  50.5419  50.5977  50.6127
 --------------------------------------------------------------
 
          Ground-State Mulliken Net Atomic Charges

     Atom                 Charge (a.u.)    Spin (a.u.)
  --------------------------------------------------------
      1 C                     0.201721       0.061154
      2 C                    -0.420108      -0.011404
      3 O                    -0.446687      -0.000527
      4 C                    -0.312356      -0.144089
      5 C                    -0.864007      -0.009608
      6 O                    -0.427970      -0.012867
      7 C                     0.400993      -0.272999
      8 O                    -0.050833       0.780243
      9 O                    -0.095361       0.784054
     10 C                    -0.970213       0.060263
     11 C                     0.347654      -0.235607
     12 H                     0.222376       0.002679
     13 H                     0.225650       0.002020
     14 H                     0.334139       0.000316
     15 H                     0.285439       0.003206
     16 H                     0.268288      -0.015324
     17 H                     0.333156      -0.004456
     18 H                     0.279217      -0.004551
     19 H                     0.338870       0.007618
     20 H                     0.350031       0.009878
  --------------------------------------------------------
  Sum of atomic charges =     0.000000
  Sum of spin   charges =     1.000000

 -----------------------------------------------------------------
                    Cartesian Multipole Moments
 -----------------------------------------------------------------
    Charge (ESU x 10^10)
                 0.0000
    Dipole Moment (Debye)
         X      -1.3992      Y      -0.7338      Z      -2.5387
       Tot       2.9901
    Quadrupole Moments (Debye-Ang)
        XX     -64.0159     XY       4.0757     YY     -62.5045
        XZ      -2.9764     YZ     -12.9928     ZZ     -71.8418
    Octopole Moments (Debye-Ang^2)
       XXX     -71.5537    XXY      -5.8804    XYY      -5.9573
       YYY       3.4663    XXZ     -47.4302    XYZ       5.4054
       YYZ     -36.9283    XZZ     -42.3366    YZZ      17.7238
       ZZZ     -99.4523
    Hexadecapole Moments (Debye-Ang^3)
      XXXX   -1064.9867   XXXY     166.5990   XXYY    -261.9641
      XYYY     165.3583   YYYY    -486.2968   XXXZ      29.7062
      XXYZ     -31.0133   XYYZ      28.2878   YYYZ     -21.3589
      XXZZ    -334.3587   XYZZ      76.5604   YYZZ    -198.5031
      XZZZ     -12.4858   YZZZ     -14.7154   ZZZZ    -775.0002
 -----------------------------------------------------------------
 Calculating analytic gradient of the SCF energy
 Gradient of CDS energy
            1           2           3           4           5           6
    1   0.0001533  -0.0007687   0.0003127  -0.0001035   0.0001442   0.0000052
    2  -0.0000123   0.0004701  -0.0002709   0.0001581  -0.0000744  -0.0000657
    3   0.0001396   0.0003855  -0.0000053  -0.0000232  -0.0002336   0.0002620
            7           8           9          10          11          12
    1   0.0001881  -0.0000288   0.0000434   0.0000896  -0.0002383   0.0002091
    2  -0.0000217   0.0000270   0.0000690  -0.0003229  -0.0001676   0.0000116
    3  -0.0000899   0.0000505  -0.0000042   0.0000056   0.0000700   0.0001257
           13          14          15          16          17          18
    1   0.0000702  -0.0003265  -0.0000652   0.0001401   0.0000338   0.0000555
    2  -0.0002190   0.0003138   0.0000984   0.0001043   0.0001943  -0.0001920
    3  -0.0001435  -0.0002751   0.0000353   0.0001038  -0.0004773   0.0000593
           19          20
    1  -0.0001205   0.0002065
    2  -0.0000698  -0.0000303
    3   0.0000891  -0.0000744
 Gradient of SCF Energy
            1           2           3           4           5           6
    1  -0.0028985   0.0058359   0.0016668   0.0112193  -0.0066667   0.0005119
    2  -0.0051194   0.0103797   0.0043564  -0.0022037  -0.0103051  -0.0170692
    3   0.0009873  -0.0067231   0.0179472   0.0041849  -0.0007944   0.0030368
            7           8           9          10          11          12
    1  -0.0032690  -0.0020230   0.0021915  -0.0011769   0.0008281  -0.0003003
    2   0.0078206  -0.0001892   0.0005873   0.0037671   0.0035639  -0.0027030
    3   0.0037108   0.0025429  -0.0022753  -0.0036313  -0.0012020   0.0033553
           13          14          15          16          17          18
    1  -0.0053812  -0.0017585  -0.0019619   0.0044565  -0.0010911   0.0014271
    2  -0.0056313  -0.0024802   0.0072868   0.0055414   0.0152129  -0.0061942
    3  -0.0019742  -0.0147524  -0.0050396  -0.0007279  -0.0042917   0.0016583
           19          20
    1  -0.0062683   0.0046584
    2  -0.0046935  -0.0019273
    3   0.0049553  -0.0009670
 Max gradient component =       1.795E-02
 RMS gradient           =       6.010E-03
 Computing fast CPCM-SWIG gradient
 Updating gradient with PCM contributions...
 -- total gradient after adding PCM contribution --
---------------------------------------------------
  Atom         X              Y              Z     
---------------------------------------------------
   1      -0.001064       0.000040       0.000455
   2       0.000343      -0.000045      -0.000099
   3       0.000021      -0.000007      -0.000016
   4       0.000414       0.000171      -0.000306
   5       0.000106      -0.000006      -0.000038
   6       0.000007      -0.000009       0.000000
   7      -0.000033       0.000073       0.000008
   8       0.000080       0.000001      -0.000094
   9      -0.000093      -0.000006       0.000123
  10      -0.000025      -0.000127       0.000023
  11       0.000227      -0.000100       0.000007
  12       0.000002       0.000023      -0.000013
  13       0.000043       0.000008      -0.000033
  14       0.000014       0.000022      -0.000011
  15      -0.000007      -0.000012      -0.000000
  16       0.000020      -0.000017      -0.000001
  17       0.000008      -0.000022      -0.000002
  18      -0.000013      -0.000011       0.000004
  19      -0.000030       0.000045      -0.000005
  20      -0.000021      -0.000023      -0.000001
---------------------------------------------------
 Number of fixed atoms: 0
 Gradient time:  CPU 539.52 s  wall 27.00 s
 ----------------------------------------------------------------
             Standard Nuclear Orientation (Angstroms)
    I     Atom           X                Y                Z
 ----------------------------------------------------------------
    1      C      -0.6591179312    -0.0046694126     0.6290506165
    2      C      -1.9675173264     0.4790632724     1.1943640848
    3      O      -2.3341356947     1.7838763755     0.7783832765
    4      C       0.0896052480     0.7063571706    -0.2213610395
    5      C       1.3881056707     0.1936004388    -0.7583431131
    6      O       1.3011366358    -0.0463816429    -2.1803619267
    7      C       1.8157362478    -1.0940109005    -0.1252503467
    8      O       2.4911411500    -0.0251634709     1.6643504653
    9      O       1.6652422307    -0.1157915866     2.5740159764
   10      C       0.9209642412    -1.8948080982     0.5662314273
   11      C      -0.2387069140    -1.3337386033     1.0332604876
   12      H      -1.8959929351     0.5094006308     2.2824419428
   13      H      -2.7527507614    -0.2399577956     0.9445151598
   14      H      -2.5118545709     1.7634319802    -0.1683359860
   15      H      -0.2313625359     1.6804195331    -0.5691909840
   16      H       2.1712734525     0.9386122561    -0.5907728667
   17      H       1.2191672797     0.8107032208    -2.6145839032
   18      H       1.2086331936    -2.8904322163     0.8739339309
   19      H      -0.9011050734    -1.9067730441     1.6704994587
   20      H       2.7716971930    -1.4878280073    -0.4433868608
 ----------------------------------------------------------------
 Nuclear Repulsion Energy =         627.72053459 hartrees
 There are       42 alpha and       41 beta electrons
 Discretize the solute cavity surface with Lebedev spheres
	Using 110 Lebedev grid points for each H atom
	Using 194 Lebedev grid points for other atoms
	Atomic van der Waals radii will be scaled by 1.20
 Remove points where switching function is < 1.0e-08
 Keep 1520 surface tesserae and discard 1604 interior tesserae
 Molecular Surface Area = 174.082 Angst**2
 Requested basis set is 6-311++G(2df,2p)
 There are 142 shells and 464 basis functions
 A cutoff of  1.0D-12 yielded   8922 shell pairs
 There are     95615 function pairs (    119176 Cartesian)
 Smallest overlap matrix eigenvalue = 1.22E-06
 Guess MOs from SCF MO coefficient file

 -----------------------------------------------------------------------
  General SCF calculation program by
  Eric Jon Sundstrom, Paul Horn, Yuezhi Mao, Dmitri Zuev, Alec White,
  David Stuck, Shaama M.S., Shane Yost, Joonho Lee, David Small,
  Daniel Levine, Susi Lehtola, Hugh Burton, Evgeny Epifanovsky,
  Bang C. Huynh
 -----------------------------------------------------------------------
 Exchange:     0.1500 Hartree-Fock + 1.0000 wB97M-V + LR-HF
 Correlation:  1.0000 wB97M-V
 Using SG-2 standard quadrature grid
 Nonlocal Correlation:  VV10 with C = 0.0100 and b = 6.00 and scale = 1.00000
 Grid used for NLC:  SG-1 standard quadrature
 
 Citation of the SMD model:
 Marenich, A.V.; Cramer, C.J.; Truhlar, D.G.
 J. Phys. Chem. B 2009, 113, 6378-6396.
 iSolventCode=           1
 Solvent: water                                                           
 
 vradii
            1           2           3           4           5           6
    1   1.8500000   1.8500000   1.5200000   1.8500000   1.8500000   1.5200000
            7           8           9          10          11          12
    1   1.8500000   1.5200000   1.5200000   1.8500000   1.8500000   1.2000000
           13          14          15          16          17          18
    1   1.2000000   1.2000000   1.2000000   1.2000000   1.2000000   1.2000000
           19          20
    1   1.2000000   1.2000000
 -------------------------------------------------------
 OpenMP BLAS3 based DFT computing Module                
 Release: version 1.0, May 2013, Q-Chem Inc. Pittsburgh 
 -------------------------------------------------------
 A unrestricted SCF calculation will be
 performed using Roothaan-Hall, DIIS, GDM
 SCF converges when RMS gradient is below 1.0e-07
 ---------------------------------------
  Cycle       Energy         DIIS error
 ---------------------------------------
    1    -572.8315027519      1.75e-04  Roothaan Step
 ---------------------------------------
  Cycle       Energy         DIIS error
 ---------------------------------------
    1    -572.8598516350      1.96e-04  
    2    -572.8640777874      1.61e-04  Done DIIS. Switching to GDM
 ---------------------------------------
  Cycle       Energy        RMS Gradient
 ---------------------------------------
    1    -572.8640777874      1.19e-02   Normal BFGS step
    2    -572.8637549421      2.02e-02  Line search: overstep
    3    -572.8658462941      3.80e-03   Normal BFGS step
    4    -572.8659754829      3.73e-03   Normal BFGS step
    5    -572.8660358367      1.56e-03   Normal BFGS step
    6    -572.8660467700      1.17e-03   Normal BFGS step
    7    -572.8660517556      1.16e-03   Normal BFGS step
    8    -572.8660558473      5.54e-04   Normal BFGS step
    9    -572.8660578932      3.29e-04   Normal BFGS step
   10    -572.8660587285      3.00e-04   Normal BFGS step
   11    -572.8660590293      1.58e-04   Normal BFGS step
   12    -572.8660591121      5.29e-05   Normal BFGS step
   13    -572.8660591393      4.76e-05   Normal BFGS step
   14    -572.8660591502      2.66e-05   Normal BFGS step
   15    -572.8660591545      1.04e-05   Normal BFGS step
   16    -572.8660591555      4.79e-06   Normal BFGS step
   17    -572.8660591557      2.62e-06   Normal BFGS step
   18    -572.8660591558      8.16e-07   Normal BFGS step
   19    -572.8660591558      4.70e-07   Normal BFGS step
   20    -572.8660591558      2.68e-07   Normal BFGS step
   21    -572.8660591558      1.54e-07   Normal BFGS step
   22    -572.8660591558      8.02e-08  Convergence criterion met
 ---------------------------------------
 SCF time:   CPU 4518.02s  wall 182.00s 
<S^2> =          1.163108626
(3)  G-ENP(liq) elect-nuc-pol free energy of system     -572.866059156 a.u.
(4)  G-CDS(liq) cavity-dispersion-solvent structure 
     free energy                                                3.0820 kcal/mol
(6)  G-S(liq) free energy of system                     -572.861147683 a.u.
 SCF   energy in the final basis set =     -572.8611476826
[...]

 Q-Chem warning in module libgscf/gen_scfman/uhf.C, line 811:

 Inconsistent size for SCF MO coefficient file.  Please check basis and PURECART setting.

 
 Citation of the SMD model:
 Marenich, A.V.; Cramer, C.J.; Truhlar, D.G.
 J. Phys. Chem. B 2009, 113, 6378-6396.
 iSolventCode=           1
 Solvent: water                                                           
 
 vradii
            1           2           3           4           5           6
    1   1.8500000   1.8500000   1.5200000   1.8500000   1.8500000   1.5200000
            7           8           9          10          11          12
    1   1.8500000   1.5200000   1.5200000   1.8500000   1.8500000   1.2000000
           13          14          15          16          17          18
    1   1.2000000   1.2000000   1.2000000   1.2000000   1.2000000   1.2000000
           19          20
    1   1.2000000   1.2000000
 -------------------------------------------------------
 OpenMP BLAS3 based DFT computing Module                
 Release: version 1.0, May 2013, Q-Chem Inc. Pittsburgh 
 -------------------------------------------------------
 A unrestricted SCF calculation will be
 performed using Roothaan-Hall, DIIS, GDM
 SCF converges when RMS gradient is below 1.0e-07
 ---------------------------------------
  Cycle       Energy         DIIS error
 ---------------------------------------
    1    -521.1467873075      5.59e-03  Roothaan Step
 ---------------------------------------
  Cycle       Energy         DIIS error
 ---------------------------------------
    1    -565.9012376972      7.48e-03  
    2    -551.9306112141      1.49e-02  
    3    -570.6823335957      5.31e-03  Done DIIS. Switching to GDM
 ---------------------------------------
  Cycle       Energy        RMS Gradient
 ---------------------------------------
    1    -570.6823335957      6.39e-01   Descent step
    2    -571.8448279482      3.33e-01   Descent step
    3    -572.4171927877      1.89e-01   Descent step
    4    -572.6732623841      1.01e-01   Descent step
    5    -572.7871107457      5.30e-02   Normal BFGS step
    6    -572.8202098918      2.63e-02   Normal BFGS step
    7    -572.8242246550      1.40e-02   Normal BFGS step
    8    -572.8265500173      1.32e-02   Normal BFGS step
    9    -572.8273129991      1.18e-02   Normal BFGS step
   10    -572.8281658097      1.31e-02   Normal BFGS step
   11    -572.8299962054      2.29e-02   Dog-leg BFGS step
   12    -572.8307306884      4.04e-02   Normal BFGS step
   13    -572.8349078775      2.54e-02   Normal BFGS step
   14    -572.8399423681      1.97e-02   Normal BFGS step
   15    -572.8434002178      2.18e-02   Normal BFGS step
   16    -572.8451431153      1.39e-02   Normal BFGS step
   17    -572.8464697437      1.06e-02   Normal BFGS step
   18    -572.8474107624      8.29e-03   Normal BFGS step
   19    -572.8477716273      9.03e-03   Normal BFGS step
   20    -572.8483730687      1.11e-02   Normal BFGS step
   21    -572.8493534149      1.48e-02   Normal BFGS step
   22    -572.8502963018      1.22e-02   Normal BFGS step
   23    -572.8514432667      9.79e-03   Normal BFGS step
   24    -572.8520536503      4.25e-03   Normal BFGS step
   25    -572.8522653159      1.68e-03   Normal BFGS step
   26    -572.8523222868      1.11e-03   Normal BFGS step
   27    -572.8523395553      8.63e-04   Normal BFGS step
   28    -572.8523458486      3.68e-04   Normal BFGS step
   29    -572.8523479360      2.19e-04   Normal BFGS step
   30    -572.8523484443      1.08e-04   Normal BFGS step
   31    -572.8523485499      4.43e-05   Normal BFGS step
   32    -572.8523485750      3.21e-05   Normal BFGS step
   33    -572.8523485824      1.91e-05   Normal BFGS step
   34    -572.8523485845      9.99e-06   Normal BFGS step
   35    -572.8523485853      4.38e-06   Normal BFGS step
   36    -572.8523485855      2.30e-06   Normal BFGS step
   37    -572.8523485856      9.87e-07   Normal BFGS step
   38    -572.8523485856      7.19e-07   Normal BFGS step
   39    -572.8523485856      2.82e-07   Normal BFGS step
   40    -572.8523485856      1.18e-07   Normal BFGS step
   41    -572.8523485856      4.77e-08  Convergence criterion met
 ---------------------------------------
 SCF time:   CPU 8720.97s  wall 347.00s 
<S^2> =          1.437460451
(3)  G-ENP(liq) elect-nuc-pol free energy of system     -572.852348586 a.u.
(4)  G-CDS(liq) cavity-dispersion-solvent structure 
     free energy                                                3.1056 kcal/mol
(6)  G-S(liq) free energy of system                     -572.847399440 a.u.
 SCF   energy in the final basis set =     -572.8473994399
 Total energy in the final basis set =     -572.8473994399
 
 --------------------------------------------------------------
 
                    Orbital Energies (a.u.)
 --------------------------------------------------------------
 
 Alpha MOs
 -- Occupied --
-19.4542 -19.4491 -19.3394 -19.3386 -10.4014 -10.3884 -10.3657 -10.3605
-10.3548 -10.3463 -10.3431  -1.3902  -1.1586  -1.1525  -0.9839  -0.9110
 -0.8937  -0.8674  -0.8019  -0.7439  -0.7059  -0.6463  -0.6411  -0.6340
 -0.6193  -0.6104  -0.5884  -0.5809  -0.5686  -0.5432  -0.5361  -0.5200
 -0.4881  -0.4755  -0.4686  -0.4322  -0.4266  -0.4028  -0.3896  -0.3736
 -0.3561  -0.2773
 -- Virtual --
 -0.0321   0.0253   0.0348   0.0366   0.0476   0.0546   0.0554   0.0655
  0.0764   0.0837   0.0882   0.0971   0.1058   0.1170   0.1247   0.1363
  0.1370   0.1465   0.1480   0.1553   0.1567   0.1608   0.1644   0.1718
  0.1734   0.1807   0.1847   0.1919   0.1981   0.2020   0.2068   0.2147
  0.2169   0.2253   0.2279   0.2431   0.2478   0.2527   0.2589   0.2661
  0.2739   0.2877   0.2915   0.3003   0.3015   0.3054   0.3069   0.3167
  0.3195   0.3200   0.3417   0.3423   0.3461   0.3504   0.3580   0.3699
  0.3744   0.3769   0.3834   0.3929   0.3964   0.3991   0.4121   0.4192
  0.4270   0.4305   0.4330   0.4544   0.4729   0.4766   0.4824   0.5037
  0.5279   0.5454   0.5579   0.5658   0.5770   0.5854   0.5996   0.6093
  0.6178   0.6231   0.6389   0.6447   0.6531   0.6589   0.6676   0.6813
  0.6865   0.6990   0.7027   0.7070   0.7140   0.7235   0.7367   0.7398
  0.7481   0.7577   0.7684   0.7741   0.7836   0.7919   0.8112   0.8158
  0.8297   0.8434   0.8537   0.8575   0.8645   0.8805   0.8914   0.8992
  0.9295   0.9517   0.9552   0.9741   0.9939   1.0204   1.0230   1.0410
  1.0540   1.0634   1.0813   1.0933   1.1021   1.1184   1.1307   1.1368
  1.1459   1.1506   1.1558   1.1726   1.1927   1.2019   1.2253   1.2297
  1.2374   1.2449   1.2493   1.2566   1.2682   1.2828   1.2952   1.3062
  1.3218   1.3234   1.3322   1.3409   1.3587   1.3707   1.3795   1.3915
  1.3987   1.4042   1.4186   1.4206   1.4421   1.4496   1.4590   1.4732
  1.4766   1.4925   1.5048   1.5236   1.5359   1.5380   1.5479   1.5574
  1.5645   1.5919   1.5963   1.6019   1.6289   1.6401   1.6500   1.6558
  1.6725   1.6764   1.7039   1.7391   1.7630   1.7679   1.7808   1.7953
  1.8023   1.8158   1.8655   1.8945   1.9169   1.9583   1.9782   1.9858
  2.0025   2.0404   2.0774   2.0852   2.1375   2.1498   2.1692   2.2518
  2.2885   2.3303   2.3701   2.3768   2.3815   2.4015   2.4240   2.4536
  2.5454   2.6097   2.6503   2.6527   2.6771   2.6981   2.7106   2.7382
  2.7853   2.7965   2.8143   2.8319   2.8405   2.8563   2.8717   2.8878
  2.8984   2.9109   2.9357   2.9430   2.9561   2.9663   2.9817   3.0044
  3.0096   3.0274   3.0446   3.0519   3.0588   3.0768   3.1003   3.1229
  3.1410   3.1649   3.1721   3.1931   3.2183   3.2236   3.2432   3.2773
  3.2932   3.3062   3.3276   3.3361   3.3508   3.3635   3.3667   3.3836
  3.4071   3.4145   3.4332   3.4612   3.4853   3.4950   3.5089   3.5213
  3.5471   3.5546   3.5629   3.5761   3.6089   3.6158   3.6371   3.6541
  3.6554   3.6818   3.7008   3.7363   3.7452   3.7616   3.7746   3.7868
  3.7895   3.8020   3.8189   3.8266   3.8508   3.8670   3.8836   3.8911
  3.9155   3.9432   3.9658   3.9813   4.0138   4.0381   4.0596   4.0668
  4.0810   4.1177   4.1408   4.1510   4.1729   4.2014   4.2029   4.2136
  4.2401   4.2521   4.2913   4.3029   4.3130   4.3238   4.3519   4.3679
  4.3719   4.3884   4.4069   4.4172   4.4273   4.4592   4.4962   4.5269
  4.5415   4.5486   4.5803   4.5920   4.5985   4.6041   4.6107   4.6415
  4.6584   4.6716   4.6892   4.7100   4.7251   4.7488   4.8320   4.8558
  4.9114   4.9615   4.9794   4.9885   5.0080   5.0312   5.0793   5.0937
  5.1397   5.1710   5.1780   5.1942   5.2071   5.2174   5.2319   5.2498
  5.2762   5.2929   5.3060   5.3167   5.3240   5.3551   5.3727   5.3819
  5.4113   5.4542   5.4685   5.5107   5.5415   5.5740   5.5931   5.6413
  5.6823   5.6923   5.6960   5.7039   5.7332   5.7887   5.7941   5.8165
  5.8903   5.9272   5.9852   6.0268   6.0551   6.1084   6.4056   6.5357
  6.6496   6.8272   6.8334   6.8425   6.8888   6.9511   7.0074   7.0193
  7.0528   7.0985   7.1250   7.1503   7.3124   7.3183   7.3248   7.3378
  7.3654   7.3728   7.3881   7.4610   7.6514   7.6577   7.7917   7.8185
  8.1700   8.2004  24.3025  24.6359  24.7957  24.8299  24.8893  25.1259
 25.3967  50.4961  50.5739  50.5985  50.6096
 
 Beta MOs
 -- Occupied --
-19.4523 -19.4450 -19.3394 -19.3370 -10.4019 -10.3884 -10.3598 -10.3566
-10.3556 -10.3454 -10.3429  -1.3842  -1.1585  -1.1491  -0.9789  -0.9024
 -0.8894  -0.8605  -0.7982  -0.7371  -0.7031  -0.6443  -0.6386  -0.6240
 -0.6147  -0.6061  -0.5808  -0.5670  -0.5650  -0.5418  -0.5343  -0.5170
 -0.4841  -0.4723  -0.4643  -0.4289  -0.4144  -0.3993  -0.3877  -0.3675
 -0.3360
 -- Virtual --
 -0.0260  -0.0150   0.0252   0.0347   0.0365   0.0475   0.0546   0.0556
  0.0659   0.0821   0.0867   0.0902   0.0971   0.1052   0.1184   0.1244
  0.1375   0.1408   0.1481   0.1487   0.1549   0.1570   0.1621   0.1644
  0.1715   0.1733   0.1810   0.1849   0.1933   0.1985   0.2028   0.2084
  0.2144   0.2168   0.2251   0.2292   0.2430   0.2473   0.2540   0.2590
  0.2655   0.2736   0.2887   0.2916   0.3011   0.3020   0.3072   0.3082
  0.3173   0.3204   0.3228   0.3422   0.3449   0.3478   0.3526   0.3578
  0.3713   0.3751   0.3789   0.3853   0.3941   0.3969   0.3999   0.4123
  0.4197   0.4277   0.4308   0.4348   0.4564   0.4737   0.4769   0.4837
  0.5047   0.5300   0.5470   0.5590   0.5675   0.5794   0.5871   0.6031
  0.6107   0.6233   0.6243   0.6419   0.6456   0.6557   0.6616   0.6668
  0.6841   0.6893   0.7024   0.7060   0.7089   0.7186   0.7260   0.7407
  0.7409   0.7505   0.7591   0.7702   0.7775   0.7856   0.7930   0.8126
  0.8189   0.8303   0.8487   0.8570   0.8596   0.8694   0.8822   0.8948
  0.9006   0.9310   0.9535   0.9578   0.9758   0.9946   1.0210   1.0248
  1.0433   1.0555   1.0647   1.0830   1.0943   1.1041   1.1193   1.1388
  1.1403   1.1451   1.1545   1.1581   1.1744   1.2014   1.2037   1.2238
  1.2313   1.2400   1.2464   1.2507   1.2622   1.2698   1.2851   1.2942
  1.3074   1.3252   1.3258   1.3317   1.3436   1.3600   1.3728   1.3814
  1.3931   1.4004   1.4072   1.4203   1.4232   1.4526   1.4544   1.4617
  1.4741   1.4799   1.4950   1.5079   1.5239   1.5380   1.5434   1.5506
  1.5607   1.5648   1.5962   1.5980   1.6054   1.6311   1.6412   1.6547
  1.6578   1.6738   1.6805   1.7080   1.7435   1.7713   1.7735   1.7855
  1.8005   1.8049   1.8204   1.8685   1.9001   1.9211   1.9616   1.9796
  1.9895   2.0049   2.0446   2.0810   2.0881   2.1394   2.1528   2.1718
  2.2536   2.2906   2.3323   2.3766   2.3822   2.3899   2.4051   2.4152
  2.4550   2.5479   2.6177   2.6557   2.6568   2.6839   2.7033   2.7162
  2.7473   2.7972   2.8034   2.8226   2.8444   2.8455   2.8658   2.8724
  2.8946   2.9082   2.9217   2.9444   2.9573   2.9635   2.9737   2.9922
  3.0168   3.0239   3.0357   3.0535   3.0603   3.0711   3.0826   3.1086
  3.1311   3.1533   3.1691   3.1766   3.1993   3.2266   3.2317   3.2490
  3.2841   3.3042   3.3173   3.3333   3.3433   3.3555   3.3676   3.3727
  3.3949   3.4181   3.4201   3.4374   3.4682   3.4936   3.5041   3.5164
  3.5285   3.5552   3.5625   3.5738   3.5833   3.6215   3.6277   3.6496
  3.6615   3.6643   3.6874   3.7066   3.7414   3.7509   3.7699   3.7783
  3.7883   3.7927   3.8067   3.8230   3.8314   3.8571   3.8771   3.8919
  3.9017   3.9207   3.9501   3.9730   3.9870   4.0210   4.0449   4.0674
  4.0716   4.0855   4.1227   4.1479   4.1551   4.1791   4.2059   4.2080
  4.2173   4.2451   4.2559   4.2969   4.3096   4.3208   4.3261   4.3567
  4.3759   4.3780   4.3944   4.4119   4.4250   4.4363   4.4665   4.5048
  4.5362   4.5488   4.5562   4.5893   4.6022   4.6061   4.6128   4.6311
  4.6473   4.6647   4.6798   4.6869   4.7156   4.7307   4.7534   4.8362
  4.8649   4.9203   4.9720   4.9855   4.9972   5.0152   5.0381   5.1054
  5.1208   5.1495   5.1631   5.1728   5.2062   5.2296   5.2348   5.2497
  5.2591   5.2722   5.2941   5.2984   5.3184   5.3213   5.3558   5.3763
  5.3861   5.4167   5.4595   5.4729   5.5126   5.5475   5.5787   5.5941
  5.6481   5.6846   5.6939   5.6984   5.7102   5.7464   5.7954   5.8005
  5.8302   5.8968   5.9373   5.9899   6.0285   6.0573   6.1188   6.4137
  6.5403   6.6499   6.8429   6.8523   6.8595   6.8879   6.9529   6.9933
  7.0557   7.0937   7.0987   7.1136   7.1442   7.3139   7.3202   7.3261
  7.3409   7.3658   7.3776   7.4193   7.4413   7.6519   7.6607   7.7918
  7.8237   8.1757   8.2020  24.3041  24.6373  24.7960  24.8299  24.8937
 25.1270  25.3983  50.4982  50.5759  50.5986  50.6109
 --------------------------------------------------------------
 
          Ground-State Mulliken Net Atomic Charges

     Atom                 Charge (a.u.)    Spin (a.u.)
  --------------------------------------------------------
      1 C                     0.593386      -0.110506
      2 C                    -0.408504       0.006995
      3 O                    -0.448779       0.000357
      4 C                    -0.612103       0.250119
      5 C                    -0.473285       0.013320
      6 O                    -0.419268       0.019508
      7 C                    -0.148684       0.331993
      8 O                    -0.045159       0.080829
      9 O                    -0.024846       0.142934
     10 C                    -0.349426      -0.136763
     11 C                    -0.227654       0.395698
     12 H                     0.220601      -0.004094
     13 H                     0.221807      -0.003186
     14 H                     0.334436      -0.000421
     15 H                     0.271270      -0.005508
     16 H                     0.257063       0.024356
     17 H                     0.329773       0.004991
     18 H                     0.299965       0.004407
     19 H                     0.305179      -0.006684
     20 H                     0.324230      -0.008345
  --------------------------------------------------------
  Sum of atomic charges =     0.000000
  Sum of spin   charges =     1.000000

 -----------------------------------------------------------------
                    Cartesian Multipole Moments
 -----------------------------------------------------------------
    Charge (ESU x 10^10)
                 0.0000
    Dipole Moment (Debye)
         X      -1.0324      Y      -0.3609      Z      -1.2576
       Tot       1.6667
    Quadrupole Moments (Debye-Ang)
        XX     -63.4843     XY       4.7116     YY     -63.1309
        XZ      -0.4119     YZ     -13.0168     ZZ     -70.3935
    Octopole Moments (Debye-Ang^2)
       XXX     -68.8467    XXY      -4.2231    XYY      -6.6298
       YYY       4.7730    XXZ     -42.3450    XYZ       5.2992
       YYZ     -36.4760    XZZ     -37.9866    YZZ      18.0696
       ZZZ     -89.4924
    Hexadecapole Moments (Debye-Ang^3)
      XXXX   -1061.0639   XXXY     167.5643   XXYY    -265.6592
      XYYY     165.0262   YYYY    -494.3697   XXXZ      38.2157
      XXYZ     -32.3283   XYYZ      28.0080   YYYZ     -27.0837
      XXZZ    -330.6069   XYZZ      76.2608   YYZZ    -203.7952
      XZZZ       2.3086   YZZZ     -20.7770   ZZZZ    -795.0524
 -----------------------------------------------------------------
 Calculating analytic gradient of the SCF energy
 Gradient of CDS energy
            1           2           3           4           5           6
    1   0.0001557  -0.0007253   0.0002780  -0.0000984   0.0001319   0.0000010
    2  -0.0000187   0.0003616  -0.0001653   0.0001560  -0.0000539  -0.0000678
    3   0.0001463   0.0004273  -0.0000390  -0.0000310  -0.0002307   0.0002612
            7           8           9          10          11          12
    1   0.0001942  -0.0000213   0.0000427   0.0001164  -0.0002608   0.0002057
    2  -0.0000593   0.0000270   0.0000703  -0.0003073  -0.0001633   0.0000132
    3  -0.0001374   0.0000591  -0.0000001   0.0000170   0.0000619   0.0001263
           13          14          15          16          17          18
    1   0.0000645  -0.0003264  -0.0000668   0.0001405   0.0000337   0.0000550
    2  -0.0002138   0.0003142   0.0001002   0.0001048   0.0002057  -0.0001937
    3  -0.0001488  -0.0002752   0.0000371   0.0000983  -0.0004723   0.0000633
           19          20
    1  -0.0001181   0.0001978
    2  -0.0000714  -0.0000385
    3   0.0000937  -0.0000571
 Gradient of SCF Energy
            1           2           3           4           5           6
    1   0.0019429   0.0062377   0.0006462   0.0086898  -0.0030776   0.0007423
    2  -0.0082919   0.0094821   0.0051597  -0.0027614  -0.0091992  -0.0181185
    3   0.0038992  -0.0065678   0.0175061   0.0000372   0.0091948  -0.0004109
            7           8           9          10          11          12
    1  -0.0058707  -0.0108215   0.0126134   0.0064414  -0.0065392  -0.0004789
    2  -0.0001681  -0.0023363   0.0018433   0.0096325   0.0062583  -0.0026008
    3  -0.0033805   0.0110459  -0.0131839  -0.0038925  -0.0041073   0.0041267
           13          14          15          16          17          18
    1  -0.0048497  -0.0016753  -0.0027832   0.0034749  -0.0008707   0.0005968
    2  -0.0053888  -0.0025472   0.0084208   0.0065983   0.0139921  -0.0065617
    3  -0.0017721  -0.0141648  -0.0050707  -0.0009449  -0.0034840   0.0020777
           19          20
    1  -0.0065512   0.0021326
    2  -0.0048531   0.0014398
    3   0.0057871   0.0033046
 Max gradient component =       1.812E-02
 RMS gradient           =       6.932E-03
 Computing fast CPCM-SWIG gradient
 Updating gradient with PCM contributions...
 -- total gradient after adding PCM contribution --
---------------------------------------------------
  Atom         X              Y              Z     
---------------------------------------------------
   1       0.000955      -0.003744       0.001417
   2       0.000817      -0.000135      -0.000001
   3      -0.000772       0.000803       0.000115
   4       0.000716       0.000816      -0.001981
   5       0.002034       0.000007       0.009048
   6       0.000270      -0.002038      -0.002000
   7      -0.002427      -0.005016      -0.004684
   8      -0.010103      -0.002189       0.010001
   9       0.011699       0.001481      -0.012074
  10       0.007414       0.003796      -0.002870
  11      -0.006536       0.002714       0.000010
  12      -0.000337       0.000111       0.000451
  13       0.000287      -0.000122      -0.000066
  14       0.000033      -0.000084       0.000065
  15      -0.000898       0.001432      -0.000449
  16      -0.000646       0.001353      -0.000735
  17       0.000083      -0.000338      -0.000424
  18      -0.000549      -0.001162       0.000107
  19      -0.000713      -0.000297       0.000560
  20      -0.001325       0.002613       0.003513
---------------------------------------------------
 Number of fixed atoms: 0
 Gradient time:  CPU 530.53 s  wall 26.48 s
rPathMan2.  file_steps = 951
 IRC --- Status = 4.  Checking bisector search.
  IRC -- last step along bisector failed
  IRC -- this should really never happen....
  IRC -- and yet it did.
  IRC -- recommend running geom opt from here

 Q-Chem fatal error occurred in module 0, line  367:

 IRC failed final bisector step

