
Running Job 1 of 1 Q_in.in
qchem Q_in.in_205606.0 /scratch/ari.fischer/qChem2225067.hpc-mn1/qchem205606/ 0
/usr/local/qchem-5.4.1/exe/qcprog.exe_s Q_in.in_205606.0 /scratch/ari.fischer/qChem2225067.hpc-mn1/qchem205606/
                  Welcome to Q-Chem
     A Quantum Leap Into The Future Of Chemistry


 Q-Chem 5.4, Q-Chem, Inc., Pleasanton, CA (2021)

 License issued to: Nanyang Technological University (site)

 E. Epifanovsky,  A. T. B. Gilbert,  Xintian Feng,  Joonho Lee,  Yuezhi Mao,  
 N. Mardirossian,  P. Pokhilko,  A. White,  M. Wormit,  M. P. Coons,  
 A. L. Dempwolff,  Zhengting Gan,  D. Hait,  P. R. Horn,  L. D. Jacobson,  
 I. Kaliman,  J. Kussmann,  A. W. Lange,  Ka Un Lao,  D. S. Levine,  Jie Liu,  
 S. C. McKenzie,  A. F. Morrison,  K. Nanda,  F. Plasser,  D. R. Rehn,  
 M. L. Vidal,  Zhi-Qiang You,  Ying Zhu,  B. Alam,  B. Albrecht,  
 A. Aldossary,  E. Alguire,  J. H. Andersen,  D. Barton,  K. Begam,  A. Behn,  
 Y. A. Bernard,  E. J. Berquist,  H. Burton,  A. Carreras,  K. Carter-Fenk,  
 R. Chakraborty,  A. D. Chien,  K. D. Closser,  V. Cofer-Shabica,  
 S. Dasgupta,  Jia Deng,  M. de Wergifosse,  M. Diedenhofen,  Hainam Do,  
 S. Ehlert,  Po-Tung Fang,  S. Fatehi,  Qingguo Feng,  T. Friedhoff,  
 J. Gayvert,  Qinghui Ge,  G. Gidofalvi,  M. Goldey,  J. Gomes,  
 C. Gonzalez-Espinoza,  S. Gulania,  A. Gunina,  M. W. D. Hanson-Heine,  
 P. H. P. Harbach,  A. W. Hauser,  M. F. Herbst,  M. Hernandez Vera,  
 M. Hodecker,  Z. C. Holden,  S. Houck,  Xunkun Huang,  Kerwin Hui,  
 B. C. Huynh,  M. Ivanov,  Hyunjun Ji,  Hanjie Jiang,  B. Kaduk,  S. Kaehler,  
 K. Khistyaev,  Jaehoon Kim,  P. Klunzinger,  Z. Koczor-Benda,  
 Joong Hoon Koh,  D. Kosenkov,  L. Koulias,  T. Kowalczyk,  C. M. Krauter,  
 K. Kue,  A. Kunitsa,  T. Kus,  A. Landau,  K. V. Lawler,  D. Lefrancois,  
 S. Lehtola,  Rain Li,  Yi-Pei Li,  Jiashu Liang,  M. Liebenthal,  
 Hung-Hsuan Lin,  You-Sheng Lin,  Fenglai Liu,  Kuan-Yu Liu,  
 M. Loipersberger,  A. Luenser,  A. Manjanath,  P. Manohar,  E. Mansoor,  
 S. F. Manzer,  Shan-Ping Mao,  A. V. Marenich,  T. Markovich,  S. Mason,  
 S. A. Maurer,  P. F. McLaughlin,  M. F. S. J. Menger,  J.-M. Mewes,  
 S. A. Mewes,  P. Morgante,  J. W. Mullinax,  K. J. Oosterbaan,  G. Paran,  
 Alexander C. Paul,  Suranjan K. Paul,  F. Pavosevic,  Zheng Pei,  S. Prager,  
 E. I. Proynov,  E. Ramos,  B. Rana,  A. E. Rask,  A. Rettig,  R. M. Richard,  
 F. Rob,  E. Rossomme,  T. Scheele,  M. Scheurer,  M. Schneider,  
 N. Sergueev,  S. M. Sharada,  W. Skomorowski,  D. W. Small,  C. J. Stein,  
 Yu-Chuan Su,  E. J. Sundstrom,  Zhen Tao,  J. Thirman,  T. Tsuchimochi,  
 N. M. Tubman,  S. P. Veccham,  O. Vydrov,  J. Wenzel,  J. Witte,  A. Yamada,  
 Kun Yao,  S. Yeganeh,  S. R. Yost,  A. Zech,  Igor Ying Zhang,  Xing Zhang,  
 Yu Zhang,  D. Zuev,  A. Aspuru-Guzik,  A. T. Bell,  N. A. Besley,  
 K. B. Bravaya,  B. R. Brooks,  D. Casanova,  Jeng-Da Chai,  S. Coriani,  
 C. J. Cramer,  A. E. DePrince, III,  R. A. DiStasio Jr.,  A. Dreuw,  
 B. D. Dunietz,  T. R. Furlani,  W. A. Goddard III,  S. Grimme,  
 S. Hammes-Schiffer,  T. Head-Gordon,  W. J. Hehre,  Chao-Ping Hsu,  
 T.-C. Jagau,  Yousung Jung,  A. Klamt,  Jing Kong,  D. S. Lambrecht,  
 WanZhen Liang,  N. J. Mayhall,  C. W. McCurdy,  J. B. Neaton,  
 C. Ochsenfeld,  J. A. Parkhill,  R. Peverati,  V. A. Rassolov,  Yihan Shao,  
 L. V. Slipchenko,  T. Stauch,  R. P. Steele,  J. E. Subotnik,  
 A. J. W. Thom,  A. Tkatchenko,  D. G. Truhlar,  T. Van Voorhis,  
 T. A. Wesolowski,  K. B. Whaley,  H. L. Woodcock III,  P. M. Zimmerman,  
 S. Faraji,  P. M. W. Gill,  M. Head-Gordon,  J. M. Herbert,  A. I. Krylov

 Additional authors for Version 5.4.1: 
 S. Kotaru,  Shaozhi Li,  Xiangyuan Li,  F. Matz,  A. Molle,  Haisheng Ren,  
 Yingli Su,  Hung-Yi Tsai,  C. Utku,  Fang Wang

 Contributors to earlier versions of Q-Chem not listed above: 
 R. D. Adamson,  B. Austin,  R. Baer,  J. Baker,  G. J. O. Beran,  
 K. Brandhorst,  S. T. Brown,  E. F. C. Byrd,  A. K. Chakraborty,  
 G. K. L. Chan,  Chun-Min Chang,  Yunqing Chen,  C.-L. Cheng,  
 Siu Hung Chien,  D. M. Chipman,  D. L. Crittenden,  H. Dachsel,  
 R. J. Doerksen,  A. D. Dutoi,  R. G. Edgar,  J. Fosso-Tande,  
 L. Fusti-Molnar,  D. Ghosh,  A. Ghysels,  A. Golubeva-Zadorozhnaya,  
 J. Gonthier,  M. S. Gordon,  S. R. Gwaltney,  G. Hawkins,  J. E. Herr,  
 A. Heyden,  S. Hirata,  E. G. Hohenstein,  G. Kedziora,  F. J. Keil,  
 C. Kelley,  Jihan Kim,  R. A. King,  R. Z. Khaliullin,  P. P. Korambath,  
 W. Kurlancheek,  A. Laurent,  A. M. Lee,  M. S. Lee,  S. V. Levchenko,  
 Ching Yeh Lin,  D. Liotard,  E. Livshits,  R. C. Lochan,  I. Lotan,  
 L. A. Martinez-Martinez,  P. E. Maslen,  N. Nair,  D. P. O'Neill,  
 D. Neuhauser,  E. Neuscamman,  C. M. Oana,  R. Olivares-Amaya,  R. Olson,  
 T. M. Perrine,  B. Peters,  P. A. Pieniazek,  A. Prociuk,  Y. M. Rhee,  
 J. Ritchie,  M. A. Rohrdanz,  E. Rosta,  N. J. Russ,  H. F. Schaefer III,  
 M. W. Schmidt,  N. E. Schultz,  S. Sharma,  N. Shenvi,  C. D. Sherrill,  
 A. C. Simmonett,  A. Sodt,  T. Stein,  D. Stuck,  K. S. Thanthiriwatte,  
 V. Vanovschi,  L. Vogt,  Tao Wang,  A. Warshel,  M. A. Watson,  
 C. F. Williams,  Q. Wu,  X. Xu,  Jun Yang,  W. Zhang,  Yan Zhao

 Please cite Q-Chem as follows:
 Y. Shao et al., Mol. Phys. 113, 184-215 (2015)
 DOI: 10.1080/00268976.2014.952696

 Q-Chem 5.4.1 for Intel X86 EM64T Linux

 Parts of Q-Chem use Armadillo 9.800.1 (Horizon Scraper).
 http://arma.sourceforge.net/

 Q-Chem begins on Wed Jul 10 11:34:25 2024  

 Host: 
0

     Scratch files written to /scratch/ari.fischer/qChem2225067.hpc-mn1/qchem205606//
 Aug1521 |scratch|qcdevops|jenkins|workspace|build_RNUM 8249   
 Processing $rem in /usr/local/qchem-5.4.1/config/preferences:
 Processing $rem in /home/ari.fischer/.qchemrc:
 Symmetry turned off for PCM/SM12/SMD calculation


!!********************************************.
!!******************Warning*******************.
!!Desired Analytical derivatives not available.
!!Finite difference job might take a long time.
!!********************************************.
!!********************************************.


 2-order derivative to be evaluated numerically with 1-order analytical derivatives

 Checking the input file for inconsistencies... 	...done.

--------------------------------------------------------------
User input:
--------------------------------------------------------------
$molecule
0 2
H         0.5874129705    1.4909391869    1.4964192142
C        -0.1438913290    1.2813728651    0.7299697247
C        -1.4428310046    1.5481837805    0.8102849572
H        -1.9413301489    2.0191170655    1.6450151397
C        -2.2010367814    1.0748907856   -0.3996915274
H        -3.2797895136    1.1521048117   -0.3146593013
C        -1.6276114372    1.7217012238   -1.6082584478
H        -2.2116632258    2.2784856197   -2.3240531447
C        -0.1676528660    1.4719632963   -1.7528197904
H         0.0498760995    0.9159025523   -2.6697115506
C         0.2219174681    0.5999172214   -0.5536455623
H         1.2536411630    0.2648676734   -0.6070366862
O         0.6307940890    2.6601100502   -1.7121785753
H         0.3708572905    3.2175089579   -2.4540497623
O        -1.9663291145   -0.3702966904   -0.5071115206
O        -0.5463295596   -0.6241341998   -0.6830017666
$end

$rem
BASIS = 6-311++G(2df,2p)
GUI = 2
JOB_TYPE = Frequency
METHOD = wB97M-V
SOLVENT_METHOD = SMD
SCF_ALGORITHM = DIIS_GDM
MAX_SCF_CYCLES = 400
SCF_CONVERGENCE = 7
THRESH = 12
$end
--------------------------------------------------------------
 ----------------------------------------------------------------
             Standard Nuclear Orientation (Angstroms)
    I     Atom           X                Y                Z
 ----------------------------------------------------------------
    1      H       0.5874129705     1.4909391869     1.4964192142
    2      C      -0.1438913290     1.2813728651     0.7299697247
    3      C      -1.4428310046     1.5481837805     0.8102849572
    4      H      -1.9413301489     2.0191170655     1.6450151397
    5      C      -2.2010367814     1.0748907856    -0.3996915274
    6      H      -3.2797895136     1.1521048117    -0.3146593013
    7      C      -1.6276114372     1.7217012238    -1.6082584478
    8      H      -2.2116632258     2.2784856197    -2.3240531447
    9      C      -0.1676528660     1.4719632963    -1.7528197904
   10      H       0.0498760995     0.9159025523    -2.6697115506
   11      C       0.2219174681     0.5999172214    -0.5536455623
   12      H       1.2536411630     0.2648676734    -0.6070366862
   13      O       0.6307940890     2.6601100502    -1.7121785753
   14      H       0.3708572905     3.2175089579    -2.4540497623
   15      O      -1.9663291145    -0.3702966904    -0.5071115206
   16      O      -0.5463295596    -0.6241341998    -0.6830017666
 ----------------------------------------------------------------
 Nuclear Repulsion Energy =         476.44153360 hartrees
 There are       34 alpha and       33 beta electrons
 Requested basis set is 6-311++G(2df,2p)
 There are 114 shells and 376 basis functions

 Total QAlloc Memory Limit 288000 MB
 Mega-Array Size       188 MB
 MEM_STATIC part       192 MB
 
 Citation of the SMD model:
 Marenich, A.V.; Cramer, C.J.; Truhlar, D.G.
 J. Phys. Chem. B 2009, 113, 6378-6396.
 iSolventCode=           1
 Solvent: water                                                           
 
 vradii
            1           2           3           4           5           6
    1   1.2000000   1.8500000   1.8500000   1.2000000   1.8500000   1.2000000
            7           8           9          10          11          12
    1   1.8500000   1.2000000   1.8500000   1.2000000   1.8500000   1.2000000
           13          14          15          16
    1   1.5200000   1.2000000   1.5200000   1.5200000
 Changing PCM_VDW_RADII to SMD_RADIUS
 Discretize the solute cavity surface with Lebedev spheres
	Using 110 Lebedev grid points for each H atom
	Using 194 Lebedev grid points for other atoms
	Atomic van der Waals radii will be scaled by 1.20
 Remove points where switching function is < 1.0e-08
 Keep 1147 surface tesserae and discard 1369 interior tesserae
 Molecular Surface Area = 135.610 Angst**2
 A cutoff of  1.0D-12 yielded   6193 shell pairs
 There are     68530 function pairs (     86111 Cartesian)
 Smallest overlap matrix eigenvalue = 2.52E-06
 Guess from superposition of atomic densities
 Warning:  Energy on first SCF cycle will be non-variational
 SAD guess density has 67.000000 electrons

 -----------------------------------------------------------------------
  General SCF calculation program by
  Eric Jon Sundstrom, Paul Horn, Yuezhi Mao, Dmitri Zuev, Alec White,
  David Stuck, Shaama M.S., Shane Yost, Joonho Lee, David Small,
  Daniel Levine, Susi Lehtola, Hugh Burton, Evgeny Epifanovsky,
  Bang C. Huynh
 -----------------------------------------------------------------------
 Exchange:     0.1500 Hartree-Fock + 1.0000 wB97M-V + LR-HF
 Correlation:  1.0000 wB97M-V
 Using SG-2 standard quadrature grid
 Nonlocal Correlation:  VV10 with C = 0.0100 and b = 6.00 and scale = 1.00000
 Grid used for NLC:  SG-1 standard quadrature
 using 16 threads for integral computing
 -------------------------------------------------------
 OpenMP Integral computing Module                
 Release: version 1.0, May 2013, Q-Chem Inc. Pittsburgh 
 -------------------------------------------------------
 
 Citation of the SMD model:
 Marenich, A.V.; Cramer, C.J.; Truhlar, D.G.
 J. Phys. Chem. B 2009, 113, 6378-6396.
 iSolventCode=           1
 Solvent: water                                                           
 
 vradii
            1           2           3           4           5           6
    1   1.2000000   1.8500000   1.8500000   1.2000000   1.8500000   1.2000000
            7           8           9          10          11          12
    1   1.8500000   1.2000000   1.8500000   1.2000000   1.8500000   1.2000000
           13          14          15          16
    1   1.5200000   1.2000000   1.5200000   1.5200000
 -------------------------------------------------------
 OpenMP BLAS3 based DFT computing Module                
 Release: version 1.0, May 2013, Q-Chem Inc. Pittsburgh 
 -------------------------------------------------------
 A unrestricted SCF calculation will be
 performed using DIIS, GDM
 SCF converges when RMS gradient is below 1.0e-07
 ---------------------------------------
  Cycle       Energy         DIIS error
 ---------------------------------------
    1    -460.8311358298      1.29e-02  
    2    -458.2526951478      1.14e-03  Done DIIS. Switching to GDM
 ---------------------------------------
  Cycle       Energy        RMS Gradient
 ---------------------------------------
    1    -458.2526951478      3.49e-02   Descent step
    2    -458.3222482237      2.25e-02   Normal BFGS step
    3    -458.3349264604      9.47e-03   Normal BFGS step
    4    -458.3365709139      4.61e-03   Normal BFGS step
    5    -458.3368051780      2.14e-03   Normal BFGS step
    6    -458.3368423871      7.83e-04   Normal BFGS step
    7    -458.3368476418      3.04e-04   Normal BFGS step
    8    -458.3368509192      1.40e-04   Normal BFGS step
    9    -458.3368511122      7.72e-05   Normal BFGS step
   10    -458.3368511823      3.21e-05   Normal BFGS step
   11    -458.3368512030      2.21e-05   Normal BFGS step
   12    -458.3368512098      9.63e-06   Normal BFGS step
   13    -458.3368512118      7.27e-06   Normal BFGS step
   14    -458.3368512122      4.16e-06   Normal BFGS step
   15    -458.3368512123      1.60e-06   Normal BFGS step
   16    -458.3368512123      3.71e-07   Normal BFGS step
   17    -458.3368512123      1.65e-07   Normal BFGS step
   18    -458.3368512123      9.57e-08  Convergence criterion met
 ---------------------------------------
 SCF time:   CPU 2024.87s  wall 138.00s 
<S^2> =          0.754511307
(3)  G-ENP(liq) elect-nuc-pol free energy of system     -458.336851212 a.u.
(4)  G-CDS(liq) cavity-dispersion-solvent structure 
     free energy                                                2.4844 kcal/mol
(6)  G-S(liq) free energy of system                     -458.332892147 a.u.
 SCF   energy in the final basis set =     -458.3328921469
 Total energy in the final basis set =     -458.3328921469
 
 --------------------------------------------------------------
 
                    Orbital Energies (a.u.)
 --------------------------------------------------------------
 
 Alpha MOs
 -- Occupied --
-19.4003 -19.3990 -19.3429 -10.4092 -10.4063 -10.4019 -10.3595 -10.3513
-10.3485  -1.2632  -1.1624  -1.0599  -0.9797  -0.8811  -0.8273  -0.7699
 -0.7207  -0.6636  -0.6497  -0.6085  -0.6058  -0.5821  -0.5545  -0.5435
 -0.5255  -0.5050  -0.4882  -0.4722  -0.4619  -0.4418  -0.3992  -0.3776
 -0.3488  -0.3032
 -- Virtual --
  0.0249   0.0368   0.0384   0.0458   0.0518   0.0600   0.0646   0.0783
  0.0939   0.0984   0.1047   0.1277   0.1306   0.1361   0.1422   0.1428
  0.1460   0.1524   0.1580   0.1589   0.1637   0.1659   0.1701   0.1810
  0.1821   0.1928   0.1969   0.1984   0.2038   0.2136   0.2239   0.2345
  0.2608   0.2691   0.2751   0.2847   0.2949   0.2986   0.3092   0.3194
  0.3295   0.3357   0.3480   0.3559   0.3664   0.3672   0.3736   0.3790
  0.3819   0.3872   0.3949   0.4007   0.4062   0.4224   0.4302   0.4407
  0.4496   0.4683   0.4760   0.5122   0.5200   0.5377   0.5449   0.5607
  0.5803   0.5940   0.6101   0.6187   0.6202   0.6397   0.6471   0.6615
  0.6661   0.6823   0.6925   0.7002   0.7073   0.7156   0.7200   0.7391
  0.7466   0.7566   0.7733   0.7974   0.8108   0.8141   0.8208   0.8276
  0.8519   0.8805   0.8942   0.9122   0.9269   0.9507   0.9801   0.9908
  1.0119   1.0296   1.0651   1.0916   1.0980   1.1033   1.1171   1.1388
  1.1699   1.1798   1.1998   1.2141   1.2240   1.2293   1.2399   1.2462
  1.2601   1.2731   1.2786   1.2862   1.3020   1.3101   1.3144   1.3305
  1.3361   1.3512   1.3742   1.3809   1.4052   1.4204   1.4244   1.4384
  1.4494   1.4718   1.4905   1.4998   1.5125   1.5260   1.5379   1.5469
  1.5599   1.5637   1.5824   1.5920   1.6183   1.6461   1.6657   1.6736
  1.6882   1.7082   1.7581   1.7655   1.7762   1.8170   1.8387   1.8741
  1.9020   1.9122   1.9372   1.9623   1.9893   2.0412   2.0545   2.1083
  2.1339   2.2010   2.2496   2.2855   2.3344   2.3573   2.4041   2.4324
  2.5056   2.5836   2.6011   2.6765   2.7017   2.7265   2.7484   2.7723
  2.7816   2.7969   2.8085   2.8247   2.8451   2.8675   2.8983   2.9094
  2.9217   2.9236   2.9460   2.9674   2.9833   3.0031   3.0183   3.0356
  3.0594   3.0653   3.0809   3.1228   3.1373   3.1846   3.1890   3.2674
  3.2797   3.2967   3.3321   3.3403   3.3512   3.3710   3.3802   3.3992
  3.4254   3.4354   3.4493   3.4544   3.4751   3.5190   3.5277   3.5353
  3.5579   3.5713   3.5941   3.6033   3.6163   3.6396   3.6782   3.7076
  3.7121   3.7304   3.7502   3.7632   3.7684   3.7885   3.8048   3.8268
  3.8487   3.8514   3.8705   3.8902   3.9128   3.9376   3.9383   3.9589
  4.0030   4.0193   4.0286   4.0587   4.0903   4.1468   4.1611   4.1736
  4.1883   4.2177   4.2583   4.2606   4.2847   4.3015   4.3182   4.3531
  4.3680   4.3890   4.4133   4.4512   4.4716   4.4910   4.5204   4.5513
  4.5804   4.6025   4.6078   4.6223   4.6579   4.6726   4.6986   4.7132
  4.7540   4.7634   4.7839   4.8152   4.8989   4.9353   5.0012   5.0905
  5.1337   5.1600   5.2177   5.2667   5.2821   5.3144   5.3306   5.3444
  5.3466   5.3799   5.3963   5.4221   5.4408   5.4949   5.5153   5.5410
  5.5773   5.5919   5.6177   5.6642   5.6758   5.6859   5.6924   5.7509
  5.7631   5.8697   5.8832   5.8992   5.9369   6.0263   6.0543   6.1629
  6.3713   6.5127   6.5819   6.6188   6.8076   6.9738   7.1115   7.2340
  7.2739   7.3179   7.3263   7.3962   7.4510   7.4837   7.5452   7.6212
  7.6976   7.8241   7.8899   7.9575   8.2446  24.3662  24.5278  24.7350
 24.7794  24.9507  25.2506  50.5527  50.6303  50.6622
 
 Beta MOs
 -- Occupied --
-19.4003 -19.3974 -19.3415 -10.4099 -10.4064 -10.4026 -10.3510 -10.3477
-10.3466  -1.2615  -1.1592  -1.0580  -0.9742  -0.8700  -0.8219  -0.7656
 -0.7114  -0.6598  -0.6450  -0.6042  -0.6005  -0.5784  -0.5470  -0.5420
 -0.5229  -0.5000  -0.4824  -0.4627  -0.4601  -0.4394  -0.3945  -0.3698
 -0.3466
 -- Virtual --
 -0.0034   0.0248   0.0364   0.0381   0.0458   0.0549   0.0603   0.0685
  0.0794   0.0941   0.0993   0.1046   0.1279   0.1300   0.1370   0.1418
  0.1432   0.1459   0.1522   0.1583   0.1589   0.1639   0.1670   0.1711
  0.1802   0.1824   0.1936   0.1965   0.1976   0.2044   0.2131   0.2236
  0.2347   0.2628   0.2677   0.2767   0.2853   0.2959   0.3027   0.3125
  0.3217   0.3314   0.3364   0.3489   0.3599   0.3669   0.3693   0.3747
  0.3790   0.3829   0.3880   0.3959   0.4018   0.4072   0.4275   0.4339
  0.4435   0.4505   0.4687   0.4782   0.5133   0.5211   0.5417   0.5475
  0.5653   0.5823   0.5969   0.6132   0.6213   0.6231   0.6469   0.6554
  0.6687   0.6723   0.6874   0.6943   0.7012   0.7114   0.7175   0.7243
  0.7447   0.7509   0.7609   0.7770   0.8009   0.8125   0.8208   0.8220
  0.8311   0.8548   0.8812   0.8978   0.9138   0.9274   0.9504   0.9828
  0.9946   1.0132   1.0317   1.0672   1.0949   1.0992   1.1045   1.1178
  1.1402   1.1716   1.1840   1.2023   1.2175   1.2251   1.2339   1.2422
  1.2483   1.2632   1.2766   1.2815   1.2888   1.3038   1.3115   1.3181
  1.3326   1.3381   1.3522   1.3778   1.3860   1.4066   1.4242   1.4282
  1.4438   1.4554   1.4744   1.4940   1.5048   1.5158   1.5296   1.5396
  1.5500   1.5632   1.5687   1.5873   1.5949   1.6210   1.6491   1.6708
  1.6773   1.6927   1.7123   1.7617   1.7747   1.7807   1.8200   1.8434
  1.8760   1.9035   1.9171   1.9408   1.9667   1.9922   2.0457   2.0581
  2.1111   2.1378   2.2049   2.2533   2.2878   2.3369   2.3589   2.4060
  2.4350   2.5084   2.5864   2.6117   2.6893   2.7054   2.7326   2.7589
  2.7823   2.7877   2.8053   2.8144   2.8334   2.8536   2.8814   2.9067
  2.9314   2.9340   2.9499   2.9681   2.9916   2.9995   3.0137   3.0297
  3.0456   3.0642   3.0721   3.0881   3.1364   3.1492   3.1963   3.2138
  3.2854   3.2881   3.3091   3.3353   3.3466   3.3564   3.3834   3.3922
  3.4174   3.4331   3.4526   3.4630   3.4651   3.4927   3.5270   3.5341
  3.5516   3.5676   3.5804   3.6106   3.6148   3.6335   3.6536   3.6838
  3.7124   3.7205   3.7487   3.7665   3.7721   3.7753   3.7920   3.8110
  3.8360   3.8524   3.8561   3.8772   3.8939   3.9187   3.9476   3.9513
  3.9657   4.0116   4.0264   4.0382   4.0658   4.0973   4.1540   4.1696
  4.1857   4.1988   4.2300   4.2625   4.2740   4.3022   4.3068   4.3229
  4.3683   4.3737   4.4006   4.4292   4.4605   4.4911   4.5031   4.5268
  4.5629   4.5871   4.6104   4.6145   4.6312   4.6648   4.6807   4.7027
  4.7204   4.7632   4.7714   4.7868   4.8244   4.9019   4.9462   5.0043
  5.1034   5.1520   5.1739   5.2242   5.2695   5.2843   5.3176   5.3346
  5.3477   5.3499   5.3851   5.3987   5.4252   5.4440   5.5058   5.5186
  5.5445   5.5803   5.5980   5.6216   5.6694   5.6785   5.6971   5.7015
  5.7666   5.7903   5.8720   5.8910   5.9060   5.9426   6.0275   6.0576
  6.1655   6.3734   6.5168   6.5823   6.6226   6.8089   6.9755   7.1141
  7.2363   7.2774   7.3212   7.3299   7.4009   7.4534   7.4852   7.5476
  7.6242   7.7001   7.8294   7.8921   7.9598   8.2456  24.3668  24.5349
 24.7364  24.7811  24.9529  25.2513  50.5534  50.6314  50.6628
 --------------------------------------------------------------
 
          Ground-State Mulliken Net Atomic Charges

     Atom                 Charge (a.u.)    Spin (a.u.)
  --------------------------------------------------------
      1 H                     0.287717      -0.000509
      2 C                    -0.199734       0.058264
      3 C                    -0.286073      -0.008302
      4 H                     0.286229      -0.002399
      5 C                     0.039635      -0.029668
      6 H                     0.275238       0.006392
      7 C                    -0.334258       0.899826
      8 H                     0.304464      -0.015022
      9 C                    -0.126924       0.003768
     10 H                     0.247295       0.027214
     11 C                    -0.407425      -0.000462
     12 H                     0.270439      -0.000924
     13 O                    -0.436370       0.029380
     14 H                     0.344989      -0.002749
     15 O                    -0.163971       0.034345
     16 O                    -0.101252       0.000846
  --------------------------------------------------------
  Sum of atomic charges =     0.000000
  Sum of spin   charges =     1.000000

 -----------------------------------------------------------------
                    Cartesian Multipole Moments
 -----------------------------------------------------------------
    Charge (ESU x 10^10)
                 0.0000
    Dipole Moment (Debye)
         X      -0.8287      Y       3.9647      Z      -1.1543
       Tot       4.2116
    Quadrupole Moments (Debye-Ang)
        XX     -47.8108     XY     -10.7868     YY     -51.8904
        XZ       1.2756     YZ      -6.4487     ZZ     -42.9658
    Octopole Moments (Debye-Ang^2)
       XXX     103.9640    XXY     -40.6153    XYY      27.4707
       YYY    -162.8323    XXZ      36.6482    XYZ       8.3124
       YYZ      14.9871    XZZ      37.3755    YZZ     -24.2774
       ZZZ      76.6170
    Hexadecapole Moments (Debye-Ang^3)
      XXXX    -519.0272   XXXY      34.2108   XXYY    -210.9923
      XYYY      65.5170   YYYY    -707.4848   XXXZ     -40.3590
      XXYZ      47.7387   XYYZ      -2.4616   YYYZ      66.9399
      XXZZ    -176.3951   XYZZ       9.9692   YYZZ    -112.1537
      XZZZ     -41.9073   YZZZ      68.4637   ZZZZ    -415.5770
 -----------------------------------------------------------------
 Calculating analytic gradient of the SCF energy
 Gradient of CDS energy
            1           2           3           4           5           6
    1   0.0001350   0.0003412  -0.0002234  -0.0000920  -0.0003191  -0.0002155
    2   0.0000387   0.0000555   0.0001876   0.0000869  -0.0003126  -0.0000476
    3   0.0001415   0.0003132   0.0004152   0.0001540  -0.0000271   0.0000159
            7           8           9          10          11          12
    1  -0.0002708  -0.0000991   0.0003622   0.0000287   0.0000774   0.0001980
    2   0.0001591   0.0000952   0.0000739  -0.0001584  -0.0002613  -0.0000875
    3  -0.0003169  -0.0001222  -0.0000482  -0.0001508  -0.0001688  -0.0000358
           13          14          15          16
    1  -0.0001114   0.0001842   0.0001010  -0.0000965
    2  -0.0002462   0.0004209  -0.0000255   0.0000214
    3   0.0001068  -0.0002426  -0.0000076  -0.0000265
 Gradient of SCF Energy
            1           2           3           4           5           6
    1   0.0030311  -0.0023688   0.0043035  -0.0037973   0.0065352  -0.0079016
    2   0.0006422   0.0014830  -0.0003895   0.0033656  -0.0038691   0.0020946
    3   0.0032287  -0.0037196  -0.0029461   0.0052197  -0.0009737   0.0006050
            7           8           9          10          11          12
    1   0.0057968  -0.0055162  -0.0018800   0.0013782  -0.0035175   0.0037509
    2  -0.0029499   0.0062807   0.0028223  -0.0011495  -0.0044746  -0.0006487
    3   0.0058128  -0.0076919   0.0076590  -0.0056031  -0.0022712  -0.0002824
           13          14          15          16
    1   0.0070161  -0.0056382  -0.0028025   0.0016104
    2  -0.0049915   0.0067873  -0.0020798  -0.0029231
    3   0.0137394  -0.0126806   0.0004997  -0.0005959
 Max gradient component =       1.374E-02
 RMS gradient           =       4.863E-03
 Computing fast CPCM-SWIG gradient
 Updating gradient with PCM contributions...
 -- total gradient after adding PCM contribution --
---------------------------------------------------
  Atom         X              Y              Z     
---------------------------------------------------
   1       0.000019      -0.000005       0.000006
   2       0.000043       0.000007       0.000032
   3      -0.000021       0.000045       0.000013
   4       0.000004       0.000013       0.000011
   5      -0.000024      -0.000104       0.000008
   6      -0.000008       0.000036      -0.000001
   7       0.000032       0.000043      -0.000012
   8       0.000001       0.000001      -0.000010
   9      -0.000014       0.000022      -0.000008
  10       0.000005      -0.000015       0.000007
  11      -0.000062      -0.000106      -0.000035
  12      -0.000004      -0.000001       0.000006
  13       0.000007       0.000034      -0.000108
  14       0.000022      -0.000045       0.000096
  15      -0.000018       0.000030      -0.000005
  16       0.000019       0.000045      -0.000000
---------------------------------------------------
 Number of fixed atoms: 0
 Gradient time:  CPU 338.40 s  wall 26.82 s
 ######################################################
 ######################################################
 # Starting finite difference calculation for IDERIV  #
 Finite diff step size:  1.88973e-03 a.u.
 ----------------------------------------------------------------
             Standard Nuclear Orientation (Angstroms)
    I     Atom           X                Y                Z
 ----------------------------------------------------------------
    1      H       0.5884129705     1.4909391869     1.4964192142
    2      C      -0.1438913290     1.2813728651     0.7299697247
    3      C      -1.4428310046     1.5481837805     0.8102849572
    4      H      -1.9413301489     2.0191170655     1.6450151397
    5      C      -2.2010367814     1.0748907856    -0.3996915274
    6      H      -3.2797895136     1.1521048117    -0.3146593013
    7      C      -1.6276114372     1.7217012238    -1.6082584478
    8      H      -2.2116632258     2.2784856197    -2.3240531447
    9      C      -0.1676528660     1.4719632963    -1.7528197904
   10      H       0.0498760995     0.9159025523    -2.6697115506
   11      C       0.2219174681     0.5999172214    -0.5536455623
   12      H       1.2536411630     0.2648676734    -0.6070366862
   13      O       0.6307940890     2.6601100502    -1.7121785753
   14      H       0.3708572905     3.2175089579    -2.4540497623
   15      O      -1.9663291145    -0.3702966904    -0.5071115206
   16      O      -0.5463295596    -0.6241341998    -0.6830017666
 ----------------------------------------------------------------
 Nuclear Repulsion Energy =         476.43807732 hartrees
 There are       34 alpha and       33 beta electrons
 Discretize the solute cavity surface with Lebedev spheres
	Using 110 Lebedev grid points for each H atom
	Using 194 Lebedev grid points for other atoms
	Atomic van der Waals radii will be scaled by 1.20
 Remove points where switching function is < 1.0e-08
 Keep 1147 surface tesserae and discard 1369 interior tesserae
 Molecular Surface Area = 135.615 Angst**2
 Requested basis set is 6-311++G(2df,2p)
 There are 114 shells and 376 basis functions
 A cutoff of  1.0D-12 yielded   6193 shell pairs
 There are     68530 function pairs (     86111 Cartesian)
 Smallest overlap matrix eigenvalue = 2.52E-06
 Guess MOs from SCF MO coefficient file

 -----------------------------------------------------------------------
  General SCF calculation program by
  Eric Jon Sundstrom, Paul Horn, Yuezhi Mao, Dmitri Zuev, Alec White,
  David Stuck, Shaama M.S., Shane Yost, Joonho Lee, David Small,
  Daniel Levine, Susi Lehtola, Hugh Burton, Evgeny Epifanovsky,
  Bang C. Huynh
 -----------------------------------------------------------------------
 Exchange:     0.1500 Hartree-Fock + 1.0000 wB97M-V + LR-HF
 Correlation:  1.0000 wB97M-V
 Using SG-2 standard quadrature grid
 Nonlocal Correlation:  VV10 with C = 0.0100 and b = 6.00 and scale = 1.00000
 Grid used for NLC:  SG-1 standard quadrature
 
 Citation of the SMD model:
 Marenich, A.V.; Cramer, C.J.; Truhlar, D.G.
 J. Phys. Chem. B 2009, 113, 6378-6396.
 iSolventCode=           1
 Solvent: water                                                           
 
 vradii
            1           2           3           4           5           6
    1   1.2000000   1.8500000   1.8500000   1.2000000   1.8500000   1.2000000
            7           8           9          10          11          12
    1   1.8500000   1.2000000   1.8500000   1.2000000   1.8500000   1.2000000
           13          14          15          16
    1   1.5200000   1.2000000   1.5200000   1.5200000
 -------------------------------------------------------
 OpenMP BLAS3 based DFT computing Module                
 Release: version 1.0, May 2013, Q-Chem Inc. Pittsburgh 
 -------------------------------------------------------
 A unrestricted SCF calculation will be
 performed using Roothaan-Hall, DIIS, GDM
 SCF converges when RMS gradient is below 1.0e-07
 ---------------------------------------
  Cycle       Energy         DIIS error
 ---------------------------------------
    1    -458.3068772880      2.06e-04  Roothaan Step
 ---------------------------------------
  Cycle       Energy         DIIS error
 ---------------------------------------
    1    -458.3309102761      2.30e-04  
    2    -458.3350125480      1.87e-04  Done DIIS. Switching to GDM
 ---------------------------------------
  Cycle       Energy        RMS Gradient
 ---------------------------------------
    1    -458.3350125480      7.37e-03   Normal BFGS step
    2    -458.3352946318      6.50e-03   Normal BFGS step
    3    -458.3368285075      5.84e-04   Normal BFGS step
    4    -458.3368410277      4.39e-04   Normal BFGS step
    5    -458.3368504702      1.09e-04   Normal BFGS step
    6    -458.3368506291      1.07e-04   Normal BFGS step
    7    -458.3368510649      3.31e-05   Normal BFGS step
    8    -458.3368510764      2.37e-05   Normal BFGS step
    9    -458.3368510821      9.79e-06   Normal BFGS step
   10    -458.3368510830      4.24e-06   Normal BFGS step
   11    -458.3368510833      2.17e-06   Normal BFGS step
   12    -458.3368510834      1.52e-06   Normal BFGS step
   13    -458.3368510834      9.91e-07   Normal BFGS step
   14    -458.3368510834      3.76e-07   Normal BFGS step
   15    -458.3368510834      1.42e-07   Normal BFGS step
   16    -458.3368510834      6.47e-08  Convergence criterion met
 ---------------------------------------
 SCF time:   CPU 1948.39s  wall 133.00s 
<S^2> =          0.754511296
(3)  G-ENP(liq) elect-nuc-pol free energy of system     -458.336851083 a.u.
(4)  G-CDS(liq) cavity-dispersion-solvent structure 
     free energy                                                2.4845 kcal/mol
(6)  G-S(liq) free energy of system                     -458.332891762 a.u.
 SCF   energy in the final basis set =     -458.3328917622
 Total energy in the final basis set =     -458.3328917622
 
 --------------------------------------------------------------
 
                    Orbital Energies (a.u.)
 --------------------------------------------------------------
 
 Alpha MOs
 -- Occupied --
-19.4003 -19.3990 -19.3429 -10.4092 -10.4063 -10.4019 -10.3595 -10.3513
-10.3486  -1.2632  -1.1624  -1.0599  -0.9797  -0.8811  -0.8273  -0.7699
 -0.7206  -0.6636  -0.6497  -0.6085  -0.6058  -0.5821  -0.5545  -0.5435
 -0.5255  -0.5050  -0.4882  -0.4721  -0.4619  -0.4418  -0.3992  -0.3776
 -0.3488  -0.3032
 -- Virtual --
  0.0249   0.0368   0.0384   0.0458   0.0518   0.0600   0.0646   0.0783
  0.0939   0.0984   0.1047   0.1277   0.1306   0.1361   0.1422   0.1428
  0.1460   0.1524   0.1580   0.1589   0.1637   0.1659   0.1701   0.1810
  0.1821   0.1928   0.1969   0.1984   0.2038   0.2136   0.2239   0.2345
  0.2608   0.2691   0.2751   0.2847   0.2949   0.2986   0.3092   0.3194
  0.3295   0.3357   0.3480   0.3559   0.3664   0.3672   0.3736   0.3790
  0.3819   0.3872   0.3949   0.4006   0.4062   0.4224   0.4302   0.4407
  0.4496   0.4683   0.4760   0.5122   0.5200   0.5377   0.5449   0.5607
  0.5803   0.5940   0.6101   0.6187   0.6202   0.6397   0.6471   0.6615
  0.6661   0.6823   0.6925   0.7002   0.7073   0.7156   0.7200   0.7391
  0.7465   0.7566   0.7733   0.7974   0.8108   0.8141   0.8208   0.8276
  0.8519   0.8805   0.8942   0.9122   0.9269   0.9507   0.9801   0.9908
  1.0119   1.0296   1.0651   1.0916   1.0980   1.1033   1.1171   1.1387
  1.1699   1.1798   1.1998   1.2140   1.2240   1.2293   1.2398   1.2462
  1.2601   1.2731   1.2786   1.2861   1.3020   1.3101   1.3143   1.3305
  1.3362   1.3512   1.3742   1.3808   1.4051   1.4204   1.4244   1.4384
  1.4493   1.4718   1.4905   1.4997   1.5125   1.5260   1.5379   1.5469
  1.5598   1.5636   1.5824   1.5920   1.6183   1.6461   1.6657   1.6736
  1.6882   1.7081   1.7580   1.7655   1.7762   1.8170   1.8387   1.8741
  1.9020   1.9122   1.9372   1.9622   1.9892   2.0412   2.0545   2.1082
  2.1339   2.2010   2.2496   2.2855   2.3344   2.3573   2.4041   2.4324
  2.5056   2.5837   2.6011   2.6765   2.7018   2.7265   2.7484   2.7723
  2.7816   2.7969   2.8085   2.8246   2.8451   2.8675   2.8982   2.9094
  2.9218   2.9236   2.9460   2.9674   2.9833   3.0032   3.0182   3.0356
  3.0593   3.0653   3.0809   3.1228   3.1373   3.1846   3.1889   3.2673
  3.2796   3.2966   3.3322   3.3403   3.3512   3.3710   3.3802   3.3992
  3.4254   3.4354   3.4493   3.4544   3.4751   3.5186   3.5277   3.5352
  3.5579   3.5713   3.5940   3.6033   3.6164   3.6396   3.6782   3.7075
  3.7122   3.7304   3.7502   3.7632   3.7684   3.7885   3.8048   3.8266
  3.8487   3.8515   3.8704   3.8902   3.9129   3.9375   3.9383   3.9588
  4.0030   4.0192   4.0286   4.0587   4.0902   4.1467   4.1611   4.1736
  4.1882   4.2176   4.2582   4.2604   4.2847   4.3015   4.3182   4.3531
  4.3680   4.3888   4.4132   4.4511   4.4715   4.4909   4.5202   4.5513
  4.5804   4.6024   4.6074   4.6222   4.6577   4.6725   4.6986   4.7132
  4.7540   4.7633   4.7839   4.8151   4.8983   4.9352   5.0012   5.0903
  5.1336   5.1598   5.2176   5.2666   5.2821   5.3144   5.3306   5.3444
  5.3465   5.3798   5.3963   5.4219   5.4408   5.4948   5.5153   5.5409
  5.5771   5.5913   5.6176   5.6641   5.6758   5.6859   5.6924   5.7509
  5.7631   5.8697   5.8832   5.8992   5.9369   6.0263   6.0542   6.1621
  6.3712   6.5127   6.5819   6.6188   6.8076   6.9738   7.1115   7.2340
  7.2739   7.3179   7.3263   7.3962   7.4510   7.4837   7.5452   7.6212
  7.6976   7.8241   7.8899   7.9575   8.2446  24.3656  24.5278  24.7350
 24.7793  24.9506  25.2502  50.5527  50.6303  50.6622
 
 Beta MOs
 -- Occupied --
-19.4003 -19.3974 -19.3415 -10.4099 -10.4063 -10.4026 -10.3510 -10.3478
-10.3466  -1.2615  -1.1592  -1.0580  -0.9742  -0.8700  -0.8219  -0.7656
 -0.7114  -0.6598  -0.6450  -0.6042  -0.6004  -0.5784  -0.5470  -0.5420
 -0.5229  -0.5000  -0.4824  -0.4627  -0.4601  -0.4394  -0.3945  -0.3698
 -0.3466
 -- Virtual --
 -0.0034   0.0248   0.0364   0.0381   0.0458   0.0549   0.0603   0.0685
  0.0794   0.0941   0.0993   0.1046   0.1279   0.1300   0.1370   0.1418
  0.1432   0.1459   0.1522   0.1583   0.1589   0.1639   0.1670   0.1711
  0.1802   0.1824   0.1936   0.1965   0.1976   0.2044   0.2131   0.2236
  0.2347   0.2628   0.2677   0.2767   0.2853   0.2959   0.3027   0.3125
  0.3217   0.3314   0.3364   0.3489   0.3599   0.3669   0.3693   0.3746
  0.3790   0.3829   0.3880   0.3959   0.4018   0.4072   0.4275   0.4339
  0.4435   0.4505   0.4687   0.4782   0.5133   0.5211   0.5417   0.5475
  0.5653   0.5823   0.5969   0.6132   0.6213   0.6231   0.6469   0.6553
  0.6687   0.6723   0.6874   0.6942   0.7012   0.7114   0.7175   0.7243
  0.7447   0.7508   0.7609   0.7770   0.8008   0.8125   0.8208   0.8220
  0.8311   0.8548   0.8812   0.8978   0.9138   0.9274   0.9504   0.9828
  0.9946   1.0132   1.0317   1.0672   1.0949   1.0992   1.1044   1.1178
  1.1402   1.1716   1.1840   1.2023   1.2174   1.2251   1.2338   1.2422
  1.2483   1.2632   1.2766   1.2815   1.2888   1.3038   1.3115   1.3181
  1.3326   1.3382   1.3522   1.3778   1.3860   1.4065   1.4242   1.4282
  1.4438   1.4553   1.4743   1.4940   1.5048   1.5158   1.5295   1.5395
  1.5500   1.5632   1.5686   1.5873   1.5949   1.6210   1.6491   1.6708
  1.6773   1.6926   1.7123   1.7616   1.7747   1.7807   1.8199   1.8434
  1.8760   1.9035   1.9171   1.9408   1.9667   1.9921   2.0458   2.0581
  2.1110   2.1378   2.2049   2.2533   2.2878   2.3369   2.3589   2.4060
  2.4349   2.5084   2.5864   2.6118   2.6893   2.7054   2.7326   2.7588
  2.7823   2.7877   2.8053   2.8144   2.8333   2.8536   2.8814   2.9067
  2.9315   2.9339   2.9498   2.9681   2.9916   2.9995   3.0137   3.0296
  3.0456   3.0641   3.0721   3.0881   3.1363   3.1492   3.1962   3.2138
  3.2853   3.2881   3.3090   3.3354   3.3466   3.3564   3.3834   3.3923
  3.4174   3.4331   3.4526   3.4630   3.4651   3.4926   3.5267   3.5341
  3.5516   3.5676   3.5804   3.6105   3.6147   3.6335   3.6536   3.6838
  3.7123   3.7206   3.7488   3.7664   3.7720   3.7753   3.7920   3.8110
  3.8358   3.8523   3.8561   3.8770   3.8939   3.9188   3.9474   3.9513
  3.9657   4.0116   4.0264   4.0382   4.0658   4.0972   4.1539   4.1696
  4.1858   4.1987   4.2300   4.2623   4.2740   4.3022   4.3068   4.3228
  4.3683   4.3736   4.4005   4.4291   4.4603   4.4910   4.5030   4.5266
  4.5628   4.5871   4.6101   4.6141   4.6312   4.6647   4.6806   4.7026
  4.7203   4.7632   4.7713   4.7868   4.8243   4.9013   4.9461   5.0043
  5.1033   5.1519   5.1737   5.2241   5.2695   5.2843   5.3176   5.3346
  5.3477   5.3498   5.3851   5.3987   5.4250   5.4440   5.5057   5.5186
  5.5444   5.5801   5.5974   5.6216   5.6693   5.6785   5.6971   5.7015
  5.7666   5.7903   5.8720   5.8910   5.9059   5.9426   6.0275   6.0576
  6.1647   6.3733   6.5168   6.5823   6.6226   6.8089   6.9755   7.1141
  7.2363   7.2774   7.3212   7.3299   7.4009   7.4534   7.4852   7.5476
  7.6242   7.7001   7.8294   7.8921   7.9598   8.2456  24.3663  24.5348
 24.7364  24.7811  24.9529  25.2509  50.5534  50.6314  50.6628
 --------------------------------------------------------------
 
          Ground-State Mulliken Net Atomic Charges

     Atom                 Charge (a.u.)    Spin (a.u.)
  --------------------------------------------------------
      1 H                     0.287481      -0.000510
      2 C                    -0.199930       0.058268
      3 C                    -0.285917      -0.008304
      4 H                     0.286260      -0.002400
      5 C                     0.039455      -0.029665
      6 H                     0.275244       0.006392
      7 C                    -0.334239       0.899822
      8 H                     0.304463      -0.015022
      9 C                    -0.126976       0.003772
     10 H                     0.247294       0.027213
     11 C                    -0.407009      -0.000467
     12 H                     0.270480      -0.000923
     13 O                    -0.436369       0.029381
     14 H                     0.344989      -0.002749
     15 O                    -0.163971       0.034346
     16 O                    -0.101253       0.000846
  --------------------------------------------------------
  Sum of atomic charges =    -0.000000
  Sum of spin   charges =     1.000000

 -----------------------------------------------------------------
                    Cartesian Multipole Moments
 -----------------------------------------------------------------
    Charge (ESU x 10^10)
                 0.0000
    Dipole Moment (Debye)
         X      -0.8285      Y       3.9647      Z      -1.1547
       Tot       4.2117
    Quadrupole Moments (Debye-Ang)
        XX     -47.8092     XY     -10.7863     YY     -51.8912
        XZ       1.2768     YZ      -6.4493     ZZ     -42.9675
    Octopole Moments (Debye-Ang^2)
       XXX     103.9593    XXY     -40.6131    XYY      27.4702
       YYY    -162.8358    XXZ      36.6490    XYZ       8.3142
       YYZ      14.9850    XZZ      37.3759    YZZ     -24.2796
       ZZZ      76.6120
    Hexadecapole Moments (Debye-Ang^3)
      XXXX    -519.0221   XXXY      34.2048   XXYY    -210.9901
      XYYY      65.5126   YYYY    -707.4959   XXXZ     -40.3600
      XXYZ      47.7402   XYYZ      -2.4604   YYYZ      66.9331
      XXZZ    -176.3931   XYZZ       9.9698   YYZZ    -112.1591
      XZZZ     -41.9085   YZZZ      68.4565   ZZZZ    -415.5917
 -----------------------------------------------------------------
 Calculating analytic gradient of the SCF energy
 Gradient of CDS energy
            1           2           3           4           5           6
    1   0.0001357   0.0003404  -0.0002234  -0.0000920  -0.0003191  -0.0002155
    2   0.0000388   0.0000553   0.0001876   0.0000869  -0.0003126  -0.0000476
    3   0.0001421   0.0003125   0.0004152   0.0001540  -0.0000271   0.0000159
            7           8           9          10          11          12
    1  -0.0002708  -0.0000991   0.0003622   0.0000287   0.0000774   0.0001980
    2   0.0001591   0.0000952   0.0000739  -0.0001584  -0.0002613  -0.0000875
    3  -0.0003169  -0.0001222  -0.0000482  -0.0001508  -0.0001688  -0.0000358
           13          14          15          16
    1  -0.0001114   0.0001842   0.0001010  -0.0000965
    2  -0.0002462   0.0004209  -0.0000255   0.0000214
    3   0.0001068  -0.0002426  -0.0000076  -0.0000265
 Gradient of SCF Energy
            1           2           3           4           5           6
    1   0.0034036  -0.0027327   0.0042814  -0.0037949   0.0065272  -0.0079032
    2   0.0007091   0.0014180  -0.0003998   0.0033627  -0.0038622   0.0020935
    3   0.0035138  -0.0039829  -0.0029897   0.0052198  -0.0009708   0.0006026
            7           8           9          10          11          12
    1   0.0057968  -0.0055162  -0.0018808   0.0013785  -0.0034996   0.0037528
    2  -0.0029511   0.0062811   0.0028247  -0.0011497  -0.0044717  -0.0006493
    3   0.0058136  -0.0076924   0.0076616  -0.0056024  -0.0022554  -0.0002838
           13          14          15          16
    1   0.0070159  -0.0056383  -0.0028015   0.0016110
    2  -0.0049921   0.0067874  -0.0020803  -0.0029201
    3   0.0137394  -0.0126806   0.0005008  -0.0005936
 Max gradient component =       1.374E-02
 RMS gradient           =       4.880E-03
 Computing fast CPCM-SWIG gradient
 Updating gradient with PCM contributions...
 -- total gradient after adding PCM contribution --
---------------------------------------------------
  Atom         X              Y              Z     
---------------------------------------------------
   1       0.000387       0.000064       0.000295
   2      -0.000314      -0.000059      -0.000235
   3      -0.000044       0.000033      -0.000031
   4       0.000006       0.000010       0.000013
   5      -0.000033      -0.000097       0.000010
   6      -0.000009       0.000035      -0.000003
   7       0.000032       0.000043      -0.000012
   8       0.000001       0.000001      -0.000010
   9      -0.000014       0.000024      -0.000006
  10       0.000005      -0.000015       0.000008
  11      -0.000045      -0.000103      -0.000021
  12      -0.000003      -0.000002       0.000005
  13       0.000007       0.000034      -0.000108
  14       0.000022      -0.000045       0.000096
  15      -0.000017       0.000030      -0.000003
  16       0.000019       0.000048       0.000002
---------------------------------------------------
 Number of fixed atoms: 0
 Gradient time:  CPU 338.38 s  wall 26.25 s
 ----------------------------------------------------------------
             Standard Nuclear Orientation (Angstroms)
    I     Atom           X                Y                Z
 ----------------------------------------------------------------
    1      H       0.5864129705     1.4909391869     1.4964192142
    2      C      -0.1438913290     1.2813728651     0.7299697247
    3      C      -1.4428310046     1.5481837805     0.8102849572
    4      H      -1.9413301489     2.0191170655     1.6450151397
    5      C      -2.2010367814     1.0748907856    -0.3996915274
    6      H      -3.2797895136     1.1521048117    -0.3146593013
    7      C      -1.6276114372     1.7217012238    -1.6082584478
    8      H      -2.2116632258     2.2784856197    -2.3240531447
    9      C      -0.1676528660     1.4719632963    -1.7528197904
   10      H       0.0498760995     0.9159025523    -2.6697115506
   11      C       0.2219174681     0.5999172214    -0.5536455623
   12      H       1.2536411630     0.2648676734    -0.6070366862
   13      O       0.6307940890     2.6601100502    -1.7121785753
   14      H       0.3708572905     3.2175089579    -2.4540497623
   15      O      -1.9663291145    -0.3702966904    -0.5071115206
   16      O      -0.5463295596    -0.6241341998    -0.6830017666
 ----------------------------------------------------------------
 Nuclear Repulsion Energy =         476.44499100 hartrees
 There are       34 alpha and       33 beta electrons
 Discretize the solute cavity surface with Lebedev spheres
	Using 110 Lebedev grid points for each H atom
	Using 194 Lebedev grid points for other atoms
	Atomic van der Waals radii will be scaled by 1.20
 Remove points where switching function is < 1.0e-08
 Keep 1147 surface tesserae and discard 1369 interior tesserae
 Molecular Surface Area = 135.606 Angst**2
 Requested basis set is 6-311++G(2df,2p)
 There are 114 shells and 376 basis functions
 A cutoff of  1.0D-12 yielded   6193 shell pairs
 There are     68530 function pairs (     86111 Cartesian)
 Smallest overlap matrix eigenvalue = 2.52E-06
 Guess MOs from SCF MO coefficient file

 -----------------------------------------------------------------------
  General SCF calculation program by
  Eric Jon Sundstrom, Paul Horn, Yuezhi Mao, Dmitri Zuev, Alec White,
  David Stuck, Shaama M.S., Shane Yost, Joonho Lee, David Small,
  Daniel Levine, Susi Lehtola, Hugh Burton, Evgeny Epifanovsky,
  Bang C. Huynh
 -----------------------------------------------------------------------
 Exchange:     0.1500 Hartree-Fock + 1.0000 wB97M-V + LR-HF
 Correlation:  1.0000 wB97M-V
 Using SG-2 standard quadrature grid
 Nonlocal Correlation:  VV10 with C = 0.0100 and b = 6.00 and scale = 1.00000
 Grid used for NLC:  SG-1 standard quadrature
 
 Citation of the SMD model:
 Marenich, A.V.; Cramer, C.J.; Truhlar, D.G.
 J. Phys. Chem. B 2009, 113, 6378-6396.
 iSolventCode=           1
 Solvent: water                                                           
 
 vradii
            1           2           3           4           5           6
    1   1.2000000   1.8500000   1.8500000   1.2000000   1.8500000   1.2000000
            7           8           9          10          11          12
    1   1.8500000   1.2000000   1.8500000   1.2000000   1.8500000   1.2000000
           13          14          15          16
    1   1.5200000   1.2000000   1.5200000   1.5200000
 -------------------------------------------------------
 OpenMP BLAS3 based DFT computing Module                
 Release: version 1.0, May 2013, Q-Chem Inc. Pittsburgh 
 -------------------------------------------------------
 A unrestricted SCF calculation will be
 performed using Roothaan-Hall, DIIS, GDM
 SCF converges when RMS gradient is below 1.0e-07
 ---------------------------------------
  Cycle       Energy         DIIS error
 ---------------------------------------
    1    -458.3068832913      2.06e-04  Roothaan Step
 ---------------------------------------
  Cycle       Energy         DIIS error
 ---------------------------------------
    1    -458.3309138543      2.30e-04  
    2    -458.3350156514      1.87e-04  Done DIIS. Switching to GDM
 ---------------------------------------
  Cycle       Energy        RMS Gradient
 ---------------------------------------
    1    -458.3350156514      7.37e-03   Normal BFGS step
    2    -458.3352971093      6.49e-03   Normal BFGS step
    3    -458.3368280895      5.83e-04   Normal BFGS step
    4    -458.3368406039      4.36e-04   Normal BFGS step
    5    -458.3368500336      1.09e-04   Normal BFGS step
    6    -458.3368501923      1.07e-04   Normal BFGS step
    7    -458.3368506278      3.35e-05   Normal BFGS step
    8    -458.3368506393      2.40e-05   Normal BFGS step
    9    -458.3368506450      9.77e-06   Normal BFGS step
   10    -458.3368506459      4.23e-06   Normal BFGS step
   11    -458.3368506462      2.18e-06   Normal BFGS step
   12    -458.3368506463      1.52e-06   Normal BFGS step
   13    -458.3368506463      9.94e-07   Normal BFGS step
   14    -458.3368506464      3.76e-07   Normal BFGS step
   15    -458.3368506463      1.42e-07   Normal BFGS step
   16    -458.3368506463      6.44e-08  Convergence criterion met
 ---------------------------------------
 SCF time:   CPU 1949.44s  wall 133.00s 
<S^2> =          0.754511293
(3)  G-ENP(liq) elect-nuc-pol free energy of system     -458.336850646 a.u.
(4)  G-CDS(liq) cavity-dispersion-solvent structure 
     free energy                                                2.4842 kcal/mol
(6)  G-S(liq) free energy of system                     -458.332891835 a.u.
 SCF   energy in the final basis set =     -458.3328918353
 Total energy in the final basis set =     -458.3328918353
 
 --------------------------------------------------------------
 
                    Orbital Energies (a.u.)
 --------------------------------------------------------------
 
 Alpha MOs
 -- Occupied --
-19.4003 -19.3990 -19.3429 -10.4092 -10.4063 -10.4019 -10.3595 -10.3513
-10.3484  -1.2632  -1.1624  -1.0599  -0.9797  -0.8811  -0.8273  -0.7699
 -0.7207  -0.6636  -0.6497  -0.6086  -0.6058  -0.5821  -0.5545  -0.5435
 -0.5255  -0.5050  -0.4882  -0.4722  -0.4619  -0.4418  -0.3992  -0.3776
 -0.3488  -0.3032
 -- Virtual --
  0.0249   0.0368   0.0384   0.0458   0.0518   0.0600   0.0646   0.0783
  0.0939   0.0984   0.1047   0.1277   0.1306   0.1361   0.1422   0.1428
  0.1460   0.1524   0.1580   0.1589   0.1637   0.1659   0.1701   0.1810
  0.1821   0.1928   0.1969   0.1984   0.2038   0.2136   0.2239   0.2345
  0.2608   0.2691   0.2751   0.2847   0.2949   0.2986   0.3092   0.3194
  0.3295   0.3357   0.3480   0.3559   0.3664   0.3673   0.3737   0.3790
  0.3819   0.3873   0.3949   0.4007   0.4062   0.4224   0.4302   0.4407
  0.4496   0.4683   0.4760   0.5122   0.5200   0.5377   0.5449   0.5607
  0.5803   0.5940   0.6101   0.6188   0.6203   0.6397   0.6471   0.6615
  0.6662   0.6823   0.6925   0.7002   0.7073   0.7156   0.7200   0.7391
  0.7466   0.7566   0.7733   0.7975   0.8108   0.8141   0.8208   0.8276
  0.8519   0.8804   0.8942   0.9122   0.9269   0.9507   0.9801   0.9908
  1.0119   1.0296   1.0651   1.0916   1.0980   1.1034   1.1171   1.1389
  1.1699   1.1799   1.1998   1.2142   1.2240   1.2294   1.2399   1.2462
  1.2601   1.2731   1.2787   1.2862   1.3020   1.3101   1.3144   1.3305
  1.3360   1.3513   1.3742   1.3809   1.4052   1.4204   1.4244   1.4385
  1.4494   1.4718   1.4905   1.4998   1.5125   1.5261   1.5379   1.5469
  1.5599   1.5638   1.5824   1.5920   1.6183   1.6461   1.6657   1.6736
  1.6883   1.7082   1.7581   1.7655   1.7762   1.8171   1.8387   1.8741
  1.9021   1.9122   1.9372   1.9623   1.9893   2.0412   2.0545   2.1083
  2.1339   2.2010   2.2496   2.2855   2.3344   2.3573   2.4041   2.4324
  2.5057   2.5836   2.6010   2.6765   2.7017   2.7265   2.7484   2.7723
  2.7816   2.7969   2.8084   2.8248   2.8452   2.8675   2.8983   2.9094
  2.9217   2.9237   2.9461   2.9674   2.9834   3.0031   3.0183   3.0356
  3.0595   3.0653   3.0809   3.1229   3.1373   3.1846   3.1891   3.2674
  3.2798   3.2967   3.3321   3.3403   3.3513   3.3709   3.3801   3.3992
  3.4254   3.4354   3.4492   3.4544   3.4751   3.5194   3.5278   3.5353
  3.5579   3.5713   3.5941   3.6034   3.6163   3.6397   3.6782   3.7076
  3.7121   3.7304   3.7502   3.7632   3.7684   3.7885   3.8049   3.8270
  3.8487   3.8513   3.8706   3.8902   3.9128   3.9376   3.9384   3.9589
  4.0030   4.0194   4.0287   4.0588   4.0904   4.1469   4.1612   4.1736
  4.1883   4.2178   4.2583   4.2608   4.2848   4.3016   4.3183   4.3531
  4.3680   4.3891   4.4134   4.4514   4.4717   4.4910   4.5206   4.5514
  4.5804   4.6027   4.6082   4.6223   4.6580   4.6727   4.6987   4.7133
  4.7540   4.7635   4.7839   4.8153   4.8995   4.9354   5.0012   5.0906
  5.1338   5.1601   5.2177   5.2667   5.2821   5.3145   5.3306   5.3444
  5.3467   5.3800   5.3963   5.4222   5.4408   5.4950   5.5154   5.5411
  5.5775   5.5924   5.6178   5.6643   5.6758   5.6859   5.6924   5.7510
  5.7631   5.8697   5.8832   5.8992   5.9369   6.0263   6.0543   6.1638
  6.3715   6.5127   6.5819   6.6188   6.8076   6.9738   7.1115   7.2340
  7.2739   7.3179   7.3263   7.3962   7.4510   7.4837   7.5452   7.6212
  7.6976   7.8241   7.8899   7.9575   8.2446  24.3667  24.5279  24.7350
 24.7794  24.9507  25.2510  50.5527  50.6303  50.6622
 
 Beta MOs
 -- Occupied --
-19.4003 -19.3974 -19.3415 -10.4099 -10.4064 -10.4026 -10.3509 -10.3476
-10.3466  -1.2615  -1.1592  -1.0580  -0.9742  -0.8700  -0.8219  -0.7656
 -0.7114  -0.6598  -0.6450  -0.6042  -0.6005  -0.5784  -0.5470  -0.5420
 -0.5229  -0.5000  -0.4824  -0.4628  -0.4601  -0.4394  -0.3945  -0.3698
 -0.3466
 -- Virtual --
 -0.0034   0.0248   0.0364   0.0381   0.0458   0.0549   0.0603   0.0685
  0.0794   0.0941   0.0993   0.1046   0.1279   0.1300   0.1370   0.1418
  0.1432   0.1459   0.1522   0.1583   0.1589   0.1639   0.1670   0.1711
  0.1802   0.1824   0.1936   0.1965   0.1976   0.2044   0.2131   0.2236
  0.2347   0.2628   0.2677   0.2767   0.2853   0.2959   0.3027   0.3125
  0.3217   0.3314   0.3364   0.3489   0.3599   0.3669   0.3693   0.3748
  0.3790   0.3829   0.3880   0.3959   0.4018   0.4072   0.4275   0.4339
  0.4435   0.4505   0.4687   0.4782   0.5133   0.5211   0.5417   0.5475
  0.5653   0.5823   0.5969   0.6132   0.6213   0.6232   0.6469   0.6554
  0.6687   0.6723   0.6874   0.6943   0.7012   0.7114   0.7175   0.7243
  0.7447   0.7509   0.7609   0.7770   0.8009   0.8125   0.8208   0.8220
  0.8312   0.8548   0.8812   0.8978   0.9139   0.9274   0.9504   0.9828
  0.9946   1.0132   1.0318   1.0672   1.0949   1.0992   1.1045   1.1178
  1.1403   1.1716   1.1840   1.2023   1.2176   1.2251   1.2339   1.2422
  1.2482   1.2632   1.2766   1.2815   1.2888   1.3038   1.3115   1.3181
  1.3326   1.3381   1.3522   1.3778   1.3861   1.4067   1.4242   1.4282
  1.4439   1.4554   1.4744   1.4940   1.5049   1.5158   1.5297   1.5396
  1.5501   1.5633   1.5687   1.5873   1.5949   1.6210   1.6491   1.6708
  1.6773   1.6927   1.7124   1.7618   1.7747   1.7808   1.8201   1.8434
  1.8760   1.9036   1.9171   1.9408   1.9667   1.9922   2.0457   2.0581
  2.1111   2.1378   2.2049   2.2533   2.2877   2.3369   2.3589   2.4060
  2.4350   2.5084   2.5863   2.6117   2.6893   2.7054   2.7326   2.7589
  2.7823   2.7877   2.8053   2.8143   2.8335   2.8536   2.8814   2.9068
  2.9314   2.9340   2.9500   2.9681   2.9916   2.9995   3.0137   3.0297
  3.0456   3.0643   3.0721   3.0881   3.1364   3.1492   3.1964   3.2138
  3.2855   3.2881   3.3091   3.3353   3.3466   3.3564   3.3833   3.3922
  3.4173   3.4331   3.4525   3.4629   3.4652   3.4928   3.5273   3.5341
  3.5516   3.5676   3.5804   3.6107   3.6148   3.6335   3.6536   3.6838
  3.7124   3.7205   3.7487   3.7665   3.7721   3.7753   3.7920   3.8110
  3.8362   3.8524   3.8560   3.8773   3.8939   3.9187   3.9477   3.9513
  3.9657   4.0116   4.0265   4.0382   4.0658   4.0975   4.1541   4.1696
  4.1857   4.1989   4.2301   4.2627   4.2741   4.3023   4.3069   4.3229
  4.3684   4.3737   4.4007   4.4293   4.4606   4.4912   4.5031   4.5269
  4.5629   4.5872   4.6106   4.6148   4.6312   4.6649   4.6807   4.7027
  4.7204   4.7632   4.7715   4.7868   4.8244   4.9025   4.9463   5.0043
  5.1035   5.1521   5.1741   5.2242   5.2696   5.2843   5.3176   5.3346
  5.3477   5.3499   5.3852   5.3987   5.4253   5.4441   5.5059   5.5187
  5.5446   5.5805   5.5986   5.6217   5.6695   5.6785   5.6972   5.7015
  5.7666   5.7903   5.8720   5.8910   5.9060   5.9427   6.0275   6.0576
  6.1664   6.3735   6.5168   6.5823   6.6226   6.8089   6.9756   7.1141
  7.2363   7.2774   7.3212   7.3299   7.4009   7.4534   7.4852   7.5476
  7.6242   7.7001   7.8294   7.8921   7.9598   8.2456  24.3674  24.5349
 24.7365  24.7811  24.9530  25.2517  50.5534  50.6314  50.6628
 --------------------------------------------------------------
 
          Ground-State Mulliken Net Atomic Charges

     Atom                 Charge (a.u.)    Spin (a.u.)
  --------------------------------------------------------
      1 H                     0.287954      -0.000509
      2 C                    -0.199537       0.058260
      3 C                    -0.286229      -0.008299
      4 H                     0.286197      -0.002398
      5 C                     0.039817      -0.029672
      6 H                     0.275233       0.006392
      7 C                    -0.334278       0.899829
      8 H                     0.304466      -0.015021
      9 C                    -0.126872       0.003764
     10 H                     0.247296       0.027215
     11 C                    -0.407842      -0.000458
     12 H                     0.270398      -0.000924
     13 O                    -0.436371       0.029379
     14 H                     0.344989      -0.002748
     15 O                    -0.163971       0.034343
     16 O                    -0.101252       0.000846
  --------------------------------------------------------
  Sum of atomic charges =    -0.000000
  Sum of spin   charges =     1.000000

 -----------------------------------------------------------------
                    Cartesian Multipole Moments
 -----------------------------------------------------------------
    Charge (ESU x 10^10)
                -0.0000
    Dipole Moment (Debye)
         X      -0.8290      Y       3.9646      Z      -1.1539
       Tot       4.2115
    Quadrupole Moments (Debye-Ang)
        XX     -47.8124     XY     -10.7872     YY     -51.8895
        XZ       1.2745     YZ      -6.4481     ZZ     -42.9642
    Octopole Moments (Debye-Ang^2)
       XXX     103.9687    XXY     -40.6175    XYY      27.4712
       YYY    -162.8288    XXZ      36.6473    XYZ       8.3106
       YYZ      14.9893    XZZ      37.3751    YZZ     -24.2752
       ZZZ      76.6220
    Hexadecapole Moments (Debye-Ang^3)
      XXXX    -519.0323   XXXY      34.2168   XXYY    -210.9944
      XYYY      65.5213   YYYY    -707.4737   XXXZ     -40.3579
      XXYZ      47.7372   XYYZ      -2.4628   YYYZ      66.9468
      XXZZ    -176.3971   XYZZ       9.9686   YYZZ    -112.1483
      XZZZ     -41.9061   YZZZ      68.4710   ZZZZ    -415.5622
 -----------------------------------------------------------------
 Calculating analytic gradient of the SCF energy
 Gradient of CDS energy
            1           2           3           4           5           6
    1   0.0001343   0.0003420  -0.0002235  -0.0000920  -0.0003191  -0.0002155
    2   0.0000385   0.0000557   0.0001876   0.0000869  -0.0003126  -0.0000476
    3   0.0001409   0.0003138   0.0004152   0.0001540  -0.0000271   0.0000159
            7           8           9          10          11          12
    1  -0.0002708  -0.0000991   0.0003622   0.0000287   0.0000775   0.0001980
    2   0.0001591   0.0000952   0.0000739  -0.0001584  -0.0002613  -0.0000875
    3  -0.0003169  -0.0001222  -0.0000482  -0.0001508  -0.0001689  -0.0000358
           13          14          15          16
    1  -0.0001114   0.0001842   0.0001010  -0.0000965
    2  -0.0002462   0.0004209  -0.0000255   0.0000214
    3   0.0001068  -0.0002426  -0.0000076  -0.0000265
 Gradient of SCF Energy
            1           2           3           4           5           6
    1   0.0026577  -0.0020041   0.0043257  -0.0037997   0.0065432  -0.0079000
    2   0.0005749   0.0015484  -0.0003792   0.0033684  -0.0038760   0.0020957
    3   0.0029421  -0.0034549  -0.0029023   0.0052197  -0.0009765   0.0006075
            7           8           9          10          11          12
    1   0.0057968  -0.0055162  -0.0018793   0.0013778  -0.0035354   0.0037490
    2  -0.0029488   0.0062803   0.0028200  -0.0011493  -0.0044774  -0.0006480
    3   0.0058120  -0.0076914   0.0076564  -0.0056037  -0.0022869  -0.0002811
           13          14          15          16
    1   0.0070163  -0.0056382  -0.0028034   0.0016098
    2  -0.0049909   0.0067873  -0.0020793  -0.0029260
    3   0.0137393  -0.0126805   0.0004987  -0.0005983
 Max gradient component =       1.374E-02
 RMS gradient           =       4.848E-03
 Computing fast CPCM-SWIG gradient
 Updating gradient with PCM contributions...
 -- total gradient after adding PCM contribution --
---------------------------------------------------
  Atom         X              Y              Z     
---------------------------------------------------
   1      -0.000349      -0.000075      -0.000284
   2       0.000400       0.000072       0.000299
   3       0.000003       0.000058       0.000057
   4       0.000002       0.000015       0.000009
   5      -0.000016      -0.000111       0.000006
   6      -0.000008       0.000038       0.000002
   7       0.000033       0.000044      -0.000013
   8       0.000001       0.000001      -0.000009
   9      -0.000014       0.000021      -0.000010
  10       0.000005      -0.000014       0.000006
  11      -0.000079      -0.000109      -0.000050
  12      -0.000005      -0.000001       0.000008
  13       0.000007       0.000035      -0.000108
  14       0.000022      -0.000045       0.000096
  15      -0.000019       0.000030      -0.000006
  16       0.000018       0.000042      -0.000002
---------------------------------------------------
 Number of fixed atoms: 0
 Gradient time:  CPU 338.06 s  wall 26.38 s
 ----------------------------------------------------------------
             Standard Nuclear Orientation (Angstroms)
    I     Atom           X                Y                Z
 ----------------------------------------------------------------
    1      H       0.5874129705     1.4919391869     1.4964192142
    2      C      -0.1438913290     1.2813728651     0.7299697247
    3      C      -1.4428310046     1.5481837805     0.8102849572
    4      H      -1.9413301489     2.0191170655     1.6450151397
    5      C      -2.2010367814     1.0748907856    -0.3996915274
    6      H      -3.2797895136     1.1521048117    -0.3146593013
    7      C      -1.6276114372     1.7217012238    -1.6082584478
    8      H      -2.2116632258     2.2784856197    -2.3240531447
    9      C      -0.1676528660     1.4719632963    -1.7528197904
   10      H       0.0498760995     0.9159025523    -2.6697115506
   11      C       0.2219174681     0.5999172214    -0.5536455623
   12      H       1.2536411630     0.2648676734    -0.6070366862
   13      O       0.6307940890     2.6601100502    -1.7121785753
   14      H       0.3708572905     3.2175089579    -2.4540497623
   15      O      -1.9663291145    -0.3702966904    -0.5071115206
   16      O      -0.5463295596    -0.6241341998    -0.6830017666
 ----------------------------------------------------------------
 Nuclear Repulsion Energy =         476.44045217 hartrees
 There are       34 alpha and       33 beta electrons
 Discretize the solute cavity surface with Lebedev spheres
	Using 110 Lebedev grid points for each H atom
	Using 194 Lebedev grid points for other atoms
	Atomic van der Waals radii will be scaled by 1.20
 Remove points where switching function is < 1.0e-08
 Keep 1147 surface tesserae and discard 1369 interior tesserae
 Molecular Surface Area = 135.612 Angst**2
 Requested basis set is 6-311++G(2df,2p)
 There are 114 shells and 376 basis functions
 A cutoff of  1.0D-12 yielded   6193 shell pairs
 There are     68530 function pairs (     86111 Cartesian)
 Smallest overlap matrix eigenvalue = 2.52E-06
 Guess MOs from SCF MO coefficient file

 -----------------------------------------------------------------------
  General SCF calculation program by
  Eric Jon Sundstrom, Paul Horn, Yuezhi Mao, Dmitri Zuev, Alec White,
  David Stuck, Shaama M.S., Shane Yost, Joonho Lee, David Small,
  Daniel Levine, Susi Lehtola, Hugh Burton, Evgeny Epifanovsky,
  Bang C. Huynh
 -----------------------------------------------------------------------
 Exchange:     0.1500 Hartree-Fock + 1.0000 wB97M-V + LR-HF
 Correlation:  1.0000 wB97M-V
 Using SG-2 standard quadrature grid
 Nonlocal Correlation:  VV10 with C = 0.0100 and b = 6.00 and scale = 1.00000
 Grid used for NLC:  SG-1 standard quadrature
 
 Citation of the SMD model:
 Marenich, A.V.; Cramer, C.J.; Truhlar, D.G.
 J. Phys. Chem. B 2009, 113, 6378-6396.
 iSolventCode=           1
 Solvent: water                                                           
 
 vradii
            1           2           3           4           5           6
    1   1.2000000   1.8500000   1.8500000   1.2000000   1.8500000   1.2000000
            7           8           9          10          11          12
    1   1.8500000   1.2000000   1.8500000   1.2000000   1.8500000   1.2000000
           13          14          15          16
    1   1.5200000   1.2000000   1.5200000   1.5200000
 -------------------------------------------------------
 OpenMP BLAS3 based DFT computing Module                
 Release: version 1.0, May 2013, Q-Chem Inc. Pittsburgh 
 -------------------------------------------------------
 A unrestricted SCF calculation will be
 performed using Roothaan-Hall, DIIS, GDM
 SCF converges when RMS gradient is below 1.0e-07
 ---------------------------------------
  Cycle       Energy         DIIS error
 ---------------------------------------
    1    -458.3068791040      2.06e-04  Roothaan Step
 ---------------------------------------
  Cycle       Energy         DIIS error
 ---------------------------------------
    1    -458.3309101500      2.30e-04  
    2    -458.3350124415      1.87e-04  Done DIIS. Switching to GDM
 ---------------------------------------
  Cycle       Energy        RMS Gradient
 ---------------------------------------
    1    -458.3350124415      7.37e-03   Normal BFGS step
    2    -458.3352946527      6.50e-03   Normal BFGS step
    3    -458.3368286434      5.84e-04   Normal BFGS step
    4    -458.3368411691      4.39e-04   Normal BFGS step
    5    -458.3368506106      1.09e-04   Normal BFGS step
    6    -458.3368507694      1.07e-04   Normal BFGS step
    7    -458.3368512052      3.26e-05   Normal BFGS step
    8    -458.3368512167      2.35e-05   Normal BFGS step
    9    -458.3368512224      9.81e-06   Normal BFGS step
   10    -458.3368512233      4.25e-06   Normal BFGS step
   11    -458.3368512236      2.17e-06   Normal BFGS step
   12    -458.3368512237      1.52e-06   Normal BFGS step
   13    -458.3368512237      9.89e-07   Normal BFGS step
   14    -458.3368512238      3.76e-07   Normal BFGS step
   15    -458.3368512237      1.42e-07   Normal BFGS step
   16    -458.3368512237      6.50e-08  Convergence criterion met
 ---------------------------------------
 SCF time:   CPU 1945.97s  wall 133.00s 
<S^2> =          0.754511327
(3)  G-ENP(liq) elect-nuc-pol free energy of system     -458.336851224 a.u.
(4)  G-CDS(liq) cavity-dispersion-solvent structure 
     free energy                                                2.4844 kcal/mol
(6)  G-S(liq) free energy of system                     -458.332892085 a.u.
 SCF   energy in the final basis set =     -458.3328920850
 Total energy in the final basis set =     -458.3328920850
 
 --------------------------------------------------------------
 
                    Orbital Energies (a.u.)
 --------------------------------------------------------------
 
 Alpha MOs
 -- Occupied --
-19.4003 -19.3990 -19.3429 -10.4092 -10.4063 -10.4019 -10.3595 -10.3513
-10.3485  -1.2632  -1.1624  -1.0599  -0.9797  -0.8811  -0.8273  -0.7699
 -0.7206  -0.6636  -0.6497  -0.6085  -0.6058  -0.5821  -0.5545  -0.5434
 -0.5255  -0.5050  -0.4882  -0.4722  -0.4619  -0.4418  -0.3992  -0.3776
 -0.3488  -0.3032
 -- Virtual --
  0.0249   0.0368   0.0384   0.0458   0.0518   0.0600   0.0646   0.0783
  0.0939   0.0984   0.1047   0.1277   0.1306   0.1361   0.1422   0.1428
  0.1460   0.1524   0.1580   0.1589   0.1637   0.1659   0.1701   0.1810
  0.1821   0.1928   0.1969   0.1984   0.2038   0.2136   0.2239   0.2345
  0.2608   0.2691   0.2751   0.2847   0.2949   0.2986   0.3092   0.3194
  0.3295   0.3357   0.3480   0.3559   0.3664   0.3672   0.3736   0.3790
  0.3819   0.3873   0.3949   0.4006   0.4062   0.4223   0.4302   0.4407
  0.4496   0.4683   0.4760   0.5122   0.5200   0.5377   0.5449   0.5607
  0.5803   0.5940   0.6101   0.6187   0.6202   0.6397   0.6471   0.6615
  0.6661   0.6823   0.6925   0.7002   0.7073   0.7156   0.7200   0.7391
  0.7466   0.7566   0.7733   0.7974   0.8108   0.8141   0.8208   0.8276
  0.8519   0.8805   0.8942   0.9122   0.9269   0.9507   0.9801   0.9908
  1.0119   1.0296   1.0651   1.0916   1.0980   1.1034   1.1171   1.1388
  1.1699   1.1798   1.1998   1.2141   1.2240   1.2293   1.2399   1.2462
  1.2601   1.2731   1.2786   1.2862   1.3020   1.3101   1.3144   1.3306
  1.3361   1.3513   1.3742   1.3808   1.4052   1.4204   1.4244   1.4385
  1.4493   1.4718   1.4905   1.4997   1.5125   1.5261   1.5379   1.5469
  1.5599   1.5636   1.5824   1.5920   1.6183   1.6461   1.6657   1.6737
  1.6882   1.7081   1.7580   1.7655   1.7761   1.8170   1.8387   1.8741
  1.9020   1.9122   1.9372   1.9624   1.9892   2.0412   2.0545   2.1083
  2.1338   2.2010   2.2496   2.2855   2.3344   2.3573   2.4041   2.4324
  2.5056   2.5837   2.6010   2.6765   2.7017   2.7265   2.7485   2.7723
  2.7816   2.7970   2.8085   2.8246   2.8451   2.8675   2.8983   2.9094
  2.9217   2.9236   2.9460   2.9674   2.9834   3.0032   3.0183   3.0356
  3.0594   3.0653   3.0809   3.1229   3.1373   3.1846   3.1890   3.2674
  3.2797   3.2966   3.3321   3.3403   3.3512   3.3710   3.3801   3.3992
  3.4254   3.4354   3.4493   3.4544   3.4751   3.5188   3.5278   3.5353
  3.5579   3.5713   3.5941   3.6034   3.6164   3.6396   3.6782   3.7076
  3.7121   3.7304   3.7502   3.7632   3.7684   3.7885   3.8049   3.8267
  3.8488   3.8514   3.8706   3.8901   3.9128   3.9375   3.9383   3.9588
  4.0030   4.0192   4.0286   4.0587   4.0903   4.1469   4.1611   4.1737
  4.1882   4.2178   4.2583   4.2605   4.2848   4.3015   4.3182   4.3531
  4.3680   4.3889   4.4133   4.4512   4.4715   4.4910   4.5205   4.5513
  4.5805   4.6025   4.6077   4.6222   4.6578   4.6726   4.6986   4.7132
  4.7540   4.7634   4.7838   4.8151   4.8988   4.9353   5.0012   5.0904
  5.1337   5.1599   5.2177   5.2667   5.2821   5.3144   5.3306   5.3444
  5.3466   5.3799   5.3963   5.4220   5.4408   5.4948   5.5153   5.5409
  5.5771   5.5918   5.6177   5.6642   5.6758   5.6859   5.6924   5.7509
  5.7631   5.8697   5.8832   5.8992   5.9369   6.0263   6.0542   6.1626
  6.3712   6.5127   6.5819   6.6188   6.8076   6.9738   7.1115   7.2340
  7.2739   7.3179   7.3263   7.3962   7.4510   7.4837   7.5452   7.6212
  7.6976   7.8241   7.8899   7.9575   8.2446  24.3660  24.5278  24.7350
 24.7793  24.9507  25.2505  50.5527  50.6303  50.6622
 
 Beta MOs
 -- Occupied --
-19.4003 -19.3974 -19.3415 -10.4099 -10.4064 -10.4026 -10.3509 -10.3477
-10.3466  -1.2615  -1.1592  -1.0580  -0.9742  -0.8700  -0.8219  -0.7656
 -0.7114  -0.6598  -0.6450  -0.6042  -0.6005  -0.5784  -0.5470  -0.5420
 -0.5229  -0.5000  -0.4824  -0.4628  -0.4601  -0.4394  -0.3945  -0.3698
 -0.3466
 -- Virtual --
 -0.0034   0.0248   0.0364   0.0381   0.0458   0.0549   0.0603   0.0685
  0.0794   0.0941   0.0993   0.1046   0.1279   0.1300   0.1370   0.1418
  0.1432   0.1459   0.1522   0.1583   0.1589   0.1639   0.1670   0.1711
  0.1802   0.1824   0.1936   0.1965   0.1976   0.2044   0.2131   0.2236
  0.2347   0.2628   0.2677   0.2767   0.2853   0.2959   0.3027   0.3125
  0.3217   0.3314   0.3364   0.3489   0.3598   0.3669   0.3693   0.3747
  0.3790   0.3829   0.3880   0.3959   0.4018   0.4072   0.4274   0.4339
  0.4435   0.4505   0.4687   0.4782   0.5133   0.5211   0.5417   0.5475
  0.5653   0.5823   0.5969   0.6132   0.6213   0.6232   0.6469   0.6553
  0.6687   0.6723   0.6874   0.6943   0.7012   0.7114   0.7175   0.7243
  0.7447   0.7509   0.7609   0.7770   0.8008   0.8125   0.8208   0.8220
  0.8311   0.8548   0.8812   0.8978   0.9138   0.9274   0.9504   0.9828
  0.9946   1.0132   1.0317   1.0672   1.0949   1.0992   1.1045   1.1178
  1.1402   1.1716   1.1840   1.2023   1.2175   1.2251   1.2339   1.2422
  1.2483   1.2632   1.2766   1.2815   1.2888   1.3038   1.3115   1.3181
  1.3326   1.3381   1.3522   1.3778   1.3860   1.4066   1.4242   1.4282
  1.4439   1.4554   1.4743   1.4940   1.5048   1.5158   1.5296   1.5395
  1.5500   1.5632   1.5686   1.5873   1.5949   1.6210   1.6491   1.6708
  1.6773   1.6927   1.7123   1.7616   1.7747   1.7807   1.8200   1.8434
  1.8760   1.9035   1.9171   1.9408   1.9669   1.9921   2.0457   2.0581
  2.1111   2.1378   2.2049   2.2533   2.2877   2.3369   2.3589   2.4060
  2.4349   2.5084   2.5864   2.6117   2.6893   2.7054   2.7326   2.7589
  2.7823   2.7877   2.8053   2.8144   2.8333   2.8536   2.8814   2.9067
  2.9314   2.9340   2.9499   2.9681   2.9916   2.9995   3.0137   3.0297
  3.0456   3.0642   3.0721   3.0881   3.1364   3.1492   3.1963   3.2138
  3.2853   3.2881   3.3090   3.3353   3.3466   3.3564   3.3834   3.3922
  3.4174   3.4331   3.4526   3.4629   3.4651   3.4927   3.5268   3.5342
  3.5516   3.5675   3.5803   3.6106   3.6148   3.6335   3.6536   3.6838
  3.7124   3.7206   3.7487   3.7665   3.7720   3.7753   3.7920   3.8110
  3.8360   3.8524   3.8560   3.8773   3.8938   3.9186   3.9475   3.9512
  3.9656   4.0116   4.0264   4.0382   4.0657   4.0973   4.1540   4.1696
  4.1858   4.1987   4.2300   4.2624   4.2740   4.3022   4.3068   4.3228
  4.3683   4.3737   4.4005   4.4292   4.4604   4.4910   4.5031   4.5268
  4.5628   4.5872   4.6104   4.6144   4.6312   4.6648   4.6806   4.7026
  4.7204   4.7632   4.7714   4.7867   4.8243   4.9018   4.9462   5.0043
  5.1033   5.1520   5.1738   5.2242   5.2695   5.2843   5.3176   5.3346
  5.3477   5.3498   5.3851   5.3987   5.4251   5.4440   5.5057   5.5186
  5.5444   5.5801   5.5980   5.6216   5.6694   5.6785   5.6971   5.7015
  5.7666   5.7903   5.8720   5.8909   5.9060   5.9426   6.0275   6.0576
  6.1652   6.3733   6.5168   6.5823   6.6226   6.8089   6.9755   7.1141
  7.2363   7.2774   7.3212   7.3299   7.4009   7.4534   7.4852   7.5476
  7.6242   7.7001   7.8294   7.8921   7.9598   8.2456  24.3667  24.5348
 24.7364  24.7811  24.9529  25.2512  50.5534  50.6314  50.6628
 --------------------------------------------------------------
 
          Ground-State Mulliken Net Atomic Charges

     Atom                 Charge (a.u.)    Spin (a.u.)
  --------------------------------------------------------
      1 H                     0.287576      -0.000509
      2 C                    -0.200143       0.058243
      3 C                    -0.285523      -0.008286
      4 H                     0.286277      -0.002400
      5 C                     0.039505      -0.029671
      6 H                     0.275236       0.006392
      7 C                    -0.334312       0.899825
      8 H                     0.304469      -0.015021
      9 C                    -0.126802       0.003777
     10 H                     0.247305       0.027212
     11 C                    -0.407434      -0.000463
     12 H                     0.270447      -0.000924
     13 O                    -0.436374       0.029380
     14 H                     0.344992      -0.002748
     15 O                    -0.163969       0.034350
     16 O                    -0.101249       0.000843
  --------------------------------------------------------
  Sum of atomic charges =     0.000000
  Sum of spin   charges =     1.000000

 -----------------------------------------------------------------
                    Cartesian Multipole Moments
 -----------------------------------------------------------------
    Charge (ESU x 10^10)
                 0.0000
    Dipole Moment (Debye)
         X      -0.8287      Y       3.9656      Z      -1.1548
       Tot       4.2126
    Quadrupole Moments (Debye-Ang)
        XX     -47.8113     XY     -10.7861     YY     -51.8875
        XZ       1.2756     YZ      -6.4478     ZZ     -42.9660
    Octopole Moments (Debye-Ang^2)
       XXX     103.9643    XXY     -40.6158    XYY      27.4729
       YYY    -162.8277    XXZ      36.6473    XYZ       8.3138
       YYZ      14.9902    XZZ      37.3749    YZZ     -24.2752
       ZZZ      76.6135
    Hexadecapole Moments (Debye-Ang^3)
      XXXX    -519.0300   XXXY      34.2099   XXYY    -210.9932
      XYYY      65.5210   YYYY    -707.4810   XXXZ     -40.3595
      XXYZ      47.7369   XYYZ      -2.4574   YYYZ      66.9435
      XXZZ    -176.3948   XYZZ       9.9699   YYZZ    -112.1469
      XZZZ     -41.9077   YZZZ      68.4611   ZZZZ    -415.5782
 -----------------------------------------------------------------
 Calculating analytic gradient of the SCF energy
 Gradient of CDS energy
            1           2           3           4           5           6
    1   0.0001351   0.0003410  -0.0002234  -0.0000920  -0.0003191  -0.0002155
    2   0.0000389   0.0000552   0.0001876   0.0000869  -0.0003126  -0.0000476
    3   0.0001416   0.0003130   0.0004152   0.0001540  -0.0000271   0.0000159
            7           8           9          10          11          12
    1  -0.0002708  -0.0000991   0.0003622   0.0000287   0.0000774   0.0001980
    2   0.0001591   0.0000952   0.0000739  -0.0001584  -0.0002613  -0.0000875
    3  -0.0003169  -0.0001222  -0.0000482  -0.0001508  -0.0001688  -0.0000358
           13          14          15          16
    1  -0.0001114   0.0001842   0.0001010  -0.0000965
    2  -0.0002462   0.0004209  -0.0000255   0.0000214
    3   0.0001068  -0.0002426  -0.0000076  -0.0000265
 Gradient of SCF Energy
            1           2           3           4           5           6
    1   0.0030977  -0.0024351   0.0043113  -0.0037999   0.0065423  -0.0079008
    2   0.0007225   0.0013791  -0.0003726   0.0033551  -0.0038550   0.0020950
    3   0.0033294  -0.0038111  -0.0029355   0.0052252  -0.0009828   0.0006060
[...]
 H          0.035 -0.018 -0.083   -0.051  0.061  0.021   -0.061  0.122 -0.294
 C         -0.026  0.008 -0.029   -0.080 -0.127  0.020    0.253 -0.009  0.022
 H         -0.028 -0.003 -0.051   -0.154 -0.337  0.056    0.248 -0.048  0.052
 O         -0.026 -0.024  0.010    0.022  0.029 -0.012    0.007  0.014  0.010
 H          0.058  0.037  0.028   -0.056 -0.043 -0.041    0.195  0.193  0.080
 O          0.011  0.079  0.021    0.215  0.237 -0.023   -0.100  0.128  0.019
 O         -0.004  0.125  0.043   -0.186  0.055  0.025    0.013 -0.139 -0.041
 TransDip   0.048  0.088 -0.194   -0.079 -0.372  0.074    0.044  0.028  0.010

 Mode:                16                     17                     18
 Frequency:       897.28                 953.27                 970.39
 Force Cnst:      1.7304                 1.7234                 1.2476
 Red. Mass:       3.6478                 3.2189                 2.2488
 IR Active:          YES                    YES                    YES
 IR Intens:       23.856                 52.037                 16.387
 Raman Active:       YES                    YES                    YES
               X      Y      Z        X      Y      Z        X      Y      Z
 H          0.005  0.058 -0.111   -0.194  0.241  0.167   -0.022  0.031  0.213
 C         -0.043 -0.013 -0.040   -0.003  0.018  0.048    0.056  0.056  0.113
 C         -0.034 -0.032 -0.038   -0.025 -0.096 -0.122   -0.021  0.052  0.138
 H         -0.196  0.011 -0.166   -0.227  0.010 -0.313    0.077  0.180  0.141
 C          0.200  0.001 -0.044    0.061  0.266  0.024   -0.103 -0.015 -0.099
 H          0.208  0.310 -0.277    0.090  0.466  0.005   -0.146 -0.167 -0.456
 C          0.127 -0.165  0.080    0.015 -0.109  0.104    0.062 -0.054  0.003
 H          0.081 -0.103  0.192   -0.189 -0.074  0.312    0.330  0.022 -0.152
 C         -0.119  0.119  0.174   -0.044  0.026 -0.048   -0.058  0.064  0.025
 H         -0.265  0.062  0.165   -0.197  0.125 -0.142   -0.320  0.245 -0.156
 C         -0.021  0.118 -0.085   -0.030 -0.059  0.012    0.098 -0.048 -0.105
 H          0.071  0.454 -0.314   -0.103 -0.266 -0.043    0.029 -0.227 -0.395
 O         -0.018 -0.058 -0.009    0.003  0.000 -0.005   -0.015 -0.032 -0.008
 H         -0.060 -0.095 -0.021    0.103  0.099  0.034    0.031  0.015  0.012
 O         -0.108  0.111  0.016    0.139 -0.136 -0.023    0.059 -0.015 -0.010
 O          0.055 -0.116 -0.010   -0.077  0.064  0.013   -0.067 -0.000  0.012
 TransDip   0.025  0.149 -0.040   -0.028  0.229 -0.014    0.006  0.042 -0.123

 Mode:                19                     20                     21
 Frequency:       997.48                1000.32                1023.69
 Force Cnst:      2.0318                 1.0183                 2.0740
 Red. Mass:       3.4659                 1.7273                 3.3592
 IR Active:          YES                    YES                    YES
 IR Intens:       85.549                 50.612                 51.551
 Raman Active:       YES                    YES                    YES
               X      Y      Z        X      Y      Z        X      Y      Z
 H          0.153  0.293 -0.083    0.075  0.632 -0.298   -0.084 -0.255 -0.025
 C          0.035 -0.003  0.104   -0.045 -0.133  0.028   -0.059  0.019 -0.121
 C          0.026  0.090 -0.043    0.005  0.124 -0.034   -0.036  0.012  0.107
 H         -0.241 -0.590  0.186   -0.013 -0.560  0.343    0.100  0.198  0.087
 C         -0.036 -0.032 -0.069    0.027  0.001  0.012    0.147 -0.005 -0.038
 H         -0.035  0.162 -0.166    0.024 -0.050 -0.010    0.147  0.117 -0.189
 C          0.018 -0.040  0.062   -0.003  0.010 -0.014   -0.078  0.035 -0.078
 H         -0.045 -0.075  0.092   -0.027  0.015  0.008   -0.433  0.002  0.175
 C         -0.034 -0.022 -0.025    0.017  0.051 -0.006    0.074  0.205  0.044
 H         -0.156  0.152 -0.159   -0.000 -0.001  0.016   -0.107  0.221 -0.023
 C         -0.144 -0.229 -0.013    0.085  0.056  0.007    0.132 -0.135  0.051
 H         -0.151 -0.282 -0.043    0.072  0.017  0.023    0.082 -0.383  0.409
 O          0.020  0.035 -0.007   -0.026 -0.039 -0.002   -0.083 -0.127 -0.020
 H          0.002  0.011 -0.020    0.046  0.031  0.029    0.032 -0.011  0.035
 O         -0.115  0.048  0.021    0.026 -0.033 -0.011   -0.076 -0.058  0.002
 O          0.227  0.115 -0.015   -0.076 -0.015  0.012    0.040  0.093  0.014
 TransDip  -0.128 -0.267 -0.011    0.147  0.173 -0.025    0.167  0.158  0.005

 Mode:                22                     23                     24
 Frequency:      1036.60                1073.57                1086.09
 Force Cnst:      1.0233                 2.3282                 1.1379
 Red. Mass:       1.6163                 3.4285                 1.6372
 IR Active:          YES                    YES                    YES
 IR Intens:        2.512                 98.811                 11.521
 Raman Active:       YES                    YES                    YES
               X      Y      Z        X      Y      Z        X      Y      Z
 H         -0.190  0.094  0.151    0.055 -0.051  0.037   -0.065  0.094  0.129
 C         -0.041  0.018  0.028    0.046  0.017  0.029    0.029  0.020  0.053
 C         -0.040  0.001 -0.023    0.057 -0.054 -0.092   -0.007 -0.001 -0.009
 H         -0.301 -0.048 -0.154    0.137 -0.056 -0.049   -0.019 -0.004 -0.011
 C          0.051 -0.015  0.127   -0.144 -0.007  0.053   -0.055  0.020 -0.011
 H          0.088 -0.045  0.608   -0.144 -0.130  0.270   -0.071 -0.037 -0.110
 C          0.020  0.038 -0.082    0.092 -0.055  0.022   -0.040  0.018  0.019
 H          0.366  0.122 -0.308    0.360  0.001 -0.154   -0.462 -0.088  0.276
 C          0.028  0.029  0.051    0.104  0.246 -0.078    0.162  0.056  0.027
 H         -0.017  0.097 -0.006   -0.085  0.305 -0.174    0.496 -0.096  0.198
 C          0.019 -0.050 -0.105   -0.142  0.029  0.078   -0.051  0.005 -0.090
 H         -0.012 -0.132 -0.289   -0.127  0.030  0.483   -0.070 -0.001 -0.451
 O         -0.011 -0.024 -0.002   -0.103 -0.137 -0.033   -0.025 -0.051  0.001
 H         -0.110 -0.117 -0.038    0.253  0.209  0.114   -0.212 -0.217 -0.058
 O         -0.023 -0.024 -0.002    0.038  0.072  0.001    0.014  0.017  0.002
 O          0.018  0.035  0.010    0.027 -0.087 -0.009    0.008 -0.033  0.006
 TransDip   0.018 -0.036  0.030    0.170  0.264  0.049    0.052  0.059 -0.075

 Mode:                25                     26                     27
 Frequency:      1113.58                1182.87                1270.29
 Force Cnst:      0.8786                 0.9457                 1.8136
 Red. Mass:       1.2025                 1.1472                 1.9076
 IR Active:          YES                    YES                    YES
 IR Intens:        3.341                 38.391                 36.563
 Raman Active:       YES                    YES                    YES
               X      Y      Z        X      Y      Z        X      Y      Z
 H         -0.518  0.231  0.361    0.142 -0.120 -0.110    0.159 -0.145 -0.103
 C         -0.037  0.004 -0.029    0.018  0.004 -0.028    0.034 -0.000 -0.022
 C          0.025 -0.018 -0.032   -0.032  0.013  0.011   -0.029 -0.000 -0.043
 H          0.589  0.026  0.274   -0.248 -0.030 -0.091   -0.159 -0.067 -0.085
 C          0.030 -0.023  0.045   -0.020 -0.001  0.032   -0.041 -0.018  0.156
 H          0.021 -0.002 -0.112   -0.028 -0.007 -0.044   -0.085  0.006 -0.387
 C          0.047  0.008 -0.029    0.027  0.003 -0.002    0.095  0.033 -0.085
 H         -0.001 -0.003  0.003    0.024 -0.014 -0.011   -0.152 -0.010  0.075
 C         -0.048  0.009 -0.014   -0.028  0.035 -0.009   -0.074  0.025 -0.040
 H          0.048 -0.123  0.088    0.159 -0.448  0.324    0.188  0.394 -0.198
 C         -0.038 -0.026  0.037    0.028 -0.040  0.035    0.029 -0.066  0.136
 H         -0.045 -0.003 -0.214   -0.005 -0.096 -0.314    0.158  0.402 -0.330
 O         -0.002  0.008 -0.004   -0.033  0.001 -0.025    0.012 -0.018  0.006
 H          0.098  0.104  0.033    0.437  0.458  0.163   -0.224 -0.236 -0.080
 O         -0.011  0.002 -0.001    0.000  0.002 -0.001    0.005 -0.009 -0.008
 O          0.016  0.010 -0.005    0.006  0.003  0.002   -0.021  0.026 -0.005
 TransDip  -0.006 -0.029  0.050    0.163  0.113  0.001   -0.138 -0.125  0.052

 Mode:                28                     29                     30
 Frequency:      1293.26                1297.23                1316.02
 Force Cnst:      1.2838                 1.2728                 1.3511
 Red. Mass:       1.3028                 1.2838                 1.3240
 IR Active:          YES                    YES                    YES
 IR Intens:        3.944                  3.633                  0.446
 Raman Active:       YES                    YES                    YES
               X      Y      Z        X      Y      Z        X      Y      Z
 H          0.015 -0.011 -0.001    0.142 -0.104 -0.132   -0.220  0.120  0.175
 C          0.009 -0.007  0.004   -0.042  0.020  0.010    0.016 -0.007 -0.019
 C         -0.005  0.000 -0.022   -0.031  0.011  0.017    0.050  0.014  0.042
 H         -0.040 -0.012 -0.037    0.223  0.032  0.163   -0.178 -0.024 -0.072
 C         -0.010 -0.064  0.088   -0.037 -0.075 -0.088    0.007 -0.024 -0.027
 H         -0.004  0.546 -0.409    0.066  0.674  0.514    0.021  0.247 -0.127
 C         -0.043  0.020 -0.008    0.021  0.000  0.010   -0.073 -0.002  0.058
 H          0.171  0.056 -0.163   -0.057 -0.040  0.044    0.243  0.034 -0.173
 C         -0.044  0.013 -0.008   -0.010  0.002 -0.007   -0.015  0.004  0.008
 H          0.230 -0.026  0.084    0.095  0.142 -0.064    0.481  0.140  0.050
 C          0.006  0.074 -0.026    0.018 -0.017  0.050   -0.011 -0.083 -0.051
 H         -0.185 -0.544  0.175    0.023  0.050 -0.290    0.204  0.532  0.255
 O          0.012 -0.005  0.008   -0.002 -0.007 -0.006   -0.007 -0.014 -0.023
 H         -0.103 -0.114 -0.036    0.008  0.010  0.004    0.112  0.123  0.042
 O          0.027  0.015 -0.002    0.043  0.008 -0.003    0.015 -0.009 -0.002
 O          0.021 -0.031 -0.004   -0.012 -0.006 -0.000   -0.031  0.023  0.008
 TransDip  -0.025 -0.058  0.001    0.018 -0.054  0.023    0.004 -0.001  0.021

 Mode:                31                     32                     33
 Frequency:      1332.67                1373.37                1384.27
 Force Cnst:      1.4592                 2.1395                 2.3087
 Red. Mass:       1.3945                 1.9252                 2.0449
 IR Active:          YES                    YES                    YES
 IR Intens:        3.491                 44.387                 12.043
 Raman Active:       YES                    YES                    YES
               X      Y      Z        X      Y      Z        X      Y      Z
 H          0.051 -0.029 -0.089   -0.202  0.122  0.153   -0.386  0.161  0.189
 C         -0.019 -0.008 -0.021    0.030 -0.024 -0.033    0.034 -0.067 -0.139
 C         -0.015 -0.006  0.002    0.040  0.022  0.060    0.070  0.039  0.111
 H          0.070  0.028  0.030   -0.242 -0.005 -0.085   -0.460 -0.017 -0.170
 C          0.055  0.062 -0.059   -0.083 -0.004 -0.044   -0.022 -0.015 -0.062
 H          0.039 -0.402  0.107   -0.064 -0.096  0.371   -0.008  0.090  0.063
 C         -0.034 -0.023  0.080    0.173  0.008 -0.053   -0.037 -0.027  0.043
 H          0.219  0.004 -0.093   -0.352 -0.120  0.292    0.161  0.012 -0.092
 C         -0.067 -0.009 -0.018   -0.168  0.028  0.008    0.044  0.060 -0.102
 H          0.612  0.402 -0.085    0.330 -0.029  0.167   -0.281 -0.223 -0.017
 C          0.011  0.046  0.071    0.027  0.012 -0.056   -0.021  0.032  0.148
 H         -0.125 -0.320 -0.236   -0.020 -0.207  0.442   -0.082 -0.068 -0.347
 O          0.006 -0.022 -0.018    0.016 -0.002  0.006    0.018  0.006  0.036
 H          0.006  0.008  0.006   -0.096 -0.101 -0.033   -0.250 -0.276 -0.092
 O         -0.032 -0.004  0.006    0.007  0.004  0.000    0.004  0.010  0.000
 O          0.023 -0.001 -0.006    0.003 -0.005  0.001    0.009 -0.012 -0.007
 TransDip  -0.003  0.042  0.043   -0.177 -0.096  0.071   -0.103  0.004 -0.043

 Mode:                34                     35                     36
 Frequency:      1412.54                1695.28                3034.76
 Force Cnst:      2.0214                10.5781                 5.8732
 Red. Mass:       1.7195                 6.2470                 1.0824
 IR Active:          YES                    YES                    YES
 IR Intens:       14.021                  0.336                 45.549
 Raman Active:       YES                    YES                    YES
               X      Y      Z        X      Y      Z        X      Y      Z
 H         -0.210  0.106  0.112    0.023 -0.204 -0.391    0.002  0.000  0.002
 C          0.017 -0.038 -0.057   -0.461  0.126  0.088   -0.001  0.000  0.000
 C          0.044  0.016  0.042    0.476 -0.067  0.020    0.000 -0.000 -0.000
 H         -0.238 -0.008 -0.111   -0.123 -0.172 -0.382   -0.001  0.001  0.002
 C         -0.025 -0.027  0.018   -0.063 -0.000  0.008    0.000 -0.001  0.000
 H         -0.027  0.105 -0.076   -0.094 -0.078 -0.228   -0.003  0.001 -0.001
 C          0.010  0.033 -0.056    0.020  0.004 -0.008    0.001 -0.001  0.000
 H         -0.236 -0.008  0.108   -0.042 -0.009  0.028   -0.005  0.008 -0.009
 C          0.065 -0.128  0.125   -0.012  0.014 -0.004    0.018 -0.039 -0.070
 H         -0.109  0.529 -0.297    0.012 -0.041  0.028   -0.211  0.495  0.838
 C         -0.039  0.080  0.017    0.059 -0.021 -0.010   -0.002 -0.000 -0.000
 H         -0.124 -0.130 -0.133    0.028 -0.103 -0.232    0.031 -0.007 -0.002
 O         -0.034 -0.005 -0.047    0.000 -0.002  0.001   -0.000 -0.001  0.000
 H          0.351  0.382  0.124   -0.012 -0.015 -0.005   -0.003 -0.002  0.001
 O          0.006  0.008 -0.000    0.008 -0.001 -0.000    0.000 -0.000  0.000
 O          0.010 -0.017 -0.004   -0.009  0.000  0.003   -0.000  0.000  0.000
 TransDip  -0.039  0.098  0.058    0.009 -0.011 -0.012    0.028 -0.138 -0.164

 Mode:                37                     38                     39
 Frequency:      3151.14                3165.66                3212.35
 Force Cnst:      6.3726                 6.4347                 6.6149
 Red. Mass:       1.0893                 1.0898                 1.0880
 IR Active:          YES                    YES                    YES
 IR Intens:        9.867                  4.882                  2.325
 Raman Active:       YES                    YES                    YES
               X      Y      Z        X      Y      Z        X      Y      Z
 H         -0.043 -0.011 -0.041   -0.004 -0.002 -0.005   -0.443 -0.127 -0.464
 C          0.005  0.000  0.003    0.000  0.000  0.001    0.036  0.012  0.040
 C          0.001 -0.001 -0.001    0.004 -0.003 -0.004    0.029 -0.028 -0.050
 H         -0.006  0.005  0.009   -0.037  0.032  0.056   -0.345  0.326  0.577
 C         -0.006  0.000  0.000   -0.085  0.005  0.007    0.006  0.000  0.001
 H          0.071 -0.006 -0.005    0.983 -0.075 -0.078   -0.063  0.004  0.003
 C          0.000 -0.000 -0.000    0.003 -0.002  0.002   -0.001  0.001 -0.001
 H          0.002 -0.002  0.003   -0.034  0.031 -0.038    0.009 -0.008  0.009
 C         -0.001  0.001  0.003    0.001  0.000 -0.001   -0.000  0.000 -0.000
 H          0.007 -0.013 -0.027   -0.001  0.002  0.004    0.000  0.000  0.002
 C         -0.081  0.028  0.005    0.006 -0.002 -0.000    0.004 -0.002 -0.001
 H          0.942 -0.305 -0.048   -0.068  0.022  0.003   -0.042  0.014  0.003
 O          0.000  0.000 -0.000   -0.000 -0.000  0.000    0.000 -0.000  0.000
 H          0.001  0.001 -0.000    0.000 -0.000  0.000   -0.000 -0.000  0.000
 O          0.001  0.000 -0.000   -0.001  0.001  0.000   -0.000  0.000  0.000
 O         -0.001 -0.001 -0.000    0.001 -0.001 -0.000   -0.000 -0.000  0.000
 TransDip  -0.091  0.035  0.024   -0.068 -0.018  0.005    0.046 -0.011 -0.014

 Mode:                40                     41                     42
 Frequency:      3232.18                3236.99                3826.12
 Force Cnst:      6.8000                 6.7461                 9.2013
 Red. Mass:       1.1048                 1.0927                 1.0668
 IR Active:          YES                    YES                    YES
 IR Intens:        7.768                  3.273                132.718
 Raman Active:       YES                    YES                    YES
               X      Y      Z        X      Y      Z        X      Y      Z
 H          0.502  0.142  0.521   -0.090 -0.026 -0.094    0.000  0.000  0.000
 C         -0.051 -0.011 -0.045    0.009  0.002  0.008    0.000 -0.000  0.000
 C          0.034 -0.026 -0.044   -0.006  0.005  0.009   -0.000 -0.000 -0.000
 H         -0.299  0.279  0.492    0.060 -0.057 -0.100   -0.000  0.000  0.000
 C          0.003  0.000  0.002   -0.007 -0.001  0.002   -0.000  0.000 -0.000
 H         -0.029  0.001 -0.001    0.065 -0.002 -0.007   -0.000 -0.000  0.000
 C         -0.009  0.009 -0.011   -0.046  0.045 -0.057    0.000 -0.000  0.000
 H          0.104 -0.098  0.126    0.531 -0.505  0.646   -0.001  0.002 -0.002
 C          0.000 -0.000  0.000    0.003 -0.001 -0.001   -0.001 -0.000 -0.001
 H          0.000 -0.000 -0.002   -0.005  0.007  0.011   -0.001 -0.003  0.000
 C         -0.003  0.002  0.002    0.001 -0.001 -0.000   -0.000 -0.000  0.000
 H          0.036 -0.013 -0.005   -0.013  0.005  0.001    0.000 -0.000  0.000
 O          0.000  0.000 -0.000   -0.000 -0.000 -0.000   -0.016  0.037 -0.048
 H         -0.000 -0.000  0.000   -0.001 -0.002  0.002    0.261 -0.585  0.765
 O          0.000  0.000  0.000   -0.000 -0.000  0.000    0.000 -0.000 -0.000
 O          0.000  0.000  0.000    0.000 -0.000  0.000   -0.000 -0.000  0.000
 TransDip  -0.015 -0.018 -0.086   -0.023  0.040 -0.035    0.020 -0.261  0.260

 STANDARD THERMODYNAMIC QUANTITIES AT   298.15 K  AND     1.00 ATM

   This Molecule has  0 Imaginary Frequencies
   Zero point vibrational energy:       77.063 kcal/mol

   Atom    1 Element H  Has Mass    1.00783
   Atom    2 Element C  Has Mass   12.00000
   Atom    3 Element C  Has Mass   12.00000
   Atom    4 Element H  Has Mass    1.00783
   Atom    5 Element C  Has Mass   12.00000
   Atom    6 Element H  Has Mass    1.00783
   Atom    7 Element C  Has Mass   12.00000
   Atom    8 Element H  Has Mass    1.00783
   Atom    9 Element C  Has Mass   12.00000
   Atom   10 Element H  Has Mass    1.00783
   Atom   11 Element C  Has Mass   12.00000
   Atom   12 Element H  Has Mass    1.00783
   Atom   13 Element O  Has Mass   15.99491
   Atom   14 Element H  Has Mass    1.00783
   Atom   15 Element O  Has Mass   15.99491
   Atom   16 Element O  Has Mass   15.99491
   Molecular Mass:   127.039540 amu
   Principal axes and moments of inertia in amu*Bohr^2:
                             1           2           3
    Eigenvalues --      653.11715  1048.11896  1057.36649
          X               0.60301    -0.69059     0.39934
          Y               0.65576     0.71417     0.24482
          Z              -0.45426     0.11424     0.88351
   Rotational Symmetry Number is   1
   The Molecule is an Asymmetric Top
   Translational Enthalpy:        0.889 kcal/mol
   Rotational Enthalpy:           0.889 kcal/mol
   Vibrational Enthalpy:         80.083 kcal/mol
   gas constant (RT):             0.592 kcal/mol
   Translational Entropy:        40.431  cal/mol.K
   Rotational Entropy:           28.072  cal/mol.K
   Vibrational Entropy:          16.255  cal/mol.K

   Total Enthalpy:               82.453 kcal/mol
   Total Entropy:                84.759  cal/mol.K
 Total job time:  15271.97s(wall), 220037.43s(cpu) 
 Wed Jul 10 15:48:57 2024

        *************************************************************
        *                                                           *
        *  Thank you very much for using Q-Chem.  Have a nice day.  *
        *                                                           *
        *************************************************************


