
Running Job 1 of 1 Q_in.in
qchem Q_in.in_189481.0 /scratch/ari.fischer/qChem2283691.hpc-mn1/qchem189481/ 0
/usr/local/qchem-5.4.1/exe/qcprog.exe_s Q_in.in_189481.0 /scratch/ari.fischer/qChem2283691.hpc-mn1/qchem189481/
                  Welcome to Q-Chem
     A Quantum Leap Into The Future Of Chemistry


 Q-Chem 5.4, Q-Chem, Inc., Pleasanton, CA (2021)

 License issued to: Nanyang Technological University (site)

 E. Epifanovsky,  A. T. B. Gilbert,  Xintian Feng,  Joonho Lee,  Yuezhi Mao,  
 N. Mardirossian,  P. Pokhilko,  A. White,  M. Wormit,  M. P. Coons,  
 A. L. Dempwolff,  Zhengting Gan,  D. Hait,  P. R. Horn,  L. D. Jacobson,  
 I. Kaliman,  J. Kussmann,  A. W. Lange,  Ka Un Lao,  D. S. Levine,  Jie Liu,  
 S. C. McKenzie,  A. F. Morrison,  K. Nanda,  F. Plasser,  D. R. Rehn,  
 M. L. Vidal,  Zhi-Qiang You,  Ying Zhu,  B. Alam,  B. Albrecht,  
 A. Aldossary,  E. Alguire,  J. H. Andersen,  D. Barton,  K. Begam,  A. Behn,  
 Y. A. Bernard,  E. J. Berquist,  H. Burton,  A. Carreras,  K. Carter-Fenk,  
 R. Chakraborty,  A. D. Chien,  K. D. Closser,  V. Cofer-Shabica,  
 S. Dasgupta,  Jia Deng,  M. de Wergifosse,  M. Diedenhofen,  Hainam Do,  
 S. Ehlert,  Po-Tung Fang,  S. Fatehi,  Qingguo Feng,  T. Friedhoff,  
 J. Gayvert,  Qinghui Ge,  G. Gidofalvi,  M. Goldey,  J. Gomes,  
 C. Gonzalez-Espinoza,  S. Gulania,  A. Gunina,  M. W. D. Hanson-Heine,  
 P. H. P. Harbach,  A. W. Hauser,  M. F. Herbst,  M. Hernandez Vera,  
 M. Hodecker,  Z. C. Holden,  S. Houck,  Xunkun Huang,  Kerwin Hui,  
 B. C. Huynh,  M. Ivanov,  Hyunjun Ji,  Hanjie Jiang,  B. Kaduk,  S. Kaehler,  
 K. Khistyaev,  Jaehoon Kim,  P. Klunzinger,  Z. Koczor-Benda,  
 Joong Hoon Koh,  D. Kosenkov,  L. Koulias,  T. Kowalczyk,  C. M. Krauter,  
 K. Kue,  A. Kunitsa,  T. Kus,  A. Landau,  K. V. Lawler,  D. Lefrancois,  
 S. Lehtola,  Rain Li,  Yi-Pei Li,  Jiashu Liang,  M. Liebenthal,  
 Hung-Hsuan Lin,  You-Sheng Lin,  Fenglai Liu,  Kuan-Yu Liu,  
 M. Loipersberger,  A. Luenser,  A. Manjanath,  P. Manohar,  E. Mansoor,  
 S. F. Manzer,  Shan-Ping Mao,  A. V. Marenich,  T. Markovich,  S. Mason,  
 S. A. Maurer,  P. F. McLaughlin,  M. F. S. J. Menger,  J.-M. Mewes,  
 S. A. Mewes,  P. Morgante,  J. W. Mullinax,  K. J. Oosterbaan,  G. Paran,  
 Alexander C. Paul,  Suranjan K. Paul,  F. Pavosevic,  Zheng Pei,  S. Prager,  
 E. I. Proynov,  E. Ramos,  B. Rana,  A. E. Rask,  A. Rettig,  R. M. Richard,  
 F. Rob,  E. Rossomme,  T. Scheele,  M. Scheurer,  M. Schneider,  
 N. Sergueev,  S. M. Sharada,  W. Skomorowski,  D. W. Small,  C. J. Stein,  
 Yu-Chuan Su,  E. J. Sundstrom,  Zhen Tao,  J. Thirman,  T. Tsuchimochi,  
 N. M. Tubman,  S. P. Veccham,  O. Vydrov,  J. Wenzel,  J. Witte,  A. Yamada,  
 Kun Yao,  S. Yeganeh,  S. R. Yost,  A. Zech,  Igor Ying Zhang,  Xing Zhang,  
 Yu Zhang,  D. Zuev,  A. Aspuru-Guzik,  A. T. Bell,  N. A. Besley,  
 K. B. Bravaya,  B. R. Brooks,  D. Casanova,  Jeng-Da Chai,  S. Coriani,  
 C. J. Cramer,  A. E. DePrince, III,  R. A. DiStasio Jr.,  A. Dreuw,  
 B. D. Dunietz,  T. R. Furlani,  W. A. Goddard III,  S. Grimme,  
 S. Hammes-Schiffer,  T. Head-Gordon,  W. J. Hehre,  Chao-Ping Hsu,  
 T.-C. Jagau,  Yousung Jung,  A. Klamt,  Jing Kong,  D. S. Lambrecht,  
 WanZhen Liang,  N. J. Mayhall,  C. W. McCurdy,  J. B. Neaton,  
 C. Ochsenfeld,  J. A. Parkhill,  R. Peverati,  V. A. Rassolov,  Yihan Shao,  
 L. V. Slipchenko,  T. Stauch,  R. P. Steele,  J. E. Subotnik,  
 A. J. W. Thom,  A. Tkatchenko,  D. G. Truhlar,  T. Van Voorhis,  
 T. A. Wesolowski,  K. B. Whaley,  H. L. Woodcock III,  P. M. Zimmerman,  
 S. Faraji,  P. M. W. Gill,  M. Head-Gordon,  J. M. Herbert,  A. I. Krylov

 Additional authors for Version 5.4.1: 
 S. Kotaru,  Shaozhi Li,  Xiangyuan Li,  F. Matz,  A. Molle,  Haisheng Ren,  
 Yingli Su,  Hung-Yi Tsai,  C. Utku,  Fang Wang

 Contributors to earlier versions of Q-Chem not listed above: 
 R. D. Adamson,  B. Austin,  R. Baer,  J. Baker,  G. J. O. Beran,  
 K. Brandhorst,  S. T. Brown,  E. F. C. Byrd,  A. K. Chakraborty,  
 G. K. L. Chan,  Chun-Min Chang,  Yunqing Chen,  C.-L. Cheng,  
 Siu Hung Chien,  D. M. Chipman,  D. L. Crittenden,  H. Dachsel,  
 R. J. Doerksen,  A. D. Dutoi,  R. G. Edgar,  J. Fosso-Tande,  
 L. Fusti-Molnar,  D. Ghosh,  A. Ghysels,  A. Golubeva-Zadorozhnaya,  
 J. Gonthier,  M. S. Gordon,  S. R. Gwaltney,  G. Hawkins,  J. E. Herr,  
 A. Heyden,  S. Hirata,  E. G. Hohenstein,  G. Kedziora,  F. J. Keil,  
 C. Kelley,  Jihan Kim,  R. A. King,  R. Z. Khaliullin,  P. P. Korambath,  
 W. Kurlancheek,  A. Laurent,  A. M. Lee,  M. S. Lee,  S. V. Levchenko,  
 Ching Yeh Lin,  D. Liotard,  E. Livshits,  R. C. Lochan,  I. Lotan,  
 L. A. Martinez-Martinez,  P. E. Maslen,  N. Nair,  D. P. O'Neill,  
 D. Neuhauser,  E. Neuscamman,  C. M. Oana,  R. Olivares-Amaya,  R. Olson,  
 T. M. Perrine,  B. Peters,  P. A. Pieniazek,  A. Prociuk,  Y. M. Rhee,  
 J. Ritchie,  M. A. Rohrdanz,  E. Rosta,  N. J. Russ,  H. F. Schaefer III,  
 M. W. Schmidt,  N. E. Schultz,  S. Sharma,  N. Shenvi,  C. D. Sherrill,  
 A. C. Simmonett,  A. Sodt,  T. Stein,  D. Stuck,  K. S. Thanthiriwatte,  
 V. Vanovschi,  L. Vogt,  Tao Wang,  A. Warshel,  M. A. Watson,  
 C. F. Williams,  Q. Wu,  X. Xu,  Jun Yang,  W. Zhang,  Yan Zhao

 Please cite Q-Chem as follows:
 Y. Shao et al., Mol. Phys. 113, 184-215 (2015)
 DOI: 10.1080/00268976.2014.952696

 Q-Chem 5.4.1 for Intel X86 EM64T Linux

 Parts of Q-Chem use Armadillo 9.800.1 (Horizon Scraper).
 http://arma.sourceforge.net/

 Q-Chem begins on Sat Aug 17 10:56:11 2024  

 Host: 
0

     Scratch files written to /scratch/ari.fischer/qChem2283691.hpc-mn1/qchem189481//
 Aug1521 |scratch|qcdevops|jenkins|workspace|build_RNUM 8249   
 Processing $rem in /usr/local/qchem-5.4.1/config/preferences:
 Processing $rem in /home/ari.fischer/.qchemrc:
 Symmetry turned off for PCM/SM12/SMD calculation


!!********************************************.
!!******************Warning*******************.
!!Desired Analytical derivatives not available.
!!Finite difference job might take a long time.
!!********************************************.
!!********************************************.


 2-order derivative to be evaluated numerically with 1-order analytical derivatives

 Checking the input file for inconsistencies... 	...done.

--------------------------------------------------------------
User input:
--------------------------------------------------------------
$molecule
0 2
C    0.8592241   -0.1971614    0.1678858
O    0.6690875   -1.5224491    0.6187156
C    2.3569171    0.1720295    0.0849392
O    3.0543850   -0.7384739   -0.7380161
O    2.4877454    1.4669156   -0.2982082
C    2.9935967    0.1963500    1.4735868
C    4.3026865    0.2342668    1.6875439
C    5.3765460    0.2495937    0.6347771
O    6.4990590    0.8685453    1.2054444
O    5.7420289   -1.0786732    0.2863778
H    0.3627009    0.5262147    0.8131911
H    0.4427178   -0.1310736   -0.8359240
H    0.7945470   -1.5475479    1.5737247
H    2.6185039   -0.7648073   -1.5998088
H    2.2951174    0.2153660    2.2994869
H    4.6660887    0.2027140    2.7092130
H    5.0618161    0.7848646   -0.2602700
H    7.1132192    1.0914706    0.4965222
H    5.0141832   -1.4248695   -0.2492307
$end

$rem
BASIS = 6-311++G(2df,2p)
GUI = 2
JOB_TYPE = Frequency
METHOD = wB97M-V
SOLVENT_METHOD = SMD
SCF_ALGORITHM = DIIS_GDM
MAX_SCF_CYCLES = 400
SCF_CONVERGENCE = 7
THRESH = 12
$end
--------------------------------------------------------------
 ----------------------------------------------------------------
             Standard Nuclear Orientation (Angstroms)
    I     Atom           X                Y                Z
 ----------------------------------------------------------------
    1      C       0.8592241000    -0.1971614000     0.1678858000
    2      O       0.6690875000    -1.5224491000     0.6187156000
    3      C       2.3569171000     0.1720295000     0.0849392000
    4      O       3.0543850000    -0.7384739000    -0.7380161000
    5      O       2.4877454000     1.4669156000    -0.2982082000
    6      C       2.9935967000     0.1963500000     1.4735868000
    7      C       4.3026865000     0.2342668000     1.6875439000
    8      C       5.3765460000     0.2495937000     0.6347771000
    9      O       6.4990590000     0.8685453000     1.2054444000
   10      O       5.7420289000    -1.0786732000     0.2863778000
   11      H       0.3627009000     0.5262147000     0.8131911000
   12      H       0.4427178000    -0.1310736000    -0.8359240000
   13      H       0.7945470000    -1.5475479000     1.5737247000
   14      H       2.6185039000    -0.7648073000    -1.5998088000
   15      H       2.2951174000     0.2153660000     2.2994869000
   16      H       4.6660887000     0.2027140000     2.7092130000
   17      H       5.0618161000     0.7848646000    -0.2602700000
   18      H       7.1132192000     1.0914706000     0.4965222000
   19      H       5.0141832000    -1.4248695000    -0.2492307000
 ----------------------------------------------------------------
 Nuclear Repulsion Energy =         576.87393352 hartrees
 There are       40 alpha and       39 beta electrons
 Requested basis set is 6-311++G(2df,2p)
 There are 134 shells and 430 basis functions

 Total QAlloc Memory Limit 288000 MB
 Mega-Array Size       188 MB
 MEM_STATIC part       192 MB
 
 Citation of the SMD model:
 Marenich, A.V.; Cramer, C.J.; Truhlar, D.G.
 J. Phys. Chem. B 2009, 113, 6378-6396.
 iSolventCode=           1
 Solvent: water                                                           
 
 vradii
            1           2           3           4           5           6
    1   1.8500000   1.5200000   1.8500000   1.5200000   1.5200000   1.8500000
            7           8           9          10          11          12
    1   1.8500000   1.8500000   1.5200000   1.5200000   1.2000000   1.2000000
           13          14          15          16          17          18
    1   1.2000000   1.2000000   1.2000000   1.2000000   1.2000000   1.2000000
           19
    1   1.2000000
 Changing PCM_VDW_RADII to SMD_RADIUS
 Discretize the solute cavity surface with Lebedev spheres
	Using 110 Lebedev grid points for each H atom
	Using 194 Lebedev grid points for other atoms
	Atomic van der Waals radii will be scaled by 1.20
 Remove points where switching function is < 1.0e-08
 Keep 1472 surface tesserae and discard 1458 interior tesserae
 Molecular Surface Area = 164.704 Angst**2
 A cutoff of  1.0D-12 yielded   7919 shell pairs
 There are     81058 function pairs (    100415 Cartesian)
 Smallest overlap matrix eigenvalue = 4.22E-06
 Guess from superposition of atomic densities
 Warning:  Energy on first SCF cycle will be non-variational
 SAD guess density has 79.000000 electrons

 -----------------------------------------------------------------------
  General SCF calculation program by
  Eric Jon Sundstrom, Paul Horn, Yuezhi Mao, Dmitri Zuev, Alec White,
  David Stuck, Shaama M.S., Shane Yost, Joonho Lee, David Small,
  Daniel Levine, Susi Lehtola, Hugh Burton, Evgeny Epifanovsky,
  Bang C. Huynh
 -----------------------------------------------------------------------
 Exchange:     0.1500 Hartree-Fock + 1.0000 wB97M-V + LR-HF
 Correlation:  1.0000 wB97M-V
 Using SG-2 standard quadrature grid
 Nonlocal Correlation:  VV10 with C = 0.0100 and b = 6.00 and scale = 1.00000
 Grid used for NLC:  SG-1 standard quadrature
 using 16 threads for integral computing
 -------------------------------------------------------
 OpenMP Integral computing Module                
 Release: version 1.0, May 2013, Q-Chem Inc. Pittsburgh 
 -------------------------------------------------------
 
 Citation of the SMD model:
 Marenich, A.V.; Cramer, C.J.; Truhlar, D.G.
 J. Phys. Chem. B 2009, 113, 6378-6396.
 iSolventCode=           1
 Solvent: water                                                           
 
 vradii
            1           2           3           4           5           6
    1   1.8500000   1.5200000   1.8500000   1.5200000   1.5200000   1.8500000
            7           8           9          10          11          12
    1   1.8500000   1.8500000   1.5200000   1.5200000   1.2000000   1.2000000
           13          14          15          16          17          18
    1   1.2000000   1.2000000   1.2000000   1.2000000   1.2000000   1.2000000
           19
    1   1.2000000
 -------------------------------------------------------
 OpenMP BLAS3 based DFT computing Module                
 Release: version 1.0, May 2013, Q-Chem Inc. Pittsburgh 
 -------------------------------------------------------
 A unrestricted SCF calculation will be
 performed using DIIS, GDM
 SCF converges when RMS gradient is below 1.0e-07
 ---------------------------------------
  Cycle       Energy         DIIS error
 ---------------------------------------
    1    -574.1159420263      1.20e-02  
    2    -571.7875894777      1.66e-03  Done DIIS. Switching to GDM
 ---------------------------------------
  Cycle       Energy        RMS Gradient
 ---------------------------------------
    1    -571.7875894777      1.74e-01   Descent step
    2    -571.9687010782      5.88e-02   Normal BFGS step
    3    -572.0021627478      5.49e-02   Normal BFGS step
    4    -572.0079150950      9.27e-03   Normal BFGS step
    5    -572.0116676537      1.01e-02   Normal BFGS step
    6    -572.0128309546      8.31e-03   Normal BFGS step
    7    -572.0130230385      3.17e-03   Normal BFGS step
    8    -572.0130761131      1.76e-03   Normal BFGS step
    9    -572.0130883323      1.44e-03   Normal BFGS step
   10    -572.0130959551      1.05e-03   Normal BFGS step
   11    -572.0131012795      8.70e-04   Normal BFGS step
   12    -572.0131046609      9.67e-04   Normal BFGS step
   13    -572.0131072837      7.22e-04   Normal BFGS step
   14    -572.0131090671      3.84e-04   Normal BFGS step
   15    -572.0131099045      1.73e-04   Normal BFGS step
   16    -572.0131102225      8.09e-05   Normal BFGS step
   17    -572.0131103455      5.94e-05   Normal BFGS step
   18    -572.0131103735      2.83e-05   Normal BFGS step
   19    -572.0131103785      9.59e-06   Normal BFGS step
   20    -572.0131103801      4.24e-06   Normal BFGS step
   21    -572.0131103802      2.80e-06   Normal BFGS step
   22    -572.0131103803      1.07e-06   Normal BFGS step
   23    -572.0131103803      5.63e-07   Normal BFGS step
   24    -572.0131103802      2.29e-07   Normal BFGS step
   25    -572.0131103802      8.34e-08  Convergence criterion met
 ---------------------------------------
 SCF time:   CPU 2948.50s  wall 201.00s 
<S^2> =          0.756291410
(3)  G-ENP(liq) elect-nuc-pol free energy of system     -572.013110380 a.u.
(4)  G-CDS(liq) cavity-dispersion-solvent structure 
     free energy                                                4.0297 kcal/mol
(6)  G-S(liq) free energy of system                     -572.006688699 a.u.
 SCF   energy in the final basis set =     -572.0066886989
 Total energy in the final basis set =     -572.0066886989
 
 --------------------------------------------------------------
 
                    Orbital Energies (a.u.)
 --------------------------------------------------------------
 
 Alpha MOs
 -- Occupied --
-19.3904 -19.3512 -19.3495 -19.3470 -19.3409 -10.4659 -10.4509 -10.3974
-10.3707 -10.3640  -1.2192  -1.2017  -1.1653  -1.1408  -1.1338  -0.9347
 -0.8571  -0.8061  -0.7502  -0.6826  -0.6738  -0.6469  -0.6361  -0.6107
 -0.6072  -0.5918  -0.5556  -0.5426  -0.5349  -0.5176  -0.4943  -0.4776
 -0.4674  -0.4515  -0.4392  -0.4294  -0.4228  -0.3988  -0.3847  -0.3699
 -- Virtual --
  0.0247   0.0350   0.0390   0.0484   0.0515   0.0581   0.0634   0.0742
  0.0806   0.0956   0.1028   0.1038   0.1242   0.1310   0.1312   0.1394
  0.1463   0.1528   0.1590   0.1646   0.1733   0.1749   0.1768   0.1852
  0.1868   0.1942   0.2072   0.2096   0.2195   0.2304   0.2427   0.2518
  0.2611   0.2658   0.2714   0.2756   0.2869   0.2941   0.3005   0.3029
  0.3107   0.3118   0.3223   0.3288   0.3302   0.3356   0.3444   0.3505
  0.3590   0.3618   0.3646   0.3751   0.3791   0.3847   0.3911   0.3946
  0.4025   0.4114   0.4239   0.4276   0.4389   0.4415   0.4468   0.4718
  0.4825   0.4880   0.5054   0.5228   0.5568   0.5614   0.5804   0.5941
  0.6051   0.6072   0.6228   0.6297   0.6443   0.6457   0.6609   0.6719
  0.6776   0.6846   0.6949   0.7006   0.7128   0.7241   0.7270   0.7363
  0.7436   0.7659   0.7873   0.7935   0.7967   0.8191   0.8249   0.8559
  0.8638   0.8805   0.8890   0.9148   0.9210   0.9657   0.9714   0.9945
  1.0084   1.0155   1.0311   1.0506   1.0726   1.0802   1.0901   1.1023
  1.1085   1.1135   1.1249   1.1344   1.1525   1.1608   1.1697   1.1825
  1.1963   1.2066   1.2190   1.2253   1.2317   1.2460   1.2487   1.2559
  1.2614   1.2712   1.2733   1.2896   1.3064   1.3379   1.3432   1.3634
  1.3813   1.3940   1.4088   1.4186   1.4195   1.4419   1.4607   1.4798
  1.4928   1.4982   1.5249   1.5297   1.5385   1.5585   1.5598   1.5771
  1.5876   1.6037   1.6204   1.6293   1.6308   1.6484   1.6787   1.6905
  1.7041   1.7275   1.7784   1.7873   1.7938   1.7989   1.8144   1.8527
  1.8929   1.9296   1.9450   1.9681   2.0075   2.0094   2.0344   2.0860
  2.1154   2.1647   2.1909   2.1922   2.2111   2.2396   2.2829   2.3293
  2.3427   2.3628   2.3780   2.4055   2.4308   2.4377   2.4584   2.4860
  2.5128   2.5738   2.6168   2.6525   2.7197   2.7540   2.7672   2.8082
  2.8117   2.8191   2.8464   2.8708   2.8802   2.8991   2.9059   2.9361
  2.9610   2.9690   2.9846   3.0197   3.0571   3.0943   3.1282   3.1542
  3.1805   3.1883   3.2192   3.2349   3.2442   3.2814   3.2986   3.3218
  3.3454   3.3495   3.3595   3.3860   3.4032   3.4266   3.4396   3.4634
  3.4728   3.4765   3.4912   3.5192   3.5377   3.5584   3.5882   3.6015
  3.6242   3.6320   3.6594   3.7000   3.7129   3.7222   3.7420   3.7481
  3.7615   3.7793   3.7950   3.8100   3.8339   3.8471   3.8612   3.8657
  3.8934   3.9038   3.9182   3.9247   3.9519   3.9654   3.9870   4.0025
  4.0218   4.0383   4.0893   4.1204   4.1316   4.1551   4.1768   4.1963
  4.2210   4.2333   4.2583   4.2724   4.2856   4.3036   4.3274   4.3368
  4.3853   4.3968   4.4090   4.4266   4.4472   4.4580   4.4700   4.5102
  4.5365   4.5604   4.6060   4.6139   4.6526   4.7810   4.8175   4.8601
  4.8972   5.0461   5.1115   5.1285   5.1974   5.2089   5.2341   5.2529
  5.2611   5.2766   5.2819   5.2896   5.2950   5.3071   5.3164   5.3190
  5.3542   5.3625   5.3731   5.4014   5.4169   5.4365   5.4442   5.4563
  5.4776   5.5215   5.5423   5.5625   5.5748   5.5849   5.6124   5.6168
  5.6523   5.6661   5.6847   5.7016   5.7399   5.7498   5.8003   5.8324
  5.9202   5.9303   5.9793   5.9976   6.0199   6.0508   6.0798   6.1132
  6.1255   6.2723   6.5245   6.5817   6.6239   6.7546   6.8444   6.9487
  6.9622   7.0641   7.1019   7.1357   7.1428   7.2512   7.2747   7.2966
  7.3111   7.3145   7.3272   7.3434   7.3535   7.3849   7.4031   7.4220
  7.4432   7.4749   7.6141   7.6314   7.6518   7.6883   7.7460   7.7631
  7.7805   7.8172   7.9061   7.9277  24.3778  24.7304  24.8140  24.9171
 25.2117  50.5784  50.5990  50.6100  50.6188  50.6879
 
 Beta MOs
 -- Occupied --
-19.3694 -19.3513 -19.3495 -19.3467 -19.3406 -10.4661 -10.4509 -10.3963
-10.3689 -10.3626  -1.2062  -1.1998  -1.1629  -1.1346  -1.1111  -0.9283
 -0.8497  -0.8032  -0.7440  -0.6808  -0.6711  -0.6451  -0.6286  -0.6045
 -0.5908  -0.5881  -0.5511  -0.5394  -0.5277  -0.5041  -0.4794  -0.4676
 -0.4580  -0.4414  -0.4269  -0.4135  -0.4023  -0.3911  -0.3706
 -- Virtual --
 -0.0738   0.0248   0.0352   0.0393   0.0489   0.0542   0.0590   0.0647
  0.0764   0.0816   0.0955   0.1033   0.1066   0.1244   0.1313   0.1315
  0.1395   0.1467   0.1531   0.1597   0.1650   0.1740   0.1749   0.1773
  0.1860   0.1875   0.1961   0.2076   0.2101   0.2202   0.2311   0.2449
  0.2522   0.2615   0.2665   0.2716   0.2762   0.2879   0.2954   0.3011
  0.3034   0.3117   0.3129   0.3231   0.3304   0.3344   0.3362   0.3452
  0.3510   0.3612   0.3623   0.3653   0.3757   0.3799   0.3889   0.3926
  0.3959   0.4034   0.4122   0.4253   0.4311   0.4402   0.4444   0.4477
  0.4734   0.4850   0.4912   0.5062   0.5240   0.5584   0.5626   0.5820
  0.5958   0.6068   0.6081   0.6241   0.6305   0.6453   0.6469   0.6622
  0.6734   0.6787   0.6853   0.6960   0.7014   0.7148   0.7247   0.7285
  0.7374   0.7461   0.7678   0.7885   0.7939   0.7982   0.8212   0.8271
  0.8580   0.8642   0.8836   0.8894   0.9157   0.9221   0.9666   0.9733
  0.9956   1.0097   1.0163   1.0323   1.0528   1.0730   1.0812   1.0907
  1.1035   1.1101   1.1168   1.1275   1.1357   1.1539   1.1627   1.1709
  1.1849   1.1993   1.2091   1.2261   1.2298   1.2377   1.2480   1.2502
  1.2595   1.2657   1.2732   1.2789   1.2919   1.3077   1.3395   1.3466
  1.3650   1.3823   1.3947   1.4103   1.4204   1.4236   1.4437   1.4623
  1.4831   1.4961   1.5027   1.5258   1.5314   1.5401   1.5605   1.5619
  1.5797   1.5892   1.6055   1.6235   1.6310   1.6365   1.6509   1.6829
  1.6945   1.7069   1.7304   1.7886   1.7965   1.7985   1.8020   1.8164
  1.8665   1.9093   1.9336   1.9487   1.9750   2.0110   2.0129   2.0376
  2.0890   2.1202   2.1685   2.1935   2.1980   2.2163   2.2406   2.2909
  2.3302   2.3453   2.3663   2.3794   2.4059   2.4314   2.4384   2.4596
  2.4921   2.5164   2.5796   2.6197   2.6544   2.7220   2.7557   2.7699
  2.8117   2.8143   2.8221   2.8484   2.8740   2.8822   2.9026   2.9088
  2.9391   2.9653   2.9729   2.9891   3.0239   3.0608   3.0984   3.1319
  3.1570   3.1832   3.1905   3.2219   3.2374   3.2473   3.2838   3.3017
  3.3243   3.3475   3.3520   3.3633   3.3894   3.4060   3.4295   3.4444
  3.4659   3.4755   3.4793   3.4951   3.5227   3.5405   3.5623   3.5913
  3.6037   3.6260   3.6349   3.6617   3.7019   3.7159   3.7242   3.7441
  3.7494   3.7633   3.7807   3.7975   3.8128   3.8363   3.8479   3.8635
  3.8669   3.8952   3.9066   3.9190   3.9259   3.9536   3.9679   3.9912
  4.0044   4.0241   4.0410   4.0913   4.1227   4.1346   4.1576   4.1783
  4.1988   4.2225   4.2361   4.2606   4.2735   4.2872   4.3051   4.3288
  4.3383   4.3875   4.3987   4.4109   4.4296   4.4502   4.4598   4.4716
  4.5123   4.5386   4.5640   4.6084   4.6171   4.6551   4.7862   4.8230
  4.8656   4.9024   5.0506   5.1771   5.1863   5.2051   5.2295   5.2354
  5.2691   5.2719   5.2806   5.2916   5.2954   5.3033   5.3155   5.3214
  5.3353   5.3653   5.3809   5.3833   5.4161   5.4360   5.4483   5.4584
  5.4676   5.4811   5.5300   5.5556   5.5658   5.5769   5.5888   5.6170
  5.6200   5.6536   5.6786   5.6880   5.7054   5.7435   5.7518   5.8084
  5.8407   5.9213   5.9332   5.9824   5.9987   6.0253   6.0584   6.0956
  6.1228   6.1390   6.2828   6.5277   6.5846   6.6269   6.7568   6.8607
  7.0304   7.0589   7.0650   7.1070   7.1423   7.1466   7.2593   7.2761
  7.3009   7.3130   7.3176   7.3295   7.3446   7.3544   7.3970   7.4092
  7.4242   7.4526   7.5303   7.6298   7.6327   7.6536   7.7044   7.7470
  7.7693   7.7809   7.8285   7.9071   7.9380  24.3790  24.7314  24.8141
 24.9168  25.2133  50.5815  50.6028  50.6147  50.6209  50.6893
 --------------------------------------------------------------
 
          Ground-State Mulliken Net Atomic Charges

     Atom                 Charge (a.u.)    Spin (a.u.)
  --------------------------------------------------------
      1 C                    -0.281542       0.023701
      2 O                    -0.387554       0.010143
      3 C                    -0.235068       0.019962
      4 O                    -0.437305      -0.001461
      5 O                    -0.215874       0.799257
      6 C                     0.008398       0.040931
      7 C                    -0.085627       0.104556
      8 C                    -0.225081      -0.002168
      9 O                    -0.436966       0.000736
     10 O                    -0.433413       0.005694
     11 H                     0.251863      -0.002059
     12 H                     0.220099       0.000896
     13 H                     0.329539      -0.000546
     14 H                     0.374580       0.000392
     15 H                     0.300934       0.000378
     16 H                     0.282775       0.000537
     17 H                     0.296585      -0.000942
     18 H                     0.336015      -0.000124
     19 H                     0.337643       0.000119
  --------------------------------------------------------
  Sum of atomic charges =    -0.000000
  Sum of spin   charges =     1.000000

 -----------------------------------------------------------------
                    Cartesian Multipole Moments
 -----------------------------------------------------------------
    Charge (ESU x 10^10)
                -0.0000
    Dipole Moment (Debye)
         X      -3.5010      Y       0.8271      Z      -0.6806
       Tot       3.6612
    Quadrupole Moments (Debye-Ang)
        XX     -85.1999     XY       5.9449     YY     -69.9237
        XZ     -12.3320     YZ      -0.2234     ZZ     -50.1922
    Octopole Moments (Debye-Ang^2)
       XXX    -756.8430    XXY      69.1676    XYY    -228.2954
       YYY       6.8260    XXZ    -122.6482    XYZ      -0.8997
       YYZ     -34.7099    XZZ    -200.9599    YZZ      -9.1611
       ZZZ     -83.7197
    Hexadecapole Moments (Debye-Ang^3)
      XXXX   -6333.1381   XXXY     489.7227   XXYY   -1075.2336
      XYYY     -63.7721   YYYY    -362.0573   XXXZ   -1019.7984
      XXYZ     -24.5283   XYYZ    -166.8644   YYYZ     -17.4650
      XXZZ   -1083.6497   XYZZ     -48.7237   YYZZ    -118.5840
      XZZZ    -394.5197   YZZZ     -21.7313   ZZZZ    -327.7588
 -----------------------------------------------------------------
 Calculating analytic gradient of the SCF energy
 Gradient of CDS energy
            1           2           3           4           5           6
    1  -0.0012191   0.0004498   0.0009232  -0.0004880  -0.0005051  -0.0001299
    2  -0.0009480   0.0010810   0.0052187   0.0006686  -0.0054775   0.0000558
    3   0.0001904  -0.0004886  -0.0022478   0.0006829   0.0016029   0.0002021
            7           8           9          10          11          12
    1   0.0000400   0.0030544  -0.0027885   0.0000043   0.0002418   0.0001652
    2  -0.0000579   0.0017447  -0.0017360   0.0001817   0.0001219  -0.0000837
    3   0.0002878   0.0010387  -0.0012727   0.0002226   0.0002304  -0.0001636
           13          14          15          16          17          18
    1  -0.0001736   0.0001400  -0.0001208   0.0001347  -0.0002019   0.0004441
    2  -0.0003406  -0.0001935   0.0000160   0.0000166  -0.0001140   0.0002509
    3   0.0003317  -0.0004605   0.0000374   0.0001739  -0.0000676  -0.0000647
           19
    1   0.0000295
    2  -0.0004047
    3  -0.0002351
 Gradient of SCF Energy
            1           2           3           4           5           6
    1   0.0102735  -0.0014503  -0.0030494   0.0048178   0.0008510   0.0073548
    2  -0.0100570  -0.0028154  -0.0010975  -0.0006059   0.0041588   0.0022237
    3   0.0055111  -0.0181880  -0.0025654   0.0151241   0.0003198  -0.0076153
            7           8           9          10          11          12
    1   0.0040309  -0.0040267  -0.0032306   0.0057175  -0.0042871  -0.0029459
    2  -0.0000827  -0.0012677  -0.0032083  -0.0028570   0.0060110   0.0022002
    3  -0.0075991   0.0014244   0.0110597   0.0036631   0.0077186  -0.0103670
           13          14          15          16          17          18
    1   0.0018312  -0.0075374  -0.0099392  -0.0013610   0.0009404   0.0044396
    2   0.0031935   0.0001689  -0.0007983  -0.0003459   0.0012032   0.0035828
    3   0.0169948  -0.0145654   0.0106165   0.0032476  -0.0024213  -0.0090014
           19
    1  -0.0024292
    2   0.0003937
    3  -0.0033568
 Max gradient component =       1.819E-02
 RMS gradient           =       6.548E-03
 Computing fast CPCM-SWIG gradient
 Updating gradient with PCM contributions...
 -- total gradient after adding PCM contribution --
---------------------------------------------------
  Atom         X              Y              Z     
---------------------------------------------------
   1      -0.000119      -0.000035      -0.000005
   2       0.000039       0.000021       0.000009
   3       0.000158       0.000183      -0.000130
   4      -0.000030      -0.000024       0.000014
   5      -0.000054      -0.000161       0.000016
   6       0.000017       0.000005       0.000087
   7      -0.000026      -0.000022      -0.000010
   8      -0.000036       0.000083       0.000016
   9       0.000063      -0.000017      -0.000001
  10      -0.000039      -0.000004       0.000019
  11       0.000017      -0.000018      -0.000015
  12       0.000016      -0.000003      -0.000011
  13      -0.000020      -0.000012      -0.000025
  14       0.000031       0.000021       0.000004
  15      -0.000016      -0.000000      -0.000028
  16      -0.000013      -0.000023       0.000000
  17       0.000012      -0.000038       0.000018
  18      -0.000022       0.000050       0.000046
  19       0.000022      -0.000008      -0.000005
---------------------------------------------------
 Number of fixed atoms: 0
 Gradient time:  CPU 313.84 s  wall 26.52 s
 ######################################################
 ######################################################
 # Starting finite difference calculation for IDERIV  #
 Finite diff step size:  1.88973e-03 a.u.
 ----------------------------------------------------------------
             Standard Nuclear Orientation (Angstroms)
    I     Atom           X                Y                Z
 ----------------------------------------------------------------
    1      C       0.8602241000    -0.1971614000     0.1678858000
    2      O       0.6690875000    -1.5224491000     0.6187156000
    3      C       2.3569171000     0.1720295000     0.0849392000
    4      O       3.0543850000    -0.7384739000    -0.7380161000
    5      O       2.4877454000     1.4669156000    -0.2982082000
    6      C       2.9935967000     0.1963500000     1.4735868000
    7      C       4.3026865000     0.2342668000     1.6875439000
    8      C       5.3765460000     0.2495937000     0.6347771000
    9      O       6.4990590000     0.8685453000     1.2054444000
   10      O       5.7420289000    -1.0786732000     0.2863778000
   11      H       0.3627009000     0.5262147000     0.8131911000
   12      H       0.4427178000    -0.1310736000    -0.8359240000
   13      H       0.7945470000    -1.5475479000     1.5737247000
   14      H       2.6185039000    -0.7648073000    -1.5998088000
   15      H       2.2951174000     0.2153660000     2.2994869000
   16      H       4.6660887000     0.2027140000     2.7092130000
   17      H       5.0618161000     0.7848646000    -0.2602700000
   18      H       7.1132192000     1.0914706000     0.4965222000
   19      H       5.0141832000    -1.4248695000    -0.2492307000
 ----------------------------------------------------------------
 Nuclear Repulsion Energy =         576.89210625 hartrees
 There are       40 alpha and       39 beta electrons
 Discretize the solute cavity surface with Lebedev spheres
	Using 110 Lebedev grid points for each H atom
	Using 194 Lebedev grid points for other atoms
	Atomic van der Waals radii will be scaled by 1.20
 Remove points where switching function is < 1.0e-08
 Keep 1472 surface tesserae and discard 1458 interior tesserae
 Molecular Surface Area = 164.700 Angst**2
 Requested basis set is 6-311++G(2df,2p)
 There are 134 shells and 430 basis functions
 A cutoff of  1.0D-12 yielded   7919 shell pairs
 There are     81058 function pairs (    100415 Cartesian)
 Smallest overlap matrix eigenvalue = 4.22E-06
 Guess MOs from SCF MO coefficient file

 -----------------------------------------------------------------------
  General SCF calculation program by
  Eric Jon Sundstrom, Paul Horn, Yuezhi Mao, Dmitri Zuev, Alec White,
  David Stuck, Shaama M.S., Shane Yost, Joonho Lee, David Small,
  Daniel Levine, Susi Lehtola, Hugh Burton, Evgeny Epifanovsky,
  Bang C. Huynh
 -----------------------------------------------------------------------
 Exchange:     0.1500 Hartree-Fock + 1.0000 wB97M-V + LR-HF
 Correlation:  1.0000 wB97M-V
 Using SG-2 standard quadrature grid
 Nonlocal Correlation:  VV10 with C = 0.0100 and b = 6.00 and scale = 1.00000
 Grid used for NLC:  SG-1 standard quadrature
 
 Citation of the SMD model:
 Marenich, A.V.; Cramer, C.J.; Truhlar, D.G.
 J. Phys. Chem. B 2009, 113, 6378-6396.
 iSolventCode=           1
 Solvent: water                                                           
 
 vradii
            1           2           3           4           5           6
    1   1.8500000   1.5200000   1.8500000   1.5200000   1.5200000   1.8500000
            7           8           9          10          11          12
    1   1.8500000   1.8500000   1.5200000   1.5200000   1.2000000   1.2000000
           13          14          15          16          17          18
    1   1.2000000   1.2000000   1.2000000   1.2000000   1.2000000   1.2000000
           19
    1   1.2000000
 -------------------------------------------------------
 OpenMP BLAS3 based DFT computing Module                
 Release: version 1.0, May 2013, Q-Chem Inc. Pittsburgh 
 -------------------------------------------------------
 A unrestricted SCF calculation will be
 performed using Roothaan-Hall, DIIS, GDM
 SCF converges when RMS gradient is below 1.0e-07
 ---------------------------------------
  Cycle       Energy         DIIS error
 ---------------------------------------
    1    -571.9640128299      2.17e-04  Roothaan Step
 ---------------------------------------
  Cycle       Energy         DIIS error
 ---------------------------------------
    1    -572.0052585675      2.38e-04  
    2    -572.0107089735      1.87e-04  Done DIIS. Switching to GDM
 ---------------------------------------
  Cycle       Energy        RMS Gradient
 ---------------------------------------
    1    -572.0107089735      5.95e-03   Normal BFGS step
    2    -572.0108360022      8.89e-03   Normal BFGS step
    3    -572.0130818102      7.11e-04   Normal BFGS step
    4    -572.0131016545      4.23e-04   Normal BFGS step
    5    -572.0131070001      1.28e-04   Normal BFGS step
    6    -572.0131073134      1.42e-04   Normal BFGS step
    7    -572.0131074614      8.04e-05   Normal BFGS step
    8    -572.0131074972      3.64e-05   Normal BFGS step
    9    -572.0131075066      2.00e-05   Normal BFGS step
   10    -572.0131075095      1.74e-05   Normal BFGS step
   11    -572.0131075107      1.40e-05   Normal BFGS step
   12    -572.0131075116      9.18e-06   Normal BFGS step
   13    -572.0131075123      1.20e-05   Normal BFGS step
   14    -572.0131075128      1.10e-05   Normal BFGS step
   15    -572.0131075130      7.18e-06   Normal BFGS step
   16    -572.0131075132      2.95e-06   Normal BFGS step
   17    -572.0131075132      1.46e-06   Normal BFGS step
   18    -572.0131075133      5.88e-07   Normal BFGS step
   19    -572.0131075133      3.29e-07   Normal BFGS step
   20    -572.0131075133      1.39e-07   Normal BFGS step
   21    -572.0131075133      6.79e-08  Convergence criterion met
 ---------------------------------------
 SCF time:   CPU 2550.71s  wall 174.00s 
<S^2> =          0.756295796
(3)  G-ENP(liq) elect-nuc-pol free energy of system     -572.013107513 a.u.
(4)  G-CDS(liq) cavity-dispersion-solvent structure 
     free energy                                                4.0282 kcal/mol
(6)  G-S(liq) free energy of system                     -572.006688129 a.u.
 SCF   energy in the final basis set =     -572.0066881292
 Total energy in the final basis set =     -572.0066881292
 
 --------------------------------------------------------------
 
                    Orbital Energies (a.u.)
 --------------------------------------------------------------
 
 Alpha MOs
 -- Occupied --
-19.3904 -19.3512 -19.3495 -19.3469 -19.3409 -10.4659 -10.4509 -10.3974
-10.3707 -10.3640  -1.2192  -1.2017  -1.1652  -1.1408  -1.1338  -0.9347
 -0.8572  -0.8061  -0.7502  -0.6827  -0.6738  -0.6469  -0.6361  -0.6107
 -0.6072  -0.5918  -0.5555  -0.5426  -0.5349  -0.5176  -0.4943  -0.4776
 -0.4674  -0.4515  -0.4391  -0.4294  -0.4228  -0.3988  -0.3848  -0.3699
 -- Virtual --
  0.0247   0.0350   0.0390   0.0484   0.0515   0.0580   0.0634   0.0742
  0.0806   0.0956   0.1028   0.1038   0.1242   0.1310   0.1312   0.1394
  0.1463   0.1529   0.1590   0.1646   0.1733   0.1749   0.1768   0.1852
  0.1868   0.1942   0.2072   0.2096   0.2195   0.2304   0.2428   0.2518
  0.2611   0.2658   0.2714   0.2756   0.2869   0.2941   0.3005   0.3029
  0.3107   0.3118   0.3223   0.3289   0.3302   0.3356   0.3445   0.3506
  0.3590   0.3618   0.3646   0.3751   0.3791   0.3847   0.3911   0.3946
  0.4025   0.4114   0.4239   0.4276   0.4389   0.4415   0.4468   0.4718
  0.4826   0.4880   0.5054   0.5228   0.5568   0.5614   0.5804   0.5941
  0.6051   0.6072   0.6229   0.6297   0.6443   0.6457   0.6609   0.6719
  0.6775   0.6846   0.6949   0.7005   0.7128   0.7240   0.7270   0.7363
  0.7436   0.7659   0.7873   0.7935   0.7967   0.8191   0.8249   0.8559
  0.8638   0.8806   0.8890   0.9147   0.9210   0.9657   0.9714   0.9945
  1.0085   1.0155   1.0310   1.0506   1.0726   1.0802   1.0901   1.1023
  1.1085   1.1135   1.1249   1.1344   1.1525   1.1608   1.1697   1.1825
  1.1962   1.2066   1.2190   1.2254   1.2317   1.2460   1.2487   1.2560
  1.2614   1.2712   1.2733   1.2895   1.3064   1.3378   1.3432   1.3633
  1.3814   1.3941   1.4089   1.4187   1.4195   1.4418   1.4607   1.4799
  1.4928   1.4982   1.5249   1.5297   1.5385   1.5586   1.5598   1.5770
  1.5876   1.6037   1.6204   1.6293   1.6309   1.6485   1.6788   1.6907
  1.7043   1.7275   1.7784   1.7873   1.7938   1.7989   1.8144   1.8527
  1.8929   1.9296   1.9451   1.9683   2.0076   2.0095   2.0343   2.0860
  2.1155   2.1648   2.1909   2.1922   2.2112   2.2396   2.2830   2.3293
  2.3427   2.3627   2.3780   2.4056   2.4309   2.4378   2.4586   2.4860
  2.5128   2.5739   2.6169   2.6528   2.7198   2.7540   2.7672   2.8083
  2.8118   2.8191   2.8465   2.8709   2.8801   2.8992   2.9059   2.9362
  2.9610   2.9689   2.9846   3.0197   3.0571   3.0943   3.1285   3.1542
  3.1805   3.1882   3.2193   3.2350   3.2441   3.2814   3.2987   3.3220
  3.3454   3.3497   3.3595   3.3860   3.4031   3.4266   3.4396   3.4637
  3.4729   3.4765   3.4912   3.5193   3.5377   3.5583   3.5883   3.6016
  3.6243   3.6320   3.6596   3.7000   3.7131   3.7222   3.7421   3.7482
  3.7615   3.7791   3.7949   3.8101   3.8339   3.8470   3.8610   3.8657
  3.8931   3.9038   3.9181   3.9247   3.9519   3.9655   3.9871   4.0023
  4.0217   4.0385   4.0895   4.1205   4.1316   4.1554   4.1768   4.1963
  4.2211   4.2335   4.2589   4.2726   4.2856   4.3037   4.3274   4.3369
  4.3854   4.3968   4.4086   4.4265   4.4473   4.4578   4.4701   4.5101
  4.5366   4.5605   4.6059   4.6139   4.6526   4.7811   4.8175   4.8603
  4.8972   5.0461   5.1115   5.1285   5.1974   5.2089   5.2341   5.2530
  5.2611   5.2767   5.2819   5.2896   5.2950   5.3071   5.3164   5.3190
  5.3541   5.3626   5.3731   5.4014   5.4170   5.4366   5.4443   5.4564
  5.4776   5.5216   5.5424   5.5625   5.5746   5.5846   5.6123   5.6169
  5.6523   5.6660   5.6847   5.7017   5.7394   5.7496   5.8003   5.8324
  5.9202   5.9305   5.9792   5.9974   6.0199   6.0507   6.0798   6.1134
  6.1255   6.2724   6.5246   6.5817   6.6236   6.7546   6.8445   6.9487
  6.9622   7.0641   7.1019   7.1357   7.1428   7.2512   7.2747   7.2966
  7.3111   7.3145   7.3273   7.3434   7.3535   7.3849   7.4030   7.4220
  7.4432   7.4750   7.6142   7.6314   7.6517   7.6884   7.7460   7.7632
  7.7805   7.8173   7.9061   7.9278  24.3779  24.7297  24.8141  24.9177
 25.2117  50.5784  50.5990  50.6100  50.6189  50.6879
 
 Beta MOs
 -- Occupied --
-19.3694 -19.3513 -19.3495 -19.3466 -19.3406 -10.4661 -10.4509 -10.3963
-10.3690 -10.3626  -1.2062  -1.1998  -1.1628  -1.1346  -1.1111  -0.9284
 -0.8498  -0.8032  -0.7440  -0.6808  -0.6711  -0.6451  -0.6287  -0.6045
 -0.5908  -0.5881  -0.5511  -0.5394  -0.5277  -0.5041  -0.4794  -0.4676
 -0.4579  -0.4413  -0.4269  -0.4135  -0.4023  -0.3911  -0.3707
 -- Virtual --
 -0.0738   0.0248   0.0352   0.0393   0.0489   0.0542   0.0590   0.0647
  0.0764   0.0816   0.0955   0.1033   0.1066   0.1244   0.1313   0.1315
  0.1395   0.1467   0.1532   0.1597   0.1650   0.1740   0.1748   0.1773
  0.1860   0.1875   0.1961   0.2076   0.2101   0.2202   0.2311   0.2450
  0.2522   0.2614   0.2665   0.2716   0.2762   0.2879   0.2954   0.3011
  0.3034   0.3117   0.3129   0.3231   0.3304   0.3344   0.3362   0.3453
  0.3511   0.3612   0.3623   0.3653   0.3757   0.3799   0.3889   0.3926
  0.3959   0.4034   0.4122   0.4253   0.4311   0.4402   0.4444   0.4477
  0.4734   0.4851   0.4911   0.5062   0.5239   0.5584   0.5626   0.5820
  0.5958   0.6068   0.6080   0.6242   0.6305   0.6453   0.6468   0.6622
  0.6734   0.6787   0.6853   0.6960   0.7014   0.7148   0.7247   0.7285
  0.7374   0.7461   0.7678   0.7886   0.7939   0.7981   0.8212   0.8271
  0.8580   0.8642   0.8836   0.8894   0.9156   0.9221   0.9666   0.9734
  0.9956   1.0097   1.0163   1.0323   1.0528   1.0729   1.0812   1.0907
  1.1036   1.1100   1.1167   1.1275   1.1357   1.1539   1.1627   1.1709
  1.1849   1.1993   1.2091   1.2262   1.2298   1.2377   1.2481   1.2502
  1.2595   1.2657   1.2732   1.2789   1.2919   1.3077   1.3394   1.3466
  1.3650   1.3823   1.3948   1.4104   1.4205   1.4237   1.4437   1.4624
  1.4832   1.4961   1.5026   1.5258   1.5313   1.5401   1.5605   1.5620
  1.5796   1.5892   1.6055   1.6235   1.6310   1.6366   1.6510   1.6830
  1.6947   1.7071   1.7305   1.7886   1.7965   1.7985   1.8020   1.8164
  1.8666   1.9094   1.9336   1.9487   1.9752   2.0111   2.0129   2.0376
  2.0890   2.1202   2.1686   2.1935   2.1980   2.2164   2.2406   2.2909
  2.3302   2.3453   2.3662   2.3794   2.4060   2.4315   2.4386   2.4597
  2.4921   2.5164   2.5796   2.6198   2.6547   2.7221   2.7557   2.7699
  2.8118   2.8144   2.8222   2.8485   2.8740   2.8822   2.9027   2.9089
  2.9392   2.9653   2.9729   2.9891   3.0239   3.0608   3.0984   3.1322
  3.1571   3.1831   3.1905   3.2220   3.2375   3.2472   3.2838   3.3018
  3.3244   3.3475   3.3521   3.3633   3.3894   3.4059   3.4296   3.4444
  3.4661   3.4755   3.4793   3.4950   3.5228   3.5405   3.5621   3.5913
  3.6038   3.6260   3.6349   3.6620   3.7018   3.7160   3.7241   3.7441
  3.7496   3.7633   3.7805   3.7974   3.8129   3.8363   3.8479   3.8633
  3.8668   3.8949   3.9066   3.9190   3.9259   3.9536   3.9680   3.9913
  4.0042   4.0239   4.0413   4.0915   4.1228   4.1346   4.1580   4.1783
  4.1988   4.2226   4.2363   4.2611   4.2738   4.2872   4.3051   4.3288
  4.3383   4.3877   4.3987   4.4105   4.4295   4.4504   4.4596   4.4717
  4.5123   4.5387   4.5642   4.6083   4.6171   4.6551   4.7863   4.8230
  4.8658   4.9025   5.0505   5.1771   5.1863   5.2051   5.2295   5.2354
  5.2691   5.2720   5.2806   5.2916   5.2954   5.3033   5.3155   5.3214
  5.3353   5.3653   5.3809   5.3834   5.4161   5.4360   5.4484   5.4585
  5.4676   5.4811   5.5301   5.5556   5.5658   5.5767   5.5885   5.6170
  5.6201   5.6536   5.6786   5.6880   5.7055   5.7432   5.7514   5.8084
  5.8407   5.9213   5.9334   5.9823   5.9985   6.0253   6.0583   6.0957
  6.1229   6.1390   6.2828   6.5278   6.5847   6.6266   6.7568   6.8609
  7.0304   7.0589   7.0650   7.1070   7.1423   7.1466   7.2593   7.2761
  7.3009   7.3130   7.3176   7.3295   7.3446   7.3544   7.3971   7.4092
  7.4242   7.4526   7.5303   7.6299   7.6327   7.6535   7.7045   7.7470
  7.7693   7.7810   7.8285   7.9071   7.9381  24.3791  24.7307  24.8142
 24.9175  25.2133  50.5815  50.6028  50.6147  50.6209  50.6893
 --------------------------------------------------------------
 
          Ground-State Mulliken Net Atomic Charges

     Atom                 Charge (a.u.)    Spin (a.u.)
  --------------------------------------------------------
      1 C                    -0.281613       0.023415
      2 O                    -0.387755       0.010073
      3 C                    -0.234832       0.020020
      4 O                    -0.437300      -0.001456
      5 O                    -0.215761       0.799395
      6 C                     0.008395       0.040912
      7 C                    -0.085617       0.104719
      8 C                    -0.225077      -0.002172
      9 O                    -0.436963       0.000736
     10 O                    -0.433405       0.005704
     11 H                     0.251780      -0.002059
     12 H                     0.220041       0.000903
     13 H                     0.329536      -0.000544
     14 H                     0.374575       0.000387
     15 H                     0.300939       0.000381
     16 H                     0.282789       0.000535
     17 H                     0.296591      -0.000942
     18 H                     0.336018      -0.000124
     19 H                     0.337657       0.000117
  --------------------------------------------------------
  Sum of atomic charges =    -0.000000
  Sum of spin   charges =     1.000000

 -----------------------------------------------------------------
                    Cartesian Multipole Moments
 -----------------------------------------------------------------
    Charge (ESU x 10^10)
                -0.0000
    Dipole Moment (Debye)
         X      -3.4964      Y       0.8289      Z      -0.6801
       Tot       3.6571
    Quadrupole Moments (Debye-Ang)
        XX     -85.1809     XY       5.9480     YY     -69.9239
        XZ     -12.3275     YZ      -0.2234     ZZ     -50.1902
    Octopole Moments (Debye-Ang^2)
       XXX    -756.7726    XXY      69.1747    XYY    -228.2940
       YYY       6.8337    XXZ    -122.6270    XYZ      -0.8996
       YYZ     -34.7114    XZZ    -200.9498    YZZ      -9.1578
       ZZZ     -83.7135
    Hexadecapole Moments (Debye-Ang^3)
      XXXX   -6332.7573   XXXY     489.7420   XXYY   -1075.2121
      XYYY     -63.7522   YYYY    -362.0607   XXXZ   -1019.6987
      XXYZ     -24.5256   XYYZ    -166.8651   YYYZ     -17.4630
      XXZZ   -1083.5929   XYZZ     -48.7140   YYZZ    -118.5818
      XZZZ    -394.4925   YZZZ     -21.7313   ZZZZ    -327.7402
 -----------------------------------------------------------------
 Calculating analytic gradient of the SCF energy
 Gradient of CDS energy
            1           2           3           4           5           6
    1  -0.0012121   0.0004458   0.0009224  -0.0004880  -0.0005052  -0.0001299
    2  -0.0009186   0.0010517   0.0052185   0.0006685  -0.0054775   0.0000558
    3   0.0001810  -0.0004792  -0.0022478   0.0006829   0.0016029   0.0002021
            7           8           9          10          11          12
    1   0.0000400   0.0030544  -0.0027885   0.0000043   0.0002408   0.0001641
    2  -0.0000579   0.0017447  -0.0017360   0.0001817   0.0001224  -0.0000842
    3   0.0002878   0.0010387  -0.0012727   0.0002226   0.0002309  -0.0001644
           13          14          15          16          17          18
    1  -0.0001739   0.0001400  -0.0001208   0.0001347  -0.0002019   0.0004441
    2  -0.0003405  -0.0001935   0.0000160   0.0000166  -0.0001140   0.0002509
    3   0.0003318  -0.0004605   0.0000374   0.0001739  -0.0000676  -0.0000647
           19
    1   0.0000295
    2  -0.0004047
    3  -0.0002351
 Gradient of SCF Energy
            1           2           3           4           5           6
    1   0.0111463  -0.0015677  -0.0032854   0.0047606   0.0008154   0.0073098
    2  -0.0101190  -0.0028705  -0.0010450  -0.0006026   0.0041023   0.0021957
    3   0.0055296  -0.0181749  -0.0025715   0.0151371   0.0003125  -0.0076202
            7           8           9          10          11          12
    1   0.0040276  -0.0040310  -0.0032306   0.0057224  -0.0044974  -0.0031245
    2  -0.0000814  -0.0012759  -0.0032085  -0.0028574   0.0061474   0.0021992
    3  -0.0076055   0.0014355   0.0110598   0.0036603   0.0078546  -0.0105305
           13          14          15          16          17          18
    1   0.0018298  -0.0075302  -0.0099363  -0.0013589   0.0009388   0.0044421
    2   0.0032066   0.0001700  -0.0008016  -0.0003423   0.0012065   0.0035837
    3   0.0169871  -0.0145659   0.0106244   0.0032545  -0.0024263  -0.0090033
           19
    1  -0.0024309
    2   0.0003929
    3  -0.0033572
 Max gradient component =       1.817E-02
 RMS gradient           =       6.589E-03
 Computing fast CPCM-SWIG gradient
 Updating gradient with PCM contributions...
 -- total gradient after adding PCM contribution --
---------------------------------------------------
  Atom         X              Y              Z     
---------------------------------------------------
   1       0.000723      -0.000111       0.000018
   2      -0.000070      -0.000030       0.000017
   3      -0.000079       0.000234      -0.000139
   4      -0.000083      -0.000019       0.000029
   5      -0.000086      -0.000216       0.000008
   6      -0.000018      -0.000023       0.000087
   7      -0.000036      -0.000023      -0.000011
   8      -0.000042       0.000079       0.000022
   9       0.000065      -0.000016      -0.000002
  10      -0.000035      -0.000007       0.000015
  11      -0.000184       0.000130       0.000133
  12      -0.000154      -0.000002      -0.000190
  13      -0.000022      -0.000002      -0.000026
  14       0.000034       0.000022       0.000003
  15      -0.000014      -0.000003      -0.000023
  16      -0.000013      -0.000019       0.000000
  17       0.000012      -0.000038       0.000017
  18      -0.000022       0.000050       0.000046
  19       0.000023      -0.000007      -0.000004
---------------------------------------------------
 Number of fixed atoms: 0
 Gradient time:  CPU 310.15 s  wall 25.91 s
 ----------------------------------------------------------------
             Standard Nuclear Orientation (Angstroms)
    I     Atom           X                Y                Z
 ----------------------------------------------------------------
    1      C       0.8582241000    -0.1971614000     0.1678858000
    2      O       0.6690875000    -1.5224491000     0.6187156000
    3      C       2.3569171000     0.1720295000     0.0849392000
    4      O       3.0543850000    -0.7384739000    -0.7380161000
    5      O       2.4877454000     1.4669156000    -0.2982082000
    6      C       2.9935967000     0.1963500000     1.4735868000
    7      C       4.3026865000     0.2342668000     1.6875439000
    8      C       5.3765460000     0.2495937000     0.6347771000
    9      O       6.4990590000     0.8685453000     1.2054444000
   10      O       5.7420289000    -1.0786732000     0.2863778000
   11      H       0.3627009000     0.5262147000     0.8131911000
   12      H       0.4427178000    -0.1310736000    -0.8359240000
   13      H       0.7945470000    -1.5475479000     1.5737247000
   14      H       2.6185039000    -0.7648073000    -1.5998088000
   15      H       2.2951174000     0.2153660000     2.2994869000
   16      H       4.6660887000     0.2027140000     2.7092130000
   17      H       5.0618161000     0.7848646000    -0.2602700000
   18      H       7.1132192000     1.0914706000     0.4965222000
   19      H       5.0141832000    -1.4248695000    -0.2492307000
 ----------------------------------------------------------------
 Nuclear Repulsion Energy =         576.85576536 hartrees
 There are       40 alpha and       39 beta electrons
 Discretize the solute cavity surface with Lebedev spheres
	Using 110 Lebedev grid points for each H atom
	Using 194 Lebedev grid points for other atoms
	Atomic van der Waals radii will be scaled by 1.20
 Remove points where switching function is < 1.0e-08
 Keep 1472 surface tesserae and discard 1458 interior tesserae
 Molecular Surface Area = 164.708 Angst**2
 Requested basis set is 6-311++G(2df,2p)
 There are 134 shells and 430 basis functions
 A cutoff of  1.0D-12 yielded   7919 shell pairs
 There are     81058 function pairs (    100415 Cartesian)
 Smallest overlap matrix eigenvalue = 4.22E-06
 Guess MOs from SCF MO coefficient file

 -----------------------------------------------------------------------
  General SCF calculation program by
  Eric Jon Sundstrom, Paul Horn, Yuezhi Mao, Dmitri Zuev, Alec White,
  David Stuck, Shaama M.S., Shane Yost, Joonho Lee, David Small,
  Daniel Levine, Susi Lehtola, Hugh Burton, Evgeny Epifanovsky,
  Bang C. Huynh
 -----------------------------------------------------------------------
 Exchange:     0.1500 Hartree-Fock + 1.0000 wB97M-V + LR-HF
 Correlation:  1.0000 wB97M-V
 Using SG-2 standard quadrature grid
 Nonlocal Correlation:  VV10 with C = 0.0100 and b = 6.00 and scale = 1.00000
 Grid used for NLC:  SG-1 standard quadrature
 
 Citation of the SMD model:
 Marenich, A.V.; Cramer, C.J.; Truhlar, D.G.
 J. Phys. Chem. B 2009, 113, 6378-6396.
 iSolventCode=           1
 Solvent: water                                                           
 
 vradii
            1           2           3           4           5           6
    1   1.8500000   1.5200000   1.8500000   1.5200000   1.5200000   1.8500000
            7           8           9          10          11          12
    1   1.8500000   1.8500000   1.5200000   1.5200000   1.2000000   1.2000000
           13          14          15          16          17          18
    1   1.2000000   1.2000000   1.2000000   1.2000000   1.2000000   1.2000000
           19
    1   1.2000000
 -------------------------------------------------------
 OpenMP BLAS3 based DFT computing Module                
 Release: version 1.0, May 2013, Q-Chem Inc. Pittsburgh 
 -------------------------------------------------------
 A unrestricted SCF calculation will be
 performed using Roothaan-Hall, DIIS, GDM
 SCF converges when RMS gradient is below 1.0e-07
 ---------------------------------------
  Cycle       Energy         DIIS error
 ---------------------------------------
    1    -571.9640233079      2.17e-04  Roothaan Step
 ---------------------------------------
  Cycle       Energy         DIIS error
 ---------------------------------------
    1    -572.0052637304      2.38e-04  
    2    -572.0107202578      1.87e-04  Done DIIS. Switching to GDM
 ---------------------------------------
  Cycle       Energy        RMS Gradient
 ---------------------------------------
    1    -572.0107202578      5.92e-03   Normal BFGS step
    2    -572.0108508445      8.84e-03   Normal BFGS step
    3    -572.0130855897      7.63e-04   Normal BFGS step
    4    -572.0131055903      4.58e-04   Normal BFGS step
    5    -572.0131110241      1.67e-04   Normal BFGS step
    6    -572.0131113678      1.60e-04   Normal BFGS step
    7    -572.0131115370      9.37e-05   Normal BFGS step
    8    -572.0131115936      4.78e-05   Normal BFGS step
    9    -572.0131116164      6.20e-05   Normal BFGS step
   10    -572.0131116334      5.66e-05   Normal BFGS step
   11    -572.0131116500      4.10e-05   Normal BFGS step
   12    -572.0131116637      2.34e-05   Normal BFGS step
   13    -572.0131116698      2.17e-05   Normal BFGS step
   14    -572.0131116718      1.27e-05   Normal BFGS step
   15    -572.0131116724      6.54e-06   Normal BFGS step
   16    -572.0131116726      2.91e-06   Normal BFGS step
   17    -572.0131116726      1.49e-06   Normal BFGS step
   18    -572.0131116726      4.92e-07   Normal BFGS step
   19    -572.0131116727      3.14e-07   Normal BFGS step
   20    -572.0131116727      1.49e-07   Normal BFGS step
   21    -572.0131116727      5.50e-08  Convergence criterion met
 ---------------------------------------
 SCF time:   CPU 2577.33s  wall 176.00s 
<S^2> =          0.756287079
(3)  G-ENP(liq) elect-nuc-pol free energy of system     -572.013111673 a.u.
(4)  G-CDS(liq) cavity-dispersion-solvent structure 
     free energy                                                4.0311 kcal/mol
(6)  G-S(liq) free energy of system                     -572.006687681 a.u.
 SCF   energy in the final basis set =     -572.0066876810
 Total energy in the final basis set =     -572.0066876810
 
 --------------------------------------------------------------
 
                    Orbital Energies (a.u.)
 --------------------------------------------------------------
 
 Alpha MOs
 -- Occupied --
-19.3903 -19.3512 -19.3495 -19.3470 -19.3409 -10.4659 -10.4508 -10.3974
-10.3707 -10.3639  -1.2192  -1.2017  -1.1653  -1.1408  -1.1338  -0.9347
 -0.8569  -0.8061  -0.7502  -0.6826  -0.6737  -0.6469  -0.6361  -0.6107
 -0.6072  -0.5918  -0.5556  -0.5426  -0.5349  -0.5176  -0.4943  -0.4776
 -0.4675  -0.4515  -0.4393  -0.4294  -0.4228  -0.3987  -0.3846  -0.3698
 -- Virtual --
  0.0247   0.0350   0.0390   0.0484   0.0515   0.0581   0.0634   0.0742
  0.0806   0.0956   0.1028   0.1038   0.1242   0.1310   0.1312   0.1394
  0.1463   0.1528   0.1590   0.1646   0.1733   0.1749   0.1769   0.1852
  0.1868   0.1942   0.2072   0.2096   0.2196   0.2304   0.2427   0.2518
  0.2612   0.2658   0.2714   0.2756   0.2870   0.2941   0.3005   0.3029
  0.3107   0.3118   0.3223   0.3288   0.3301   0.3356   0.3443   0.3504
  0.3590   0.3618   0.3646   0.3751   0.3790   0.3847   0.3910   0.3946
  0.4025   0.4114   0.4239   0.4276   0.4388   0.4415   0.4468   0.4718
  0.4825   0.4880   0.5054   0.5228   0.5568   0.5614   0.5804   0.5941
  0.6051   0.6072   0.6228   0.6297   0.6444   0.6457   0.6608   0.6718
  0.6776   0.6846   0.6948   0.7006   0.7128   0.7241   0.7270   0.7363
  0.7436   0.7659   0.7872   0.7935   0.7967   0.8191   0.8248   0.8559
  0.8637   0.8805   0.8890   0.9148   0.9209   0.9657   0.9714   0.9945
  1.0084   1.0156   1.0311   1.0506   1.0726   1.0802   1.0901   1.1022
  1.1085   1.1135   1.1250   1.1344   1.1525   1.1608   1.1697   1.1824
  1.1964   1.2065   1.2190   1.2253   1.2317   1.2459   1.2487   1.2559
  1.2614   1.2712   1.2733   1.2896   1.3063   1.3379   1.3431   1.3634
  1.3813   1.3940   1.4088   1.4185   1.4195   1.4419   1.4606   1.4798
  1.4929   1.4982   1.5248   1.5298   1.5385   1.5585   1.5598   1.5771
  1.5877   1.6037   1.6204   1.6293   1.6306   1.6483   1.6787   1.6904
  1.7040   1.7275   1.7784   1.7872   1.7938   1.7989   1.8143   1.8527
  1.8929   1.9296   1.9449   1.9680   2.0075   2.0094   2.0344   2.0860
  2.1154   2.1646   2.1909   2.1921   2.2110   2.2395   2.2829   2.3293
  2.3427   2.3629   2.3779   2.4054   2.4308   2.4375   2.4583   2.4860
  2.5128   2.5738   2.6167   2.6522   2.7195   2.7540   2.7672   2.8081
  2.8117   2.8190   2.8464   2.8708   2.8802   2.8991   2.9058   2.9360
  2.9609   2.9690   2.9846   3.0197   3.0571   3.0944   3.1278   3.1541
  3.1805   3.1883   3.2190   3.2348   3.2443   3.2814   3.2985   3.3217
  3.3455   3.3494   3.3595   3.3859   3.4033   3.4265   3.4395   3.4631
  3.4728   3.4766   3.4913   3.5191   3.5377   3.5586   3.5882   3.6014
  3.6242   3.6320   3.6592   3.7001   3.7128   3.7223   3.7420   3.7479
  3.7615   3.7795   3.7951   3.8100   3.8339   3.8471   3.8614   3.8658
  3.8937   3.9037   3.9182   3.9247   3.9519   3.9654   3.9869   4.0027
  4.0220   4.0381   4.0891   4.1202   4.1316   4.1547   4.1768   4.1962
  4.2208   4.2332   4.2577   4.2722   4.2855   4.3035   4.3274   4.3368
  4.3851   4.3968   4.4093   4.4267   4.4470   4.4582   4.4699   4.5102
  4.5365   4.5602   4.6062   4.6139   4.6525   4.7808   4.8175   4.8599
  4.8971   5.0461   5.1115   5.1285   5.1974   5.2089   5.2341   5.2527
  5.2611   5.2766   5.2819   5.2896   5.2951   5.3071   5.3164   5.3190
  5.3542   5.3625   5.3731   5.4014   5.4169   5.4365   5.4441   5.4561
  5.4776   5.5214   5.5423   5.5626   5.5749   5.5852   5.6124   5.6168
  5.6524   5.6661   5.6847   5.7015   5.7404   5.7500   5.8002   5.8323
  5.9202   5.9300   5.9794   5.9977   6.0199   6.0508   6.0797   6.1130
  6.1255   6.2723   6.5244   6.5816   6.6241   6.7546   6.8442   6.9487
  6.9622   7.0641   7.1018   7.1356   7.1428   7.2512   7.2747   7.2965
  7.3111   7.3145   7.3272   7.3433   7.3535   7.3848   7.4031   7.4221
  7.4431   7.4749   7.6141   7.6314   7.6519   7.6882   7.7460   7.7630
  7.7804   7.8172   7.9061   7.9277  24.3778  24.7312  24.8139  24.9164
 25.2116  50.5783  50.5990  50.6100  50.6188  50.6879
 
 Beta MOs
 -- Occupied --
-19.3693 -19.3513 -19.3495 -19.3467 -19.3406 -10.4661 -10.4509 -10.3963
-10.3689 -10.3626  -1.2062  -1.1997  -1.1629  -1.1346  -1.1111  -0.9283
 -0.8496  -0.8032  -0.7440  -0.6808  -0.6710  -0.6451  -0.6286  -0.6046
 -0.5907  -0.5881  -0.5511  -0.5395  -0.5277  -0.5040  -0.4794  -0.4676
 -0.4581  -0.4414  -0.4269  -0.4135  -0.4022  -0.3911  -0.3705
 -- Virtual --
 -0.0738   0.0248   0.0352   0.0393   0.0489   0.0542   0.0590   0.0647
  0.0764   0.0816   0.0955   0.1033   0.1066   0.1244   0.1313   0.1315
  0.1395   0.1467   0.1531   0.1597   0.1650   0.1740   0.1749   0.1773
  0.1860   0.1875   0.1961   0.2076   0.2101   0.2203   0.2311   0.2449
  0.2522   0.2615   0.2666   0.2716   0.2762   0.2879   0.2954   0.3011
  0.3034   0.3117   0.3129   0.3231   0.3303   0.3344   0.3362   0.3452
  0.3510   0.3612   0.3623   0.3653   0.3757   0.3798   0.3889   0.3926
  0.3959   0.4034   0.4122   0.4253   0.4311   0.4401   0.4444   0.4476
  0.4734   0.4850   0.4912   0.5062   0.5240   0.5584   0.5627   0.5819
  0.5958   0.6068   0.6081   0.6241   0.6304   0.6453   0.6469   0.6622
  0.6733   0.6788   0.6853   0.6960   0.7014   0.7148   0.7248   0.7285
  0.7375   0.7461   0.7678   0.7885   0.7939   0.7982   0.8212   0.8271
  0.8580   0.8642   0.8835   0.8893   0.9157   0.9221   0.9666   0.9733
  0.9956   1.0097   1.0163   1.0323   1.0528   1.0730   1.0811   1.0907
  1.1035   1.1101   1.1168   1.1275   1.1357   1.1539   1.1628   1.1709
  1.1848   1.1994   1.2091   1.2261   1.2298   1.2377   1.2480   1.2502
  1.2595   1.2657   1.2732   1.2789   1.2920   1.3077   1.3395   1.3465
  1.3650   1.3822   1.3947   1.4103   1.4204   1.4235   1.4437   1.4622
  1.4830   1.4961   1.5027   1.5257   1.5314   1.5401   1.5605   1.5618
  1.5797   1.5892   1.6056   1.6236   1.6309   1.6365   1.6509   1.6829
  1.6944   1.7068   1.7304   1.7885   1.7964   1.7985   1.8019   1.8164
  1.8665   1.9093   1.9336   1.9486   1.9749   2.0110   2.0128   2.0376
  2.0890   2.1202   2.1684   2.1935   2.1980   2.2162   2.2405   2.2909
  2.3302   2.3453   2.3664   2.3794   2.4058   2.4314   2.4383   2.4594
  2.4921   2.5164   2.5795   2.6196   2.6541   2.7218   2.7557   2.7699
  2.8117   2.8143   2.8221   2.8484   2.8740   2.8823   2.9026   2.9088
  2.9390   2.9653   2.9730   2.9890   3.0239   3.0608   3.0985   3.1316
  3.1570   3.1832   3.1905   3.2217   3.2373   3.2474   3.2839   3.3016
  3.3242   3.3476   3.3518   3.3632   3.3894   3.4062   3.4295   3.4444
  3.4656   3.4755   3.4794   3.4951   3.5227   3.5405   3.5624   3.5913
  3.6035   3.6259   3.6349   3.6615   3.7019   3.7158   3.7242   3.7441
  3.7493   3.7633   3.7810   3.7976   3.8127   3.8362   3.8480   3.8637
  3.8669   3.8955   3.9065   3.9191   3.9259   3.9536   3.9679   3.9910
  4.0046   4.0244   4.0408   4.0911   4.1226   4.1345   4.1573   4.1783
  4.1987   4.2224   4.2360   4.2600   4.2733   4.2871   4.3050   4.3288
  4.3382   4.3874   4.3987   4.4112   4.4296   4.4501   4.4599   4.4716
  4.5124   4.5385   4.5638   4.6086   4.6171   4.6550   4.7860   4.8230
  4.8654   4.9024   5.0506   5.1771   5.1863   5.2051   5.2295   5.2354
  5.2690   5.2717   5.2806   5.2916   5.2954   5.3033   5.3154   5.3215
  5.3352   5.3653   5.3809   5.3833   5.4161   5.4360   5.4482   5.4582
  5.4676   5.4811   5.5299   5.5555   5.5659   5.5770   5.5892   5.6171
  5.6199   5.6536   5.6787   5.6880   5.7054   5.7438   5.7522   5.8084
  5.8406   5.9213   5.9330   5.9825   5.9988   6.0253   6.0584   6.0955
  6.1227   6.1390   6.2827   6.5276   6.5845   6.6272   6.7568   6.8606
  7.0304   7.0589   7.0650   7.1069   7.1422   7.1465   7.2593   7.2761
  7.3008   7.3130   7.3175   7.3295   7.3446   7.3544   7.3970   7.4092
  7.4242   7.4526   7.5302   7.6298   7.6327   7.6536   7.7042   7.7470
  7.7692   7.7809   7.8285   7.9071   7.9380  24.3790  24.7321  24.8140
 24.9162  25.2133  50.5815  50.6029  50.6147  50.6209  50.6893
 --------------------------------------------------------------
 
          Ground-State Mulliken Net Atomic Charges

     Atom                 Charge (a.u.)    Spin (a.u.)
  --------------------------------------------------------
      1 C                    -0.281470       0.023989
      2 O                    -0.387353       0.010214
      3 C                    -0.235305       0.019904
      4 O                    -0.437310      -0.001467
      5 O                    -0.215988       0.799117
      6 C                     0.008401       0.040949
      7 C                    -0.085638       0.104393
      8 C                    -0.225085      -0.002164
      9 O                    -0.436968       0.000737
     10 O                    -0.433422       0.005683
     11 H                     0.251947      -0.002059
     12 H                     0.220157       0.000888
     13 H                     0.329542      -0.000548
     14 H                     0.374585       0.000396
     15 H                     0.300928       0.000376
     16 H                     0.282761       0.000539
     17 H                     0.296578      -0.000943
     18 H                     0.336011      -0.000124
     19 H                     0.337630       0.000121
  --------------------------------------------------------
  Sum of atomic charges =     0.000000
  Sum of spin   charges =     1.000000

 -----------------------------------------------------------------
                    Cartesian Multipole Moments
 -----------------------------------------------------------------
    Charge (ESU x 10^10)
                -0.0000
    Dipole Moment (Debye)
         X      -3.5056      Y       0.8252      Z      -0.6811
       Tot       3.6652
    Quadrupole Moments (Debye-Ang)
        XX     -85.2191     XY       5.9418     YY     -69.9236
        XZ     -12.3365     YZ      -0.2234     ZZ     -50.1943
    Octopole Moments (Debye-Ang^2)
       XXX    -756.9137    XXY      69.1604    XYY    -228.2968
       YYY       6.8183    XXZ    -122.6695    XYZ      -0.8998
       YYZ     -34.7084    XZZ    -200.9700    YZZ      -9.1644
       ZZZ     -83.7259
    Hexadecapole Moments (Debye-Ang^3)
      XXXX   -6333.5204   XXXY     489.7033   XXYY   -1075.2551
      XYYY     -63.7920   YYYY    -362.0540   XXXZ   -1019.8984
      XXYZ     -24.5311   XYYZ    -166.8638   YYYZ     -17.4670
      XXZZ   -1083.7068   XYZZ     -48.7335   YYZZ    -118.5861
      XZZZ    -394.5470   YZZZ     -21.7313   ZZZZ    -327.7775
 -----------------------------------------------------------------
 Calculating analytic gradient of the SCF energy
 Gradient of CDS energy
            1           2           3           4           5           6
    1  -0.0012261   0.0004536   0.0009240  -0.0004880  -0.0005051  -0.0001299
    2  -0.0009774   0.0011105   0.0052188   0.0006686  -0.0054774   0.0000558
    3   0.0001997  -0.0004981  -0.0022479   0.0006829   0.0016030   0.0002021
            7           8           9          10          11          12
    1   0.0000400   0.0030544  -0.0027885   0.0000043   0.0002427   0.0001662
    2  -0.0000579   0.0017447  -0.0017360   0.0001817   0.0001214  -0.0000832
    3   0.0002878   0.0010387  -0.0012727   0.0002226   0.0002298  -0.0001629
           13          14          15          16          17          18
    1  -0.0001734   0.0001400  -0.0001208   0.0001347  -0.0002019   0.0004441
    2  -0.0003408  -0.0001935   0.0000160   0.0000166  -0.0001140   0.0002509
    3   0.0003316  -0.0004605   0.0000373   0.0001739  -0.0000676  -0.0000647
           19
    1   0.0000295
    2  -0.0004047
    3  -0.0002351
 Gradient of SCF Energy
            1           2           3           4           5           6
    1   0.0094038  -0.0013331  -0.0028161   0.0048750   0.0008869   0.0073998
    2  -0.0099937  -0.0027604  -0.0011509  -0.0006091   0.0042155   0.0022518
    3   0.0054925  -0.0182010  -0.0025592   0.0151111   0.0003272  -0.0076103
            7           8           9          10          11          12
    1   0.0040343  -0.0040223  -0.0032306   0.0057126  -0.0040770  -0.0027677
    2  -0.0000841  -0.0012595  -0.0032081  -0.0028566   0.0058742   0.0022011
    3  -0.0075926   0.0014133   0.0110597   0.0036658   0.0075822  -0.0102032
           13          14          15          16          17          18
    1   0.0018326  -0.0075447  -0.0099421  -0.0013631   0.0009420   0.0044371
    2   0.0031803   0.0001678  -0.0007951  -0.0003495   0.0011999   0.0035819
    3   0.0170024  -0.0145649   0.0106085   0.0032408  -0.0024162  -0.0089995
           19
    1  -0.0024276
    2   0.0003946
    3  -0.0033565
 Max gradient component =       1.820E-02
 RMS gradient           =       6.509E-03
 Computing fast CPCM-SWIG gradient
 Updating gradient with PCM contributions...
 -- total gradient after adding PCM contribution --
---------------------------------------------------
  Atom         X              Y              Z     
---------------------------------------------------
   1      -0.000958       0.000043      -0.000028
   2       0.000147       0.000072       0.000002
   3       0.000391       0.000130      -0.000121
   4       0.000022      -0.000029      -0.000002
   5      -0.000022      -0.000105       0.000024
   6       0.000052       0.000034       0.000087
   7      -0.000017      -0.000021      -0.000008
   8      -0.000030       0.000087       0.000010
   9       0.000061      -0.000017       0.000001
  10      -0.000043      -0.000002       0.000023
  11       0.000218      -0.000166      -0.000163
  12       0.000186      -0.000003       0.000168
  13      -0.000017      -0.000023      -0.000024
  14       0.000027       0.000021       0.000005
  15      -0.000018       0.000003      -0.000033
  16      -0.000012      -0.000026       0.000000
  17       0.000012      -0.000039       0.000019
  18      -0.000023       0.000051       0.000046
  19       0.000022      -0.000008      -0.000006
---------------------------------------------------
 Number of fixed atoms: 0
 Gradient time:  CPU 312.02 s  wall 26.49 s
 ----------------------------------------------------------------
             Standard Nuclear Orientation (Angstroms)
    I     Atom           X                Y                Z
 ----------------------------------------------------------------
    1      C       0.8592241000    -0.1961614000     0.1678858000
    2      O       0.6690875000    -1.5224491000     0.6187156000
    3      C       2.3569171000     0.1720295000     0.0849392000
    4      O       3.0543850000    -0.7384739000    -0.7380161000
    5      O       2.4877454000     1.4669156000    -0.2982082000
    6      C       2.9935967000     0.1963500000     1.4735868000
    7      C       4.3026865000     0.2342668000     1.6875439000
    8      C       5.3765460000     0.2495937000     0.6347771000
    9      O       6.4990590000     0.8685453000     1.2054444000
   10      O       5.7420289000    -1.0786732000     0.2863778000
   11      H       0.3627009000     0.5262147000     0.8131911000
   12      H       0.4427178000    -0.1310736000    -0.8359240000
   13      H       0.7945470000    -1.5475479000     1.5737247000
   14      H       2.6185039000    -0.7648073000    -1.5998088000
   15      H       2.2951174000     0.2153660000     2.2994869000
   16      H       4.6660887000     0.2027140000     2.7092130000
   17      H       5.0618161000     0.7848646000    -0.2602700000
   18      H       7.1132192000     1.0914706000     0.4965222000
   19      H       5.0141832000    -1.4248695000    -0.2492307000
 ----------------------------------------------------------------
 Nuclear Repulsion Energy =         576.86811460 hartrees
 There are       40 alpha and       39 beta electrons
 Discretize the solute cavity surface with Lebedev spheres
	Using 110 Lebedev grid points for each H atom
	Using 194 Lebedev grid points for other atoms
	Atomic van der Waals radii will be scaled by 1.20
 Remove points where switching function is < 1.0e-08
 Keep 1472 surface tesserae and discard 1458 interior tesserae
 Molecular Surface Area = 164.706 Angst**2
 Requested basis set is 6-311++G(2df,2p)
 There are 134 shells and 430 basis functions
 A cutoff of  1.0D-12 yielded   7919 shell pairs
 There are     81058 function pairs (    100415 Cartesian)
 Smallest overlap matrix eigenvalue = 4.22E-06
 Guess MOs from SCF MO coefficient file

 -----------------------------------------------------------------------
  General SCF calculation program by
  Eric Jon Sundstrom, Paul Horn, Yuezhi Mao, Dmitri Zuev, Alec White,
  David Stuck, Shaama M.S., Shane Yost, Joonho Lee, David Small,
  Daniel Levine, Susi Lehtola, Hugh Burton, Evgeny Epifanovsky,
  Bang C. Huynh
 -----------------------------------------------------------------------
 Exchange:     0.1500 Hartree-Fock + 1.0000 wB97M-V + LR-HF
 Correlation:  1.0000 wB97M-V
 Using SG-2 standard quadrature grid
 Nonlocal Correlation:  VV10 with C = 0.0100 and b = 6.00 and scale = 1.00000
 Grid used for NLC:  SG-1 standard quadrature
 
 Citation of the SMD model:
 Marenich, A.V.; Cramer, C.J.; Truhlar, D.G.
 J. Phys. Chem. B 2009, 113, 6378-6396.
 iSolventCode=           1
 Solvent: water                                                           
 
 vradii
            1           2           3           4           5           6
    1   1.8500000   1.5200000   1.8500000   1.5200000   1.5200000   1.8500000
            7           8           9          10          11          12
    1   1.8500000   1.8500000   1.5200000   1.5200000   1.2000000   1.2000000
           13          14          15          16          17          18
    1   1.2000000   1.2000000   1.2000000   1.2000000   1.2000000   1.2000000
           19
    1   1.2000000
 -------------------------------------------------------
 OpenMP BLAS3 based DFT computing Module                
 Release: version 1.0, May 2013, Q-Chem Inc. Pittsburgh 
 -------------------------------------------------------
 A unrestricted SCF calculation will be
 performed using Roothaan-Hall, DIIS, GDM
 SCF converges when RMS gradient is below 1.0e-07
 ---------------------------------------
  Cycle       Energy         DIIS error
 ---------------------------------------
    1    -571.9639940894      2.17e-04  Roothaan Step
 ---------------------------------------
  Cycle       Energy         DIIS error
 ---------------------------------------
    1    -572.0052468846      2.38e-04  
    2    -572.0106996764      1.87e-04  Done DIIS. Switching to GDM
 ---------------------------------------
  Cycle       Energy        RMS Gradient
 ---------------------------------------
    1    -572.0106996764      5.95e-03   Normal BFGS step
    2    -572.0108246338      8.89e-03   Normal BFGS step
    3    -572.0130820154      7.12e-04   Normal BFGS step
    4    -572.0131018751      4.18e-04   Normal BFGS step
    5    -572.0131072305      1.29e-04   Normal BFGS step
    6    -572.0131075417      1.41e-04   Normal BFGS step
    7    -572.0131076891      8.09e-05   Normal BFGS step
    8    -572.0131077249      3.71e-05   Normal BFGS step
    9    -572.0131077347      2.23e-05   Normal BFGS step
   10    -572.0131077379      1.95e-05   Normal BFGS step
   11    -572.0131077393      1.58e-05   Normal BFGS step
   12    -572.0131077406      1.13e-05   Normal BFGS step
   13    -572.0131077415      1.40e-05   Normal BFGS step
   14    -572.0131077422      1.21e-05   Normal BFGS step
   15    -572.0131077425      7.38e-06   Normal BFGS step
   16    -572.0131077427      2.87e-06   Normal BFGS step
   17    -572.0131077427      1.47e-06   Normal BFGS step
   18    -572.0131077427      5.80e-07   Normal BFGS step
   19    -572.0131077428      3.17e-07   Normal BFGS step
   20    -572.0131077428      1.39e-07   Normal BFGS step
   21    -572.0131077428      6.64e-08  Convergence criterion met
 ---------------------------------------
 SCF time:   CPU 2620.06s  wall 179.00s 
<S^2> =          0.756290693
(3)  G-ENP(liq) elect-nuc-pol free energy of system     -572.013107743 a.u.
(4)  G-CDS(liq) cavity-dispersion-solvent structure 
     free energy                                                4.0287 kcal/mol
(6)  G-S(liq) free energy of system                     -572.006687662 a.u.
 SCF   energy in the final basis set =     -572.0066876618
 Total energy in the final basis set =     -572.0066876618
 
 --------------------------------------------------------------
 
                    Orbital Energies (a.u.)
 --------------------------------------------------------------
 
 Alpha MOs
 -- Occupied --
-19.3904 -19.3513 -19.3495 -19.3469 -19.3409 -10.4659 -10.4509 -10.3974
-10.3707 -10.3640  -1.2192  -1.2017  -1.1650  -1.1408  -1.1338  -0.9347
 -0.8571  -0.8061  -0.7502  -0.6827  -0.6737  -0.6469  -0.6361  -0.6107
 -0.6072  -0.5918  -0.5555  -0.5425  -0.5349  -0.5176  -0.4943  -0.4776
 -0.4674  -0.4515  -0.4393  -0.4294  -0.4228  -0.3988  -0.3847  -0.3699
 -- Virtual --
  0.0247   0.0350   0.0390   0.0484   0.0515   0.0581   0.0634   0.0742
  0.0806   0.0956   0.1028   0.1038   0.1242   0.1310   0.1312   0.1394
  0.1463   0.1528   0.1590   0.1646   0.1733   0.1749   0.1768   0.1852
  0.1868   0.1942   0.2072   0.2096   0.2195   0.2304   0.2427   0.2518
  0.2611   0.2658   0.2713   0.2756   0.2869   0.2941   0.3005   0.3029
  0.3107   0.3118   0.3223   0.3288   0.3302   0.3357   0.3444   0.3505
  0.3590   0.3618   0.3646   0.3751   0.3791   0.3847   0.3910   0.3946
  0.4025   0.4114   0.4239   0.4276   0.4388   0.4415   0.4468   0.4718
  0.4825   0.4880   0.5054   0.5227   0.5568   0.5614   0.5804   0.5941
  0.6051   0.6072   0.6229   0.6297   0.6444   0.6457   0.6609   0.6719
  0.6776   0.6846   0.6949   0.7006   0.7128   0.7240   0.7270   0.7363
  0.7436   0.7659   0.7873   0.7935   0.7967   0.8192   0.8249   0.8559
  0.8637   0.8805   0.8890   0.9148   0.9210   0.9657   0.9714   0.9945
  1.0084   1.0155   1.0311   1.0506   1.0726   1.0802   1.0901   1.1023
  1.1085   1.1134   1.1249   1.1344   1.1525   1.1608   1.1697   1.1825
  1.1963   1.2066   1.2190   1.2254   1.2318   1.2460   1.2487   1.2560
  1.2614   1.2712   1.2734   1.2896   1.3064   1.3378   1.3431   1.3634
  1.3814   1.3940   1.4088   1.4186   1.4194   1.4419   1.4606   1.4800
  1.4928   1.4983   1.5248   1.5298   1.5385   1.5586   1.5598   1.5771
  1.5877   1.6038   1.6205   1.6293   1.6308   1.6484   1.6787   1.6905
  1.7043   1.7275   1.7783   1.7873   1.7938   1.7989   1.8144   1.8527
  1.8928   1.9296   1.9450   1.9681   2.0075   2.0094   2.0343   2.0860
  2.1153   2.1645   2.1908   2.1921   2.2109   2.2395   2.2828   2.3293
  2.3426   2.3626   2.3780   2.4055   2.4307   2.4374   2.4584   2.4859
  2.5128   2.5738   2.6168   2.6525   2.7194   2.7540   2.7673   2.8082
  2.8117   2.8191   2.8464   2.8708   2.8801   2.8992   2.9059   2.9361
  2.9610   2.9690   2.9846   3.0197   3.0570   3.0943   3.1283   3.1541
  3.1805   3.1882   3.2192   3.2346   3.2441   3.2814   3.2985   3.3218
  3.3455   3.3495   3.3595   3.3859   3.4032   3.4265   3.4396   3.4635
  3.4728   3.4765   3.4911   3.5192   3.5376   3.5583   3.5882   3.6014
  3.6242   3.6319   3.6594   3.7001   3.7129   3.7222   3.7420   3.7481
  3.7615   3.7796   3.7950   3.8100   3.8339   3.8471   3.8611   3.8657
  3.8932   3.9038   3.9181   3.9247   3.9519   3.9655   3.9870   4.0028
  4.0223   4.0384   4.0893   4.1202   4.1316   4.1553   4.1769   4.1964
  4.2210   4.2333   4.2584   4.2725   4.2855   4.3037   4.3275   4.3369
  4.3853   4.3967   4.4090   4.4269   4.4472   4.4580   4.4701   4.5106
  4.5373   4.5604   4.6063   4.6140   4.6525   4.7811   4.8175   4.8602
  4.8972   5.0463   5.1115   5.1285   5.1974   5.2089   5.2341   5.2529
  5.2612   5.2766   5.2821   5.2896   5.2951   5.3071   5.3164   5.3190
  5.3541   5.3624   5.3732   5.4014   5.4170   5.4366   5.4443   5.4563
[...]
 H         -0.059  0.042  0.048   -0.332  0.296  0.178    0.071 -0.066 -0.043
 H         -0.128 -0.577 -0.126   -0.109  0.357 -0.211    0.276  0.105  0.235
 H         -0.030  0.709  0.069   -0.173 -0.368  0.082    0.172  0.116 -0.183
 H          0.009  0.056 -0.058   -0.009  0.086 -0.058   -0.126  0.343  0.188
 H          0.101  0.048  0.093    0.100  0.049  0.091   -0.337 -0.208 -0.360
 H          0.038 -0.069 -0.017    0.077 -0.171 -0.028    0.118 -0.270 -0.084
 TransDip  -0.034  0.140 -0.096   -0.047  0.239  0.069   -0.248  0.322  0.077

 Mode:                28                     29                     30
 Frequency:      1162.38                1174.00                1201.61
 Force Cnst:      1.4529                 1.3053                 0.9102
 Red. Mass:       1.8251                 1.6074                 1.0700
 IR Active:          YES                    YES                    YES
 IR Intens:      525.447                 30.832                 37.306
 Raman Active:       YES                    YES                    YES
               X      Y      Z        X      Y      Z        X      Y      Z
 C          0.044 -0.019  0.003   -0.035  0.013 -0.008    0.008  0.017  0.021
 O         -0.014 -0.008  0.001    0.010  0.005  0.001   -0.011 -0.032  0.005
 C         -0.098  0.105  0.068    0.073 -0.077 -0.024   -0.012 -0.008  0.011
 O          0.038 -0.047 -0.053   -0.032  0.034  0.030   -0.006  0.007 -0.008
 O          0.004 -0.018 -0.002   -0.003  0.016 -0.001    0.001  0.000 -0.003
 C          0.013 -0.007 -0.009   -0.018  0.008  0.006   -0.020  0.001 -0.018
 C         -0.012 -0.014  0.020    0.008 -0.007  0.011    0.003  0.000  0.019
 C          0.075  0.092  0.004    0.074  0.080  0.049   -0.016 -0.018  0.002
 O         -0.080 -0.057 -0.055   -0.086 -0.052 -0.038    0.013  0.012  0.020
 O          0.046 -0.036  0.011    0.056 -0.033  0.010    0.002  0.004 -0.002
 H         -0.114 -0.237  0.123    0.099  0.171 -0.080   -0.262 -0.250  0.107
 H          0.192  0.254 -0.039   -0.149 -0.165  0.027    0.306  0.313 -0.084
 H          0.079  0.324  0.001   -0.052 -0.227  0.000    0.112  0.402  0.006
 H          0.061 -0.086 -0.065   -0.024  0.027  0.028    0.145 -0.139 -0.078
 H          0.213  0.019  0.162   -0.225  0.013 -0.169   -0.274 -0.042 -0.232
 H         -0.452  0.053  0.179    0.266 -0.024 -0.078    0.444  0.015 -0.135
 H         -0.014 -0.051 -0.054    0.268 -0.030 -0.087    0.156  0.009 -0.040
 H          0.104  0.062  0.150   -0.185 -0.095 -0.135   -0.159 -0.087 -0.165
 H         -0.241  0.453  0.054   -0.331  0.622  0.076   -0.015  0.030  0.001
 TransDip   0.065  0.679  0.272    0.002  0.177  0.017    0.031  0.070 -0.180

 Mode:                31                     32                     33
 Frequency:      1243.51                1264.88                1267.40
 Force Cnst:      2.0603                 2.3611                 1.1309
 Red. Mass:       2.2615                 2.5048                 1.1950
 IR Active:          YES                    YES                    YES
 IR Intens:      166.261                161.917                133.801
 Raman Active:       YES                    YES                    YES
               X      Y      Z        X      Y      Z        X      Y      Z
 C         -0.043  0.128  0.005   -0.024 -0.210  0.080   -0.004 -0.043  0.020
 O         -0.008 -0.121  0.023    0.009  0.196 -0.065    0.002  0.041 -0.016
 C          0.152 -0.116 -0.100    0.084 -0.083 -0.037    0.018 -0.023 -0.022
 O         -0.086  0.079  0.033   -0.048  0.044  0.020   -0.015  0.012  0.006
 O         -0.008  0.011  0.002    0.007  0.025 -0.004    0.001  0.006 -0.001
 C          0.012  0.015  0.062   -0.009  0.008  0.018    0.024  0.004  0.016
 C         -0.019 -0.000 -0.048   -0.011  0.004 -0.037   -0.009 -0.009  0.043
 C          0.005  0.013  0.009   -0.027  0.002  0.020    0.053  0.001 -0.039
 O         -0.005 -0.008 -0.018    0.018 -0.003 -0.011   -0.036  0.004  0.011
 O         -0.000 -0.004  0.002    0.012 -0.007  0.002   -0.024  0.015 -0.003
 H         -0.118  0.132 -0.064   -0.261 -0.533  0.249   -0.065 -0.111  0.047
 H          0.241  0.193 -0.110   -0.010 -0.295  0.070   -0.007 -0.081  0.019
 H          0.059  0.223  0.032    0.014  0.183 -0.076    0.001  0.053 -0.017
 H          0.404 -0.368 -0.191    0.205 -0.187 -0.095    0.074 -0.066 -0.035
 H          0.228  0.023  0.243    0.039  0.014  0.058    0.123  0.009  0.100
 H         -0.398 -0.052  0.082    0.038 -0.032 -0.059   -0.356 -0.023  0.169
 H         -0.161 -0.014  0.049   -0.313 -0.125  0.044    0.603  0.235 -0.095
 H          0.158  0.085  0.156    0.215  0.117  0.202   -0.345 -0.187 -0.322
 H          0.005 -0.000 -0.006   -0.069  0.133  0.014    0.135 -0.245 -0.033
 TransDip   0.292 -0.078 -0.282   -0.027 -0.406 -0.014    0.066 -0.340 -0.133

 Mode:                34                     35                     36
 Frequency:      1321.79                1342.74                1371.98
 Force Cnst:      1.6986                 1.5089                 1.5369
 Red. Mass:       1.6501                 1.4205                 1.3858
 IR Active:          YES                    YES                    YES
 IR Intens:      196.654                 37.095                 15.644
 Raman Active:       YES                    YES                    YES
               X      Y      Z        X      Y      Z        X      Y      Z
 C          0.014  0.008  0.020   -0.006 -0.008 -0.072   -0.045 -0.036 -0.000
 O         -0.003 -0.002 -0.004    0.007  0.021  0.027    0.006  0.004 -0.005
 C         -0.014 -0.019 -0.054    0.007  0.035  0.148    0.022  0.038  0.060
 O          0.018 -0.007  0.016   -0.034  0.009 -0.040   -0.017  0.003 -0.017
 O         -0.001  0.006 -0.000    0.003 -0.004 -0.007    0.002 -0.011  0.002
 C         -0.026 -0.004  0.031    0.019  0.004  0.013   -0.037  0.003 -0.087
 C          0.032  0.010 -0.044    0.023  0.008 -0.038   -0.068 -0.004  0.058
 C          0.127  0.004  0.094    0.021 -0.008 -0.007   -0.010 -0.011  0.057
 O         -0.091 -0.029 -0.086   -0.010  0.000 -0.003   -0.017 -0.004 -0.049
 O         -0.027 -0.000  0.002   -0.002 -0.008  0.007   -0.006  0.010 -0.007
 H         -0.140 -0.078 -0.004    0.122 -0.048  0.075    0.302  0.182  0.025
 H          0.042  0.024  0.007   -0.128  0.061 -0.013    0.118 -0.017 -0.061
 H          0.022  0.100 -0.004   -0.062 -0.373  0.020   -0.007 -0.015 -0.003
 H         -0.186  0.184  0.107    0.445 -0.431 -0.255    0.201 -0.195 -0.115
 H         -0.194 -0.033 -0.105   -0.329 -0.004 -0.285    0.399  0.043  0.280
 H          0.105  0.013 -0.065   -0.141 -0.021  0.017    0.443 -0.010 -0.123
 H          0.017  0.537  0.455   -0.116  0.245  0.190    0.388  0.078 -0.021
 H          0.222  0.106  0.243   -0.017 -0.015 -0.014    0.224  0.118  0.209
 H          0.191 -0.331 -0.049    0.048 -0.077 -0.019    0.065 -0.105 -0.022
 TransDip   0.416  0.051  0.161    0.109 -0.160 -0.021    0.099 -0.015  0.078

 Mode:                37                     38                     39
 Frequency:      1384.01                1404.21                1410.70
 Force Cnst:      1.4722                 1.6361                 1.4825
 Red. Mass:       1.3045                 1.4083                 1.2644
 IR Active:          YES                    YES                    YES
 IR Intens:       16.709                 34.369                123.371
 Raman Active:       YES                    YES                    YES
               X      Y      Z        X      Y      Z        X      Y      Z
 C         -0.076 -0.080  0.080    0.033  0.035 -0.007   -0.081 -0.065 -0.029
 O          0.008 -0.007 -0.050   -0.007 -0.010  0.001    0.020  0.044  0.041
 C         -0.017  0.014  0.017    0.020  0.002 -0.005   -0.003 -0.019 -0.062
 O         -0.000 -0.003 -0.004   -0.003  0.002  0.002    0.007  0.001  0.015
 O          0.006  0.011 -0.003   -0.003 -0.009  0.003    0.002  0.011  0.000
 C          0.009 -0.001  0.018   -0.028 -0.001 -0.047   -0.004 -0.002  0.009
 C          0.018  0.006 -0.016   -0.034  0.016  0.048    0.004  0.003  0.004
 C          0.010 -0.015 -0.042   -0.018 -0.076 -0.119    0.003 -0.012 -0.029
 O          0.004  0.004  0.017    0.020  0.019  0.024    0.003  0.003  0.010
 O          0.007 -0.010  0.011    0.035 -0.031  0.033    0.006 -0.005  0.007
 H          0.500  0.483 -0.089   -0.153 -0.097 -0.006    0.167 -0.061  0.142
 H          0.246 -0.144 -0.049   -0.155 -0.097  0.062    0.529  0.526 -0.257
 H          0.087  0.476 -0.040   -0.007  0.005  0.002   -0.066 -0.467  0.033
 H          0.014 -0.015 -0.010   -0.016  0.009  0.008   -0.136  0.125  0.079
 H         -0.167 -0.026 -0.125    0.270 -0.004  0.205    0.057  0.005  0.062
 H         -0.113  0.006  0.031    0.144 -0.009 -0.013   -0.035  0.004  0.020
 H         -0.179  0.179  0.134   -0.194  0.656  0.361   -0.076  0.103  0.062
 H         -0.088 -0.050 -0.084   -0.086 -0.057 -0.098   -0.045 -0.025 -0.043
 H         -0.036  0.069  0.008   -0.168  0.333  0.039   -0.038  0.073  0.011
 TransDip  -0.122 -0.049 -0.001   -0.111  0.016 -0.150   -0.178 -0.308 -0.005

 Mode:                40                     41                     42
 Frequency:      1470.82                1485.40                1716.46
 Force Cnst:      2.1685                 1.5447                12.8460
 Red. Mass:       1.7014                 1.1883                 7.4003
 IR Active:          YES                    YES                    YES
 IR Intens:      146.708                  5.539                 15.342
 Raman Active:       YES                    YES                    YES
               X      Y      Z        X      Y      Z        X      Y      Z
 C         -0.009  0.030 -0.012    0.023 -0.102  0.038    0.001 -0.006  0.014
 O         -0.003 -0.005  0.001    0.009  0.017 -0.004   -0.001 -0.000 -0.002
 C          0.021  0.011  0.015    0.024  0.008  0.006    0.060  0.024  0.021
 O         -0.004  0.002 -0.003   -0.009  0.004 -0.000   -0.008  0.002 -0.004
 O         -0.002 -0.007  0.001    0.000 -0.001 -0.000   -0.006 -0.011 -0.002
 C         -0.085 -0.000 -0.053   -0.017 -0.001 -0.014   -0.482 -0.013 -0.114
 C         -0.000  0.002  0.041   -0.010  0.000  0.009    0.558  0.009 -0.002
 C          0.195  0.068 -0.028    0.041  0.013 -0.006   -0.133 -0.016  0.028
 O         -0.037 -0.020  0.035   -0.007 -0.004  0.006    0.003  0.003  0.003
 O         -0.035  0.013 -0.006   -0.007  0.002 -0.001    0.010  0.001  0.003
 H          0.083 -0.082  0.177   -0.248  0.279 -0.570   -0.015  0.013 -0.017
 H          0.078 -0.191 -0.058   -0.298  0.588  0.204    0.010  0.019  0.015
 H         -0.009 -0.015  0.002    0.006  0.001 -0.004    0.004  0.015 -0.001
 H          0.052 -0.050 -0.028    0.054 -0.046 -0.028    0.041 -0.047 -0.025
 H          0.188  0.012  0.187    0.062  0.005  0.053   -0.050 -0.019  0.346
 H          0.230  0.007 -0.028    0.059  0.001 -0.013   -0.287  0.008  0.355
 H         -0.596 -0.300  0.019   -0.118 -0.052  0.009    0.261  0.032 -0.062
 H         -0.312 -0.160 -0.260   -0.058 -0.030 -0.048    0.038  0.021  0.042
 H          0.127 -0.255 -0.026    0.027 -0.053 -0.006   -0.032  0.060  0.008
 TransDip   0.386 -0.034 -0.026    0.017 -0.073 -0.009    0.059 -0.050  0.099

 Mode:                43                     44                     45
 Frequency:      3079.97                3095.92                3140.88
 Force Cnst:      5.9120                 6.1383                 6.4556
 Red. Mass:       1.0578                 1.0870                 1.1107
 IR Active:          YES                    YES                    YES
 IR Intens:       42.461                 26.861                 24.616
 Raman Active:       YES                    YES                    YES
               X      Y      Z        X      Y      Z        X      Y      Z
 C         -0.050  0.044 -0.011   -0.002  0.001 -0.000    0.000 -0.031 -0.092
 O          0.000  0.000  0.000    0.000  0.000  0.000    0.000  0.000  0.002
 C         -0.000 -0.000  0.000    0.001  0.000 -0.000   -0.000 -0.001 -0.002
 O          0.000 -0.000 -0.000   -0.000 -0.000 -0.000   -0.000  0.000  0.000
 O          0.000  0.000  0.000   -0.000 -0.000 -0.000   -0.000  0.000  0.000
 C          0.000  0.000 -0.000    0.001 -0.000 -0.000   -0.001  0.000  0.001
 C          0.000 -0.000 -0.000    0.000 -0.000  0.005   -0.000 -0.000 -0.000
 C          0.001 -0.001  0.002   -0.022  0.040 -0.071   -0.000  0.000 -0.000
 O         -0.000  0.000 -0.000   -0.000 -0.000  0.001   -0.000 -0.000  0.000
 O         -0.000  0.000  0.000    0.000  0.001  0.001   -0.000 -0.000  0.000
 H          0.345 -0.499 -0.465    0.010 -0.014 -0.013   -0.297  0.415  0.379
 H          0.240 -0.030  0.593    0.006 -0.001  0.014    0.300 -0.040  0.703
 H          0.001 -0.002 -0.007   -0.000 -0.000 -0.000   -0.007 -0.007 -0.012
 H         -0.000  0.001  0.003   -0.001 -0.000  0.000   -0.003  0.001  0.003
 H         -0.003  0.001  0.002   -0.002  0.001  0.005    0.013 -0.000 -0.012
 H          0.000 -0.001  0.001   -0.019  0.002 -0.045    0.001 -0.000  0.004
 H         -0.007  0.012 -0.021    0.279 -0.484  0.823    0.001 -0.001  0.002
 H         -0.000  0.000  0.000    0.001 -0.003 -0.007   -0.000 -0.000 -0.000
 H          0.000 -0.000 -0.000   -0.004  0.006  0.003    0.000  0.000  0.000
 TransDip  -0.143  0.140 -0.058   -0.059  0.109 -0.110    0.008 -0.063 -0.146

 Mode:                46                     47                     48
 Frequency:      3172.06                3206.40                3760.66
 Force Cnst:      6.4487                 6.6374                 8.8777
 Red. Mass:       1.0878                 1.0958                 1.0654
 IR Active:          YES                    YES                    YES
 IR Intens:        2.154                  2.194                199.543
 Raman Active:       YES                    YES                    YES
               X      Y      Z        X      Y      Z        X      Y      Z
 C         -0.000  0.000  0.001    0.000 -0.000 -0.002    0.000 -0.000 -0.000
 O         -0.000  0.000 -0.000   -0.000 -0.000  0.000   -0.000 -0.000  0.000
 C          0.000 -0.000  0.001    0.001  0.000  0.001   -0.000  0.000  0.000
 O         -0.000 -0.000 -0.000    0.000  0.000  0.000   -0.001 -0.000 -0.002
 O          0.000  0.000 -0.000    0.000 -0.000  0.000    0.000 -0.000  0.000
 C         -0.011  0.000  0.017    0.059 -0.001 -0.062   -0.000  0.000  0.000
 C         -0.029  0.002 -0.077   -0.014  0.000 -0.022    0.000  0.000 -0.000
 C         -0.003  0.002 -0.003   -0.001  0.000 -0.000   -0.002 -0.001 -0.001
 O          0.000  0.000  0.000    0.000  0.000  0.000    0.000  0.000  0.001
 O          0.000 -0.000  0.000    0.000 -0.000 -0.000   -0.045 -0.024 -0.035
 H          0.003 -0.004 -0.004   -0.008  0.008  0.007    0.001  0.000 -0.000
 H         -0.002  0.000 -0.005    0.003 -0.000  0.009   -0.000  0.000 -0.000
 H          0.000  0.001 -0.000   -0.001 -0.002  0.002    0.000  0.000 -0.000
 H         -0.000 -0.000  0.000   -0.000  0.000 -0.000    0.014 -0.001  0.023
 H          0.166 -0.005 -0.198   -0.624  0.017  0.733   -0.000 -0.000 -0.001
 H          0.321 -0.025  0.906    0.087 -0.006  0.238   -0.000 -0.000  0.001
 H          0.013 -0.024  0.041    0.001 -0.004  0.006   -0.001  0.004  0.001
 H          0.003  0.001 -0.001    0.001  0.000 -0.000    0.006  0.002 -0.008
 H         -0.002  0.000 -0.000   -0.000  0.000  0.000    0.734  0.383  0.557
 TransDip  -0.027  0.005 -0.038   -0.019  0.017 -0.040    0.318  0.198  0.253

 Mode:                49                     50                     51
 Frequency:      3793.99                3823.39                3823.63
 Force Cnst:      9.0431                 9.1887                 9.1876
 Red. Mass:       1.0663                 1.0669                 1.0666
 IR Active:          YES                    YES                    YES
 IR Intens:      137.908                151.300                119.234
 Raman Active:       YES                    YES                    YES
               X      Y      Z        X      Y      Z        X      Y      Z
 C          0.000  0.000  0.000   -0.000 -0.001 -0.002    0.000  0.000  0.000
 O         -0.000 -0.000 -0.000   -0.007  0.004 -0.061    0.001 -0.001  0.011
 C         -0.001 -0.000 -0.001   -0.000 -0.000 -0.000    0.000  0.000  0.000
 O         -0.027 -0.003 -0.056    0.000  0.000  0.000   -0.000 -0.000 -0.000
 O         -0.000  0.000  0.000    0.000  0.000  0.000   -0.000 -0.000 -0.000
 C          0.000  0.000  0.000   -0.000  0.000  0.000   -0.000  0.000 -0.000
 C          0.000  0.000  0.000    0.000 -0.000 -0.000   -0.000 -0.000 -0.000
 C         -0.000  0.000  0.000    0.000  0.000 -0.000   -0.000  0.000 -0.002
 O         -0.000 -0.000  0.000    0.007  0.003 -0.008    0.040  0.015 -0.044
 O          0.001  0.001  0.001   -0.000 -0.000 -0.000   -0.001 -0.000 -0.000
 H         -0.002  0.000  0.001   -0.002 -0.002  0.004    0.000  0.000 -0.001
 H          0.001  0.000 -0.002    0.003 -0.002  0.013   -0.001  0.000 -0.002
 H          0.001 -0.000  0.006    0.122 -0.035  0.974   -0.022  0.006 -0.173
 H          0.442  0.037  0.894   -0.002 -0.000 -0.005    0.002  0.000  0.004
 H          0.000 -0.001  0.001    0.001 -0.001 -0.002   -0.000  0.000  0.000
 H          0.000  0.000 -0.000   -0.000 -0.000  0.000    0.000 -0.000  0.002
 H         -0.000 -0.000 -0.000   -0.000 -0.001  0.001   -0.003 -0.004  0.004
 H          0.002  0.001 -0.003   -0.112 -0.042  0.127   -0.632 -0.236  0.714
 H         -0.020 -0.010 -0.015    0.002  0.001  0.001    0.007  0.003  0.005
 TransDip   0.112  0.061  0.354   -0.084 -0.128  0.363   -0.295 -0.109  0.152

 STANDARD THERMODYNAMIC QUANTITIES AT   298.15 K  AND     1.00 ATM

   This Molecule has  0 Imaginary Frequencies
   Zero point vibrational energy:       92.907 kcal/mol

   Atom    1 Element C  Has Mass   12.00000
   Atom    2 Element O  Has Mass   15.99491
   Atom    3 Element C  Has Mass   12.00000
   Atom    4 Element O  Has Mass   15.99491
   Atom    5 Element O  Has Mass   15.99491
   Atom    6 Element C  Has Mass   12.00000
   Atom    7 Element C  Has Mass   12.00000
   Atom    8 Element C  Has Mass   12.00000
   Atom    9 Element O  Has Mass   15.99491
   Atom   10 Element O  Has Mass   15.99491
   Atom   11 Element H  Has Mass    1.00783
   Atom   12 Element H  Has Mass    1.00783
   Atom   13 Element H  Has Mass    1.00783
   Atom   14 Element H  Has Mass    1.00783
   Atom   15 Element H  Has Mass    1.00783
   Atom   16 Element H  Has Mass    1.00783
   Atom   17 Element H  Has Mass    1.00783
   Atom   18 Element H  Has Mass    1.00783
   Atom   19 Element H  Has Mass    1.00783
   Molecular Mass:   149.045020 amu
   Principal axes and moments of inertia in amu*Bohr^2:
                             1           2           3
    Eigenvalues --      687.33896  2409.78629  2508.59644
          X               0.97937    -0.16705    -0.11371
          Y               0.14960     0.97764    -0.14777
          Z               0.13585     0.12771     0.98246
   Rotational Symmetry Number is   1
   The Molecule is an Asymmetric Top
   Translational Enthalpy:        0.889 kcal/mol
   Rotational Enthalpy:           0.889 kcal/mol
   Vibrational Enthalpy:         98.383 kcal/mol
   gas constant (RT):             0.592 kcal/mol
   Translational Entropy:        40.907  cal/mol.K
   Rotational Entropy:           29.809  cal/mol.K
   Vibrational Entropy:          34.085  cal/mol.K

   Total Enthalpy:              100.753 kcal/mol
   Total Entropy:               104.801  cal/mol.K
 Total job time:  25420.84s(wall), 362204.01s(cpu) 
 Sat Aug 17 17:59:52 2024

        *************************************************************
        *                                                           *
        *  Thank you very much for using Q-Chem.  Have a nice day.  *
        *                                                           *
        *************************************************************


