
Running Job 1 of 2 Q_in.in
qchem Q_in.in_211050.0 /scratch/ari.fischer/qChem2188629.hpc-mn1/qchem211050/ 0
/usr/local/qchem-5.4.1/exe/qcprog.exe_s Q_in.in_211050.0 /scratch/ari.fischer/qChem2188629.hpc-mn1/qchem211050/
                  Welcome to Q-Chem
     A Quantum Leap Into The Future Of Chemistry


 Q-Chem 5.4, Q-Chem, Inc., Pleasanton, CA (2021)

 License issued to: Nanyang Technological University (site)

 E. Epifanovsky,  A. T. B. Gilbert,  Xintian Feng,  Joonho Lee,  Yuezhi Mao,  
 N. Mardirossian,  P. Pokhilko,  A. White,  M. Wormit,  M. P. Coons,  
 A. L. Dempwolff,  Zhengting Gan,  D. Hait,  P. R. Horn,  L. D. Jacobson,  
 I. Kaliman,  J. Kussmann,  A. W. Lange,  Ka Un Lao,  D. S. Levine,  Jie Liu,  
 S. C. McKenzie,  A. F. Morrison,  K. Nanda,  F. Plasser,  D. R. Rehn,  
 M. L. Vidal,  Zhi-Qiang You,  Ying Zhu,  B. Alam,  B. Albrecht,  
 A. Aldossary,  E. Alguire,  J. H. Andersen,  D. Barton,  K. Begam,  A. Behn,  
 Y. A. Bernard,  E. J. Berquist,  H. Burton,  A. Carreras,  K. Carter-Fenk,  
 R. Chakraborty,  A. D. Chien,  K. D. Closser,  V. Cofer-Shabica,  
 S. Dasgupta,  Jia Deng,  M. de Wergifosse,  M. Diedenhofen,  Hainam Do,  
 S. Ehlert,  Po-Tung Fang,  S. Fatehi,  Qingguo Feng,  T. Friedhoff,  
 J. Gayvert,  Qinghui Ge,  G. Gidofalvi,  M. Goldey,  J. Gomes,  
 C. Gonzalez-Espinoza,  S. Gulania,  A. Gunina,  M. W. D. Hanson-Heine,  
 P. H. P. Harbach,  A. W. Hauser,  M. F. Herbst,  M. Hernandez Vera,  
 M. Hodecker,  Z. C. Holden,  S. Houck,  Xunkun Huang,  Kerwin Hui,  
 B. C. Huynh,  M. Ivanov,  Hyunjun Ji,  Hanjie Jiang,  B. Kaduk,  S. Kaehler,  
 K. Khistyaev,  Jaehoon Kim,  P. Klunzinger,  Z. Koczor-Benda,  
 Joong Hoon Koh,  D. Kosenkov,  L. Koulias,  T. Kowalczyk,  C. M. Krauter,  
 K. Kue,  A. Kunitsa,  T. Kus,  A. Landau,  K. V. Lawler,  D. Lefrancois,  
 S. Lehtola,  Rain Li,  Yi-Pei Li,  Jiashu Liang,  M. Liebenthal,  
 Hung-Hsuan Lin,  You-Sheng Lin,  Fenglai Liu,  Kuan-Yu Liu,  
 M. Loipersberger,  A. Luenser,  A. Manjanath,  P. Manohar,  E. Mansoor,  
 S. F. Manzer,  Shan-Ping Mao,  A. V. Marenich,  T. Markovich,  S. Mason,  
 S. A. Maurer,  P. F. McLaughlin,  M. F. S. J. Menger,  J.-M. Mewes,  
 S. A. Mewes,  P. Morgante,  J. W. Mullinax,  K. J. Oosterbaan,  G. Paran,  
 Alexander C. Paul,  Suranjan K. Paul,  F. Pavosevic,  Zheng Pei,  S. Prager,  
 E. I. Proynov,  E. Ramos,  B. Rana,  A. E. Rask,  A. Rettig,  R. M. Richard,  
 F. Rob,  E. Rossomme,  T. Scheele,  M. Scheurer,  M. Schneider,  
 N. Sergueev,  S. M. Sharada,  W. Skomorowski,  D. W. Small,  C. J. Stein,  
 Yu-Chuan Su,  E. J. Sundstrom,  Zhen Tao,  J. Thirman,  T. Tsuchimochi,  
 N. M. Tubman,  S. P. Veccham,  O. Vydrov,  J. Wenzel,  J. Witte,  A. Yamada,  
 Kun Yao,  S. Yeganeh,  S. R. Yost,  A. Zech,  Igor Ying Zhang,  Xing Zhang,  
 Yu Zhang,  D. Zuev,  A. Aspuru-Guzik,  A. T. Bell,  N. A. Besley,  
 K. B. Bravaya,  B. R. Brooks,  D. Casanova,  Jeng-Da Chai,  S. Coriani,  
 C. J. Cramer,  A. E. DePrince, III,  R. A. DiStasio Jr.,  A. Dreuw,  
 B. D. Dunietz,  T. R. Furlani,  W. A. Goddard III,  S. Grimme,  
 S. Hammes-Schiffer,  T. Head-Gordon,  W. J. Hehre,  Chao-Ping Hsu,  
 T.-C. Jagau,  Yousung Jung,  A. Klamt,  Jing Kong,  D. S. Lambrecht,  
 WanZhen Liang,  N. J. Mayhall,  C. W. McCurdy,  J. B. Neaton,  
 C. Ochsenfeld,  J. A. Parkhill,  R. Peverati,  V. A. Rassolov,  Yihan Shao,  
 L. V. Slipchenko,  T. Stauch,  R. P. Steele,  J. E. Subotnik,  
 A. J. W. Thom,  A. Tkatchenko,  D. G. Truhlar,  T. Van Voorhis,  
 T. A. Wesolowski,  K. B. Whaley,  H. L. Woodcock III,  P. M. Zimmerman,  
 S. Faraji,  P. M. W. Gill,  M. Head-Gordon,  J. M. Herbert,  A. I. Krylov

 Additional authors for Version 5.4.1: 
 S. Kotaru,  Shaozhi Li,  Xiangyuan Li,  F. Matz,  A. Molle,  Haisheng Ren,  
 Yingli Su,  Hung-Yi Tsai,  C. Utku,  Fang Wang

 Contributors to earlier versions of Q-Chem not listed above: 
 R. D. Adamson,  B. Austin,  R. Baer,  J. Baker,  G. J. O. Beran,  
 K. Brandhorst,  S. T. Brown,  E. F. C. Byrd,  A. K. Chakraborty,  
 G. K. L. Chan,  Chun-Min Chang,  Yunqing Chen,  C.-L. Cheng,  
 Siu Hung Chien,  D. M. Chipman,  D. L. Crittenden,  H. Dachsel,  
 R. J. Doerksen,  A. D. Dutoi,  R. G. Edgar,  J. Fosso-Tande,  
 L. Fusti-Molnar,  D. Ghosh,  A. Ghysels,  A. Golubeva-Zadorozhnaya,  
 J. Gonthier,  M. S. Gordon,  S. R. Gwaltney,  G. Hawkins,  J. E. Herr,  
 A. Heyden,  S. Hirata,  E. G. Hohenstein,  G. Kedziora,  F. J. Keil,  
 C. Kelley,  Jihan Kim,  R. A. King,  R. Z. Khaliullin,  P. P. Korambath,  
 W. Kurlancheek,  A. Laurent,  A. M. Lee,  M. S. Lee,  S. V. Levchenko,  
 Ching Yeh Lin,  D. Liotard,  E. Livshits,  R. C. Lochan,  I. Lotan,  
 L. A. Martinez-Martinez,  P. E. Maslen,  N. Nair,  D. P. O'Neill,  
 D. Neuhauser,  E. Neuscamman,  C. M. Oana,  R. Olivares-Amaya,  R. Olson,  
 T. M. Perrine,  B. Peters,  P. A. Pieniazek,  A. Prociuk,  Y. M. Rhee,  
 J. Ritchie,  M. A. Rohrdanz,  E. Rosta,  N. J. Russ,  H. F. Schaefer III,  
 M. W. Schmidt,  N. E. Schultz,  S. Sharma,  N. Shenvi,  C. D. Sherrill,  
 A. C. Simmonett,  A. Sodt,  T. Stein,  D. Stuck,  K. S. Thanthiriwatte,  
 V. Vanovschi,  L. Vogt,  Tao Wang,  A. Warshel,  M. A. Watson,  
 C. F. Williams,  Q. Wu,  X. Xu,  Jun Yang,  W. Zhang,  Yan Zhao

 Please cite Q-Chem as follows:
 Y. Shao et al., Mol. Phys. 113, 184-215 (2015)
 DOI: 10.1080/00268976.2014.952696

 Q-Chem 5.4.1 for Intel X86 EM64T Linux

 Parts of Q-Chem use Armadillo 9.800.1 (Horizon Scraper).
 http://arma.sourceforge.net/

 Q-Chem begins on Wed Jun 26 09:33:02 2024  

 Host: 
0

     Scratch files written to /scratch/ari.fischer/qChem2188629.hpc-mn1/qchem211050//
 Aug1521 |scratch|qcdevops|jenkins|workspace|build_RNUM 8249   
 Processing $rem in /usr/local/qchem-5.4.1/config/preferences:
 Processing $rem in /home/ari.fischer/.qchemrc:
 Symmetry turned off for PCM/SM12/SMD calculation


!!********************************************.
!!******************Warning*******************.
!!Desired Analytical derivatives not available.
!!Finite difference job might take a long time.
!!********************************************.
!!********************************************.


 2-order derivative to be evaluated numerically with 1-order analytical derivatives

 Checking the input file for inconsistencies... 	...done.

--------------------------------------------------------------
User input:
--------------------------------------------------------------
$molecule
0 2
C         2.6192240219   -1.0828698462   -1.0845610211
O         1.5789866220   -0.1353766305   -1.1236480128
C         3.5594848015   -0.6406387994    0.0585635369
O         2.8893700751   -0.8942108285    1.2507033886
C         3.9906051896    0.7894153515   -0.0955170335
C         5.1967945156    1.1941591900    1.4441235199
O         4.4366924953    0.9794321718    2.4169628352
H         3.1665877112   -1.1208446857   -2.0289510291
H         1.0350180870   -0.3477769984   -1.9005740480
H         3.2185340774    1.5311674601    0.0880547472
H         4.6605576911    1.0093018126   -0.9228886025
H         5.9315169578    0.4526635111    1.0994447192
O         2.1471535869   -2.3838632855   -0.8487177605
H         1.7642894012   -2.3750468571    0.0478517429
O         4.6934468164   -1.5358944415    0.1015615685
O         5.4369662604   -1.3948293333   -1.1184797677
H         3.3686610582   -0.3946989313    1.9510580586
H         6.1908938688   -0.8469165251   -0.8280441568
O         5.6172368807    2.4537194265    1.1390635468
H         5.0400048819    3.0736853390    1.6254962683
$end

$rem
BASIS = 6-311++G(2df,2p)
GUI = 2
JOB_TYPE = Frequency
METHOD = wB97M-V
SCF_ALGORITHM = DIIS_GDM
MAX_SCF_CYCLES = 400
SCF_CONVERGENCE = 6
THRESH = 11
solvent_method = SMD
$end

--------------------------------------------------------------
 ----------------------------------------------------------------
             Standard Nuclear Orientation (Angstroms)
    I     Atom           X                Y                Z
 ----------------------------------------------------------------
    1      C       2.6192240219    -1.0828698462    -1.0845610211
    2      O       1.5789866220    -0.1353766305    -1.1236480128
    3      C       3.5594848015    -0.6406387994     0.0585635369
    4      O       2.8893700751    -0.8942108285     1.2507033886
    5      C       3.9906051896     0.7894153515    -0.0955170335
    6      C       5.1967945156     1.1941591900     1.4441235199
    7      O       4.4366924953     0.9794321718     2.4169628352
    8      H       3.1665877112    -1.1208446857    -2.0289510291
    9      H       1.0350180870    -0.3477769984    -1.9005740480
   10      H       3.2185340774     1.5311674601     0.0880547472
   11      H       4.6605576911     1.0093018126    -0.9228886025
   12      H       5.9315169578     0.4526635111     1.0994447192
   13      O       2.1471535869    -2.3838632855    -0.8487177605
   14      H       1.7642894012    -2.3750468571     0.0478517429
   15      O       4.6934468164    -1.5358944415     0.1015615685
   16      O       5.4369662604    -1.3948293333    -1.1184797677
   17      H       3.3686610582    -0.3946989313     1.9510580586
   18      H       6.1908938688    -0.8469165251    -0.8280441568
   19      O       5.6172368807     2.4537194265     1.1390635468
   20      H       5.0400048819     3.0736853390     1.6254962683
 ----------------------------------------------------------------
 Nuclear Repulsion Energy =         722.37881795 hartrees
 There are       45 alpha and       44 beta electrons
 Requested basis set is 6-311++G(2df,2p)
 There are 142 shells and 464 basis functions

 Total QAlloc Memory Limit 288000 MB
 Mega-Array Size       188 MB
 MEM_STATIC part       192 MB
 
 Citation of the SMD model:
 Marenich, A.V.; Cramer, C.J.; Truhlar, D.G.
 J. Phys. Chem. B 2009, 113, 6378-6396.
 iSolventCode=           1
 Solvent: water                                                           
 
 vradii
            1           2           3           4           5           6
    1   1.8500000   1.5200000   1.8500000   1.5200000   1.8500000   1.8500000
            7           8           9          10          11          12
    1   1.5200000   1.2000000   1.2000000   1.2000000   1.2000000   1.2000000
           13          14          15          16          17          18
    1   1.5200000   1.2000000   1.5200000   1.5200000   1.2000000   1.2000000
           19          20
    1   1.5200000   1.2000000
 Changing PCM_VDW_RADII to SMD_RADIUS
 Discretize the solute cavity surface with Lebedev spheres
	Using 110 Lebedev grid points for each H atom
	Using 194 Lebedev grid points for other atoms
	Atomic van der Waals radii will be scaled by 1.20
 Remove points where switching function is < 1.0e-08
 Keep 1550 surface tesserae and discard 1574 interior tesserae
 Molecular Surface Area = 171.805 Angst**2
 A cutoff of  1.0D-11 yielded   8672 shell pairs
 There are     91166 function pairs (    112872 Cartesian)
 Smallest overlap matrix eigenvalue = 6.70E-06
 Guess from superposition of atomic densities
 Warning:  Energy on first SCF cycle will be non-variational
 SAD guess density has 89.000000 electrons

 -----------------------------------------------------------------------
  General SCF calculation program by
  Eric Jon Sundstrom, Paul Horn, Yuezhi Mao, Dmitri Zuev, Alec White,
  David Stuck, Shaama M.S., Shane Yost, Joonho Lee, David Small,
  Daniel Levine, Susi Lehtola, Hugh Burton, Evgeny Epifanovsky,
  Bang C. Huynh
 -----------------------------------------------------------------------
 Exchange:     0.1500 Hartree-Fock + 1.0000 wB97M-V + LR-HF
 Correlation:  1.0000 wB97M-V
 Using SG-2 standard quadrature grid
 Nonlocal Correlation:  VV10 with C = 0.0100 and b = 6.00 and scale = 1.00000
 Grid used for NLC:  SG-1 standard quadrature
 using 16 threads for integral computing
 -------------------------------------------------------
 OpenMP Integral computing Module                
 Release: version 1.0, May 2013, Q-Chem Inc. Pittsburgh 
 -------------------------------------------------------
 
 Citation of the SMD model:
 Marenich, A.V.; Cramer, C.J.; Truhlar, D.G.
 J. Phys. Chem. B 2009, 113, 6378-6396.
 iSolventCode=           1
 Solvent: water                                                           
 
 vradii
            1           2           3           4           5           6
    1   1.8500000   1.5200000   1.8500000   1.5200000   1.8500000   1.8500000
            7           8           9          10          11          12
    1   1.5200000   1.2000000   1.2000000   1.2000000   1.2000000   1.2000000
           13          14          15          16          17          18
    1   1.5200000   1.2000000   1.5200000   1.5200000   1.2000000   1.2000000
           19          20
    1   1.5200000   1.2000000
 -------------------------------------------------------
 OpenMP BLAS3 based DFT computing Module                
 Release: version 1.0, May 2013, Q-Chem Inc. Pittsburgh 
 -------------------------------------------------------
 A unrestricted SCF calculation will be
 performed using DIIS, GDM
 SCF converges when RMS gradient is below 1.0e-06
 ---------------------------------------
  Cycle       Energy         DIIS error
 ---------------------------------------
    1    -686.2575878067      1.13e-02  
    2    -684.0791185895      1.66e-03  Done DIIS. Switching to GDM
 ---------------------------------------
  Cycle       Energy        RMS Gradient
 ---------------------------------------
    1    -684.0791185895      1.05e-01   Descent step
    2    -684.2749903927      3.94e-02   Normal BFGS step
    3    -684.3123465189      2.19e-02   Normal BFGS step
    4    -684.3143449750      1.70e-02   Normal BFGS step
    5    -684.3158092804      6.16e-03   Normal BFGS step
    6    -684.3159559545      3.08e-03   Normal BFGS step
    7    -684.3160099923      1.75e-03   Normal BFGS step
    8    -684.3160193000      6.99e-04   Normal BFGS step
    9    -684.3160212425      3.81e-04   Normal BFGS step
   10    -684.3160219874      1.22e-04   Normal BFGS step
   11    -684.3160221155      5.10e-05   Normal BFGS step
   12    -684.3160221436      2.25e-05   Normal BFGS step
   13    -684.3160221488      1.14e-05   Normal BFGS step
   14    -684.3160221501      6.62e-06   Normal BFGS step
   15    -684.3160221506      3.17e-06   Normal BFGS step
   16    -684.3160221507      1.79e-06   Normal BFGS step
   17    -684.3160221509      9.35e-07  Convergence criterion met
 ---------------------------------------
 SCF time:   CPU 2587.35s  wall 179.00s 
<S^2> =          0.759699209
(3)  G-ENP(liq) elect-nuc-pol free energy of system     -684.316022151 a.u.
(4)  G-CDS(liq) cavity-dispersion-solvent structure 
     free energy                                                4.8337 kcal/mol
(6)  G-S(liq) free energy of system                     -684.308319119 a.u.
 SCF   energy in the final basis set =     -684.3083191189
 Total energy in the final basis set =     -684.3083191189
 
 --------------------------------------------------------------
 
                    Orbital Energies (a.u.)
 --------------------------------------------------------------
 
 Alpha MOs
 -- Occupied --
-19.4083 -19.4012 -19.3759 -19.3565 -19.3516 -19.3508 -19.3436 -10.4876
-10.4720 -10.4535 -10.3854  -1.2782  -1.2343  -1.2139  -1.1824  -1.1493
 -1.1392  -1.0409  -0.8997  -0.8238  -0.7708  -0.7353  -0.6924  -0.6549
 -0.6492  -0.6274  -0.6161  -0.6129  -0.5911  -0.5801  -0.5676  -0.5630
 -0.5370  -0.5194  -0.5120  -0.4877  -0.4676  -0.4527  -0.4507  -0.4340
 -0.4190  -0.4159  -0.4070  -0.4001  -0.3318
 -- Virtual --
  0.0270   0.0373   0.0388   0.0434   0.0621   0.0652   0.0678   0.0736
  0.0859   0.0968   0.1018   0.1165   0.1211   0.1247   0.1297   0.1372
  0.1453   0.1482   0.1555   0.1629   0.1694   0.1758   0.1839   0.1864
  0.1971   0.2000   0.2037   0.2194   0.2315   0.2365   0.2420   0.2561
  0.2662   0.2721   0.2769   0.2796   0.2834   0.2869   0.2997   0.3052
  0.3097   0.3169   0.3196   0.3252   0.3344   0.3346   0.3453   0.3482
  0.3537   0.3589   0.3611   0.3658   0.3782   0.3809   0.3833   0.3950
  0.4002   0.4039   0.4113   0.4161   0.4247   0.4323   0.4403   0.4462
  0.4487   0.4520   0.4715   0.4780   0.4821   0.4934   0.5074   0.5168
  0.5669   0.5728   0.5816   0.6029   0.6125   0.6176   0.6396   0.6441
  0.6561   0.6711   0.6816   0.6880   0.6911   0.7052   0.7177   0.7233
  0.7281   0.7537   0.7552   0.7630   0.7748   0.7946   0.8080   0.8314
  0.8345   0.8470   0.8753   0.8858   0.9116   0.9273   0.9483   0.9670
  0.9723   1.0023   1.0133   1.0233   1.0417   1.0637   1.0660   1.0890
  1.0983   1.1047   1.1201   1.1267   1.1430   1.1503   1.1590   1.1635
  1.1710   1.1813   1.1957   1.2054   1.2120   1.2240   1.2296   1.2365
  1.2444   1.2485   1.2540   1.2669   1.2763   1.2821   1.2923   1.3097
  1.3248   1.3315   1.3498   1.3577   1.3595   1.3781   1.3861   1.4116
  1.4269   1.4458   1.4560   1.4663   1.4766   1.4872   1.4977   1.5153
  1.5367   1.5424   1.5490   1.5654   1.5842   1.6035   1.6071   1.6272
  1.6313   1.6617   1.6799   1.6944   1.7115   1.7154   1.7267   1.7463
  1.7703   1.7954   1.8111   1.8431   1.8723   1.8980   1.9044   1.9164
  1.9464   1.9606   1.9833   2.0145   2.0290   2.0553   2.0610   2.1069
  2.1320   2.1753   2.1966   2.2156   2.2498   2.2636   2.2674   2.3268
  2.3575   2.3736   2.3821   2.3947   2.4056   2.4390   2.4622   2.4775
  2.4900   2.5100   2.5480   2.5607   2.5835   2.6030   2.6333   2.6643
  2.6912   2.7041   2.7888   2.8101   2.8263   2.8502   2.8615   2.8941
  2.9129   2.9591   2.9978   3.0095   3.0561   3.0641   3.1105   3.1518
  3.1688   3.1807   3.2135   3.2454   3.2612   3.2931   3.3075   3.3163
  3.3394   3.3608   3.3792   3.3877   3.4235   3.4402   3.4628   3.4794
  3.4969   3.5318   3.5601   3.5899   3.6097   3.6194   3.6446   3.6521
  3.6822   3.7011   3.7254   3.7460   3.7497   3.7699   3.7823   3.7947
  3.8131   3.8275   3.8340   3.8539   3.8656   3.8823   3.8984   3.9130
  3.9226   3.9409   3.9439   3.9640   3.9817   4.0046   4.0545   4.0614
  4.0814   4.1162   4.1463   4.1740   4.1884   4.2061   4.2202   4.2271
  4.2422   4.2658   4.2877   4.2947   4.3433   4.3725   4.3853   4.4001
  4.4112   4.4437   4.4581   4.4780   4.4953   4.5695   4.6075   4.6215
  4.6982   4.7530   4.7741   4.8087   4.8588   4.9886   5.0480   5.0837
  5.0995   5.1528   5.1859   5.2075   5.2177   5.2242   5.2259   5.2481
  5.2522   5.2753   5.2807   5.2897   5.3026   5.3112   5.3164   5.3393
  5.3529   5.3614   5.3747   5.3789   5.4041   5.4100   5.4529   5.4548
  5.4838   5.4860   5.5043   5.5200   5.5418   5.5537   5.5694   5.5905
  5.5929   5.6020   5.6157   5.6243   5.6375   5.6568   5.6598   5.6814
  5.7088   5.7546   5.7777   5.7830   5.8123   5.8620   5.8944   5.9692
  6.0040   6.0347   6.0455   6.0645   6.1251   6.1626   6.2206   6.2987
  6.4998   6.5743   6.6251   6.7477   6.7795   6.8170   6.8407   6.9781
  7.0131   7.0261   7.0489   7.0623   7.0903   7.1029   7.1174   7.1455
  7.1917   7.2281   7.2436   7.2516   7.2614   7.2802   7.2905   7.3134
  7.3257   7.3405   7.3895   7.4074   7.4162   7.4404   7.4568   7.4959
  7.5031   7.5827   7.5918   7.6176   7.6493   7.6965   7.7086   7.7684
  7.8026   7.8105   7.8398   7.8585   7.8960   7.9130   8.0105   8.2097
 24.5441  24.7921  24.8468  25.0173  50.4934  50.5642  50.5956  50.6214
 50.6433  50.6992  50.7310
 
 Beta MOs
 -- Occupied --
-19.4081 -19.4012 -19.3746 -19.3564 -19.3515 -19.3505 -19.3357 -10.4883
-10.4724 -10.4527 -10.3754  -1.2778  -1.2286  -1.2133  -1.1818  -1.1394
 -1.1381  -1.0405  -0.8881  -0.8131  -0.7634  -0.7327  -0.6911  -0.6536
 -0.6441  -0.6214  -0.6108  -0.6075  -0.5827  -0.5785  -0.5630  -0.5489
 -0.5347  -0.5135  -0.5047  -0.4852  -0.4657  -0.4492  -0.4337  -0.4229
 -0.4171  -0.4087  -0.4001  -0.3946
 -- Virtual --
 -0.0539   0.0273   0.0373   0.0391   0.0437   0.0620   0.0659   0.0679
  0.0735   0.0873   0.0979   0.1043   0.1195   0.1247   0.1266   0.1361
  0.1413   0.1458   0.1488   0.1565   0.1633   0.1697   0.1784   0.1843
  0.1900   0.1992   0.2012   0.2050   0.2213   0.2318   0.2384   0.2427
  0.2572   0.2669   0.2727   0.2776   0.2812   0.2851   0.2883   0.3012
  0.3067   0.3122   0.3191   0.3232   0.3269   0.3361   0.3384   0.3468
  0.3497   0.3548   0.3606   0.3622   0.3687   0.3811   0.3819   0.3848
  0.3957   0.4026   0.4052   0.4145   0.4173   0.4254   0.4327   0.4412
  0.4484   0.4511   0.4545   0.4726   0.4797   0.4849   0.4958   0.5090
  0.5197   0.5687   0.5762   0.5850   0.6050   0.6143   0.6225   0.6413
  0.6475   0.6570   0.6765   0.6855   0.6903   0.6940   0.7092   0.7222
  0.7263   0.7336   0.7563   0.7587   0.7657   0.7778   0.7962   0.8134
  0.8345   0.8360   0.8500   0.8780   0.8900   0.9129   0.9283   0.9503
  0.9685   0.9756   1.0053   1.0157   1.0264   1.0455   1.0662   1.0674
  1.0928   1.1007   1.1076   1.1229   1.1286   1.1443   1.1517   1.1620
  1.1652   1.1739   1.1842   1.1976   1.2066   1.2157   1.2258   1.2325
  1.2384   1.2491   1.2504   1.2562   1.2701   1.2791   1.2847   1.2989
  1.3120   1.3265   1.3337   1.3529   1.3592   1.3637   1.3820   1.3897
  1.4145   1.4335   1.4493   1.4586   1.4712   1.4816   1.4905   1.5034
  1.5192   1.5426   1.5451   1.5505   1.5711   1.5880   1.6069   1.6101
  1.6310   1.6382   1.6669   1.6816   1.6984   1.7168   1.7216   1.7333
  1.7519   1.7747   1.7977   1.8156   1.8477   1.8778   1.9010   1.9074
  1.9212   1.9497   1.9622   1.9855   2.0172   2.0318   2.0579   2.0629
  2.1094   2.1354   2.1785   2.2020   2.2165   2.2520   2.2695   2.2709
  2.3289   2.3597   2.3756   2.3867   2.3957   2.4096   2.4418   2.4669
  2.4800   2.4924   2.5127   2.5513   2.5644   2.5877   2.6076   2.6535
  2.6740   2.6941   2.7185   2.7962   2.8202   2.8296   2.8569   2.8691
  2.9091   2.9257   2.9744   3.0086   3.0373   3.0655   3.0791   3.1245
  3.1640   3.1806   3.1976   3.2235   3.2518   3.2715   3.3084   3.3209
  3.3243   3.3496   3.3858   3.3896   3.4062   3.4355   3.4497   3.4726
  3.4898   3.5079   3.5409   3.5787   3.5996   3.6163   3.6270   3.6489
  3.6644   3.6929   3.7123   3.7460   3.7545   3.7583   3.7755   3.7928
  3.8000   3.8192   3.8300   3.8407   3.8639   3.8718   3.8862   3.9081
  3.9204   3.9318   3.9491   3.9520   3.9695   3.9922   4.0153   4.0642
  4.0696   4.0960   4.1293   4.1538   4.1861   4.1988   4.2187   4.2279
  4.2367   4.2549   4.2748   4.2928   4.2996   4.3500   4.3799   4.3979
  4.4125   4.4222   4.4550   4.4711   4.4997   4.5071   4.5796   4.6263
  4.6328   4.7037   4.7577   4.7969   4.8251   4.8618   4.9952   5.0486
  5.0967   5.1130   5.1681   5.1975   5.2097   5.2233   5.2319   5.2357
  5.2494   5.2583   5.2793   5.2829   5.2926   5.3139   5.3171   5.3250
  5.3445   5.3550   5.3754   5.3786   5.3816   5.4061   5.4141   5.4551
  5.4677   5.4869   5.4900   5.5085   5.5300   5.5495   5.5631   5.5739
  5.5949   5.6061   5.6139   5.6178   5.6276   5.6504   5.6589   5.6614
  5.7011   5.7255   5.7578   5.7852   5.7854   5.8141   5.8652   5.8971
  5.9730   6.0053   6.0359   6.0526   6.0656   6.1267   6.1635   6.2213
  6.3172   6.5016   6.5755   6.6275   6.7486   6.7847   6.8179   6.8413
  6.9972   7.0166   7.0420   7.0529   7.0689   7.0914   7.1073   7.1191
  7.1526   7.2000   7.2289   7.2445   7.2537   7.2650   7.2813   7.2923
  7.3158   7.3317   7.3468   7.3938   7.4136   7.4169   7.4551   7.4647
  7.4981   7.5040   7.5841   7.5930   7.6242   7.6501   7.6973   7.7134
  7.7709   7.8091   7.8183   7.8412   7.8594   7.8976   7.9140   8.0110
  8.2100  24.5515  24.7950  24.8477  25.0167  50.4935  50.5655  50.5960
 50.6215  50.6437  50.6994  50.7361
 --------------------------------------------------------------
 
          Ground-State Mulliken Net Atomic Charges

     Atom                 Charge (a.u.)    Spin (a.u.)
  --------------------------------------------------------
      1 C                    -0.195648       0.019194
      2 O                    -0.416978       0.002752
      3 C                     0.280879       0.005835
      4 O                    -0.409317       0.004184
      5 C                    -0.567735       0.595263
      6 C                    -0.025928       0.027135
      7 O                    -0.426764       0.275396
      8 H                     0.295675       0.001357
      9 H                     0.341909      -0.000806
     10 H                     0.334391      -0.010264
     11 H                     0.308577      -0.010200
     12 H                     0.315186       0.035225
     13 O                    -0.448178       0.008079
     14 H                     0.355996      -0.000435
     15 O                    -0.164035       0.005284
     16 O                    -0.287960       0.001132
     17 H                     0.331007      -0.001510
     18 H                     0.337447      -0.000504
     19 O                    -0.314469       0.044705
     20 H                     0.355946      -0.001822
  --------------------------------------------------------
  Sum of atomic charges =     0.000000
  Sum of spin   charges =     1.000000

 -----------------------------------------------------------------
                    Cartesian Multipole Moments
 -----------------------------------------------------------------
    Charge (ESU x 10^10)
                 0.0000
    Dipole Moment (Debye)
         X       1.8636      Y       4.9053      Z      -2.7248
       Tot       5.9126
    Quadrupole Moments (Debye-Ang)
        XX     -44.5484     XY      19.3963     YY     -71.7686
        XZ      -7.5439     YZ      -1.2408     ZZ     -67.1363
    Octopole Moments (Debye-Ang^2)
       XXX    -586.7337    XXY      79.7249    XYY    -279.8196
       YYY      99.7697    XXZ     -44.8079    XYZ      -2.6011
       YYZ      14.9152    XZZ    -270.7195    YZZ      16.8048
       ZZZ     -66.8019
    Hexadecapole Moments (Debye-Ang^3)
      XXXX   -5338.3662   XXXY     143.8707   XXYY   -1394.9822
      XYYY     203.5403   YYYY    -825.2772   XXXZ    -446.9603
      XXYZ     -75.0570   XYYZ       1.7494   YYYZ    -167.3164
      XXZZ   -1284.2929   XYZZ      14.2527   YYZZ    -242.7502
      XZZZ    -370.3749   YZZZ    -194.9512   ZZZZ    -657.7791
 -----------------------------------------------------------------
 Calculating analytic gradient of the SCF energy
 Gradient of CDS energy
            1           2           3           4           5           6
    1  -0.0026518   0.0015728  -0.0018871   0.0019654  -0.0005951   0.0020881
    2  -0.0017367  -0.0014871  -0.0007864   0.0007377   0.0002397   0.0043700
    3   0.0000670   0.0003505   0.0033860  -0.0036199  -0.0010288   0.0017384
            7           8           9          10          11          12
    1   0.0008084   0.0002692  -0.0004176  -0.0002014   0.0001742  -0.0003528
    2   0.0004435  -0.0001189   0.0002003  -0.0000809  -0.0001569  -0.0000724
    3  -0.0013594   0.0000196  -0.0002347   0.0001291   0.0000196  -0.0002828
           13          14          15          16          17          18
    1   0.0012571  -0.0002862  -0.0000532  -0.0002640  -0.0001413   0.0004702
    2   0.0031892  -0.0003304  -0.0000200  -0.0000173  -0.0001138  -0.0000380
    3  -0.0005199   0.0002232  -0.0000987   0.0001035   0.0002781  -0.0001550
           19          20
    1  -0.0017478  -0.0000070
    2  -0.0046840   0.0004624
    3   0.0009062   0.0000780
 Gradient of SCF Energy
            1           2           3           4           5           6
    1  -0.0058325   0.0072297   0.0036305  -0.0077546  -0.0035489  -0.0109766
    2   0.0008459   0.0089019   0.0041546  -0.0050582  -0.0122818   0.0118402
    3   0.0058731   0.0210446  -0.0029767  -0.0016619   0.0148999   0.0022362
            7           8           9          10          11          12
    1  -0.0081135   0.0028318  -0.0085625  -0.0068495   0.0135771   0.0134718
    2  -0.0049486   0.0021166  -0.0049815   0.0103894   0.0024635  -0.0107354
    3   0.0115922  -0.0080627  -0.0176682   0.0019496  -0.0139347  -0.0090393
           13          14          15          16          17          18
    1   0.0068527  -0.0043493  -0.0036478  -0.0175845   0.0052932   0.0193731
    2  -0.0097143   0.0036594  -0.0060555  -0.0180194   0.0030924   0.0198628
    3  -0.0079501   0.0059525   0.0074698  -0.0149291   0.0017754   0.0094052
           19          20
    1   0.0186756  -0.0137159
    2  -0.0095281   0.0139961
    3  -0.0150763   0.0091004
 Max gradient component =       2.104E-02
 RMS gradient           =       1.027E-02
 Computing fast CPCM-SWIG gradient
 Updating gradient with PCM contributions...
 -- total gradient after adding PCM contribution --
---------------------------------------------------
  Atom         X              Y              Z     
---------------------------------------------------
   1      -0.003906      -0.000479       0.002237
   2       0.003391       0.004927       0.007743
   3      -0.000057       0.000302      -0.001356
   4      -0.006316      -0.004055      -0.003416
   5       0.002158      -0.000191       0.003405
   6       0.000220       0.001160      -0.002271
   7      -0.005102      -0.001664       0.004959
   8       0.002014      -0.001031      -0.002568
   9      -0.002929      -0.002947      -0.005596
  10      -0.002700       0.002264      -0.000206
  11       0.001517       0.000685      -0.003022
  12       0.002359      -0.001285      -0.001097
  13       0.003643      -0.003918      -0.007597
  14      -0.001753       0.002922       0.006420
  15      -0.000195      -0.001438       0.005235
  16      -0.003711      -0.003085      -0.007766
  17       0.004436       0.003000       0.003576
  18       0.004558       0.003808       0.003379
  19       0.007092      -0.001451      -0.005903
  20      -0.004719       0.002477       0.003844
---------------------------------------------------
 Number of fixed atoms: 0
 Gradient time:  CPU 370.89 s  wall 31.75 s
 ######################################################
 ######################################################
 # Starting finite difference calculation for IDERIV  #
 Finite diff step size:  1.88973e-03 a.u.
 ----------------------------------------------------------------
             Standard Nuclear Orientation (Angstroms)
    I     Atom           X                Y                Z
 ----------------------------------------------------------------
    1      C       2.6202240219    -1.0828698462    -1.0845610211
    2      O       1.5789866220    -0.1353766305    -1.1236480128
    3      C       3.5594848015    -0.6406387994     0.0585635369
    4      O       2.8893700751    -0.8942108285     1.2507033886
    5      C       3.9906051896     0.7894153515    -0.0955170335
    6      C       5.1967945156     1.1941591900     1.4441235199
    7      O       4.4366924953     0.9794321718     2.4169628352
    8      H       3.1665877112    -1.1208446857    -2.0289510291
    9      H       1.0350180870    -0.3477769984    -1.9005740480
   10      H       3.2185340774     1.5311674601     0.0880547472
   11      H       4.6605576911     1.0093018126    -0.9228886025
   12      H       5.9315169578     0.4526635111     1.0994447192
   13      O       2.1471535869    -2.3838632855    -0.8487177605
   14      H       1.7642894012    -2.3750468571     0.0478517429
   15      O       4.6934468164    -1.5358944415     0.1015615685
   16      O       5.4369662604    -1.3948293333    -1.1184797677
   17      H       3.3686610582    -0.3946989313     1.9510580586
   18      H       6.1908938688    -0.8469165251    -0.8280441568
   19      O       5.6172368807     2.4537194265     1.1390635468
   20      H       5.0400048819     3.0736853390     1.6254962683
 ----------------------------------------------------------------
 Nuclear Repulsion Energy =         722.38162127 hartrees
 There are       45 alpha and       44 beta electrons
 Discretize the solute cavity surface with Lebedev spheres
	Using 110 Lebedev grid points for each H atom
	Using 194 Lebedev grid points for other atoms
	Atomic van der Waals radii will be scaled by 1.20
 Remove points where switching function is < 1.0e-08
 Keep 1550 surface tesserae and discard 1574 interior tesserae
 Molecular Surface Area = 171.803 Angst**2
 Requested basis set is 6-311++G(2df,2p)
 There are 142 shells and 464 basis functions
 A cutoff of  1.0D-11 yielded   8672 shell pairs
 There are     91166 function pairs (    112872 Cartesian)
 Smallest overlap matrix eigenvalue = 6.69E-06
 Guess MOs from SCF MO coefficient file

 -----------------------------------------------------------------------
  General SCF calculation program by
  Eric Jon Sundstrom, Paul Horn, Yuezhi Mao, Dmitri Zuev, Alec White,
  David Stuck, Shaama M.S., Shane Yost, Joonho Lee, David Small,
  Daniel Levine, Susi Lehtola, Hugh Burton, Evgeny Epifanovsky,
  Bang C. Huynh
 -----------------------------------------------------------------------
 Exchange:     0.1500 Hartree-Fock + 1.0000 wB97M-V + LR-HF
 Correlation:  1.0000 wB97M-V
 Using SG-2 standard quadrature grid
 Nonlocal Correlation:  VV10 with C = 0.0100 and b = 6.00 and scale = 1.00000
 Grid used for NLC:  SG-1 standard quadrature
 
 Citation of the SMD model:
 Marenich, A.V.; Cramer, C.J.; Truhlar, D.G.
 J. Phys. Chem. B 2009, 113, 6378-6396.
 iSolventCode=           1
 Solvent: water                                                           
 
 vradii
            1           2           3           4           5           6
    1   1.8500000   1.5200000   1.8500000   1.5200000   1.8500000   1.8500000
            7           8           9          10          11          12
    1   1.5200000   1.2000000   1.2000000   1.2000000   1.2000000   1.2000000
           13          14          15          16          17          18
    1   1.5200000   1.2000000   1.5200000   1.5200000   1.2000000   1.2000000
           19          20
    1   1.5200000   1.2000000
 -------------------------------------------------------
 OpenMP BLAS3 based DFT computing Module                
 Release: version 1.0, May 2013, Q-Chem Inc. Pittsburgh 
 -------------------------------------------------------
 A unrestricted SCF calculation will be
 performed using Roothaan-Hall, DIIS, GDM
 SCF converges when RMS gradient is below 1.0e-06
 ---------------------------------------
  Cycle       Energy         DIIS error
 ---------------------------------------
    1    -684.2590865069      2.32e-04  Roothaan Step
 ---------------------------------------
  Cycle       Energy         DIIS error
 ---------------------------------------
    1    -684.3050732543      2.63e-04  
    2    -684.3121550871      2.25e-04  Done DIIS. Switching to GDM
 ---------------------------------------
  Cycle       Energy        RMS Gradient
 ---------------------------------------
    1    -684.3121550871      2.03e-02   Normal BFGS step
    2    -684.3112145532      3.27e-02  Line search: overstep
    3    -684.3157349568      4.53e-03   Normal BFGS step
    4    -684.3159652736      9.92e-04   Normal BFGS step
    5    -684.3160118896      1.36e-03   Normal BFGS step
    6    -684.3160213273      4.64e-04   Normal BFGS step
    7    -684.3160227617      4.01e-04   Normal BFGS step
    8    -684.3160233277      2.49e-04   Normal BFGS step
    9    -684.3160235383      4.84e-05   Normal BFGS step
   10    -684.3160235590      1.94e-05   Normal BFGS step
   11    -684.3160235702      9.40e-06   Normal BFGS step
   12    -684.3160235709      7.11e-06   Normal BFGS step
   13    -684.3160235713      3.04e-06   Normal BFGS step
   14    -684.3160235714      1.29e-06   Normal BFGS step
  GDM::WARNING energy changes are now smaller than effective accuracy.
  GDM::        calculation will continue, but THRESH should be increased
  GDM::        or SCF_CONVERGENCE decreased. 
  GDM::        effective_thresh = 5.17e-09
   15    -684.3160235716      7.52e-07  Convergence criterion met
 ---------------------------------------
 SCF time:   CPU 2507.44s  wall 172.00s 
<S^2> =          0.759701158
(3)  G-ENP(liq) elect-nuc-pol free energy of system     -684.316023572 a.u.
(4)  G-CDS(liq) cavity-dispersion-solvent structure 
     free energy                                                4.8307 kcal/mol
(6)  G-S(liq) free energy of system                     -684.308325417 a.u.
 SCF   energy in the final basis set =     -684.3083254171
 Total energy in the final basis set =     -684.3083254171
 
 --------------------------------------------------------------
 
                    Orbital Energies (a.u.)
 --------------------------------------------------------------
 
 Alpha MOs
 -- Occupied --
-19.4083 -19.4012 -19.3760 -19.3565 -19.3516 -19.3507 -19.3436 -10.4877
-10.4720 -10.4535 -10.3854  -1.2782  -1.2343  -1.2138  -1.1823  -1.1493
 -1.1390  -1.0409  -0.8998  -0.8238  -0.7708  -0.7353  -0.6924  -0.6548
 -0.6492  -0.6275  -0.6161  -0.6129  -0.5911  -0.5801  -0.5676  -0.5630
 -0.5369  -0.5194  -0.5120  -0.4877  -0.4676  -0.4527  -0.4507  -0.4340
 -0.4190  -0.4159  -0.4070  -0.4001  -0.3318
 -- Virtual --
  0.0270   0.0373   0.0388   0.0434   0.0621   0.0652   0.0678   0.0735
  0.0859   0.0968   0.1018   0.1165   0.1211   0.1247   0.1297   0.1372
  0.1453   0.1482   0.1555   0.1629   0.1694   0.1758   0.1839   0.1864
  0.1971   0.2000   0.2037   0.2194   0.2314   0.2364   0.2421   0.2561
  0.2662   0.2721   0.2769   0.2796   0.2833   0.2868   0.2997   0.3052
  0.3097   0.3169   0.3196   0.3252   0.3344   0.3346   0.3453   0.3482
  0.3537   0.3589   0.3611   0.3658   0.3782   0.3809   0.3833   0.3950
  0.4001   0.4039   0.4113   0.4161   0.4248   0.4323   0.4403   0.4462
  0.4487   0.4520   0.4715   0.4780   0.4821   0.4934   0.5074   0.5168
  0.5670   0.5729   0.5816   0.6029   0.6125   0.6176   0.6397   0.6440
  0.6561   0.6710   0.6816   0.6880   0.6912   0.7053   0.7176   0.7233
  0.7281   0.7537   0.7552   0.7630   0.7749   0.7946   0.8080   0.8314
  0.8346   0.8470   0.8753   0.8859   0.9116   0.9273   0.9482   0.9670
  0.9723   1.0023   1.0133   1.0233   1.0417   1.0637   1.0660   1.0890
  1.0983   1.1047   1.1201   1.1268   1.1430   1.1503   1.1590   1.1635
  1.1710   1.1814   1.1957   1.2055   1.2120   1.2240   1.2296   1.2365
  1.2444   1.2485   1.2540   1.2669   1.2764   1.2821   1.2923   1.3097
  1.3248   1.3315   1.3498   1.3577   1.3595   1.3781   1.3861   1.4116
  1.4270   1.4458   1.4560   1.4663   1.4765   1.4872   1.4977   1.5152
  1.5367   1.5425   1.5490   1.5654   1.5843   1.6035   1.6072   1.6273
  1.6313   1.6617   1.6800   1.6944   1.7115   1.7154   1.7268   1.7463
  1.7704   1.7954   1.8112   1.8433   1.8723   1.8981   1.9044   1.9164
  1.9464   1.9606   1.9833   2.0145   2.0290   2.0552   2.0610   2.1068
  2.1320   2.1752   2.1966   2.2154   2.2497   2.2636   2.2673   2.3267
  2.3574   2.3734   2.3821   2.3944   2.4055   2.4390   2.4622   2.4773
  2.4900   2.5100   2.5479   2.5607   2.5834   2.6030   2.6333   2.6644
  2.6911   2.7040   2.7885   2.8101   2.8262   2.8503   2.8613   2.8942
  2.9129   2.9590   2.9977   3.0095   3.0564   3.0642   3.1105   3.1519
  3.1687   3.1807   3.2136   3.2454   3.2614   3.2931   3.3075   3.3163
  3.3392   3.3608   3.3791   3.3877   3.4237   3.4400   3.4627   3.4793
  3.4969   3.5316   3.5600   3.5898   3.6097   3.6194   3.6447   3.6521
  3.6820   3.7012   3.7255   3.7459   3.7498   3.7698   3.7822   3.7947
  3.8131   3.8275   3.8341   3.8539   3.8656   3.8823   3.8984   3.9130
  3.9225   3.9408   3.9439   3.9639   3.9817   4.0046   4.0546   4.0618
  4.0815   4.1163   4.1462   4.1742   4.1884   4.2060   4.2203   4.2273
  4.2422   4.2659   4.2877   4.2949   4.3434   4.3728   4.3854   4.4002
  4.4114   4.4438   4.4582   4.4780   4.4956   4.5699   4.6078   4.6219
  4.6982   4.7530   4.7742   4.8087   4.8588   4.9887   5.0480   5.0839
  5.0996   5.1528   5.1859   5.2074   5.2177   5.2242   5.2259   5.2479
  5.2523   5.2753   5.2806   5.2897   5.3026   5.3111   5.3165   5.3393
  5.3528   5.3614   5.3749   5.3790   5.4041   5.4103   5.4529   5.4548
  5.4838   5.4861   5.5043   5.5198   5.5417   5.5538   5.5694   5.5907
  5.5930   5.6020   5.6157   5.6243   5.6375   5.6568   5.6596   5.6814
  5.7087   5.7546   5.7777   5.7830   5.8120   5.8620   5.8942   5.9691
  6.0039   6.0345   6.0455   6.0640   6.1249   6.1603   6.2205   6.2987
  6.4998   6.5739   6.6251   6.7464   6.7795   6.8171   6.8406   6.9781
  7.0130   7.0261   7.0489   7.0623   7.0903   7.1029   7.1174   7.1455
  7.1917   7.2281   7.2435   7.2516   7.2614   7.2801   7.2904   7.3133
  7.3257   7.3404   7.3895   7.4073   7.4161   7.4404   7.4568   7.4958
  7.5031   7.5827   7.5918   7.6176   7.6492   7.6965   7.7085   7.7683
  7.8026   7.8105   7.8398   7.8584   7.8959   7.9128   8.0105   8.2097
 24.5440  24.7916  24.8473  25.0173  50.4934  50.5642  50.5955  50.6212
 50.6433  50.6991  50.7310
 
 Beta MOs
 -- Occupied --
-19.4081 -19.4012 -19.3746 -19.3564 -19.3514 -19.3505 -19.3357 -10.4883
-10.4725 -10.4527 -10.3755  -1.2779  -1.2286  -1.2132  -1.1818  -1.1393
 -1.1380  -1.0405  -0.8882  -0.8131  -0.7635  -0.7327  -0.6911  -0.6536
 -0.6442  -0.6214  -0.6108  -0.6076  -0.5827  -0.5784  -0.5629  -0.5489
 -0.5347  -0.5135  -0.5047  -0.4852  -0.4657  -0.4493  -0.4337  -0.4229
 -0.4171  -0.4087  -0.4001  -0.3947
 -- Virtual --
 -0.0539   0.0273   0.0373   0.0391   0.0437   0.0620   0.0659   0.0679
  0.0735   0.0873   0.0979   0.1043   0.1195   0.1247   0.1266   0.1361
  0.1413   0.1458   0.1488   0.1565   0.1633   0.1697   0.1784   0.1843
  0.1900   0.1992   0.2012   0.2050   0.2213   0.2318   0.2383   0.2427
  0.2572   0.2669   0.2727   0.2776   0.2812   0.2850   0.2882   0.3012
  0.3067   0.3122   0.3191   0.3232   0.3269   0.3361   0.3384   0.3468
  0.3497   0.3547   0.3606   0.3622   0.3688   0.3811   0.3819   0.3848
  0.3957   0.4025   0.4052   0.4145   0.4173   0.4254   0.4328   0.4412
  0.4484   0.4511   0.4545   0.4726   0.4797   0.4849   0.4958   0.5090
  0.5196   0.5688   0.5762   0.5850   0.6050   0.6143   0.6225   0.6413
  0.6475   0.6570   0.6765   0.6855   0.6902   0.6940   0.7092   0.7222
  0.7263   0.7336   0.7564   0.7587   0.7657   0.7778   0.7962   0.8134
  0.8345   0.8360   0.8500   0.8780   0.8900   0.9129   0.9283   0.9502
  0.9685   0.9756   1.0053   1.0157   1.0264   1.0455   1.0662   1.0674
  1.0928   1.1007   1.1076   1.1229   1.1286   1.1443   1.1517   1.1620
  1.1652   1.1739   1.1843   1.1976   1.2066   1.2157   1.2258   1.2325
  1.2384   1.2491   1.2504   1.2562   1.2701   1.2791   1.2847   1.2989
  1.3120   1.3265   1.3337   1.3529   1.3592   1.3637   1.3819   1.3897
  1.4145   1.4335   1.4493   1.4586   1.4712   1.4816   1.4905   1.5034
  1.5192   1.5426   1.5452   1.5506   1.5711   1.5880   1.6069   1.6102
  1.6311   1.6383   1.6670   1.6817   1.6984   1.7169   1.7216   1.7333
  1.7519   1.7748   1.7977   1.8157   1.8478   1.8778   1.9010   1.9073
  1.9212   1.9497   1.9622   1.9855   2.0172   2.0318   2.0578   2.0629
  2.1093   2.1354   2.1785   2.2020   2.2163   2.2518   2.2695   2.2708
  2.3288   2.3596   2.3754   2.3867   2.3955   2.4096   2.4418   2.4669
  2.4798   2.4924   2.5126   2.5513   2.5645   2.5876   2.6076   2.6535
  2.6740   2.6941   2.7184   2.7960   2.8202   2.8295   2.8570   2.8690
  2.9092   2.9257   2.9744   3.0085   3.0374   3.0657   3.0792   3.1245
  3.1642   3.1806   3.1976   3.2236   3.2518   3.2716   3.3084   3.3208
  3.3242   3.3494   3.3857   3.3895   3.4063   3.4357   3.4495   3.4725
  3.4898   3.5078   3.5407   3.5787   3.5996   3.6163   3.6270   3.6490
  3.6643   3.6929   3.7125   3.7462   3.7545   3.7583   3.7753   3.7927
  3.8000   3.8192   3.8300   3.8408   3.8639   3.8718   3.8862   3.9081
  3.9204   3.9317   3.9491   3.9521   3.9694   3.9922   4.0153   4.0644
  4.0700   4.0961   4.1293   4.1537   4.1864   4.1987   4.2187   4.2279
  4.2369   4.2549   4.2749   4.2929   4.2999   4.3501   4.3803   4.3981
  4.4126   4.4224   4.4551   4.4712   4.4999   4.5071   4.5801   4.6263
  4.6333   4.7037   4.7577   4.7970   4.8251   4.8618   4.9953   5.0486
  5.0969   5.1131   5.1681   5.1975   5.2096   5.2233   5.2319   5.2358
  5.2492   5.2584   5.2793   5.2829   5.2926   5.3139   5.3171   5.3250
  5.3445   5.3549   5.3753   5.3789   5.3816   5.4061   5.4143   5.4551
  5.4677   5.4870   5.4901   5.5084   5.5299   5.5494   5.5632   5.5740
  5.5949   5.6061   5.6140   5.6178   5.6276   5.6504   5.6588   5.6613
  5.7011   5.7254   5.7578   5.7853   5.7853   5.8138   5.8652   5.8969
  5.9728   6.0052   6.0357   6.0526   6.0652   6.1265   6.1611   6.2212
  6.3171   6.5016   6.5751   6.6275   6.7472   6.7847   6.8179   6.8413
  6.9972   7.0166   7.0420   7.0530   7.0689   7.0913   7.1073   7.1191
  7.1527   7.2000   7.2289   7.2444   7.2537   7.2650   7.2813   7.2922
  7.3157   7.3316   7.3468   7.3938   7.4135   7.4169   7.4551   7.4647
  7.4981   7.5040   7.5841   7.5930   7.6242   7.6500   7.6972   7.7133
  7.7709   7.8091   7.8183   7.8412   7.8594   7.8975   7.9139   8.0110
  8.2100  24.5514  24.7945  24.8482  25.0167  50.4935  50.5654  50.5960
 50.6213  50.6437  50.6993  50.7361
 --------------------------------------------------------------
 
          Ground-State Mulliken Net Atomic Charges

     Atom                 Charge (a.u.)    Spin (a.u.)
  --------------------------------------------------------
      1 C                    -0.196078       0.019095
      2 O                    -0.417328       0.002753
      3 C                     0.281133       0.005907
      4 O                    -0.409300       0.004177
      5 C                    -0.567739       0.595294
      6 C                    -0.025913       0.027111
      7 O                    -0.426721       0.275423
      8 H                     0.296088       0.001360
      9 H                     0.341894      -0.000805
     10 H                     0.334412      -0.010271
     11 H                     0.308611      -0.010203
     12 H                     0.315196       0.035231
     13 O                    -0.448337       0.008072
     14 H                     0.356019      -0.000434
     15 O                    -0.164030       0.005293
     16 O                    -0.287854       0.001131
     17 H                     0.331003      -0.001509
     18 H                     0.337456      -0.000504
     19 O                    -0.314459       0.044702
     20 H                     0.355947      -0.001822
  --------------------------------------------------------
  Sum of atomic charges =     0.000000
  Sum of spin   charges =     1.000000

 -----------------------------------------------------------------
                    Cartesian Multipole Moments
 -----------------------------------------------------------------
    Charge (ESU x 10^10)
                 0.0000
    Dipole Moment (Debye)
         X       1.8697      Y       4.9052      Z      -2.7239
       Tot       5.9141
    Quadrupole Moments (Debye-Ang)
        XX     -44.5153     XY      19.3938     YY     -71.7693
        XZ      -7.5466     YZ      -1.2384     ZZ     -67.1309
    Octopole Moments (Debye-Ang^2)
       XXX    -586.5941    XXY      79.7135    XYY    -279.8174
       YYY      99.7790    XXZ     -44.8237    XYZ      -2.5888
       YYZ      14.9171    XZZ    -270.6943    YZZ      16.7987
       ZZZ     -66.8043
    Hexadecapole Moments (Debye-Ang^3)
      XXXX   -5337.7898   XXXY     143.8489   XXYY   -1394.9546
      XYYY     203.5822   YYYY    -825.3029   XXXZ    -446.9995
      XXYZ     -75.0037   XYYZ       1.7534   YYYZ    -167.3152
      XXZZ   -1284.1902   XYZZ      14.2367   YYZZ    -242.7400
      XZZZ    -370.3805   YZZZ    -194.9290   ZZZZ    -657.7252
 -----------------------------------------------------------------
 Calculating analytic gradient of the SCF energy
 Gradient of CDS energy
            1           2           3           4           5           6
    1  -0.0025099   0.0014568  -0.0018872   0.0019652  -0.0005951   0.0020881
    2  -0.0017714  -0.0013802  -0.0007864   0.0007378   0.0002397   0.0043700
    3   0.0000581   0.0003464   0.0033859  -0.0036200  -0.0010288   0.0017384
            7           8           9          10          11          12
    1   0.0008084   0.0002687  -0.0004178  -0.0002016   0.0001742  -0.0003528
    2   0.0004435  -0.0001187   0.0002005  -0.0000809  -0.0001569  -0.0000724
    3  -0.0013594   0.0000197  -0.0002349   0.0001290   0.0000196  -0.0002828
           13          14          15          16          17          18
    1   0.0012327  -0.0002865  -0.0000533  -0.0002640  -0.0001413   0.0004702
    2   0.0031167  -0.0003307  -0.0000200  -0.0000172  -0.0001138  -0.0000380
    3  -0.0005064   0.0002232  -0.0000986   0.0001035   0.0002781  -0.0001550
           19          20
    1  -0.0017478  -0.0000070
    2  -0.0046840   0.0004624
    3   0.0009062   0.0000780
 Gradient of SCF Energy
            1           2           3           4           5           6
    1  -0.0046840   0.0067755   0.0034471  -0.0077448  -0.0035576  -0.0109825
    2   0.0008450   0.0091171   0.0041188  -0.0050509  -0.0123135   0.0118392
    3   0.0057251   0.0209981  -0.0030673  -0.0016311   0.0148938   0.0022333
            7           8           9          10          11          12
    1  -0.0081158   0.0026229  -0.0085981  -0.0068474   0.0135823   0.0134776
    2  -0.0049470   0.0021229  -0.0049342   0.0103916   0.0024649  -0.0107399
    3   0.0115978  -0.0078748  -0.0176572   0.0019507  -0.0139399  -0.0090408
           13          14          15          16          17          18
    1   0.0066403  -0.0043601  -0.0036984  -0.0175874   0.0052932   0.0193764
    2  -0.0098863   0.0036156  -0.0060474  -0.0180243   0.0030881   0.0198673
    3  -0.0078681   0.0059598   0.0074375  -0.0149325   0.0017857   0.0094065
           19          20
    1   0.0186782  -0.0137173
    2  -0.0095246   0.0139975
    3  -0.0150783   0.0091017
 Max gradient component =       2.100E-02
 RMS gradient           =       1.025E-02
 Computing fast CPCM-SWIG gradient
 Updating gradient with PCM contributions...
 -- total gradient after adding PCM contribution --
---------------------------------------------------
  Atom         X              Y              Z     
---------------------------------------------------
   1      -0.002762      -0.000485       0.002080
   2       0.002957       0.005143       0.007708
   3      -0.000234       0.000270      -0.001454
   4      -0.006300      -0.004047      -0.003376
   5       0.002150      -0.000219       0.003396
   6       0.000217       0.001154      -0.002276
   7      -0.005102      -0.001663       0.004964
   8       0.001804      -0.001024      -0.002366
   9      -0.002976      -0.002902      -0.005596
  10      -0.002701       0.002265      -0.000207
  11       0.001517       0.000687      -0.003022
  12       0.002360      -0.001284      -0.001096
  13       0.003437      -0.004093      -0.007523
  14      -0.001772       0.002879       0.006432
  15      -0.000248      -0.001427       0.005203
  16      -0.003712      -0.003085      -0.007769
  17       0.004432       0.002994       0.003581
  18       0.004558       0.003808       0.003379
  19       0.007093      -0.001447      -0.005903
  20      -0.004719       0.002476       0.003844
---------------------------------------------------
 Number of fixed atoms: 0
 Gradient time:  CPU 374.15 s  wall 32.28 s
 ----------------------------------------------------------------
             Standard Nuclear Orientation (Angstroms)
    I     Atom           X                Y                Z
 ----------------------------------------------------------------
    1      C       2.6182240219    -1.0828698462    -1.0845610211
    2      O       1.5789866220    -0.1353766305    -1.1236480128
    3      C       3.5594848015    -0.6406387994     0.0585635369
    4      O       2.8893700751    -0.8942108285     1.2507033886
    5      C       3.9906051896     0.7894153515    -0.0955170335
    6      C       5.1967945156     1.1941591900     1.4441235199
    7      O       4.4366924953     0.9794321718     2.4169628352
    8      H       3.1665877112    -1.1208446857    -2.0289510291
    9      H       1.0350180870    -0.3477769984    -1.9005740480
   10      H       3.2185340774     1.5311674601     0.0880547472
   11      H       4.6605576911     1.0093018126    -0.9228886025
   12      H       5.9315169578     0.4526635111     1.0994447192
   13      O       2.1471535869    -2.3838632855    -0.8487177605
   14      H       1.7642894012    -2.3750468571     0.0478517429
   15      O       4.6934468164    -1.5358944415     0.1015615685
   16      O       5.4369662604    -1.3948293333    -1.1184797677
   17      H       3.3686610582    -0.3946989313     1.9510580586
   18      H       6.1908938688    -0.8469165251    -0.8280441568
   19      O       5.6172368807     2.4537194265     1.1390635468
   20      H       5.0400048819     3.0736853390     1.6254962683
 ----------------------------------------------------------------
 Nuclear Repulsion Energy =         722.37601681 hartrees
 There are       45 alpha and       44 beta electrons
 Discretize the solute cavity surface with Lebedev spheres
	Using 110 Lebedev grid points for each H atom
	Using 194 Lebedev grid points for other atoms
	Atomic van der Waals radii will be scaled by 1.20
 Remove points where switching function is < 1.0e-08
 Keep 1550 surface tesserae and discard 1574 interior tesserae
 Molecular Surface Area = 171.806 Angst**2
 Requested basis set is 6-311++G(2df,2p)
 There are 142 shells and 464 basis functions
 A cutoff of  1.0D-11 yielded   8672 shell pairs
 There are     91166 function pairs (    112872 Cartesian)
 Smallest overlap matrix eigenvalue = 6.71E-06
 Guess MOs from SCF MO coefficient file

 -----------------------------------------------------------------------
  General SCF calculation program by
  Eric Jon Sundstrom, Paul Horn, Yuezhi Mao, Dmitri Zuev, Alec White,
  David Stuck, Shaama M.S., Shane Yost, Joonho Lee, David Small,
  Daniel Levine, Susi Lehtola, Hugh Burton, Evgeny Epifanovsky,
  Bang C. Huynh
 -----------------------------------------------------------------------
 Exchange:     0.1500 Hartree-Fock + 1.0000 wB97M-V + LR-HF
 Correlation:  1.0000 wB97M-V
 Using SG-2 standard quadrature grid
 Nonlocal Correlation:  VV10 with C = 0.0100 and b = 6.00 and scale = 1.00000
 Grid used for NLC:  SG-1 standard quadrature
 
 Citation of the SMD model:
 Marenich, A.V.; Cramer, C.J.; Truhlar, D.G.
 J. Phys. Chem. B 2009, 113, 6378-6396.
 iSolventCode=           1
 Solvent: water                                                           
 
 vradii
            1           2           3           4           5           6
    1   1.8500000   1.5200000   1.8500000   1.5200000   1.8500000   1.8500000
            7           8           9          10          11          12
    1   1.5200000   1.2000000   1.2000000   1.2000000   1.2000000   1.2000000
           13          14          15          16          17          18
    1   1.5200000   1.2000000   1.5200000   1.5200000   1.2000000   1.2000000
           19          20
    1   1.5200000   1.2000000
 -------------------------------------------------------
 OpenMP BLAS3 based DFT computing Module                
 Release: version 1.0, May 2013, Q-Chem Inc. Pittsburgh 
 -------------------------------------------------------
 A unrestricted SCF calculation will be
 performed using Roothaan-Hall, DIIS, GDM
 SCF converges when RMS gradient is below 1.0e-06
 ---------------------------------------
  Cycle       Energy         DIIS error
 ---------------------------------------
    1    -684.2590764470      2.33e-04  Roothaan Step
 ---------------------------------------
  Cycle       Energy         DIIS error
 ---------------------------------------
    1    -684.3050841024      2.62e-04  
    2    -684.3121659151      2.24e-04  Done DIIS. Switching to GDM
 ---------------------------------------
  Cycle       Energy        RMS Gradient
 ---------------------------------------
    1    -684.3121659151      2.03e-02   Normal BFGS step
    2    -684.3112286320      3.27e-02  Line search: overstep
    3    -684.3157304661      4.52e-03   Normal BFGS step
    4    -684.3159606327      9.79e-04   Normal BFGS step
    5    -684.3160071947      1.35e-03   Normal BFGS step
    6    -684.3160165816      4.65e-04   Normal BFGS step
    7    -684.3160180190      4.01e-04   Normal BFGS step
    8    -684.3160185865      2.49e-04   Normal BFGS step
    9    -684.3160187976      4.83e-05   Normal BFGS step
   10    -684.3160188183      1.91e-05   Normal BFGS step
   11    -684.3160188295      9.38e-06   Normal BFGS step
   12    -684.3160188302      7.01e-06   Normal BFGS step
   13    -684.3160188306      3.00e-06   Normal BFGS step
   14    -684.3160188307      1.27e-06   Normal BFGS step
   15    -684.3160188310      7.62e-07  Convergence criterion met
 ---------------------------------------
 SCF time:   CPU 2513.04s  wall 173.00s 
<S^2> =          0.759697345
(3)  G-ENP(liq) elect-nuc-pol free energy of system     -684.316018831 a.u.
(4)  G-CDS(liq) cavity-dispersion-solvent structure 
     free energy                                                4.8370 kcal/mol
(6)  G-S(liq) free energy of system                     -684.308310655 a.u.
 SCF   energy in the final basis set =     -684.3083106552
 Total energy in the final basis set =     -684.3083106552
 
 --------------------------------------------------------------
 
                    Orbital Energies (a.u.)
 --------------------------------------------------------------
 
 Alpha MOs
 -- Occupied --
-19.4082 -19.4012 -19.3759 -19.3565 -19.3517 -19.3508 -19.3435 -10.4876
-10.4720 -10.4535 -10.3854  -1.2782  -1.2343  -1.2141  -1.1824  -1.1492
 -1.1394  -1.0408  -0.8996  -0.8237  -0.7708  -0.7353  -0.6924  -0.6549
 -0.6491  -0.6274  -0.6161  -0.6129  -0.5911  -0.5802  -0.5676  -0.5630
 -0.5370  -0.5194  -0.5120  -0.4877  -0.4675  -0.4527  -0.4507  -0.4340
 -0.4190  -0.4160  -0.4069  -0.4000  -0.3317
 -- Virtual --
  0.0270   0.0373   0.0388   0.0434   0.0621   0.0652   0.0678   0.0736
  0.0859   0.0968   0.1018   0.1165   0.1211   0.1247   0.1297   0.1372
  0.1453   0.1482   0.1555   0.1629   0.1694   0.1758   0.1839   0.1864
  0.1971   0.2001   0.2037   0.2194   0.2315   0.2365   0.2420   0.2562
  0.2662   0.2721   0.2769   0.2796   0.2834   0.2870   0.2997   0.3052
  0.3097   0.3169   0.3196   0.3252   0.3344   0.3346   0.3452   0.3482
  0.3538   0.3589   0.3611   0.3657   0.3782   0.3809   0.3833   0.3950
  0.4004   0.4039   0.4113   0.4161   0.4247   0.4323   0.4403   0.4462
  0.4487   0.4520   0.4715   0.4780   0.4821   0.4934   0.5074   0.5169
  0.5669   0.5728   0.5815   0.6029   0.6125   0.6176   0.6396   0.6441
  0.6562   0.6711   0.6816   0.6881   0.6911   0.7051   0.7177   0.7233
  0.7281   0.7537   0.7552   0.7630   0.7748   0.7946   0.8080   0.8314
  0.8345   0.8470   0.8753   0.8858   0.9116   0.9273   0.9483   0.9671
  0.9723   1.0023   1.0132   1.0233   1.0417   1.0638   1.0659   1.0890
  1.0983   1.1047   1.1201   1.1267   1.1430   1.1502   1.1590   1.1635
  1.1710   1.1812   1.1957   1.2054   1.2120   1.2240   1.2297   1.2365
  1.2444   1.2485   1.2540   1.2669   1.2763   1.2821   1.2922   1.3097
  1.3248   1.3315   1.3498   1.3576   1.3595   1.3782   1.3861   1.4116
  1.4269   1.4458   1.4560   1.4663   1.4766   1.4872   1.4977   1.5153
  1.5366   1.5424   1.5489   1.5653   1.5842   1.6035   1.6070   1.6271
  1.6312   1.6617   1.6798   1.6944   1.7115   1.7153   1.7266   1.7463
  1.7702   1.7954   1.8111   1.8429   1.8723   1.8980   1.9045   1.9165
  1.9464   1.9606   1.9833   2.0145   2.0291   2.0554   2.0610   2.1069
  2.1320   2.1753   2.1966   2.2158   2.2500   2.2635   2.2675   2.3269
  2.3575   2.3738   2.3822   2.3949   2.4056   2.4390   2.4622   2.4777
  2.4900   2.5101   2.5480   2.5607   2.5836   2.6030   2.6333   2.6643
  2.6912   2.7042   2.7890   2.8101   2.8263   2.8502   2.8616   2.8940
  2.9130   2.9591   2.9978   3.0095   3.0559   3.0641   3.1106   3.1517
  3.1688   3.1807   3.2133   3.2454   3.2611   3.2932   3.3076   3.3164
  3.3396   3.3609   3.3793   3.3877   3.4234   3.4404   3.4628   3.4794
  3.4970   3.5319   3.5601   3.5899   3.6098   3.6194   3.6445   3.6521
  3.6823   3.7009   3.7253   3.7460   3.7497   3.7699   3.7823   3.7947
  3.8130   3.8275   3.8339   3.8538   3.8656   3.8823   3.8983   3.9131
  3.9226   3.9409   3.9439   3.9640   3.9817   4.0046   4.0545   4.0609
  4.0812   4.1161   4.1465   4.1737   4.1884   4.2061   4.2202   4.2270
  4.2421   4.2656   4.2876   4.2945   4.3432   4.3722   4.3852   4.3999
  4.4109   4.4436   4.4581   4.4780   4.4951   4.5691   4.6073   4.6212
  4.6981   4.7530   4.7740   4.8087   4.8587   4.9884   5.0480   5.0835
  5.0995   5.1528   5.1859   5.2076   5.2177   5.2243   5.2259   5.2483
  5.2520   5.2753   5.2807   5.2897   5.3026   5.3112   5.3164   5.3394
  5.3529   5.3614   5.3745   5.3788   5.4041   5.4097   5.4529   5.4548
  5.4838   5.4858   5.5044   5.5202   5.5419   5.5537   5.5694   5.5903
  5.5928   5.6020   5.6157   5.6243   5.6375   5.6569   5.6600   5.6814
  5.7090   5.7545   5.7777   5.7831   5.8127   5.8620   5.8946   5.9694
  6.0041   6.0349   6.0455   6.0649   6.1253   6.1650   6.2208   6.2987
  6.4998   6.5748   6.6251   6.7491   6.7796   6.8170   6.8407   6.9781
  7.0131   7.0261   7.0488   7.0623   7.0904   7.1029   7.1174   7.1455
  7.1917   7.2281   7.2437   7.2516   7.2614   7.2803   7.2906   7.3135
  7.3257   7.3405   7.3895   7.4076   7.4162   7.4405   7.4568   7.4959
  7.5031   7.5828   7.5918   7.6176   7.6494   7.6966   7.7086   7.7684
  7.8026   7.8106   7.8398   7.8585   7.8961   7.9131   8.0105   8.2097
 24.5442  24.7927  24.8463  25.0173  50.4934  50.5642  50.5956  50.6216
 50.6433  50.6993  50.7310
 
 Beta MOs
 -- Occupied --
-19.4081 -19.4012 -19.3746 -19.3563 -19.3515 -19.3505 -19.3357 -10.4883
-10.4724 -10.4527 -10.3754  -1.2778  -1.2286  -1.2135  -1.1818  -1.1395
 -1.1381  -1.0404  -0.8880  -0.8130  -0.7634  -0.7326  -0.6911  -0.6537
 -0.6441  -0.6214  -0.6108  -0.6075  -0.5827  -0.5785  -0.5630  -0.5489
 -0.5348  -0.5135  -0.5047  -0.4851  -0.4656  -0.4492  -0.4337  -0.4229
 -0.4172  -0.4087  -0.4001  -0.3945
 -- Virtual --
 -0.0539   0.0273   0.0373   0.0391   0.0437   0.0620   0.0660   0.0679
  0.0735   0.0873   0.0979   0.1043   0.1195   0.1247   0.1266   0.1361
  0.1413   0.1458   0.1488   0.1564   0.1633   0.1697   0.1784   0.1843
  0.1901   0.1992   0.2012   0.2051   0.2214   0.2318   0.2384   0.2426
  0.2573   0.2669   0.2727   0.2776   0.2812   0.2851   0.2885   0.3012
  0.3067   0.3122   0.3191   0.3232   0.3269   0.3361   0.3384   0.3468
  0.3497   0.3548   0.3606   0.3622   0.3687   0.3812   0.3819   0.3848
  0.3957   0.4028   0.4052   0.4145   0.4173   0.4254   0.4327   0.4412
  0.4484   0.4511   0.4545   0.4726   0.4797   0.4849   0.4958   0.5090
  0.5197   0.5687   0.5761   0.5850   0.6050   0.6143   0.6224   0.6413
  0.6476   0.6570   0.6765   0.6855   0.6903   0.6939   0.7091   0.7223
  0.7262   0.7336   0.7563   0.7587   0.7657   0.7778   0.7962   0.8134
  0.8345   0.8360   0.8500   0.8780   0.8900   0.9129   0.9283   0.9503
  0.9686   0.9757   1.0053   1.0157   1.0264   1.0455   1.0662   1.0675
  1.0927   1.1007   1.1076   1.1229   1.1286   1.1443   1.1517   1.1621
  1.1652   1.1739   1.1841   1.1976   1.2065   1.2157   1.2258   1.2326
  1.2384   1.2490   1.2504   1.2562   1.2700   1.2791   1.2847   1.2988
  1.3119   1.3265   1.3337   1.3529   1.3592   1.3637   1.3821   1.3897
  1.4144   1.4334   1.4493   1.4586   1.4712   1.4817   1.4905   1.5034
  1.5192   1.5425   1.5451   1.5505   1.5710   1.5879   1.6069   1.6100
  1.6310   1.6382   1.6669   1.6815   1.6984   1.7168   1.7216   1.7333
  1.7519   1.7746   1.7977   1.8156   1.8475   1.8779   1.9010   1.9074
  1.9213   1.9497   1.9621   1.9855   2.0172   2.0319   2.0580   2.0629
  2.1094   2.1354   2.1785   2.2020   2.2167   2.2521   2.2695   2.2710
  2.3290   2.3598   2.3758   2.3868   2.3959   2.4096   2.4418   2.4669
  2.4802   2.4923   2.5127   2.5514   2.5644   2.5879   2.6076   2.6534
  2.6740   2.6942   2.7187   2.7965   2.8201   2.8297   2.8569   2.8693
  2.9090   2.9258   2.9745   3.0086   3.0373   3.0653   3.0791   3.1246
  3.1639   3.1806   3.1976   3.2233   3.2518   3.2714   3.3085   3.3210
  3.3243   3.3498   3.3859   3.3897   3.4062   3.4354   3.4498   3.4726
  3.4898   3.5079   3.5411   3.5788   3.5996   3.6163   3.6270   3.6488
  3.6645   3.6930   3.7122   3.7459   3.7545   3.7583   3.7756   3.7928
  3.8000   3.8192   3.8300   3.8406   3.8638   3.8717   3.8861   3.9080
  3.9204   3.9319   3.9492   3.9520   3.9696   3.9922   4.0153   4.0641
  4.0692   4.0958   4.1293   4.1539   4.1858   4.1989   4.2187   4.2279
  4.2366   4.2549   4.2747   4.2927   4.2994   4.3500   4.3795   4.3977
  4.4124   4.4220   4.4548   4.4710   4.4995   4.5070   4.5791   4.6262
  4.6324   4.7036   4.7577   4.7968   4.8251   4.8617   4.9951   5.0486
  5.0965   5.1130   5.1681   5.1975   5.2098   5.2233   5.2319   5.2357
  5.2496   5.2582   5.2794   5.2830   5.2926   5.3139   5.3171   5.3250
  5.3445   5.3550   5.3754   5.3783   5.3815   5.4061   5.4138   5.4551
  5.4678   5.4868   5.4900   5.5085   5.5302   5.5496   5.5630   5.5739
  5.5948   5.6061   5.6138   5.6178   5.6276   5.6504   5.6590   5.6615
  5.7012   5.7256   5.7578   5.7852   5.7854   5.8144   5.8652   5.8973
  5.9732   6.0054   6.0361   6.0526   6.0661   6.1269   6.1658   6.2215
  6.3172   6.5016   6.5759   6.6275   6.7500   6.7848   6.8178   6.8414
  6.9972   7.0166   7.0420   7.0529   7.0689   7.0914   7.1073   7.1191
  7.1526   7.2000   7.2290   7.2446   7.2537   7.2651   7.2814   7.2924
  7.3159   7.3317   7.3468   7.3939   7.4138   7.4170   7.4552   7.4647
  7.4982   7.5040   7.5842   7.5930   7.6242   7.6502   7.6974   7.7134
  7.7710   7.8091   7.8183   7.8412   7.8595   7.8977   7.9142   8.0110
  8.2100  24.5516  24.7956  24.8472  25.0167  50.4935  50.5655  50.5961
 50.6217  50.6436  50.6995  50.7361
 --------------------------------------------------------------
 
          Ground-State Mulliken Net Atomic Charges

     Atom                 Charge (a.u.)    Spin (a.u.)
  --------------------------------------------------------
      1 C                    -0.195219       0.019294
      2 O                    -0.416627       0.002752
      3 C                     0.280619       0.005763
      4 O                    -0.409332       0.004190
      5 C                    -0.567730       0.595232
      6 C                    -0.025943       0.027158
      7 O                    -0.426806       0.275369
      8 H                     0.295262       0.001353
      9 H                     0.341924      -0.000807
     10 H                     0.334370      -0.010258
     11 H                     0.308543      -0.010196
     12 H                     0.315176       0.035220
     13 O                    -0.448018       0.008086
     14 H                     0.355972      -0.000435
     15 O                    -0.164041       0.005276
     16 O                    -0.288066       0.001132
     17 H                     0.331011      -0.001510
     18 H                     0.337438      -0.000504
     19 O                    -0.314479       0.044708
     20 H                     0.355945      -0.001822
  --------------------------------------------------------
  Sum of atomic charges =     0.000000
  Sum of spin   charges =     1.000000

 -----------------------------------------------------------------
                    Cartesian Multipole Moments
 -----------------------------------------------------------------
    Charge (ESU x 10^10)
                 0.0000
    Dipole Moment (Debye)
         X       1.8575      Y       4.9053      Z      -2.7258
       Tot       5.9112
    Quadrupole Moments (Debye-Ang)
        XX     -44.5815     XY      19.3988     YY     -71.7679
        XZ      -7.5410     YZ      -1.2431     ZZ     -67.1417
    Octopole Moments (Debye-Ang^2)
       XXX    -586.8726    XXY      79.7363    XYY    -279.8219
       YYY      99.7605    XXZ     -44.7918    XYZ      -2.6134
       YYZ      14.9133    XZZ    -270.7448    YZZ      16.8109
       ZZZ     -66.7994
    Hexadecapole Moments (Debye-Ang^3)
      XXXX   -5338.9384   XXXY     143.8920   XXYY   -1395.0102
      XYYY     203.4983   YYYY    -825.2516   XXXZ    -446.9197
      XXYZ     -75.1105   XYYZ       1.7454   YYYZ    -167.3176
      XXZZ   -1284.3957   XYZZ      14.2686   YYZZ    -242.7604
      XZZZ    -370.3691   YZZZ    -194.9735   ZZZZ    -657.8331
 -----------------------------------------------------------------
 Calculating analytic gradient of the SCF energy
 Gradient of CDS energy
            1           2           3           4           5           6
    1  -0.0027917   0.0016873  -0.0018871   0.0019656  -0.0005950   0.0020881
    2  -0.0017020  -0.0015928  -0.0007864   0.0007376   0.0002396   0.0043700
    3   0.0000758   0.0003546   0.0033860  -0.0036199  -0.0010289   0.0017384
            7           8           9          10          11          12
    1   0.0008084   0.0002697  -0.0004174  -0.0002011   0.0001742  -0.0003528
    2   0.0004435  -0.0001191   0.0002001  -0.0000809  -0.0001569  -0.0000724
    3  -0.0013594   0.0000195  -0.0002345   0.0001292   0.0000196  -0.0002828
           13          14          15          16          17          18
    1   0.0012810  -0.0002860  -0.0000532  -0.0002641  -0.0001413   0.0004702
    2   0.0032603  -0.0003302  -0.0000199  -0.0000174  -0.0001138  -0.0000380
    3  -0.0005331   0.0002232  -0.0000987   0.0001035   0.0002781  -0.0001550
           19          20
    1  -0.0017478  -0.0000070
    2  -0.0046840   0.0004624
    3   0.0009062   0.0000780
 Gradient of SCF Energy
            1           2           3           4           5           6
    1  -0.0069797   0.0076836   0.0038134  -0.0077643  -0.0035403  -0.0109705
    2   0.0008483   0.0086868   0.0041899  -0.0050654  -0.0122502   0.0118411
    3   0.0060206   0.0210910  -0.0028866  -0.0016927   0.0149061   0.0022390
            7           8           9          10          11          12
    1  -0.0081114   0.0030405  -0.0085267  -0.0068515   0.0135720   0.0134662
    2  -0.0049502   0.0021103  -0.0050290   0.0103871   0.0024621  -0.0107308
    3   0.0115866  -0.0082496  -0.0176790   0.0019485  -0.0139295  -0.0090377
           13          14          15          16          17          18
    1   0.0070648  -0.0043384  -0.0035973  -0.0175816   0.0052932   0.0193698
    2  -0.0095433   0.0037031  -0.0060634  -0.0180146   0.0030968   0.0198582
    3  -0.0080319   0.0059451   0.0075021  -0.0149257   0.0017652   0.0094039
           19          20
    1   0.0186728  -0.0137146
    2  -0.0095314   0.0139947
    3  -0.0150745   0.0090990
 Max gradient component =       2.109E-02
 RMS gradient           =       1.029E-02
 Computing fast CPCM-SWIG gradient
 Updating gradient with PCM contributions...
 -- total gradient after adding PCM contribution --
---------------------------------------------------
  Atom         X              Y              Z     
---------------------------------------------------
   1      -0.005049      -0.000471       0.002394
   2       0.003825       0.004710       0.007779
   3       0.000119       0.000333      -0.001259
   4      -0.006332      -0.004063      -0.003456
   5       0.002166      -0.000164       0.003414
   6       0.000223       0.001165      -0.002267
   7      -0.005103      -0.001666       0.004954
   8       0.002225      -0.001037      -0.002769
   9      -0.002881      -0.002992      -0.005597
  10      -0.002699       0.002263      -0.000206
  11       0.001517       0.000683      -0.003022
  12       0.002359      -0.001285      -0.001097
  13       0.003847      -0.003744      -0.007672
  14      -0.001735       0.002964       0.006409
  15      -0.000142      -0.001448       0.005267
  16      -0.003711      -0.003084      -0.007763
  17       0.004439       0.003005       0.003570
  18       0.004559       0.003808       0.003379
  19       0.007091      -0.001455      -0.005903
  20      -0.004719       0.002477       0.003845
---------------------------------------------------
 Number of fixed atoms: 0
 Gradient time:  CPU 392.28 s  wall 33.37 s
 ----------------------------------------------------------------
             Standard Nuclear Orientation (Angstroms)
    I     Atom           X                Y                Z
 ----------------------------------------------------------------
    1      C       2.6192240219    -1.0818698462    -1.0845610211
    2      O       1.5789866220    -0.1353766305    -1.1236480128
    3      C       3.5594848015    -0.6406387994     0.0585635369
    4      O       2.8893700751    -0.8942108285     1.2507033886
    5      C       3.9906051896     0.7894153515    -0.0955170335
    6      C       5.1967945156     1.1941591900     1.4441235199
    7      O       4.4366924953     0.9794321718     2.4169628352
    8      H       3.1665877112    -1.1208446857    -2.0289510291
    9      H       1.0350180870    -0.3477769984    -1.9005740480
   10      H       3.2185340774     1.5311674601     0.0880547472
   11      H       4.6605576911     1.0093018126    -0.9228886025
   12      H       5.9315169578     0.4526635111     1.0994447192
   13      O       2.1471535869    -2.3838632855    -0.8487177605
   14      H       1.7642894012    -2.3750468571     0.0478517429
   15      O       4.6934468164    -1.5358944415     0.1015615685
   16      O       5.4369662604    -1.3948293333    -1.1184797677
   17      H       3.3686610582    -0.3946989313     1.9510580586
   18      H       6.1908938688    -0.8469165251    -0.8280441568
   19      O       5.6172368807     2.4537194265     1.1390635468
   20      H       5.0400048819     3.0736853390     1.6254962683
 ----------------------------------------------------------------
 Nuclear Repulsion Energy =         722.38151883 hartrees
 There are       45 alpha and       44 beta electrons
 Discretize the solute cavity surface with Lebedev spheres
	Using 110 Lebedev grid points for each H atom
	Using 194 Lebedev grid points for other atoms
	Atomic van der Waals radii will be scaled by 1.20
 Remove points where switching function is < 1.0e-08
 Keep 1550 surface tesserae and discard 1574 interior tesserae
 Molecular Surface Area = 171.808 Angst**2
 Requested basis set is 6-311++G(2df,2p)
 There are 142 shells and 464 basis functions
 A cutoff of  1.0D-11 yielded   8672 shell pairs
 There are     91166 function pairs (    112872 Cartesian)
 Smallest overlap matrix eigenvalue = 6.69E-06
 Guess MOs from SCF MO coefficient file

 -----------------------------------------------------------------------
  General SCF calculation program by
  Eric Jon Sundstrom, Paul Horn, Yuezhi Mao, Dmitri Zuev, Alec White,
  David Stuck, Shaama M.S., Shane Yost, Joonho Lee, David Small,
  Daniel Levine, Susi Lehtola, Hugh Burton, Evgeny Epifanovsky,
  Bang C. Huynh
 -----------------------------------------------------------------------
 Exchange:     0.1500 Hartree-Fock + 1.0000 wB97M-V + LR-HF
 Correlation:  1.0000 wB97M-V
 Using SG-2 standard quadrature grid
 Nonlocal Correlation:  VV10 with C = 0.0100 and b = 6.00 and scale = 1.00000
 Grid used for NLC:  SG-1 standard quadrature
 
 Citation of the SMD model:
 Marenich, A.V.; Cramer, C.J.; Truhlar, D.G.
 J. Phys. Chem. B 2009, 113, 6378-6396.
 iSolventCode=           1
 Solvent: water                                                           
 
 vradii
            1           2           3           4           5           6
    1   1.8500000   1.5200000   1.8500000   1.5200000   1.8500000   1.8500000
            7           8           9          10          11          12
    1   1.5200000   1.2000000   1.2000000   1.2000000   1.2000000   1.2000000
           13          14          15          16          17          18
    1   1.5200000   1.2000000   1.5200000   1.5200000   1.2000000   1.2000000
           19          20
    1   1.5200000   1.2000000
 -------------------------------------------------------
 OpenMP BLAS3 based DFT computing Module                
 Release: version 1.0, May 2013, Q-Chem Inc. Pittsburgh 
 -------------------------------------------------------
 A unrestricted SCF calculation will be
 performed using Roothaan-Hall, DIIS, GDM
 SCF converges when RMS gradient is below 1.0e-06
 ---------------------------------------
  Cycle       Energy         DIIS error
 ---------------------------------------
    1    -684.2590824927      2.32e-04  Roothaan Step
 ---------------------------------------
  Cycle       Energy         DIIS error
 ---------------------------------------
    1    -684.3050628235      2.63e-04  
    2    -684.3121461714      2.25e-04  Done DIIS. Switching to GDM
 ---------------------------------------
  Cycle       Energy        RMS Gradient
 ---------------------------------------
    1    -684.3121461714      2.03e-02   Normal BFGS step
    2    -684.3112039693      3.27e-02  Line search: overstep
    3    -684.3157302374      4.53e-03   Normal BFGS step
    4    -684.3159607034      9.92e-04   Normal BFGS step
    5    -684.3160073239      1.36e-03   Normal BFGS step
    6    -684.3160167775      4.64e-04   Normal BFGS step
    7    -684.3160182121      4.01e-04   Normal BFGS step
    8    -684.3160187785      2.49e-04   Normal BFGS step
    9    -684.3160189892      4.85e-05   Normal BFGS step
   10    -684.3160190100      1.94e-05   Normal BFGS step
   11    -684.3160190212      9.37e-06   Normal BFGS step
   12    -684.3160190219      7.12e-06   Normal BFGS step
   13    -684.3160190224      3.04e-06   Normal BFGS step
   14    -684.3160190224      1.29e-06   Normal BFGS step
  GDM::WARNING energy changes are now smaller than effective accuracy.
  GDM::        calculation will continue, but THRESH should be increased
  GDM::        or SCF_CONVERGENCE decreased. 
  GDM::        effective_thresh = 3.73e-09
   15    -684.3160190227      7.56e-07  Convergence criterion met
 ---------------------------------------
 SCF time:   CPU 2507.16s  wall 173.00s 
<S^2> =          0.759699012
(3)  G-ENP(liq) elect-nuc-pol free energy of system     -684.316019023 a.u.
(4)  G-CDS(liq) cavity-dispersion-solvent structure 
     free energy                                                4.8318 kcal/mol
(6)  G-S(liq) free energy of system                     -684.308318992 a.u.
 SCF   energy in the final basis set =     -684.3083189915
 Total energy in the final basis set =     -684.3083189915
 
 --------------------------------------------------------------
 
                    Orbital Energies (a.u.)
 --------------------------------------------------------------
 
 Alpha MOs
 -- Occupied --
-19.4083 -19.4012 -19.3759 -19.3565 -19.3517 -19.3506 -19.3436 -10.4876
-10.4720 -10.4535 -10.3854  -1.2782  -1.2343  -1.2139  -1.1824  -1.1493
 -1.1392  -1.0409  -0.8998  -0.8238  -0.7708  -0.7352  -0.6924  -0.6550
 -0.6491  -0.6274  -0.6161  -0.6129  -0.5911  -0.5801  -0.5677  -0.5630
 -0.5370  -0.5194  -0.5120  -0.4877  -0.4676  -0.4527  -0.4507  -0.4340
 -0.4190  -0.4159  -0.4070  -0.4001  -0.3318
 -- Virtual --
  0.0270   0.0373   0.0388   0.0434   0.0621   0.0652   0.0678   0.0735
  0.0859   0.0968   0.1018   0.1165   0.1211   0.1247   0.1297   0.1372
  0.1453   0.1482   0.1555   0.1629   0.1694   0.1758   0.1839   0.1864
  0.1971   0.2000   0.2037   0.2194   0.2315   0.2365   0.2420   0.2560
  0.2662   0.2721   0.2769   0.2796   0.2834   0.2870   0.2996   0.3052
  0.3097   0.3169   0.3196   0.3252   0.3344   0.3346   0.3452   0.3482
  0.3537   0.3589   0.3611   0.3658   0.3782   0.3809   0.3833   0.3950
  0.4004   0.4039   0.4113   0.4161   0.4247   0.4322   0.4402   0.4462
  0.4487   0.4520   0.4716   0.4781   0.4821   0.4934   0.5074   0.5168
  0.5669   0.5729   0.5815   0.6029   0.6125   0.6177   0.6397   0.6440
[...]
    1  -0.0014667  -0.0000192
    2  -0.0047357   0.0004609
    3   0.0008582   0.0000904
 Gradient of SCF Energy
            1           2           3           4           5           6
    1  -0.0024550   0.0034157   0.0034275  -0.0013959  -0.0049582  -0.0118980
    2   0.0007779   0.0027442   0.0034476  -0.0012468  -0.0116804   0.0105684
    3   0.0043870   0.0145474  -0.0015389   0.0015962   0.0113362   0.0049873
            7           8           9          10          11          12
    1  -0.0017698   0.0010981  -0.0050769  -0.0043898   0.0118420   0.0112078
    2  -0.0037376   0.0036809  -0.0010280   0.0082442   0.0017314  -0.0088257
    3   0.0066644  -0.0060121  -0.0131313   0.0025066  -0.0112378  -0.0089767
           13          14          15          16          17          18
    1   0.0034636  -0.0027575  -0.0033832  -0.0141243   0.0004488   0.0151262
    2  -0.0054835   0.0007023  -0.0042928  -0.0147908   0.0004408   0.0154988
    3  -0.0010151   0.0000054   0.0028105  -0.0069228  -0.0017711   0.0054482
           19          20
    1   0.0112390  -0.0090604
    2  -0.0077585   0.0110075
    3  -0.0094594   0.0057759
 Max gradient component =       1.550E-02
 RMS gradient           =       7.511E-03
 Computing fast CPCM-SWIG gradient
 Updating gradient with PCM contributions...
 -- total gradient after adding PCM contribution --
---------------------------------------------------
  Atom         X              Y              Z     
---------------------------------------------------
   1       0.000007       0.000008      -0.000008
   2      -0.000032      -0.000015       0.000024
   3      -0.000008      -0.000001       0.000002
   4      -0.000011       0.000002      -0.000006
   5      -0.000000      -0.000001       0.000006
   6       0.000010      -0.000018      -0.000003
   7       0.000008      -0.000020       0.000002
   8      -0.000017       0.000023      -0.000010
   9       0.000012       0.000041      -0.000004
  10       0.000015       0.000012       0.000012
  11       0.000001      -0.000011       0.000003
  12       0.000009      -0.000005       0.000003
  13       0.000001       0.000012      -0.000007
  14      -0.000006       0.000006      -0.000015
  15       0.000004       0.000007      -0.000001
  16      -0.000003      -0.000010      -0.000007
  17       0.000011      -0.000017      -0.000004
  18      -0.000010       0.000017      -0.000032
  19       0.000001      -0.000019       0.000032
  20       0.000010      -0.000010       0.000013
---------------------------------------------------
 Number of fixed atoms: 0
 Gradient time:  CPU 457.22 s  wall 38.17 s
 Geometry Optimization Parameters
   NAtoms,    NIC,     NZ,  NCons,   NDum,   NFix, NCnnct, MaxDiis
       20     132       0       0       0       0       0       0

 Cartesian Hessian Update
 Hessian updated using Powell/Murtagh-Sargent update
  Mixing factors:     0.987405 Powell                      0.012595 Murtagh-Sargent


** GEOMETRY OPTIMIZATION IN DELOCALIZED INTERNAL COORDINATES **
   Searching for a Transition State

   Optimization Cycle:   8

                       Coordinates (Angstroms)
     ATOM                X               Y               Z
      1  C         2.6231377974   -1.0749310166   -1.0732322017
      2  O         1.5751697097   -0.1383323683   -1.1110906358
      3  C         3.5545920479   -0.6470178739    0.0822855238
      4  O         2.8858486751   -0.8954320805    1.2725717082
      5  C         3.9852606479    0.7787340239   -0.0786859592
      6  C         5.2147155840    1.2108000316    1.4068669918
      7  O         4.5235571974    0.9441438734    2.4124239693
      8  H         3.1770790867   -1.0830908578   -2.0085729342
      9  H         1.0830233313   -0.2758552166   -1.9288304904
     10  H         3.2223019757    1.5174459746    0.1243096123
     11  H         4.6348936208    0.9958510411   -0.9165660768
     12  H         5.9684989212    0.5158606538    1.0207259338
     13  O         2.1544949818   -2.3823976414   -0.8781272473
     14  H         1.7369644519   -2.4254864285   -0.0070445639
     15  O         4.6817450998   -1.5474438611    0.1295299016
     16  O         5.4280151311   -1.4390130281   -1.0807568555
     17  H         3.3486433383   -0.3980332378    1.9726785560
     18  H         6.1916006958   -0.9077605524   -0.8099446221
     19  O         5.5598976296    2.4952679669    1.1129805985
     20  H         4.9925850767    3.0872676978    1.6299812917
   Point Group: c1    Number of degrees of freedom:    54


   Energy is   -684.309106031

 Hessian updated using Powell/Murtagh-Sargent update
  Mixing factors:     0.742969 Powell                      0.257031 Murtagh-Sargent

 54 Hessian modes will be used to form the next step
  Hessian Eigenvalues:
    -0.031144    0.001874    0.002955    0.005731    0.007351    0.009277
     0.011085    0.016091    0.021394    0.022373    0.032668    0.039733
     0.050660    0.052063    0.059784    0.066314    0.069204    0.070199
     0.077423    0.079275    0.095212    0.106715    0.116147    0.128440
     0.153667    0.162964    0.174284    0.181984    0.182329    0.190045
     0.200585    0.208460    0.219799    0.241334    0.257933    0.272315
     0.294949    0.309141    0.324364    0.337845    0.340819    0.353232
     0.354479    0.382273    0.427787    0.432650    0.451158    0.478670
     0.485528    0.486239    0.487475    0.499049    0.524388    0.625065

 Transition state search - taking P-RFO step
 Searching for Lamda that Maximizes Along the Lowest mode
 Value Taken    Lamda =   0.00000000
 Searching for Lamda that Minimizes Along All other modes
 Value Taken    Lamda =  -0.00000091
 Step Taken.  Stepsize is  0.018289

                             Maximum     Tolerance    Cnvgd?
         Gradient           0.000039      0.000300     YES
         Displacement       0.007695      0.001200      NO
         Energy change     -0.000000      0.000001     YES

 Final energy is   -684.309106030852     


 ******************************
 **  OPTIMIZATION CONVERGED  **
 ******************************

                       Coordinates (Angstroms)
     ATOM                X               Y               Z
      1  C         2.6231377974   -1.0749310166   -1.0732322017
      2  O         1.5751697097   -0.1383323683   -1.1110906358
      3  C         3.5545920479   -0.6470178739    0.0822855238
      4  O         2.8858486751   -0.8954320805    1.2725717082
      5  C         3.9852606479    0.7787340239   -0.0786859592
      6  C         5.2147155840    1.2108000316    1.4068669918
      7  O         4.5235571974    0.9441438734    2.4124239693
      8  H         3.1770790867   -1.0830908578   -2.0085729342
      9  H         1.0830233313   -0.2758552166   -1.9288304904
     10  H         3.2223019757    1.5174459746    0.1243096123
     11  H         4.6348936208    0.9958510411   -0.9165660768
     12  H         5.9684989212    0.5158606538    1.0207259338
     13  O         2.1544949818   -2.3823976414   -0.8781272473
     14  H         1.7369644519   -2.4254864285   -0.0070445639
     15  O         4.6817450998   -1.5474438611    0.1295299016
     16  O         5.4280151311   -1.4390130281   -1.0807568555
     17  H         3.3486433383   -0.3980332378    1.9726785560
     18  H         6.1916006958   -0.9077605524   -0.8099446221
     19  O         5.5598976296    2.4952679669    1.1129805985
     20  H         4.9925850767    3.0872676978    1.6299812917

Z-matrix Print:
$molecule
0 2
O 
O  1 1.425998
H  2 0.968830 1 102.528151
C  1 1.443424 2 109.478329 3 103.203600 0
O  4 1.387699 1 103.684319 2 177.202606 0
H  5 0.975569 4 107.197672 1 80.960938 0
C  4 1.498051 1 111.884003 2 -59.932736 0
H  7 1.081207 4 115.290939 1 -165.388731 0
H  7 1.082223 4 116.532369 1 54.274970 0
C  4 1.544648 1 108.817951 2 62.949528 0
H  10 1.087097 4 109.782623 1 -57.114988 0
O  10 1.402555 4 110.834838 1 60.182913 0
H  12 0.966940 10 108.127872 4 54.811789 0
O  10 1.406018 4 106.562524 1 -177.640112 0
H  14 0.964271 10 107.953276 4 168.588509 0
O  6 1.837182 5 147.955133 4 17.166798 0
C  16 1.248980 6 108.491418 5 -19.185180 0
H  17 1.095552 16 121.943735 6 -69.975019 0
O  17 1.362123 16 121.015358 6 141.479714 0
H  19 0.969328 17 108.211406 16 -15.648750 0
$end

 
 --------------------------------------------------------------
 
                    Orbital Energies (a.u.)
 --------------------------------------------------------------
 
 Alpha MOs
 -- Occupied --
-19.4078 -19.4003 -19.3730 -19.3566 -19.3506 -19.3497 -19.3421 -10.4851
-10.4718 -10.4534 -10.3846  -1.2819  -1.2344  -1.2146  -1.1848  -1.1494
 -1.1404  -1.0416  -0.9023  -0.8261  -0.7721  -0.7384  -0.6947  -0.6577
 -0.6517  -0.6289  -0.6161  -0.6143  -0.5927  -0.5818  -0.5688  -0.5634
 -0.5354  -0.5193  -0.5125  -0.4872  -0.4651  -0.4524  -0.4509  -0.4357
 -0.4184  -0.4161  -0.4060  -0.3988  -0.3320
 -- Virtual --
  0.0270   0.0374   0.0388   0.0437   0.0623   0.0656   0.0674   0.0731
  0.0877   0.0964   0.1033   0.1184   0.1221   0.1270   0.1308   0.1377
  0.1454   0.1481   0.1552   0.1640   0.1695   0.1757   0.1837   0.1874
  0.1974   0.1996   0.2052   0.2200   0.2325   0.2373   0.2448   0.2569
  0.2642   0.2720   0.2774   0.2807   0.2845   0.2891   0.3006   0.3088
  0.3107   0.3196   0.3204   0.3257   0.3322   0.3358   0.3473   0.3509
  0.3540   0.3614   0.3628   0.3673   0.3770   0.3817   0.3836   0.3948
  0.4001   0.4040   0.4109   0.4169   0.4228   0.4325   0.4414   0.4482
  0.4485   0.4525   0.4666   0.4798   0.4824   0.4909   0.5092   0.5181
  0.5677   0.5785   0.5844   0.6056   0.6161   0.6208   0.6395   0.6423
  0.6613   0.6727   0.6822   0.6871   0.6941   0.7088   0.7222   0.7260
  0.7359   0.7525   0.7589   0.7662   0.7752   0.7905   0.8079   0.8289
  0.8378   0.8542   0.8730   0.8842   0.9175   0.9290   0.9480   0.9639
  0.9752   1.0012   1.0131   1.0278   1.0408   1.0656   1.0686   1.0897
  1.0981   1.1027   1.1157   1.1253   1.1418   1.1500   1.1607   1.1667
  1.1717   1.1829   1.1951   1.2049   1.2143   1.2232   1.2292   1.2349
  1.2449   1.2470   1.2574   1.2707   1.2726   1.2833   1.2875   1.3077
  1.3225   1.3261   1.3517   1.3576   1.3615   1.3787   1.3850   1.4096
  1.4318   1.4482   1.4553   1.4688   1.4734   1.4914   1.5005   1.5145
  1.5442   1.5459   1.5569   1.5653   1.5873   1.6015   1.6122   1.6304
  1.6372   1.6626   1.6847   1.6947   1.7164   1.7231   1.7268   1.7472
  1.7742   1.7968   1.8210   1.8455   1.8730   1.9016   1.9081   1.9130
  1.9543   1.9551   1.9874   2.0147   2.0331   2.0532   2.0689   2.1075
  2.1327   2.1651   2.1977   2.2163   2.2439   2.2585   2.2645   2.3252
  2.3533   2.3638   2.3830   2.3962   2.4093   2.4405   2.4603   2.4801
  2.4936   2.5033   2.5365   2.5557   2.5846   2.5958   2.6405   2.6683
  2.6935   2.7069   2.7903   2.8135   2.8235   2.8518   2.8607   2.8993
  2.9208   2.9584   3.0030   3.0098   3.0583   3.0678   3.1110   3.1516
  3.1682   3.1859   3.2257   3.2505   3.2705   3.2974   3.3134   3.3186
  3.3403   3.3675   3.3794   3.3936   3.4247   3.4457   3.4686   3.4830
  3.5100   3.5346   3.5556   3.5926   3.6172   3.6327   3.6537   3.6589
  3.6834   3.7049   3.7300   3.7441   3.7602   3.7643   3.7874   3.8009
  3.8144   3.8286   3.8388   3.8501   3.8716   3.8818   3.9029   3.9173
  3.9266   3.9467   3.9529   3.9697   3.9855   4.0115   4.0627   4.0695
  4.0896   4.1199   4.1513   4.1849   4.2023   4.2183   4.2289   4.2423
  4.2561   4.2711   4.3034   4.3121   4.3509   4.3766   4.3960   4.4121
  4.4165   4.4405   4.4725   4.4912   4.5026   4.5783   4.6150   4.6253
  4.7055   4.7576   4.7867   4.8195   4.8595   4.9876   5.0471   5.0849
  5.1101   5.1481   5.1887   5.2089   5.2123   5.2237   5.2252   5.2484
  5.2546   5.2775   5.2816   5.2942   5.3046   5.3134   5.3174   5.3347
  5.3517   5.3610   5.3733   5.3789   5.4050   5.4156   5.4513   5.4533
  5.4855   5.4924   5.5115   5.5198   5.5433   5.5609   5.5724   5.5964
  5.6037   5.6201   5.6289   5.6403   5.6476   5.6657   5.6718   5.7027
  5.7164   5.7639   5.7791   5.7884   5.8182   5.8831   5.9060   5.9831
  6.0271   6.0563   6.0587   6.0931   6.1454   6.1672   6.2511   6.3144
  6.5067   6.5815   6.6348   6.7563   6.7860   6.8353   6.8686   6.9825
  7.0156   7.0258   7.0530   7.0690   7.0885   7.1061   7.1246   7.1483
  7.1827   7.2526   7.2685   7.2706   7.2788   7.2989   7.3115   7.3210
  7.3368   7.3526   7.3857   7.4086   7.4265   7.4423   7.4685   7.5004
  7.5099   7.5849   7.6055   7.6114   7.6650   7.6979   7.7240   7.7750
  7.8052   7.8078   7.8545   7.8598   7.8960   7.9141   8.0188   8.2031
 24.5610  24.8077  24.8593  25.0335  50.4947  50.5706  50.6003  50.6260
 50.6467  50.6989  50.7323
 
 Beta MOs
 -- Occupied --
-19.4076 -19.4003 -19.3717 -19.3565 -19.3505 -19.3494 -19.3340 -10.4857
-10.4722 -10.4526 -10.3748  -1.2815  -1.2285  -1.2140  -1.1843  -1.1401
 -1.1384  -1.0411  -0.8909  -0.8157  -0.7647  -0.7357  -0.6935  -0.6567
 -0.6466  -0.6228  -0.6109  -0.6079  -0.5854  -0.5797  -0.5638  -0.5483
 -0.5335  -0.5132  -0.5050  -0.4847  -0.4635  -0.4493  -0.4352  -0.4227
 -0.4160  -0.4086  -0.3989  -0.3935
 -- Virtual --
 -0.0548   0.0273   0.0375   0.0391   0.0439   0.0622   0.0664   0.0675
  0.0731   0.0890   0.0970   0.1054   0.1200   0.1269   0.1276   0.1366
  0.1432   0.1466   0.1490   0.1560   0.1645   0.1697   0.1781   0.1843
  0.1911   0.1997   0.2011   0.2063   0.2220   0.2329   0.2393   0.2455
  0.2579   0.2647   0.2726   0.2780   0.2821   0.2863   0.2905   0.3026
  0.3103   0.3130   0.3212   0.3241   0.3278   0.3359   0.3374   0.3485
  0.3522   0.3554   0.3624   0.3645   0.3701   0.3800   0.3829   0.3857
  0.3957   0.4016   0.4057   0.4135   0.4182   0.4236   0.4330   0.4430
  0.4497   0.4507   0.4551   0.4680   0.4824   0.4841   0.4931   0.5112
  0.5210   0.5697   0.5813   0.5885   0.6076   0.6184   0.6251   0.6415
  0.6456   0.6622   0.6780   0.6858   0.6902   0.6969   0.7123   0.7254
  0.7312   0.7395   0.7560   0.7621   0.7683   0.7783   0.7930   0.8115
  0.8332   0.8391   0.8571   0.8758   0.8882   0.9183   0.9306   0.9502
  0.9665   0.9769   1.0032   1.0159   1.0308   1.0445   1.0669   1.0715
  1.0926   1.1005   1.1061   1.1182   1.1280   1.1430   1.1516   1.1630
  1.1688   1.1748   1.1858   1.1974   1.2061   1.2177   1.2250   1.2312
  1.2370   1.2466   1.2526   1.2596   1.2729   1.2758   1.2861   1.2942
  1.3091   1.3253   1.3271   1.3542   1.3621   1.3651   1.3815   1.3888
  1.4125   1.4384   1.4510   1.4579   1.4731   1.4795   1.4956   1.5052
  1.5191   1.5470   1.5504   1.5594   1.5705   1.5919   1.6049   1.6147
  1.6341   1.6444   1.6679   1.6863   1.6988   1.7189   1.7297   1.7358
  1.7525   1.7780   1.7990   1.8257   1.8503   1.8785   1.9041   1.9123
  1.9174   1.9559   1.9585   1.9894   2.0177   2.0357   2.0558   2.0704
  2.1106   2.1360   2.1685   2.2026   2.2173   2.2482   2.2612   2.2692
  2.3272   2.3557   2.3666   2.3869   2.3975   2.4130   2.4431   2.4650
  2.4822   2.4961   2.5059   2.5396   2.5602   2.5890   2.6007   2.6585
  2.6785   2.6976   2.7220   2.7980   2.8230   2.8282   2.8562   2.8704
  2.9170   2.9303   2.9713   3.0135   3.0365   3.0681   3.0829   3.1257
  3.1641   3.1795   3.2017   3.2350   3.2568   3.2812   3.3123   3.3220
  3.3304   3.3506   3.3883   3.3915   3.4111   3.4357   3.4560   3.4787
  3.4940   3.5203   3.5439   3.5754   3.6013   3.6242   3.6400   3.6582
  3.6717   3.6945   3.7139   3.7528   3.7537   3.7651   3.7719   3.7987
  3.8050   3.8199   3.8309   3.8444   3.8594   3.8768   3.8869   3.9100
  3.9264   3.9387   3.9528   3.9615   3.9745   3.9957   4.0232   4.0697
  4.0801   4.1042   4.1292   4.1607   4.1967   4.2115   4.2322   4.2360
  4.2507   4.2727   4.2787   4.3074   4.3194   4.3591   4.3834   4.4060
  4.4213   4.4299   4.4540   4.4854   4.5014   4.5263   4.5873   4.6337
  4.6375   4.7108   4.7615   4.8093   4.8352   4.8629   4.9939   5.0477
  5.0990   5.1248   5.1630   5.2003   5.2114   5.2231   5.2303   5.2334
  5.2496   5.2598   5.2792   5.2863   5.2961   5.3167   5.3202   5.3248
  5.3397   5.3537   5.3741   5.3771   5.3837   5.4072   5.4190   5.4551
  5.4644   5.4884   5.4963   5.5164   5.5279   5.5493   5.5687   5.5778
  5.6051   5.6210   5.6267   5.6306   5.6459   5.6589   5.6681   5.6724
  5.7160   5.7381   5.7686   5.7886   5.7910   5.8200   5.8864   5.9085
  5.9874   6.0284   6.0595   6.0645   6.0938   6.1469   6.1681   6.2518
  6.3338   6.5086   6.5827   6.6374   6.7572   6.7919   6.8366   6.8689
  7.0034   7.0217   7.0400   7.0575   7.0763   7.0894   7.1094   7.1265
  7.1551   7.1925   7.2534   7.2699   7.2741   7.2806   7.3006   7.3134
  7.3221   7.3449   7.3562   7.3903   7.4127   7.4272   7.4626   7.4725
  7.5032   7.5111   7.5866   7.6061   7.6182   7.6656   7.6987   7.7293
  7.7771   7.8090   7.8193   7.8561   7.8606   7.8979   7.9150   8.0193
  8.2034  24.5682  24.8106  24.8603  25.0330  50.4947  50.5718  50.6009
 50.6261  50.6470  50.6991  50.7377
 --------------------------------------------------------------
 
          Ground-State Mulliken Net Atomic Charges

     Atom                 Charge (a.u.)    Spin (a.u.)
  --------------------------------------------------------
      1 C                    -0.195331       0.018753
      2 O                    -0.416441       0.002651
      3 C                     0.257721       0.004501
      4 O                    -0.402250       0.004125
      5 C                    -0.544452       0.580033
      6 C                    -0.030995       0.027856
      7 O                    -0.433649       0.287690
      8 H                     0.302036       0.001193
      9 H                     0.338934      -0.000770
     10 H                     0.334146      -0.010099
     11 H                     0.315977      -0.010264
     12 H                     0.316404       0.038782
     13 O                    -0.448984       0.008009
     14 H                     0.354381      -0.000404
     15 O                    -0.156901       0.005680
     16 O                    -0.288089       0.001083
     17 H                     0.328965      -0.001443
     18 H                     0.335353      -0.000549
     19 O                    -0.320945       0.044881
     20 H                     0.354119      -0.001708
  --------------------------------------------------------
  Sum of atomic charges =     0.000000
  Sum of spin   charges =     1.000000

 -----------------------------------------------------------------
                    Cartesian Multipole Moments
 -----------------------------------------------------------------
    Charge (ESU x 10^10)
                 0.0000
    Dipole Moment (Debye)
         X       1.6743      Y       4.9321      Z      -2.9080
       Tot       5.9654
    Quadrupole Moments (Debye-Ang)
        XX     -46.0629     XY      18.9679     YY     -71.8330
        XZ      -8.9356     YZ      -1.1630     ZZ     -66.9588
    Octopole Moments (Debye-Ang^2)
       XXX    -593.1488    XXY      75.8862    XYY    -282.5414
       YYY      97.5516    XXZ     -53.3711    XYZ      -1.5341
       YYZ      15.6092    XZZ    -272.0700    YZZ      19.1502
       ZZZ     -68.5603
    Hexadecapole Moments (Debye-Ang^3)
      XXXX   -5344.5329   XXXY     120.0698   XXYY   -1412.9012
      XYYY     196.3742   YYYY    -836.9436   XXXZ    -499.0586
      XXYZ     -68.8217   XYYZ       1.9132   YYYZ    -164.5020
      XXZZ   -1297.4851   XYZZ      19.2838   YYZZ    -243.5689
      XZZZ    -382.7215   YZZZ    -192.6819   ZZZZ    -647.4443
 -----------------------------------------------------------------
 Total job time:  2026.62s(wall), 28705.55s(cpu) 
 Wed Jun 26 17:04:06 2024

        *************************************************************
        *                                                           *
        *  Thank you very much for using Q-Chem.  Have a nice day.  *
        *                                                           *
        *************************************************************


