
Running Job 1 of 1 Q_in.in
qchem Q_in.in_422485.0 /scratch/ari.fischer/qChem2258244.hpc-mn1/qchem422485/ 0
/usr/local/qchem-5.4.1/exe/qcprog.exe_s Q_in.in_422485.0 /scratch/ari.fischer/qChem2258244.hpc-mn1/qchem422485/
                  Welcome to Q-Chem
     A Quantum Leap Into The Future Of Chemistry


 Q-Chem 5.4, Q-Chem, Inc., Pleasanton, CA (2021)

 License issued to: Nanyang Technological University (site)

 E. Epifanovsky,  A. T. B. Gilbert,  Xintian Feng,  Joonho Lee,  Yuezhi Mao,  
 N. Mardirossian,  P. Pokhilko,  A. White,  M. Wormit,  M. P. Coons,  
 A. L. Dempwolff,  Zhengting Gan,  D. Hait,  P. R. Horn,  L. D. Jacobson,  
 I. Kaliman,  J. Kussmann,  A. W. Lange,  Ka Un Lao,  D. S. Levine,  Jie Liu,  
 S. C. McKenzie,  A. F. Morrison,  K. Nanda,  F. Plasser,  D. R. Rehn,  
 M. L. Vidal,  Zhi-Qiang You,  Ying Zhu,  B. Alam,  B. Albrecht,  
 A. Aldossary,  E. Alguire,  J. H. Andersen,  D. Barton,  K. Begam,  A. Behn,  
 Y. A. Bernard,  E. J. Berquist,  H. Burton,  A. Carreras,  K. Carter-Fenk,  
 R. Chakraborty,  A. D. Chien,  K. D. Closser,  V. Cofer-Shabica,  
 S. Dasgupta,  Jia Deng,  M. de Wergifosse,  M. Diedenhofen,  Hainam Do,  
 S. Ehlert,  Po-Tung Fang,  S. Fatehi,  Qingguo Feng,  T. Friedhoff,  
 J. Gayvert,  Qinghui Ge,  G. Gidofalvi,  M. Goldey,  J. Gomes,  
 C. Gonzalez-Espinoza,  S. Gulania,  A. Gunina,  M. W. D. Hanson-Heine,  
 P. H. P. Harbach,  A. W. Hauser,  M. F. Herbst,  M. Hernandez Vera,  
 M. Hodecker,  Z. C. Holden,  S. Houck,  Xunkun Huang,  Kerwin Hui,  
 B. C. Huynh,  M. Ivanov,  Hyunjun Ji,  Hanjie Jiang,  B. Kaduk,  S. Kaehler,  
 K. Khistyaev,  Jaehoon Kim,  P. Klunzinger,  Z. Koczor-Benda,  
 Joong Hoon Koh,  D. Kosenkov,  L. Koulias,  T. Kowalczyk,  C. M. Krauter,  
 K. Kue,  A. Kunitsa,  T. Kus,  A. Landau,  K. V. Lawler,  D. Lefrancois,  
 S. Lehtola,  Rain Li,  Yi-Pei Li,  Jiashu Liang,  M. Liebenthal,  
 Hung-Hsuan Lin,  You-Sheng Lin,  Fenglai Liu,  Kuan-Yu Liu,  
 M. Loipersberger,  A. Luenser,  A. Manjanath,  P. Manohar,  E. Mansoor,  
 S. F. Manzer,  Shan-Ping Mao,  A. V. Marenich,  T. Markovich,  S. Mason,  
 S. A. Maurer,  P. F. McLaughlin,  M. F. S. J. Menger,  J.-M. Mewes,  
 S. A. Mewes,  P. Morgante,  J. W. Mullinax,  K. J. Oosterbaan,  G. Paran,  
 Alexander C. Paul,  Suranjan K. Paul,  F. Pavosevic,  Zheng Pei,  S. Prager,  
 E. I. Proynov,  E. Ramos,  B. Rana,  A. E. Rask,  A. Rettig,  R. M. Richard,  
 F. Rob,  E. Rossomme,  T. Scheele,  M. Scheurer,  M. Schneider,  
 N. Sergueev,  S. M. Sharada,  W. Skomorowski,  D. W. Small,  C. J. Stein,  
 Yu-Chuan Su,  E. J. Sundstrom,  Zhen Tao,  J. Thirman,  T. Tsuchimochi,  
 N. M. Tubman,  S. P. Veccham,  O. Vydrov,  J. Wenzel,  J. Witte,  A. Yamada,  
 Kun Yao,  S. Yeganeh,  S. R. Yost,  A. Zech,  Igor Ying Zhang,  Xing Zhang,  
 Yu Zhang,  D. Zuev,  A. Aspuru-Guzik,  A. T. Bell,  N. A. Besley,  
 K. B. Bravaya,  B. R. Brooks,  D. Casanova,  Jeng-Da Chai,  S. Coriani,  
 C. J. Cramer,  A. E. DePrince, III,  R. A. DiStasio Jr.,  A. Dreuw,  
 B. D. Dunietz,  T. R. Furlani,  W. A. Goddard III,  S. Grimme,  
 S. Hammes-Schiffer,  T. Head-Gordon,  W. J. Hehre,  Chao-Ping Hsu,  
 T.-C. Jagau,  Yousung Jung,  A. Klamt,  Jing Kong,  D. S. Lambrecht,  
 WanZhen Liang,  N. J. Mayhall,  C. W. McCurdy,  J. B. Neaton,  
 C. Ochsenfeld,  J. A. Parkhill,  R. Peverati,  V. A. Rassolov,  Yihan Shao,  
 L. V. Slipchenko,  T. Stauch,  R. P. Steele,  J. E. Subotnik,  
 A. J. W. Thom,  A. Tkatchenko,  D. G. Truhlar,  T. Van Voorhis,  
 T. A. Wesolowski,  K. B. Whaley,  H. L. Woodcock III,  P. M. Zimmerman,  
 S. Faraji,  P. M. W. Gill,  M. Head-Gordon,  J. M. Herbert,  A. I. Krylov

 Additional authors for Version 5.4.1: 
 S. Kotaru,  Shaozhi Li,  Xiangyuan Li,  F. Matz,  A. Molle,  Haisheng Ren,  
 Yingli Su,  Hung-Yi Tsai,  C. Utku,  Fang Wang

 Contributors to earlier versions of Q-Chem not listed above: 
 R. D. Adamson,  B. Austin,  R. Baer,  J. Baker,  G. J. O. Beran,  
 K. Brandhorst,  S. T. Brown,  E. F. C. Byrd,  A. K. Chakraborty,  
 G. K. L. Chan,  Chun-Min Chang,  Yunqing Chen,  C.-L. Cheng,  
 Siu Hung Chien,  D. M. Chipman,  D. L. Crittenden,  H. Dachsel,  
 R. J. Doerksen,  A. D. Dutoi,  R. G. Edgar,  J. Fosso-Tande,  
 L. Fusti-Molnar,  D. Ghosh,  A. Ghysels,  A. Golubeva-Zadorozhnaya,  
 J. Gonthier,  M. S. Gordon,  S. R. Gwaltney,  G. Hawkins,  J. E. Herr,  
 A. Heyden,  S. Hirata,  E. G. Hohenstein,  G. Kedziora,  F. J. Keil,  
 C. Kelley,  Jihan Kim,  R. A. King,  R. Z. Khaliullin,  P. P. Korambath,  
 W. Kurlancheek,  A. Laurent,  A. M. Lee,  M. S. Lee,  S. V. Levchenko,  
 Ching Yeh Lin,  D. Liotard,  E. Livshits,  R. C. Lochan,  I. Lotan,  
 L. A. Martinez-Martinez,  P. E. Maslen,  N. Nair,  D. P. O'Neill,  
 D. Neuhauser,  E. Neuscamman,  C. M. Oana,  R. Olivares-Amaya,  R. Olson,  
 T. M. Perrine,  B. Peters,  P. A. Pieniazek,  A. Prociuk,  Y. M. Rhee,  
 J. Ritchie,  M. A. Rohrdanz,  E. Rosta,  N. J. Russ,  H. F. Schaefer III,  
 M. W. Schmidt,  N. E. Schultz,  S. Sharma,  N. Shenvi,  C. D. Sherrill,  
 A. C. Simmonett,  A. Sodt,  T. Stein,  D. Stuck,  K. S. Thanthiriwatte,  
 V. Vanovschi,  L. Vogt,  Tao Wang,  A. Warshel,  M. A. Watson,  
 C. F. Williams,  Q. Wu,  X. Xu,  Jun Yang,  W. Zhang,  Yan Zhao

 Please cite Q-Chem as follows:
 Y. Shao et al., Mol. Phys. 113, 184-215 (2015)
 DOI: 10.1080/00268976.2014.952696

 Q-Chem 5.4.1 for Intel X86 EM64T Linux

 Parts of Q-Chem use Armadillo 9.800.1 (Horizon Scraper).
 http://arma.sourceforge.net/

 Q-Chem begins on Thu Aug  1 20:37:39 2024  

 Host: 
0

     Scratch files written to /scratch/ari.fischer/qChem2258244.hpc-mn1/qchem422485//
 Aug1521 |scratch|qcdevops|jenkins|workspace|build_RNUM 8249   
 Processing $rem in /usr/local/qchem-5.4.1/config/preferences:
 Processing $rem in /home/ari.fischer/.qchemrc:
 Symmetry turned off for PCM/SM12/SMD calculation


!!********************************************.
!!******************Warning*******************.
!!Desired Analytical derivatives not available.
!!Finite difference job might take a long time.
!!********************************************.
!!********************************************.


 2-order derivative to be evaluated numerically with 1-order analytical derivatives

 Checking the input file for inconsistencies... 	...done.

--------------------------------------------------------------
User input:
--------------------------------------------------------------
$molecule
-1 2
C    2.6554710   -1.2252720   -0.9307265
O    1.6902300   -0.3411088   -1.4612735
C    3.3074360   -0.5157342    0.2768329
O    2.5896465   -0.6611082    1.3832556
C    3.7653398    0.9009146   -0.0597398
C    4.8070741    1.4872403    0.8815013
O    4.5485582    1.2702422    2.2717131
O    3.1759383    1.5463249    2.5764538
C    5.0772018    2.9634943    0.5994921
O    3.8700340    3.6911022    0.6548035
O    6.0176764    3.4716311    1.5185914
H    3.3892281   -1.4794659   -1.6934958
H    0.9659907   -0.0686007   -0.4663851
H    2.8696436    1.5181417   -0.0681047
H    4.1848562    0.9321712   -1.0656960
H    5.7621733    0.9775553    0.7485191
H    2.7702827    0.6906078    2.2384089
H    5.5333999    3.0642184   -0.3859716
H    4.0468774    4.5786734    0.3229832
H    5.7441989    3.1787621    2.3990721
O    2.0672266   -2.4198437   -0.4845123
H    1.7896708   -2.2307820    0.4299496
O    4.5880770   -1.3598775    0.5363341
O    5.4618700   -1.3134082   -0.4250773
$end

$rem
BASIS = 6-311++G(2df,2p)
GUI = 2
JOB_TYPE = Frequency
METHOD = wB97M-V
SOLVENT_METHOD = SMD
SCF_ALGORITHM = DIIS_GDM
MAX_SCF_CYCLES = 400
SCF_CONVERGENCE = 7
THRESH = 12
$end
--------------------------------------------------------------
 ----------------------------------------------------------------
             Standard Nuclear Orientation (Angstroms)
    I     Atom           X                Y                Z
 ----------------------------------------------------------------
    1      C       2.6554710000    -1.2252720000    -0.9307265000
    2      O       1.6902300000    -0.3411088000    -1.4612735000
    3      C       3.3074360000    -0.5157342000     0.2768329000
    4      O       2.5896465000    -0.6611082000     1.3832556000
    5      C       3.7653398000     0.9009146000    -0.0597398000
    6      C       4.8070741000     1.4872403000     0.8815013000
    7      O       4.5485582000     1.2702422000     2.2717131000
    8      O       3.1759383000     1.5463249000     2.5764538000
    9      C       5.0772018000     2.9634943000     0.5994921000
   10      O       3.8700340000     3.6911022000     0.6548035000
   11      O       6.0176764000     3.4716311000     1.5185914000
   12      H       3.3892281000    -1.4794659000    -1.6934958000
   13      H       0.9659907000    -0.0686007000    -0.4663851000
   14      H       2.8696436000     1.5181417000    -0.0681047000
   15      H       4.1848562000     0.9321712000    -1.0656960000
   16      H       5.7621733000     0.9775553000     0.7485191000
   17      H       2.7702827000     0.6906078000     2.2384089000
   18      H       5.5333999000     3.0642184000    -0.3859716000
   19      H       4.0468774000     4.5786734000     0.3229832000
   20      H       5.7441989000     3.1787621000     2.3990721000
   21      O       2.0672266000    -2.4198437000    -0.4845123000
   22      H       1.7896708000    -2.2307820000     0.4299496000
   23      O       4.5880770000    -1.3598775000     0.5363341000
   24      O       5.4618700000    -1.3134082000    -0.4250773000
 ----------------------------------------------------------------
 Nuclear Repulsion Energy =        1069.15360455 hartrees
 There are       57 alpha and       56 beta electrons
 Requested basis set is 6-311++G(2df,2p)
 There are 172 shells and 576 basis functions

 Total QAlloc Memory Limit 288000 MB
 Mega-Array Size       188 MB
 MEM_STATIC part       192 MB
 
 Citation of the SMD model:
 Marenich, A.V.; Cramer, C.J.; Truhlar, D.G.
 J. Phys. Chem. B 2009, 113, 6378-6396.
 iSolventCode=           1
 Solvent: water                                                           
 
 vradii
            1           2           3           4           5           6
    1   1.8500000   1.5200000   1.8500000   1.5200000   1.8500000   1.8500000
            7           8           9          10          11          12
    1   1.5200000   1.5200000   1.8500000   1.5200000   1.5200000   1.2000000
           13          14          15          16          17          18
    1   1.2000000   1.2000000   1.2000000   1.2000000   1.2000000   1.2000000
           19          20          21          22          23          24
    1   1.2000000   1.2000000   1.5200000   1.2000000   1.5200000   1.5200000
 Changing PCM_VDW_RADII to SMD_RADIUS
 Discretize the solute cavity surface with Lebedev spheres
	Using 110 Lebedev grid points for each H atom
	Using 194 Lebedev grid points for other atoms
	Atomic van der Waals radii will be scaled by 1.20
 Remove points where switching function is < 1.0e-08
 Keep 1832 surface tesserae and discard 1984 interior tesserae
 Molecular Surface Area = 201.724 Angst**2
 A cutoff of  1.0D-12 yielded  12308 shell pairs
 There are    135167 function pairs (    167820 Cartesian)
 Smallest overlap matrix eigenvalue = 2.10E-06
 Guess from superposition of atomic densities
 Warning:  Energy on first SCF cycle will be non-variational
 SAD guess density has 112.000000 electrons

 -----------------------------------------------------------------------
  General SCF calculation program by
  Eric Jon Sundstrom, Paul Horn, Yuezhi Mao, Dmitri Zuev, Alec White,
  David Stuck, Shaama M.S., Shane Yost, Joonho Lee, David Small,
  Daniel Levine, Susi Lehtola, Hugh Burton, Evgeny Epifanovsky,
  Bang C. Huynh
 -----------------------------------------------------------------------
 Exchange:     0.1500 Hartree-Fock + 1.0000 wB97M-V + LR-HF
 Correlation:  1.0000 wB97M-V
 Using SG-2 standard quadrature grid
 Nonlocal Correlation:  VV10 with C = 0.0100 and b = 6.00 and scale = 1.00000
 Grid used for NLC:  SG-1 standard quadrature
 using 16 threads for integral computing
 -------------------------------------------------------
 OpenMP Integral computing Module                
 Release: version 1.0, May 2013, Q-Chem Inc. Pittsburgh 
 -------------------------------------------------------
 
 Citation of the SMD model:
 Marenich, A.V.; Cramer, C.J.; Truhlar, D.G.
 J. Phys. Chem. B 2009, 113, 6378-6396.
 iSolventCode=           1
 Solvent: water                                                           
 
 vradii
            1           2           3           4           5           6
    1   1.8500000   1.5200000   1.8500000   1.5200000   1.8500000   1.8500000
            7           8           9          10          11          12
    1   1.5200000   1.5200000   1.8500000   1.5200000   1.5200000   1.2000000
           13          14          15          16          17          18
    1   1.2000000   1.2000000   1.2000000   1.2000000   1.2000000   1.2000000
           19          20          21          22          23          24
    1   1.2000000   1.2000000   1.5200000   1.2000000   1.5200000   1.5200000
 -------------------------------------------------------
 OpenMP BLAS3 based DFT computing Module                
 Release: version 1.0, May 2013, Q-Chem Inc. Pittsburgh 
 -------------------------------------------------------
 A unrestricted SCF calculation will be
 performed using DIIS, GDM
 SCF converges when RMS gradient is below 1.0e-07
 ---------------------------------------
  Cycle       Energy         DIIS error
 ---------------------------------------
    1    -875.8404490362      1.00e-02  
    2    -873.2487957295      1.49e-03  Done DIIS. Switching to GDM
 ---------------------------------------
  Cycle       Energy        RMS Gradient
 ---------------------------------------
    1    -873.2487957295      9.27e-02   Descent step
    2    -873.4772299870      4.38e-02   Descent step
    3    -873.5234616509      2.66e-02   Normal BFGS step
    4    -873.5388034908      1.96e-02   Normal BFGS step
    5    -873.5402151373      1.06e-02   Normal BFGS step
    6    -873.5405193950      3.88e-03   Normal BFGS step
    7    -873.5406544164      2.88e-03   Normal BFGS step
    8    -873.5406987940      1.81e-03   Normal BFGS step
    9    -873.5407195110      1.38e-03   Normal BFGS step
   10    -873.5407327455      1.02e-03   Normal BFGS step
   11    -873.5407424539      8.92e-04   Normal BFGS step
   12    -873.5407480009      6.89e-04   Normal BFGS step
   13    -873.5407509204      3.03e-04   Normal BFGS step
   14    -873.5407516586      9.10e-05   Normal BFGS step
   15    -873.5407518636      4.59e-05   Normal BFGS step
   16    -873.5407518976      1.65e-05   Normal BFGS step
   17    -873.5407519031      8.52e-06   Normal BFGS step
   18    -873.5407519043      2.30e-06   Normal BFGS step
   19    -873.5407519044      1.43e-06   Normal BFGS step
   20    -873.5407519044      8.67e-07   Normal BFGS step
   21    -873.5407519044      3.43e-07   Normal BFGS step
   22    -873.5407519046      1.28e-07   Normal BFGS step
   23    -873.5407519046      4.24e-08  Convergence criterion met
 ---------------------------------------
 SCF time:   CPU 6269.32s  wall 438.00s 
<S^2> =          0.754273302
(3)  G-ENP(liq) elect-nuc-pol free energy of system     -873.540751905 a.u.
(4)  G-CDS(liq) cavity-dispersion-solvent structure 
     free energy                                                3.3456 kcal/mol
(6)  G-S(liq) free energy of system                     -873.535420342 a.u.
 SCF   energy in the final basis set =     -873.5354203420
 Total energy in the final basis set =     -873.5354203420
 
 --------------------------------------------------------------
 
                    Orbital Energies (a.u.)
 --------------------------------------------------------------
 
 Alpha MOs
 -- Occupied --
-19.4363 -19.3993 -19.3924 -19.3659 -19.3524 -19.3412 -19.3410 -19.3353
-19.2776 -10.4406 -10.4386 -10.4332 -10.3972 -10.3365  -1.3206  -1.2523
 -1.1964  -1.1888  -1.1309  -1.1103  -1.1044  -1.0298  -0.9608  -0.8977
 -0.8305  -0.7862  -0.7259  -0.6879  -0.6811  -0.6509  -0.6397  -0.6161
 -0.6107  -0.5969  -0.5939  -0.5811  -0.5710  -0.5523  -0.5510  -0.5450
 -0.5332  -0.5069  -0.4835  -0.4798  -0.4560  -0.4534  -0.4477  -0.4321
 -0.4237  -0.4095  -0.4071  -0.4056  -0.3963  -0.3809  -0.3688  -0.3526
 -0.3417
 -- Virtual --
  0.0260   0.0346   0.0430   0.0462   0.0592   0.0604   0.0683   0.0720
  0.0833   0.0965   0.0991   0.1090   0.1150   0.1220   0.1236   0.1381
  0.1429   0.1479   0.1533   0.1565   0.1607   0.1673   0.1701   0.1750
  0.1813   0.1845   0.1883   0.1930   0.2032   0.2044   0.2125   0.2255
  0.2303   0.2420   0.2457   0.2560   0.2626   0.2654   0.2690   0.2779
  0.2846   0.2862   0.2911   0.2924   0.2984   0.3024   0.3099   0.3160
  0.3172   0.3267   0.3308   0.3387   0.3402   0.3432   0.3458   0.3536
  0.3605   0.3667   0.3672   0.3734   0.3766   0.3798   0.3820   0.3842
  0.3896   0.3955   0.4018   0.4070   0.4100   0.4167   0.4175   0.4239
  0.4301   0.4345   0.4390   0.4485   0.4509   0.4580   0.4641   0.4718
  0.4791   0.4873   0.4978   0.5056   0.5194   0.5251   0.5378   0.5464
  0.5624   0.5662   0.5890   0.6114   0.6144   0.6197   0.6335   0.6443
  0.6576   0.6641   0.6722   0.6794   0.6958   0.7018   0.7125   0.7174
  0.7274   0.7339   0.7495   0.7626   0.7655   0.7802   0.7899   0.7943
  0.8061   0.8144   0.8184   0.8311   0.8408   0.8547   0.8862   0.8978
  0.9238   0.9377   0.9413   0.9598   0.9731   0.9928   1.0042   1.0218
  1.0497   1.0554   1.0679   1.0839   1.0857   1.1001   1.1106   1.1226
  1.1362   1.1432   1.1541   1.1598   1.1642   1.1699   1.1738   1.1814
  1.1932   1.1963   1.1996   1.2148   1.2205   1.2293   1.2330   1.2411
  1.2485   1.2554   1.2605   1.2692   1.2754   1.2924   1.2971   1.3051
  1.3106   1.3156   1.3210   1.3367   1.3467   1.3547   1.3648   1.3658
  1.3732   1.3853   1.3902   1.3989   1.4140   1.4219   1.4305   1.4485
  1.4565   1.4735   1.4778   1.4809   1.5032   1.5090   1.5166   1.5326
  1.5365   1.5442   1.5585   1.5691   1.5828   1.6007   1.6175   1.6253
  1.6411   1.6499   1.6665   1.6788   1.6901   1.6919   1.6982   1.7176
  1.7250   1.7323   1.7509   1.7635   1.7742   1.7869   1.8024   1.8243
  1.8285   1.8608   1.8751   1.8904   1.8969   1.9193   1.9260   1.9454
  1.9712   1.9942   1.9983   2.0367   2.0430   2.0565   2.0652   2.0922
  2.0932   2.1518   2.1820   2.1975   2.1980   2.2304   2.2521   2.2716
  2.2755   2.2833   2.3195   2.3204   2.3453   2.3737   2.3860   2.3919
  2.4072   2.4251   2.4384   2.4509   2.4607   2.4888   2.5026   2.5102
  2.5550   2.5667   2.6174   2.6360   2.6446   2.6682   2.7305   2.7515
  2.7663   2.7774   2.8143   2.8172   2.8493   2.8727   2.8978   2.9086
  2.9360   2.9456   2.9741   3.0164   3.0469   3.0822   3.1092   3.1283
  3.1459   3.1588   3.2097   3.2298   3.2422   3.2678   3.2895   3.3054
  3.3260   3.3330   3.3611   3.4009   3.4153   3.4281   3.4454   3.4683
  3.4846   3.4861   3.5080   3.5211   3.5508   3.5577   3.5843   3.6092
  3.6266   3.6566   3.6613   3.6642   3.6975   3.6980   3.7161   3.7206
  3.7474   3.7656   3.7758   3.7873   3.8028   3.8231   3.8406   3.8599
  3.8636   3.8703   3.8843   3.8900   3.8974   3.9025   3.9114   3.9159
  3.9395   3.9455   3.9636   3.9750   3.9972   4.0108   4.0362   4.0588
  4.0674   4.1272   4.1324   4.1457   4.1621   4.1851   4.1887   4.2064
  4.2166   4.2402   4.2671   4.2794   4.2927   4.3055   4.3183   4.3510
  4.3577   4.3766   4.3914   4.4127   4.4177   4.4500   4.4538   4.4863
  4.4905   4.5120   4.5733   4.5837   4.6159   4.6278   4.6409   4.6675
  4.7029   4.7209   4.7438   4.7649   4.7857   4.8229   4.8555   4.9168
  4.9328   4.9609   5.0081   5.0132   5.0842   5.1042   5.1249   5.1326
  5.1646   5.1839   5.2114   5.2189   5.2210   5.2366   5.2436   5.2493
  5.2629   5.2707   5.2796   5.2986   5.3005   5.3070   5.3161   5.3211
  5.3354   5.3504   5.3540   5.3617   5.3664   5.3717   5.3756   5.3909
  5.4074   5.4206   5.4260   5.4425   5.4483   5.4611   5.4790   5.4902
  5.4986   5.5044   5.5373   5.5415   5.5456   5.5560   5.5664   5.5707
  5.5840   5.6230   5.6273   5.6384   5.6628   5.6767   5.6903   5.7055
  5.7079   5.7274   5.7366   5.7841   5.8018   5.8081   5.8230   5.8310
  5.8618   5.8865   5.9498   6.0169   6.0224   6.0368   6.0783   6.0896
  6.1021   6.1394   6.1843   6.2721   6.2772   6.3574   6.5028   6.5581
  6.5850   6.6265   6.6957   6.7405   6.7574   6.8637   6.9049   6.9280
  6.9762   6.9860   7.0245   7.0338   7.0710   7.0873   7.1048   7.1274
  7.1383   7.1519   7.1844   7.1973   7.2161   7.2558   7.2750   7.2824
  7.2872   7.3232   7.3326   7.3424   7.3634   7.3795   7.4006   7.4193
  7.4464   7.4510   7.4750   7.4812   7.5047   7.5355   7.5506   7.5864
  7.6043   7.6183   7.6573   7.6663   7.6929   7.7390   7.8051   7.8251
  7.8520   7.8780   7.9040   7.9132   7.9421   7.9990   8.0974   8.1567
  8.2261  24.6349  24.7826  24.8128  24.8312  24.8925  50.4600  50.5373
 50.5925  50.6038  50.6248  50.6342  50.6503  50.6780  50.7924
 
 Beta MOs
 -- Occupied --
-19.4248 -19.3923 -19.3816 -19.3659 -19.3524 -19.3412 -19.3410 -19.3353
-19.2777 -10.4406 -10.4389 -10.4330 -10.3972 -10.3364  -1.2937  -1.2522
 -1.1964  -1.1883  -1.1309  -1.1087  -1.1043  -1.0295  -0.9284  -0.8949
 -0.8275  -0.7848  -0.7256  -0.6834  -0.6800  -0.6428  -0.6377  -0.6096
 -0.5967  -0.5882  -0.5872  -0.5731  -0.5698  -0.5501  -0.5435  -0.5331
 -0.5129  -0.4959  -0.4816  -0.4739  -0.4548  -0.4523  -0.4471  -0.4320
 -0.4206  -0.4066  -0.4050  -0.3999  -0.3938  -0.3712  -0.3455  -0.3399
 -- Virtual --
 -0.0164   0.0261   0.0346   0.0432   0.0463   0.0597   0.0608   0.0683
  0.0723   0.0833   0.0970   0.0996   0.1095   0.1154   0.1223   0.1241
  0.1385   0.1430   0.1483   0.1535   0.1567   0.1622   0.1677   0.1709
  0.1755   0.1820   0.1855   0.1891   0.1947   0.2036   0.2051   0.2128
  0.2267   0.2310   0.2445   0.2462   0.2570   0.2643   0.2666   0.2702
  0.2782   0.2865   0.2886   0.2922   0.2942   0.2989   0.3070   0.3107
  0.3165   0.3185   0.3278   0.3311   0.3393   0.3407   0.3452   0.3468
  0.3546   0.3616   0.3676   0.3679   0.3738   0.3772   0.3806   0.3822
  0.3852   0.3906   0.3959   0.4033   0.4072   0.4107   0.4176   0.4178
  0.4251   0.4303   0.4349   0.4395   0.4494   0.4521   0.4584   0.4644
  0.4726   0.4798   0.4877   0.4987   0.5061   0.5197   0.5254   0.5386
  0.5467   0.5627   0.5664   0.5895   0.6122   0.6145   0.6203   0.6338
  0.6448   0.6584   0.6644   0.6723   0.6795   0.6961   0.7019   0.7128
  0.7176   0.7277   0.7340   0.7497   0.7631   0.7662   0.7802   0.7905
  0.7952   0.8066   0.8146   0.8187   0.8316   0.8411   0.8554   0.8874
  0.8983   0.9241   0.9381   0.9417   0.9622   0.9732   0.9939   1.0059
  1.0223   1.0505   1.0565   1.0692   1.0846   1.0868   1.1009   1.1111
  1.1238   1.1371   1.1455   1.1556   1.1601   1.1658   1.1717   1.1746
  1.1852   1.1957   1.1980   1.2034   1.2167   1.2252   1.2297   1.2361
  1.2419   1.2530   1.2599   1.2619   1.2730   1.2767   1.2947   1.2982
  1.3094   1.3135   1.3213   1.3236   1.3377   1.3490   1.3562   1.3658
  1.3675   1.3751   1.3884   1.3934   1.4026   1.4146   1.4234   1.4308
  1.4495   1.4580   1.4749   1.4787   1.4893   1.5058   1.5122   1.5180
  1.5347   1.5391   1.5469   1.5592   1.5701   1.5840   1.6018   1.6196
  1.6272   1.6434   1.6513   1.6708   1.6799   1.6941   1.6978   1.7010
  1.7202   1.7280   1.7422   1.7548   1.7679   1.7771   1.7958   1.8053
  1.8297   1.8337   1.8616   1.8771   1.8928   1.8997   1.9212   1.9285
  1.9490   1.9717   1.9948   2.0006   2.0399   2.0448   2.0596   2.0666
  2.0928   2.0942   2.1562   2.1838   2.1991   2.1994   2.2341   2.2550
  2.2815   2.2832   2.2863   2.3200   2.3256   2.3508   2.3746   2.3869
  2.3926   2.4079   2.4263   2.4407   2.4515   2.4616   2.4926   2.5030
  2.5108   2.5558   2.5672   2.6184   2.6377   2.6459   2.6688   2.7358
  2.7522   2.7684   2.7780   2.8149   2.8179   2.8497   2.8734   2.8981
  2.9095   2.9370   2.9457   2.9747   3.0168   3.0470   3.0824   3.1095
  3.1287   3.1465   3.1590   3.2104   3.2302   3.2424   3.2683   3.2909
  3.3060   3.3264   3.3332   3.3619   3.4012   3.4154   3.4286   3.4454
  3.4685   3.4851   3.4863   3.5084   3.5212   3.5510   3.5583   3.5845
  3.6091   3.6271   3.6567   3.6615   3.6644   3.6979   3.6984   3.7164
  3.7212   3.7476   3.7658   3.7760   3.7875   3.8031   3.8243   3.8408
  3.8600   3.8636   3.8706   3.8846   3.8905   3.8975   3.9028   3.9117
  3.9161   3.9398   3.9456   3.9640   3.9752   3.9974   4.0113   4.0363
  4.0590   4.0677   4.1275   4.1328   4.1462   4.1625   4.1852   4.1890
  4.2066   4.2168   4.2404   4.2674   4.2800   4.2928   4.3058   4.3190
  4.3514   4.3579   4.3767   4.3916   4.4135   4.4178   4.4501   4.4545
  4.4866   4.4913   4.5132   4.5740   4.5850   4.6202   4.6284   4.6608
  4.6754   4.7050   4.7229   4.7445   4.7752   4.7973   4.8238   4.8731
  4.9250   4.9348   4.9646   5.0127   5.0263   5.0846   5.1245   5.1612
  5.1735   5.1850   5.2074   5.2217   5.2279   5.2301   5.2456   5.2509
  5.2647   5.2694   5.2741   5.2993   5.3029   5.3091   5.3162   5.3275
  5.3321   5.3425   5.3517   5.3570   5.3647   5.3692   5.3742   5.3893
  5.3966   5.4127   5.4298   5.4342   5.4458   5.4543   5.4637   5.4810
  5.4936   5.5023   5.5058   5.5400   5.5428   5.5544   5.5595   5.5697
  5.5737   5.5870   5.6239   5.6276   5.6389   5.6635   5.6769   5.6921
  5.7074   5.7089   5.7289   5.7480   5.7896   5.8089   5.8161   5.8253
  5.8312   5.8630   5.8897   5.9503   6.0170   6.0245   6.0388   6.0786
  6.0899   6.1046   6.1394   6.1852   6.2723   6.2778   6.3663   6.5458
  6.5584   6.5892   6.6376   6.6962   6.7406   6.7583   6.8646   6.9715
  6.9849   7.0024   7.0120   7.0316   7.0569   7.0726   7.0959   7.1106
  7.1318   7.1484   7.1692   7.1907   7.2128   7.2238   7.2666   7.2756
  7.2866   7.2875   7.3241   7.3384   7.3543   7.3734   7.3818   7.4154
  7.4256   7.4468   7.4573   7.4848   7.5004   7.5184   7.5424   7.5512
  7.5892   7.6073   7.6222   7.6575   7.6667   7.6929   7.7407   7.8059
  7.8260   7.8553   7.8804   7.9043   7.9135   7.9468   7.9993   8.1125
  8.1732   8.2274  24.6349  24.7826  24.8129  24.8313  24.8924  50.4717
 50.5376  50.5950  50.6053  50.6264  50.6363  50.6504  50.6808  50.7923
 --------------------------------------------------------------
 
          Ground-State Mulliken Net Atomic Charges

     Atom                 Charge (a.u.)    Spin (a.u.)
  --------------------------------------------------------
      1 C                    -0.170055       0.004816
      2 O                    -0.480159       0.000878
      3 C                     0.435241       0.013988
      4 O                    -0.802724      -0.003470
      5 C                    -1.164723      -0.009283
      6 C                     0.465700       0.011912
      7 O                    -0.161710       0.002227
      8 O                    -0.402211      -0.000066
      9 C                    -0.358574      -0.003727
     10 O                    -0.449714      -0.000029
     11 O                    -0.448338      -0.000082
     12 H                     0.294008      -0.000816
     13 H                     0.374516       0.000249
     14 H                     0.302945      -0.000629
     15 H                     0.303969       0.000815
     16 H                     0.293213      -0.002475
     17 H                     0.392642      -0.000058
     18 H                     0.261923      -0.000049
     19 H                     0.346481      -0.000057
     20 H                     0.342589      -0.000005
     21 O                    -0.454399       0.002263
     22 H                     0.344215      -0.000526
     23 O                     0.005047       0.353807
     24 O                    -0.269885       0.630317
  --------------------------------------------------------
  Sum of atomic charges =    -1.000000
  Sum of spin   charges =     1.000000

 -----------------------------------------------------------------
                    Cartesian Multipole Moments
 -----------------------------------------------------------------
    Charge (ESU x 10^10)
                -4.8032
    Dipole Moment (Debye)
         X     -17.0807      Y       3.8212      Z      -5.7347
       Tot      18.4184
    Quadrupole Moments (Debye-Ang)
        XX    -156.4861     XY      11.3642     YY    -100.1917
        XZ     -27.2245     YZ     -12.6555     ZZ    -106.3892
    Octopole Moments (Debye-Ang^2)
       XXX   -1338.5674    XXY     -17.2724    XYY    -381.3997
       YYY     -92.6878    XXZ    -157.6161    XYZ     -45.4252
       YYZ     -72.4259    XZZ    -380.3420    YZZ     -59.6869
       ZZZ    -160.7347
    Hexadecapole Moments (Debye-Ang^3)
      XXXX  -10507.8128   XXXY    -885.7770   XXYY   -2080.5480
      XYYY    -761.2090   YYYY   -1945.5726   XXXZ   -1132.6757
      XXYZ    -330.5143   XYYZ    -367.4116   YYYZ    -484.0133
      XXZZ   -1698.7449   XYZZ    -321.3730   YYZZ    -530.7396
      XZZZ    -739.4947   YZZZ    -359.6959   ZZZZ    -985.8429
 -----------------------------------------------------------------
 Calculating analytic gradient of the SCF energy
 Gradient of CDS energy
            1           2           3           4           5           6
    1  -0.0022603   0.0008280  -0.0013551   0.0015028  -0.0000497  -0.0000371
    2  -0.0024278  -0.0006365  -0.0002830   0.0001944   0.0000308   0.0000319
    3  -0.0000104   0.0006117   0.0021583  -0.0020611  -0.0000152   0.0000266
            7           8           9          10          11          12
    1  -0.0000981   0.0002247   0.0004376   0.0011586  -0.0013822   0.0002636
    2  -0.0000365   0.0001463   0.0014820  -0.0008800  -0.0007642   0.0000170
    3  -0.0000838  -0.0000696   0.0010375   0.0001425  -0.0013255   0.0000797
           13          14          15          16          17          18
    1  -0.0004224  -0.0000381   0.0001150   0.0000976  -0.0002685   0.0000597
    2   0.0001640   0.0000656  -0.0000653  -0.0001568  -0.0000464  -0.0000630
    3  -0.0000647   0.0000537  -0.0001143   0.0000607   0.0002233  -0.0001425
           19          20          21          22          23          24
    1  -0.0002644   0.0001790   0.0014708  -0.0002074   0.0000384   0.0000075
    2   0.0004337   0.0001350   0.0029757  -0.0003464   0.0000395  -0.0000102
    3  -0.0001052   0.0004455  -0.0010534   0.0002211  -0.0000378   0.0000230
 Gradient of SCF Energy
            1           2           3           4           5           6
    1   0.0212890   0.0450000   0.0148372   0.0119298  -0.0265827   0.0464398
    2  -0.0019652  -0.0142507  -0.0434226  -0.0040213   0.0595233  -0.0149374
    3  -0.0390226  -0.0726661   0.0190748   0.0155087  -0.0403525   0.0200926
            7           8           9          10          11          12
    1   0.0037745  -0.0230680   0.0116786  -0.0132289   0.0036234  -0.0231651
    2  -0.0120861  -0.0159199  -0.0037206   0.0049168  -0.0015788   0.0077782
    3  -0.0013974  -0.0113793  -0.0337293   0.0037537   0.0215061   0.0246640
           13          14          15          16          17          18
    1  -0.0566845   0.0210151  -0.0085646  -0.0267442   0.0090998  -0.0098024
    2   0.0214856  -0.0177960   0.0024381   0.0157019   0.0230254  -0.0014038
    3   0.0709864  -0.0057812   0.0243041   0.0045278   0.0065581   0.0162301
           19          20          21          22          23          24
    1   0.0046151   0.0033986  -0.0070714   0.0036580   0.0018673  -0.0073141
    2  -0.0070537   0.0060233  -0.0049734  -0.0013183   0.0044220  -0.0008668
    3  -0.0001872  -0.0196473   0.0229821  -0.0275177  -0.0042938   0.0057861
 Max gradient component =       7.267E-02
 RMS gradient           =       2.341E-02
 Computing fast CPCM-SWIG gradient
 Updating gradient with PCM contributions...
 -- total gradient after adding PCM contribution --
---------------------------------------------------
  Atom         X              Y              Z     
---------------------------------------------------
   1       0.005721      -0.006978      -0.009813
   2       0.062144      -0.017051      -0.080266
   3      -0.003124       0.004708      -0.005917
   4       0.001805      -0.002635       0.004160
   5      -0.000306      -0.000208       0.000029
   6       0.000108       0.000178       0.000269
   7      -0.000138      -0.000203      -0.000099
   8      -0.000352      -0.000635      -0.000458
   9      -0.000007       0.000212      -0.000064
  10      -0.000019      -0.000162       0.000003
  11      -0.000072      -0.000146      -0.000034
  12       0.003695      -0.004539       0.003930
  13      -0.064755       0.023715       0.086859
  14      -0.000609      -0.000018      -0.000059
  15      -0.000055      -0.000135       0.000102
  16      -0.000046       0.000014      -0.000034
  17       0.000848       0.001657       0.001373
  18      -0.000012      -0.000025      -0.000007
  19       0.000004      -0.000002       0.000026
  20       0.000037       0.000021       0.000030
  21      -0.000423       0.001739       0.001379
  22      -0.000931      -0.000546      -0.000504
  23      -0.002881       0.000873      -0.001604
  24      -0.000630       0.000168       0.000700
---------------------------------------------------
 Number of fixed atoms: 0
 Gradient time:  CPU 732.17 s  wall 61.53 s
 ######################################################
 ######################################################
 # Starting finite difference calculation for IDERIV  #
 Finite diff step size:  1.88973e-03 a.u.
 ----------------------------------------------------------------
             Standard Nuclear Orientation (Angstroms)
    I     Atom           X                Y                Z
 ----------------------------------------------------------------
    1      C       2.6564710000    -1.2252720000    -0.9307265000
    2      O       1.6902300000    -0.3411088000    -1.4612735000
    3      C       3.3074360000    -0.5157342000     0.2768329000
    4      O       2.5896465000    -0.6611082000     1.3832556000
    5      C       3.7653398000     0.9009146000    -0.0597398000
    6      C       4.8070741000     1.4872403000     0.8815013000
    7      O       4.5485582000     1.2702422000     2.2717131000
    8      O       3.1759383000     1.5463249000     2.5764538000
    9      C       5.0772018000     2.9634943000     0.5994921000
   10      O       3.8700340000     3.6911022000     0.6548035000
   11      O       6.0176764000     3.4716311000     1.5185914000
   12      H       3.3892281000    -1.4794659000    -1.6934958000
   13      H       0.9659907000    -0.0686007000    -0.4663851000
   14      H       2.8696436000     1.5181417000    -0.0681047000
   15      H       4.1848562000     0.9321712000    -1.0656960000
   16      H       5.7621733000     0.9775553000     0.7485191000
   17      H       2.7702827000     0.6906078000     2.2384089000
   18      H       5.5333999000     3.0642184000    -0.3859716000
   19      H       4.0468774000     4.5786734000     0.3229832000
   20      H       5.7441989000     3.1787621000     2.3990721000
   21      O       2.0672266000    -2.4198437000    -0.4845123000
   22      H       1.7896708000    -2.2307820000     0.4299496000
   23      O       4.5880770000    -1.3598775000     0.5363341000
   24      O       5.4618700000    -1.3134082000    -0.4250773000
 ----------------------------------------------------------------
 Nuclear Repulsion Energy =        1069.15417092 hartrees
 There are       57 alpha and       56 beta electrons
 Discretize the solute cavity surface with Lebedev spheres
	Using 110 Lebedev grid points for each H atom
	Using 194 Lebedev grid points for other atoms
	Atomic van der Waals radii will be scaled by 1.20
 Remove points where switching function is < 1.0e-08
 Keep 1832 surface tesserae and discard 1984 interior tesserae
 Molecular Surface Area = 201.725 Angst**2
 Requested basis set is 6-311++G(2df,2p)
 There are 172 shells and 576 basis functions
 A cutoff of  1.0D-12 yielded  12308 shell pairs
 There are    135167 function pairs (    167820 Cartesian)
 Smallest overlap matrix eigenvalue = 2.09E-06
 Guess MOs from SCF MO coefficient file

 -----------------------------------------------------------------------
  General SCF calculation program by
  Eric Jon Sundstrom, Paul Horn, Yuezhi Mao, Dmitri Zuev, Alec White,
  David Stuck, Shaama M.S., Shane Yost, Joonho Lee, David Small,
  Daniel Levine, Susi Lehtola, Hugh Burton, Evgeny Epifanovsky,
  Bang C. Huynh
 -----------------------------------------------------------------------
 Exchange:     0.1500 Hartree-Fock + 1.0000 wB97M-V + LR-HF
 Correlation:  1.0000 wB97M-V
 Using SG-2 standard quadrature grid
 Nonlocal Correlation:  VV10 with C = 0.0100 and b = 6.00 and scale = 1.00000
 Grid used for NLC:  SG-1 standard quadrature
 
 Citation of the SMD model:
 Marenich, A.V.; Cramer, C.J.; Truhlar, D.G.
 J. Phys. Chem. B 2009, 113, 6378-6396.
 iSolventCode=           1
 Solvent: water                                                           
 
 vradii
            1           2           3           4           5           6
    1   1.8500000   1.5200000   1.8500000   1.5200000   1.8500000   1.8500000
            7           8           9          10          11          12
    1   1.5200000   1.5200000   1.8500000   1.5200000   1.5200000   1.2000000
           13          14          15          16          17          18
    1   1.2000000   1.2000000   1.2000000   1.2000000   1.2000000   1.2000000
           19          20          21          22          23          24
    1   1.2000000   1.2000000   1.5200000   1.2000000   1.5200000   1.5200000
 -------------------------------------------------------
 OpenMP BLAS3 based DFT computing Module                
 Release: version 1.0, May 2013, Q-Chem Inc. Pittsburgh 
 -------------------------------------------------------
 A unrestricted SCF calculation will be
 performed using Roothaan-Hall, DIIS, GDM
 SCF converges when RMS gradient is below 1.0e-07
 ---------------------------------------
  Cycle       Energy         DIIS error
 ---------------------------------------
    1    -873.4161137384      1.88e-04  Roothaan Step
 ---------------------------------------
  Cycle       Energy         DIIS error
 ---------------------------------------
    1    -873.5293607789      2.07e-04  
    2    -873.5369387222      1.81e-04  Done DIIS. Switching to GDM
 ---------------------------------------
  Cycle       Energy        RMS Gradient
 ---------------------------------------
    1    -873.5369387222      1.46e-02   Normal BFGS step
    2    -873.5362044939      2.25e-02  Line search: overstep
    3    -873.5404090694      3.19e-03   Normal BFGS step
    4    -873.5406554881      2.07e-03   Normal BFGS step
    5    -873.5407194953      1.42e-03   Normal BFGS step
    6    -873.5407334310      1.42e-04   Normal BFGS step
    7    -873.5407352379      1.25e-04   Normal BFGS step
    8    -873.5407357070      9.75e-05   Normal BFGS step
    9    -873.5407357846      7.13e-05   Normal BFGS step
   10    -873.5407358166      3.52e-05   Normal BFGS step
   11    -873.5407358264      7.49e-06   Normal BFGS step
   12    -873.5407358283      4.19e-06   Normal BFGS step
   13    -873.5407358288      3.14e-06   Normal BFGS step
   14    -873.5407358289      2.12e-06   Normal BFGS step
   15    -873.5407358289      1.67e-06   Normal BFGS step
   16    -873.5407358289      1.24e-06   Normal BFGS step
   17    -873.5407358289      8.41e-07   Normal BFGS step
   18    -873.5407358289      7.10e-07   Normal BFGS step
   19    -873.5407358290      3.17e-07   Normal BFGS step
   20    -873.5407358289      9.61e-08  Convergence criterion met
 ---------------------------------------
 SCF time:   CPU 5680.64s  wall 399.00s 
<S^2> =          0.754273190
(3)  G-ENP(liq) elect-nuc-pol free energy of system     -873.540735829 a.u.
(4)  G-CDS(liq) cavity-dispersion-solvent structure 
     free energy                                                3.3430 kcal/mol
(6)  G-S(liq) free energy of system                     -873.535408399 a.u.
 SCF   energy in the final basis set =     -873.5354083995
 Total energy in the final basis set =     -873.5354083995
 
 --------------------------------------------------------------
 
                    Orbital Energies (a.u.)
 --------------------------------------------------------------
 
 Alpha MOs
 -- Occupied --
-19.4363 -19.3993 -19.3924 -19.3659 -19.3523 -19.3412 -19.3410 -19.3353
-19.2776 -10.4406 -10.4386 -10.4332 -10.3972 -10.3365  -1.3206  -1.2523
 -1.1964  -1.1886  -1.1309  -1.1103  -1.1042  -1.0298  -0.9609  -0.8977
 -0.8306  -0.7863  -0.7259  -0.6879  -0.6811  -0.6509  -0.6397  -0.6161
 -0.6107  -0.5969  -0.5938  -0.5811  -0.5710  -0.5523  -0.5510  -0.5450
 -0.5332  -0.5069  -0.4835  -0.4798  -0.4560  -0.4535  -0.4477  -0.4321
 -0.4237  -0.4095  -0.4071  -0.4056  -0.3963  -0.3809  -0.3688  -0.3526
 -0.3418
 -- Virtual --
  0.0260   0.0346   0.0430   0.0462   0.0592   0.0603   0.0683   0.0720
  0.0833   0.0965   0.0991   0.1090   0.1150   0.1220   0.1236   0.1381
  0.1429   0.1479   0.1533   0.1565   0.1607   0.1673   0.1701   0.1750
  0.1813   0.1845   0.1883   0.1930   0.2032   0.2044   0.2125   0.2255
  0.2303   0.2420   0.2457   0.2560   0.2626   0.2654   0.2690   0.2778
  0.2846   0.2862   0.2911   0.2923   0.2984   0.3024   0.3099   0.3160
  0.3172   0.3266   0.3308   0.3386   0.3402   0.3432   0.3458   0.3536
  0.3605   0.3667   0.3672   0.3734   0.3766   0.3798   0.3820   0.3842
  0.3896   0.3955   0.4018   0.4070   0.4099   0.4168   0.4175   0.4239
  0.4301   0.4345   0.4390   0.4485   0.4509   0.4580   0.4641   0.4718
  0.4791   0.4873   0.4978   0.5056   0.5194   0.5250   0.5377   0.5464
  0.5624   0.5662   0.5891   0.6114   0.6144   0.6198   0.6335   0.6443
  0.6576   0.6641   0.6722   0.6794   0.6959   0.7018   0.7125   0.7174
  0.7274   0.7339   0.7495   0.7627   0.7655   0.7802   0.7899   0.7944
  0.8061   0.8144   0.8184   0.8311   0.8408   0.8547   0.8863   0.8978
  0.9238   0.9376   0.9413   0.9597   0.9731   0.9929   1.0042   1.0218
  1.0498   1.0554   1.0679   1.0839   1.0857   1.1001   1.1106   1.1226
  1.1362   1.1433   1.1542   1.1598   1.1641   1.1699   1.1738   1.1814
  1.1932   1.1963   1.1996   1.2148   1.2205   1.2293   1.2330   1.2411
  1.2484   1.2555   1.2605   1.2692   1.2754   1.2925   1.2971   1.3052
  1.3106   1.3156   1.3210   1.3367   1.3467   1.3547   1.3648   1.3659
  1.3732   1.3853   1.3902   1.3989   1.4139   1.4219   1.4305   1.4485
  1.4565   1.4735   1.4778   1.4809   1.5032   1.5090   1.5166   1.5326
  1.5364   1.5442   1.5584   1.5692   1.5829   1.6007   1.6175   1.6254
  1.6411   1.6500   1.6665   1.6789   1.6901   1.6920   1.6982   1.7176
  1.7251   1.7323   1.7509   1.7635   1.7742   1.7868   1.8024   1.8244
  1.8285   1.8608   1.8752   1.8904   1.8969   1.9194   1.9259   1.9454
  1.9712   1.9941   1.9983   2.0367   2.0429   2.0564   2.0652   2.0922
  2.0932   2.1518   2.1820   2.1974   2.1979   2.2305   2.2521   2.2716
  2.2754   2.2833   2.3194   2.3203   2.3453   2.3736   2.3860   2.3919
  2.4072   2.4250   2.4383   2.4509   2.4605   2.4888   2.5025   2.5101
  2.5550   2.5667   2.6174   2.6358   2.6445   2.6682   2.7304   2.7516
  2.7662   2.7774   2.8143   2.8170   2.8492   2.8727   2.8978   2.9086
  2.9360   2.9455   2.9741   3.0164   3.0469   3.0821   3.1092   3.1283
  3.1459   3.1587   3.2097   3.2297   3.2423   3.2678   3.2896   3.3055
  3.3260   3.3330   3.3610   3.4009   3.4153   3.4280   3.4453   3.4682
  3.4846   3.4860   3.5079   3.5209   3.5508   3.5577   3.5843   3.6092
  3.6268   3.6566   3.6612   3.6641   3.6975   3.6981   3.7161   3.7205
  3.7473   3.7656   3.7759   3.7875   3.8028   3.8232   3.8407   3.8599
  3.8635   3.8703   3.8843   3.8900   3.8975   3.9025   3.9114   3.9159
  3.9395   3.9454   3.9634   3.9751   3.9971   4.0109   4.0362   4.0590
  4.0675   4.1273   4.1325   4.1457   4.1622   4.1852   4.1887   4.2064
  4.2166   4.2402   4.2672   4.2794   4.2927   4.3056   4.3183   4.3510
  4.3578   4.3767   4.3915   4.4130   4.4177   4.4500   4.4539   4.4864
  4.4910   4.5121   4.5737   4.5843   4.6160   4.6278   4.6409   4.6675
  4.7030   4.7208   4.7439   4.7650   4.7858   4.8229   4.8555   4.9168
  4.9328   4.9609   5.0082   5.0133   5.0842   5.1042   5.1248   5.1326
  5.1647   5.1840   5.2114   5.2189   5.2210   5.2367   5.2436   5.2492
  5.2629   5.2706   5.2796   5.2986   5.3005   5.3071   5.3161   5.3211
  5.3354   5.3504   5.3540   5.3617   5.3664   5.3717   5.3756   5.3910
  5.4074   5.4206   5.4260   5.4426   5.4484   5.4611   5.4789   5.4902
  5.4985   5.5043   5.5373   5.5415   5.5458   5.5562   5.5664   5.5707
  5.5840   5.6231   5.6273   5.6383   5.6629   5.6767   5.6901   5.7056
  5.7079   5.7272   5.7365   5.7842   5.8019   5.8079   5.8228   5.8310
  5.8618   5.8864   5.9498   6.0168   6.0215   6.0365   6.0783   6.0895
  6.1019   6.1393   6.1821   6.2721   6.2774   6.3574   6.5028   6.5581
  6.5846   6.6265   6.6956   6.7404   6.7558   6.8637   6.9049   6.9280
  6.9763   6.9860   7.0245   7.0338   7.0710   7.0873   7.1047   7.1274
  7.1383   7.1518   7.1844   7.1973   7.2161   7.2557   7.2749   7.2823
  7.2871   7.3231   7.3326   7.3424   7.3633   7.3795   7.4006   7.4192
  7.4464   7.4510   7.4750   7.4811   7.5047   7.5355   7.5506   7.5863
  7.6043   7.6183   7.6573   7.6663   7.6929   7.7390   7.8050   7.8249
  7.8520   7.8780   7.9038   7.9131   7.9421   7.9990   8.0974   8.1567
  8.2261  24.6348  24.7825  24.8125  24.8312  24.8928  50.4600  50.5373
 50.5925  50.6036  50.6248  50.6341  50.6503  50.6780  50.7924
 
 Beta MOs
 -- Occupied --
-19.4248 -19.3923 -19.3816 -19.3659 -19.3523 -19.3412 -19.3410 -19.3353
-19.2777 -10.4406 -10.4390 -10.4330 -10.3972 -10.3364  -1.2937  -1.2522
 -1.1964  -1.1881  -1.1309  -1.1087  -1.1041  -1.0296  -0.9284  -0.8949
 -0.8276  -0.7849  -0.7256  -0.6835  -0.6800  -0.6427  -0.6377  -0.6096
 -0.5967  -0.5881  -0.5872  -0.5731  -0.5698  -0.5500  -0.5435  -0.5331
 -0.5129  -0.4959  -0.4817  -0.4739  -0.4549  -0.4523  -0.4471  -0.4320
 -0.4206  -0.4066  -0.4050  -0.3998  -0.3938  -0.3713  -0.3455  -0.3400
 -- Virtual --
 -0.0164   0.0261   0.0346   0.0432   0.0463   0.0597   0.0608   0.0683
  0.0723   0.0833   0.0970   0.0996   0.1095   0.1154   0.1223   0.1241
  0.1385   0.1430   0.1483   0.1535   0.1567   0.1622   0.1677   0.1709
  0.1755   0.1819   0.1855   0.1891   0.1947   0.2036   0.2051   0.2128
  0.2267   0.2310   0.2445   0.2462   0.2569   0.2643   0.2666   0.2702
  0.2782   0.2865   0.2886   0.2921   0.2942   0.2989   0.3070   0.3107
  0.3165   0.3185   0.3278   0.3312   0.3393   0.3406   0.3452   0.3468
  0.3546   0.3616   0.3676   0.3679   0.3738   0.3772   0.3806   0.3822
  0.3852   0.3906   0.3959   0.4033   0.4072   0.4106   0.4176   0.4178
  0.4251   0.4303   0.4349   0.4395   0.4494   0.4521   0.4584   0.4644
  0.4726   0.4798   0.4877   0.4987   0.5062   0.5197   0.5254   0.5386
  0.5467   0.5627   0.5664   0.5895   0.6122   0.6145   0.6203   0.6338
  0.6448   0.6584   0.6644   0.6723   0.6795   0.6962   0.7019   0.7128
  0.7176   0.7277   0.7339   0.7497   0.7631   0.7662   0.7802   0.7905
  0.7953   0.8066   0.8146   0.8188   0.8316   0.8411   0.8554   0.8874
  0.8983   0.9241   0.9380   0.9417   0.9622   0.9732   0.9940   1.0059
  1.0223   1.0505   1.0565   1.0692   1.0846   1.0868   1.1009   1.1111
  1.1238   1.1371   1.1455   1.1557   1.1601   1.1658   1.1717   1.1746
  1.1852   1.1958   1.1980   1.2035   1.2167   1.2252   1.2297   1.2362
  1.2419   1.2530   1.2599   1.2619   1.2730   1.2767   1.2947   1.2982
  1.3094   1.3135   1.3213   1.3236   1.3377   1.3490   1.3562   1.3658
  1.3675   1.3751   1.3884   1.3934   1.4026   1.4146   1.4234   1.4308
  1.4494   1.4580   1.4749   1.4787   1.4893   1.5058   1.5122   1.5180
  1.5347   1.5391   1.5469   1.5592   1.5702   1.5840   1.6018   1.6196
  1.6273   1.6435   1.6514   1.6708   1.6800   1.6941   1.6979   1.7010
  1.7202   1.7281   1.7422   1.7548   1.7679   1.7771   1.7958   1.8053
  1.8298   1.8338   1.8616   1.8772   1.8928   1.8996   1.9213   1.9284
  1.9490   1.9718   1.9947   2.0006   2.0398   2.0447   2.0596   2.0666
  2.0928   2.0942   2.1561   2.1838   2.1989   2.1994   2.2342   2.2550
  2.2815   2.2832   2.2863   2.3200   2.3256   2.3508   2.3745   2.3869
  2.3926   2.4078   2.4262   2.4407   2.4514   2.4614   2.4926   2.5030
  2.5106   2.5558   2.5672   2.6184   2.6376   2.6459   2.6688   2.7357
  2.7523   2.7683   2.7780   2.8149   2.8177   2.8497   2.8733   2.8981
  2.9095   2.9370   2.9457   2.9747   3.0168   3.0470   3.0824   3.1095
  3.1287   3.1465   3.1590   3.2104   3.2301   3.2425   3.2683   3.2909
  3.3060   3.3264   3.3331   3.3617   3.4012   3.4154   3.4285   3.4453
  3.4685   3.4851   3.4862   3.5082   3.5210   3.5510   3.5583   3.5845
  3.6091   3.6273   3.6567   3.6614   3.6644   3.6979   3.6984   3.7164
  3.7211   3.7476   3.7657   3.7760   3.7876   3.8032   3.8243   3.8409
  3.8600   3.8636   3.8705   3.8846   3.8905   3.8976   3.9027   3.9117
  3.9162   3.9398   3.9456   3.9639   3.9753   3.9973   4.0114   4.0363
  4.0591   4.0678   4.1275   4.1330   4.1462   4.1626   4.1853   4.1890
  4.2066   4.2167   4.2405   4.2674   4.2800   4.2928   4.3060   4.3190
  4.3514   4.3579   4.3768   4.3918   4.4138   4.4178   4.4502   4.4545
  4.4868   4.4919   4.5134   4.5744   4.5856   4.6203   4.6284   4.6609
  4.6755   4.7050   4.7229   4.7446   4.7752   4.7974   4.8239   4.8732
  4.9250   4.9348   4.9646   5.0127   5.0263   5.0846   5.1245   5.1613
  5.1735   5.1850   5.2075   5.2217   5.2279   5.2301   5.2456   5.2508
  5.2647   5.2694   5.2741   5.2993   5.3029   5.3091   5.3162   5.3275
  5.3321   5.3425   5.3517   5.3570   5.3647   5.3692   5.3742   5.3893
  5.3966   5.4127   5.4297   5.4343   5.4459   5.4543   5.4636   5.4810
  5.4936   5.5022   5.5057   5.5400   5.5428   5.5548   5.5595   5.5697
  5.5737   5.5870   5.6239   5.6276   5.6389   5.6636   5.6769   5.6920
  5.7074   5.7090   5.7287   5.7478   5.7897   5.8087   5.8162   5.8252
  5.8311   5.8629   5.8896   5.9503   6.0169   6.0236   6.0385   6.0786
  6.0899   6.1044   6.1394   6.1830   6.2723   6.2780   6.3664   6.5458
  6.5584   6.5888   6.6376   6.6961   6.7405   6.7568   6.8646   6.9715
  6.9849   7.0024   7.0120   7.0316   7.0570   7.0726   7.0959   7.1104
  7.1318   7.1484   7.1692   7.1907   7.2128   7.2238   7.2666   7.2755
  7.2866   7.2875   7.3241   7.3384   7.3542   7.3734   7.3818   7.4154
  7.4255   7.4468   7.4573   7.4848   7.5004   7.5183   7.5424   7.5512
  7.5891   7.6073   7.6222   7.6575   7.6666   7.6929   7.7407   7.8058
  7.8259   7.8553   7.8804   7.9042   7.9134   7.9468   7.9993   8.1126
  8.1732   8.2274  24.6348  24.7825  24.8126  24.8312  24.8927  50.4717
 50.5376  50.5950  50.6052  50.6264  50.6362  50.6504  50.6808  50.7923
 --------------------------------------------------------------
 
          Ground-State Mulliken Net Atomic Charges

     Atom                 Charge (a.u.)    Spin (a.u.)
  --------------------------------------------------------
      1 C                    -0.170466       0.004792
      2 O                    -0.480496       0.000871
      3 C                     0.435335       0.013995
      4 O                    -0.802659      -0.003472
      5 C                    -1.164612      -0.009269
      6 C                     0.465723       0.011906
      7 O                    -0.161709       0.002227
      8 O                    -0.402192      -0.000066
      9 C                    -0.358565      -0.003725
     10 O                    -0.449710      -0.000029
     11 O                    -0.448336      -0.000082
     12 H                     0.294471      -0.000810
     13 H                     0.374530       0.000247
     14 H                     0.302959      -0.000629
     15 H                     0.303976       0.000814
     16 H                     0.293222      -0.002473
     17 H                     0.392630      -0.000058
     18 H                     0.261925      -0.000049
     19 H                     0.346483      -0.000057
     20 H                     0.342592      -0.000005
     21 O                    -0.454566       0.002261
     22 H                     0.344233      -0.000527
     23 O                     0.005056       0.353812
     24 O                    -0.269824       0.630327
  --------------------------------------------------------
  Sum of atomic charges =    -1.000000
  Sum of spin   charges =     1.000000

 -----------------------------------------------------------------
                    Cartesian Multipole Moments
 -----------------------------------------------------------------
    Charge (ESU x 10^10)
                -4.8032
    Dipole Moment (Debye)
         X     -17.0759      Y       3.8213      Z      -5.7339
       Tot      18.4138
    Quadrupole Moments (Debye-Ang)
        XX    -156.4602     XY      11.3601     YY    -100.1930
        XZ     -27.2288     YZ     -12.6533     ZZ    -106.3863
    Octopole Moments (Debye-Ang^2)
       XXX   -1338.4662    XXY     -17.2946    XYY    -381.3974
       YYY     -92.6756    XXZ    -157.6428    XYZ     -45.4115
       YYZ     -72.4271    XZZ    -380.3269    YZZ     -59.6932
       ZZZ    -160.7330
    Hexadecapole Moments (Debye-Ang^3)
      XXXX  -10507.4547   XXXY    -885.8509   XXYY   -2080.5184
      XYYY    -761.1670   YYYY   -1945.6057   XXXZ   -1132.7782
      XXYZ    -330.4557   XYYZ    -367.4227   YYYZ    -484.0037
      XXZZ   -1698.6829   XYZZ    -321.3939   YYZZ    -530.7277
      XZZZ    -739.4996   YZZZ    -359.6776   ZZZZ    -985.8169
 -----------------------------------------------------------------
 Calculating analytic gradient of the SCF energy
 Gradient of CDS energy
            1           2           3           4           5           6
    1  -0.0021147   0.0007247  -0.0013552   0.0015028  -0.0000497  -0.0000371
    2  -0.0024350  -0.0005417  -0.0002830   0.0001944   0.0000308   0.0000319
    3   0.0000128   0.0005549   0.0021582  -0.0020611  -0.0000152   0.0000266
            7           8           9          10          11          12
    1  -0.0000981   0.0002247   0.0004376   0.0011586  -0.0013822   0.0002633
    2  -0.0000365   0.0001463   0.0014820  -0.0008800  -0.0007642   0.0000173
    3  -0.0000838  -0.0000696   0.0010375   0.0001425  -0.0013255   0.0000804
           13          14          15          16          17          18
    1  -0.0004226  -0.0000382   0.0001149   0.0000976  -0.0002685   0.0000597
    2   0.0001640   0.0000656  -0.0000653  -0.0001568  -0.0000464  -0.0000630
    3  -0.0000649   0.0000536  -0.0001142   0.0000607   0.0002233  -0.0001425
           19          20          21          22          23          24
    1  -0.0002644   0.0001790   0.0014293  -0.0002076   0.0000384   0.0000076
    2   0.0004337   0.0001350   0.0028883  -0.0003468   0.0000395  -0.0000101
    3  -0.0001052   0.0004455  -0.0010204   0.0002211  -0.0000378   0.0000230
 Gradient of SCF Energy
            1           2           3           4           5           6
    1   0.0223058   0.0446486   0.0147397   0.0119355  -0.0265733   0.0464347
    2  -0.0020095  -0.0140297  -0.0434988  -0.0040065   0.0594985  -0.0149191
    3  -0.0392243  -0.0727688   0.0190237   0.0155343  -0.0403675   0.0200908
            7           8           9          10          11          12
    1   0.0037731  -0.0230659   0.0116771  -0.0132293   0.0036236  -0.0234587
    2  -0.0120855  -0.0159157  -0.0037218   0.0049170  -0.0015775   0.0078706
    3  -0.0013975  -0.0113772  -0.0337277   0.0037532   0.0215043   0.0249307
           13          14          15          16          17          18
    1  -0.0567146   0.0210184  -0.0085606  -0.0267407   0.0091000  -0.0098012
    2   0.0215112  -0.0177972   0.0024348   0.0156994   0.0230176  -0.0014040
    3   0.0709848  -0.0057801   0.0242985   0.0045260   0.0065569   0.0162275
           19          20          21          22          23          24
    1   0.0046154   0.0033984  -0.0072776   0.0036444   0.0018181  -0.0073110
    2  -0.0070532   0.0060228  -0.0051674  -0.0013473   0.0044261  -0.0008650
    3  -0.0001874  -0.0196457   0.0230873  -0.0275004  -0.0043216   0.0057799
 Max gradient component =       7.277E-02
 RMS gradient           =       2.343E-02
 Computing fast CPCM-SWIG gradient
 Updating gradient with PCM contributions...
 -- total gradient after adding PCM contribution --
---------------------------------------------------
  Atom         X              Y              Z     
---------------------------------------------------
   1       0.006918      -0.007010      -0.010022
   2       0.061765      -0.016848      -0.080366
   3      -0.003269       0.004652      -0.005990
   4       0.001807      -0.002626       0.004216
   5      -0.000309      -0.000226       0.000021
   6       0.000106       0.000179       0.000267
   7      -0.000138      -0.000203      -0.000099
   8      -0.000351      -0.000633      -0.000457
   9      -0.000007       0.000211      -0.000063
  10      -0.000019      -0.000161       0.000003
  11      -0.000071      -0.000145      -0.000034
  12       0.003388      -0.004455       0.004172
  13      -0.064797       0.023747       0.086861
  14      -0.000611      -0.000017      -0.000059
  15      -0.000055      -0.000136       0.000101
  16      -0.000046       0.000014      -0.000034
  17       0.000848       0.001651       0.001372
  18      -0.000012      -0.000025      -0.000007
  19       0.000004      -0.000002       0.000026
  20       0.000037       0.000021       0.000030
  21      -0.000669       0.001541       0.001490
  22      -0.000950      -0.000575      -0.000480
  23      -0.002936       0.000879      -0.001643
  24      -0.000631       0.000167       0.000696
---------------------------------------------------
 Number of fixed atoms: 0
 Gradient time:  CPU 733.21 s  wall 61.08 s
 ----------------------------------------------------------------
             Standard Nuclear Orientation (Angstroms)
    I     Atom           X                Y                Z
 ----------------------------------------------------------------
    1      C       2.6544710000    -1.2252720000    -0.9307265000
    2      O       1.6902300000    -0.3411088000    -1.4612735000
    3      C       3.3074360000    -0.5157342000     0.2768329000
    4      O       2.5896465000    -0.6611082000     1.3832556000
    5      C       3.7653398000     0.9009146000    -0.0597398000
    6      C       4.8070741000     1.4872403000     0.8815013000
    7      O       4.5485582000     1.2702422000     2.2717131000
    8      O       3.1759383000     1.5463249000     2.5764538000
    9      C       5.0772018000     2.9634943000     0.5994921000
   10      O       3.8700340000     3.6911022000     0.6548035000
   11      O       6.0176764000     3.4716311000     1.5185914000
   12      H       3.3892281000    -1.4794659000    -1.6934958000
   13      H       0.9659907000    -0.0686007000    -0.4663851000
   14      H       2.8696436000     1.5181417000    -0.0681047000
   15      H       4.1848562000     0.9321712000    -1.0656960000
   16      H       5.7621733000     0.9775553000     0.7485191000
   17      H       2.7702827000     0.6906078000     2.2384089000
   18      H       5.5333999000     3.0642184000    -0.3859716000
   19      H       4.0468774000     4.5786734000     0.3229832000
   20      H       5.7441989000     3.1787621000     2.3990721000
   21      O       2.0672266000    -2.4198437000    -0.4845123000
   22      H       1.7896708000    -2.2307820000     0.4299496000
   23      O       4.5880770000    -1.3598775000     0.5363341000
   24      O       5.4618700000    -1.3134082000    -0.4250773000
 ----------------------------------------------------------------
 Nuclear Repulsion Energy =        1069.15303657 hartrees
 There are       57 alpha and       56 beta electrons
 Discretize the solute cavity surface with Lebedev spheres
	Using 110 Lebedev grid points for each H atom
	Using 194 Lebedev grid points for other atoms
	Atomic van der Waals radii will be scaled by 1.20
 Remove points where switching function is < 1.0e-08
 Keep 1832 surface tesserae and discard 1984 interior tesserae
 Molecular Surface Area = 201.724 Angst**2
 Requested basis set is 6-311++G(2df,2p)
 There are 172 shells and 576 basis functions
 A cutoff of  1.0D-12 yielded  12308 shell pairs
 There are    135167 function pairs (    167820 Cartesian)
 Smallest overlap matrix eigenvalue = 2.10E-06
 Guess MOs from SCF MO coefficient file

 -----------------------------------------------------------------------
  General SCF calculation program by
  Eric Jon Sundstrom, Paul Horn, Yuezhi Mao, Dmitri Zuev, Alec White,
  David Stuck, Shaama M.S., Shane Yost, Joonho Lee, David Small,
  Daniel Levine, Susi Lehtola, Hugh Burton, Evgeny Epifanovsky,
  Bang C. Huynh
 -----------------------------------------------------------------------
 Exchange:     0.1500 Hartree-Fock + 1.0000 wB97M-V + LR-HF
 Correlation:  1.0000 wB97M-V
 Using SG-2 standard quadrature grid
 Nonlocal Correlation:  VV10 with C = 0.0100 and b = 6.00 and scale = 1.00000
 Grid used for NLC:  SG-1 standard quadrature
 
 Citation of the SMD model:
 Marenich, A.V.; Cramer, C.J.; Truhlar, D.G.
 J. Phys. Chem. B 2009, 113, 6378-6396.
 iSolventCode=           1
 Solvent: water                                                           
 
 vradii
            1           2           3           4           5           6
    1   1.8500000   1.5200000   1.8500000   1.5200000   1.8500000   1.8500000
            7           8           9          10          11          12
    1   1.5200000   1.5200000   1.8500000   1.5200000   1.5200000   1.2000000
           13          14          15          16          17          18
    1   1.2000000   1.2000000   1.2000000   1.2000000   1.2000000   1.2000000
           19          20          21          22          23          24
    1   1.2000000   1.2000000   1.5200000   1.2000000   1.5200000   1.5200000
 -------------------------------------------------------
 OpenMP BLAS3 based DFT computing Module                
 Release: version 1.0, May 2013, Q-Chem Inc. Pittsburgh 
 -------------------------------------------------------
 A unrestricted SCF calculation will be
 performed using Roothaan-Hall, DIIS, GDM
 SCF converges when RMS gradient is below 1.0e-07
 ---------------------------------------
  Cycle       Energy         DIIS error
 ---------------------------------------
    1    -873.4161386940      1.88e-04  Roothaan Step
 ---------------------------------------
  Cycle       Energy         DIIS error
 ---------------------------------------
    1    -873.5294063739      2.07e-04  
    2    -873.5369855874      1.80e-04  Done DIIS. Switching to GDM
 ---------------------------------------
  Cycle       Energy        RMS Gradient
 ---------------------------------------
    1    -873.5369855874      1.45e-02   Normal BFGS step
    2    -873.5362533607      2.25e-02  Line search: overstep
    3    -873.5404394070      3.19e-03   Normal BFGS step
    4    -873.5406856563      2.06e-03   Normal BFGS step
    5    -873.5407497264      1.41e-03   Normal BFGS step
    6    -873.5407635974      1.44e-04   Normal BFGS step
    7    -873.5407654044      1.25e-04   Normal BFGS step
    8    -873.5407658718      9.73e-05   Normal BFGS step
    9    -873.5407659493      7.11e-05   Normal BFGS step
   10    -873.5407659813      3.51e-05   Normal BFGS step
   11    -873.5407659911      7.41e-06   Normal BFGS step
   12    -873.5407659929      3.72e-06   Normal BFGS step
   13    -873.5407659935      2.68e-06   Normal BFGS step
   14    -873.5407659935      1.68e-06   Normal BFGS step
   15    -873.5407659935      1.27e-06   Normal BFGS step
   16    -873.5407659935      9.37e-07   Normal BFGS step
   17    -873.5407659935      5.76e-07   Normal BFGS step
   18    -873.5407659936      5.72e-07   Normal BFGS step
   19    -873.5407659936      3.23e-07   Normal BFGS step
   20    -873.5407659936      9.51e-08  Convergence criterion met
 ---------------------------------------
 SCF time:   CPU 5647.63s  wall 397.00s 
<S^2> =          0.754273415
(3)  G-ENP(liq) elect-nuc-pol free energy of system     -873.540765994 a.u.
(4)  G-CDS(liq) cavity-dispersion-solvent structure 
     free energy                                                3.3484 kcal/mol
(6)  G-S(liq) free energy of system                     -873.535430019 a.u.
 SCF   energy in the final basis set =     -873.5354300191
 Total energy in the final basis set =     -873.5354300191
 
 --------------------------------------------------------------
 
                    Orbital Energies (a.u.)
 --------------------------------------------------------------
 
 Alpha MOs
 -- Occupied --
-19.4363 -19.3993 -19.3924 -19.3659 -19.3524 -19.3412 -19.3410 -19.3354
-19.2775 -10.4406 -10.4386 -10.4332 -10.3972 -10.3365  -1.3206  -1.2523
 -1.1964  -1.1889  -1.1309  -1.1103  -1.1046  -1.0298  -0.9608  -0.8977
 -0.8304  -0.7861  -0.7259  -0.6879  -0.6811  -0.6509  -0.6397  -0.6161
 -0.6108  -0.5969  -0.5940  -0.5811  -0.5710  -0.5523  -0.5511  -0.5450
 -0.5332  -0.5069  -0.4835  -0.4799  -0.4559  -0.4534  -0.4477  -0.4321
 -0.4237  -0.4095  -0.4072  -0.4056  -0.3964  -0.3809  -0.3688  -0.3525
 -0.3416
 -- Virtual --
  0.0260   0.0346   0.0430   0.0462   0.0592   0.0604   0.0683   0.0720
  0.0833   0.0965   0.0991   0.1089   0.1150   0.1220   0.1236   0.1381
  0.1429   0.1479   0.1533   0.1565   0.1607   0.1672   0.1701   0.1750
  0.1813   0.1845   0.1883   0.1930   0.2032   0.2044   0.2125   0.2255
  0.2304   0.2420   0.2457   0.2560   0.2626   0.2654   0.2690   0.2779
  0.2846   0.2862   0.2911   0.2924   0.2984   0.3024   0.3099   0.3160
  0.3173   0.3267   0.3307   0.3387   0.3402   0.3432   0.3459   0.3536
  0.3604   0.3666   0.3672   0.3734   0.3766   0.3799   0.3820   0.3842
  0.3897   0.3955   0.4018   0.4070   0.4100   0.4167   0.4175   0.4239
  0.4301   0.4345   0.4390   0.4485   0.4509   0.4581   0.4641   0.4717
  0.4791   0.4873   0.4977   0.5056   0.5194   0.5251   0.5378   0.5464
  0.5624   0.5662   0.5890   0.6114   0.6144   0.6197   0.6335   0.6444
  0.6576   0.6641   0.6721   0.6794   0.6958   0.7018   0.7125   0.7174
  0.7273   0.7339   0.7495   0.7626   0.7655   0.7801   0.7899   0.7943
  0.8061   0.8144   0.8184   0.8311   0.8408   0.8548   0.8862   0.8978
  0.9238   0.9377   0.9413   0.9598   0.9731   0.9927   1.0042   1.0219
  1.0497   1.0554   1.0680   1.0839   1.0858   1.1001   1.1106   1.1226
  1.1363   1.1432   1.1541   1.1598   1.1642   1.1699   1.1738   1.1814
  1.1932   1.1963   1.1996   1.2148   1.2205   1.2293   1.2330   1.2411
  1.2485   1.2554   1.2605   1.2692   1.2754   1.2924   1.2971   1.3050
  1.3105   1.3156   1.3209   1.3367   1.3467   1.3547   1.3649   1.3658
  1.3733   1.3853   1.3902   1.3989   1.4141   1.4218   1.4305   1.4485
  1.4565   1.4736   1.4778   1.4809   1.5032   1.5089   1.5166   1.5326
  1.5365   1.5441   1.5585   1.5691   1.5828   1.6007   1.6175   1.6252
  1.6410   1.6498   1.6664   1.6787   1.6901   1.6918   1.6982   1.7176
  1.7249   1.7323   1.7509   1.7634   1.7742   1.7869   1.8024   1.8242
  1.8284   1.8608   1.8750   1.8904   1.8969   1.9193   1.9260   1.9454
  1.9712   1.9943   1.9983   2.0367   2.0431   2.0565   2.0652   2.0922
  2.0932   2.1518   2.1820   2.1975   2.1982   2.2303   2.2521   2.2716
  2.2755   2.2833   2.3195   2.3205   2.3454   2.3738   2.3860   2.3919
  2.4073   2.4253   2.4384   2.4510   2.4609   2.4889   2.5027   2.5104
  2.5550   2.5667   2.6174   2.6361   2.6447   2.6682   2.7306   2.7513
  2.7664   2.7775   2.8143   2.8174   2.8493   2.8728   2.8978   2.9086
  2.9361   2.9456   2.9741   3.0164   3.0469   3.0822   3.1092   3.1283
  3.1459   3.1588   3.2097   3.2299   3.2421   3.2679   3.2895   3.3054
  3.3261   3.3331   3.3613   3.4008   3.4153   3.4282   3.4455   3.4683
  3.4846   3.4861   3.5081   3.5213   3.5508   3.5578   3.5843   3.6092
  3.6264   3.6566   3.6614   3.6642   3.6975   3.6980   3.7160   3.7207
  3.7474   3.7657   3.7758   3.7872   3.8027   3.8231   3.8404   3.8599
  3.8636   3.8704   3.8843   3.8901   3.8973   3.9025   3.9115   3.9159
  3.9395   3.9455   3.9637   3.9748   3.9972   4.0108   4.0361   4.0587
  4.0673   4.1272   4.1322   4.1457   4.1620   4.1850   4.1886   4.2064
  4.2167   4.2401   4.2671   4.2794   4.2927   4.3053   4.3183   4.3510
  4.3577   4.3766   4.3912   4.4125   4.4177   4.4499   4.4538   4.4861
  4.4899   4.5118   4.5729   4.5831   4.6158   4.6278   4.6408   4.6674
  4.7028   4.7209   4.7438   4.7649   4.7857   4.8229   4.8554   4.9168
  4.9328   4.9609   5.0081   5.0132   5.0842   5.1042   5.1249   5.1326
  5.1645   5.1838   5.2114   5.2189   5.2210   5.2366   5.2437   5.2494
  5.2629   5.2707   5.2796   5.2987   5.3006   5.3070   5.3161   5.3211
  5.3354   5.3504   5.3540   5.3617   5.3664   5.3717   5.3756   5.3908
  5.4074   5.4205   5.4261   5.4425   5.4482   5.4612   5.4790   5.4902
  5.4986   5.5046   5.5374   5.5415   5.5453   5.5558   5.5665   5.5707
  5.5840   5.6230   5.6273   5.6384   5.6628   5.6767   5.6904   5.7055
  5.7079   5.7276   5.7368   5.7841   5.8018   5.8083   5.8231   5.8310
  5.8619   5.8866   5.9498   6.0169   6.0233   6.0371   6.0783   6.0896
  6.1022   6.1394   6.1864   6.2721   6.2771   6.3573   6.5028   6.5581
  6.5855   6.6266   6.6957   6.7406   6.7590   6.8637   6.9049   6.9280
  6.9762   6.9859   7.0245   7.0338   7.0710   7.0873   7.1048   7.1273
  7.1383   7.1519   7.1844   7.1974   7.2161   7.2558   7.2750   7.2824
  7.2872   7.3232   7.3327   7.3424   7.3635   7.3795   7.4007   7.4195
  7.4464   7.4511   7.4750   7.4813   7.5047   7.5355   7.5506   7.5866
  7.6044   7.6183   7.6573   7.6664   7.6929   7.7391   7.8052   7.8252
  7.8520   7.8780   7.9041   7.9133   7.9421   7.9990   8.0974   8.1567
  8.2261  24.6350  24.7828  24.8130  24.8313  24.8922  50.4600  50.5373
 50.5925  50.6039  50.6248  50.6343  50.6503  50.6781  50.7924
 
 Beta MOs
 -- Occupied --
-19.4248 -19.3923 -19.3815 -19.3659 -19.3524 -19.3412 -19.3410 -19.3353
-19.2777 -10.4406 -10.4389 -10.4330 -10.3972 -10.3363  -1.2937  -1.2522
 -1.1964  -1.1884  -1.1309  -1.1087  -1.1045  -1.0295  -0.9284  -0.8949
 -0.8275  -0.7847  -0.7256  -0.6834  -0.6800  -0.6428  -0.6377  -0.6096
 -0.5967  -0.5882  -0.5873  -0.5731  -0.5698  -0.5501  -0.5436  -0.5331
 -0.5129  -0.4960  -0.4816  -0.4740  -0.4547  -0.4523  -0.4471  -0.4320
 -0.4206  -0.4066  -0.4050  -0.3999  -0.3938  -0.3712  -0.3455  -0.3399
 -- Virtual --
 -0.0164   0.0261   0.0346   0.0432   0.0463   0.0597   0.0609   0.0683
  0.0723   0.0833   0.0970   0.0996   0.1095   0.1154   0.1223   0.1241
  0.1385   0.1430   0.1483   0.1535   0.1567   0.1623   0.1677   0.1709
  0.1755   0.1820   0.1855   0.1891   0.1947   0.2036   0.2051   0.2128
  0.2267   0.2310   0.2446   0.2462   0.2570   0.2643   0.2666   0.2702
  0.2783   0.2865   0.2886   0.2922   0.2942   0.2989   0.3070   0.3107
  0.3165   0.3186   0.3279   0.3311   0.3393   0.3407   0.3452   0.3468
  0.3546   0.3616   0.3676   0.3679   0.3738   0.3772   0.3807   0.3822
  0.3852   0.3906   0.3959   0.4033   0.4072   0.4107   0.4176   0.4178
  0.4250   0.4303   0.4349   0.4395   0.4494   0.4521   0.4584   0.4644
  0.4726   0.4798   0.4877   0.4987   0.5061   0.5197   0.5254   0.5386
  0.5467   0.5627   0.5664   0.5894   0.6122   0.6145   0.6203   0.6338
  0.6448   0.6584   0.6644   0.6723   0.6795   0.6961   0.7019   0.7128
  0.7176   0.7277   0.7340   0.7497   0.7630   0.7662   0.7802   0.7905
  0.7952   0.8066   0.8146   0.8187   0.8316   0.8411   0.8555   0.8873
  0.8983   0.9241   0.9381   0.9417   0.9623   0.9732   0.9938   1.0059
  1.0223   1.0505   1.0565   1.0692   1.0846   1.0869   1.1009   1.1111
  1.1238   1.1371   1.1454   1.1556   1.1601   1.1658   1.1717   1.1746
  1.1852   1.1957   1.1981   1.2034   1.2167   1.2252   1.2297   1.2361
  1.2419   1.2530   1.2600   1.2619   1.2730   1.2767   1.2946   1.2982
  1.3093   1.3135   1.3212   1.3236   1.3377   1.3490   1.3562   1.3658
  1.3675   1.3751   1.3885   1.3934   1.4026   1.4147   1.4233   1.4308
  1.4495   1.4581   1.4749   1.4787   1.4893   1.5058   1.5122   1.5180
  1.5347   1.5392   1.5469   1.5593   1.5701   1.5840   1.6018   1.6195
  1.6271   1.6434   1.6512   1.6707   1.6798   1.6941   1.6977   1.7010
  1.7202   1.7280   1.7422   1.7548   1.7678   1.7771   1.7958   1.8053
  1.8296   1.8337   1.8616   1.8770   1.8928   1.8997   1.9211   1.9285
  1.9491   1.9717   1.9949   2.0006   2.0399   2.0449   2.0596   2.0666
  2.0928   2.0942   2.1562   2.1838   2.1994   2.1994   2.2340   2.2550
  2.2816   2.2832   2.2863   2.3201   2.3257   2.3509   2.3747   2.3869
  2.3927   2.4080   2.4265   2.4408   2.4515   2.4618   2.4927   2.5031
  2.5110   2.5558   2.5672   2.6185   2.6379   2.6460   2.6688   2.7359
  2.7520   2.7685   2.7781   2.8149   2.8181   2.8498   2.8734   2.8981
  2.9095   2.9370   2.9458   2.9748   3.0168   3.0471   3.0825   3.1095
  3.1287   3.1464   3.1591   3.2104   3.2302   3.2423   3.2683   3.2908
  3.3059   3.3264   3.3333   3.3620   3.4011   3.4154   3.4287   3.4455
  3.4686   3.4851   3.4864   3.5085   3.5214   3.5511   3.5583   3.5846
  3.6091   3.6269   3.6567   3.6616   3.6645   3.6979   3.6983   3.7163
  3.7213   3.7477   3.7659   3.7759   3.7873   3.8030   3.8243   3.8406
  3.8600   3.8637   3.8706   3.8846   3.8906   3.8974   3.9028   3.9118
  3.9161   3.9398   3.9457   3.9641   3.9750   3.9975   4.0113   4.0363
  4.0588   4.0676   4.1274   4.1327   4.1462   4.1624   4.1851   4.1889
  4.2066   4.2168   4.2403   4.2673   4.2800   4.2928   4.3056   4.3190
  4.3513   4.3578   4.3767   4.3914   4.4132   4.4178   4.4501   4.4544
  4.4865   4.4907   4.5130   4.5736   4.5844   4.6202   4.6284   4.6607
  4.6754   4.7049   4.7229   4.7445   4.7751   4.7972   4.8238   4.8731
  4.9250   4.9348   4.9646   5.0126   5.0262   5.0846   5.1244   5.1612
  5.1735   5.1849   5.2073   5.2218   5.2279   5.2302   5.2456   5.2509
  5.2647   5.2694   5.2740   5.2992   5.3029   5.3091   5.3162   5.3275
  5.3321   5.3425   5.3516   5.3569   5.3647   5.3692   5.3743   5.3892
  5.3966   5.4127   5.4299   5.4342   5.4456   5.4542   5.4637   5.4810
  5.4936   5.5024   5.5059   5.5401   5.5428   5.5539   5.5594   5.5697
  5.5737   5.5870   5.6239   5.6276   5.6389   5.6635   5.6769   5.6923
  5.7074   5.7089   5.7290   5.7482   5.7896   5.8090   5.8161   5.8255
  5.8312   5.8630   5.8897   5.9503   6.0170   6.0254   6.0391   6.0786
  6.0899   6.1047   6.1394   6.1873   6.2723   6.2777   6.3663   6.5459
  6.5584   6.5896   6.6377   6.6962   6.7407   6.7599   6.8646   6.9714
  6.9849   7.0024   7.0120   7.0316   7.0569   7.0726   7.0959   7.1107
  7.1318   7.1484   7.1692   7.1908   7.2128   7.2239   7.2667   7.2756
  7.2867   7.2875   7.3241   7.3384   7.3544   7.3734   7.3818   7.4155
  7.4257   7.4468   7.4574   7.4849   7.5003   7.5184   7.5424   7.5512
  7.5893   7.6074   7.6221   7.6576   7.6667   7.6929   7.7407   7.8060
  7.8262   7.8553   7.8804   7.9045   7.9136   7.9468   7.9993   8.1125
  8.1732   8.2274  24.6350  24.7828  24.8132  24.8313  24.8921  50.4718
 50.5376  50.5950  50.6054  50.6264  50.6363  50.6504  50.6809  50.7923
 --------------------------------------------------------------
 
          Ground-State Mulliken Net Atomic Charges

     Atom                 Charge (a.u.)    Spin (a.u.)
  --------------------------------------------------------
      1 C                    -0.169645       0.004840
      2 O                    -0.479821       0.000884
      3 C                     0.435149       0.013981
      4 O                    -0.802788      -0.003467
      5 C                    -1.164835      -0.009298
      6 C                     0.465678       0.011919
      7 O                    -0.161710       0.002226
      8 O                    -0.402230      -0.000065
      9 C                    -0.358583      -0.003728
     10 O                    -0.449719      -0.000029
     11 O                    -0.448340      -0.000082
     12 H                     0.293545      -0.000822
     13 H                     0.374503       0.000252
     14 H                     0.302930      -0.000629
     15 H                     0.303961       0.000815
     16 H                     0.293204      -0.002476
     17 H                     0.392655      -0.000058
     18 H                     0.261922      -0.000049
     19 H                     0.346480      -0.000057
     20 H                     0.342586      -0.000005
     21 O                    -0.454231       0.002265
     22 H                     0.344197      -0.000526
     23 O                     0.005038       0.353803
     24 O                    -0.269946       0.630306
  --------------------------------------------------------
  Sum of atomic charges =    -1.000000
  Sum of spin   charges =     1.000000

 -----------------------------------------------------------------
                    Cartesian Multipole Moments
 -----------------------------------------------------------------
    Charge (ESU x 10^10)
                -4.8032
    Dipole Moment (Debye)
         X     -17.0855      Y       3.8210      Z      -5.7355
       Tot      18.4231
    Quadrupole Moments (Debye-Ang)
        XX    -156.5120     XY      11.3683     YY    -100.1905
        XZ     -27.2200     YZ     -12.6578     ZZ    -106.3921
    Octopole Moments (Debye-Ang^2)
       XXX   -1338.6687    XXY     -17.2502    XYY    -381.4020
       YYY     -92.7000    XXZ    -157.5892    XYZ     -45.4388
       YYZ     -72.4247    XZZ    -380.3572    YZZ     -59.6806
       ZZZ    -160.7365
    Hexadecapole Moments (Debye-Ang^3)
      XXXX  -10508.1717   XXXY    -885.7030   XXYY   -2080.5777
      XYYY    -761.2511   YYYY   -1945.5396   XXXZ   -1132.5729
      XXYZ    -330.5731   XYYZ    -367.4005   YYYZ    -484.0229
      XXZZ   -1698.8071   XYZZ    -321.3520   YYZZ    -530.7515
      XZZZ    -739.4897   YZZZ    -359.7142   ZZZZ    -985.8690
 -----------------------------------------------------------------
 Calculating analytic gradient of the SCF energy
 Gradient of CDS energy
            1           2           3           4           5           6
    1  -0.0024094   0.0009358  -0.0013551   0.0015028  -0.0000497  -0.0000371
    2  -0.0024146  -0.0007356  -0.0002830   0.0001944   0.0000308   0.0000319
    3  -0.0000368   0.0006710   0.0021583  -0.0020611  -0.0000152   0.0000266
            7           8           9          10          11          12
    1  -0.0000981   0.0002247   0.0004376   0.0011586  -0.0013822   0.0002638
    2  -0.0000365   0.0001463   0.0014820  -0.0008800  -0.0007642   0.0000167
    3  -0.0000838  -0.0000696   0.0010375   0.0001425  -0.0013255   0.0000791
           13          14          15          16          17          18
    1  -0.0004223  -0.0000381   0.0001150   0.0000976  -0.0002685   0.0000597
    2   0.0001640   0.0000656  -0.0000654  -0.0001568  -0.0000464  -0.0000630
    3  -0.0000646   0.0000537  -0.0001143   0.0000607   0.0002233  -0.0001425
           19          20          21          22          23          24
    1  -0.0002644   0.0001790   0.0015114  -0.0002072   0.0000385   0.0000075
    2   0.0004337   0.0001350   0.0030614  -0.0003460   0.0000396  -0.0000103
    3  -0.0001052   0.0004455  -0.0010858   0.0002210  -0.0000378   0.0000230
 Gradient of SCF Energy
            1           2           3           4           5           6
    1   0.0202684   0.0453567   0.0149346   0.0119240  -0.0265920   0.0464448
    2  -0.0019147  -0.0144767  -0.0433466  -0.0040360   0.0595481  -0.0149556
    3  -0.0388254  -0.0725604   0.0191256   0.0154831  -0.0403376   0.0200943
            7           8           9          10          11          12
[...]
 IR Active:          YES                    YES                    YES
 IR Intens:        4.172                260.273                 64.934
 Raman Active:       YES                    YES                    YES
               X      Y      Z        X      Y      Z        X      Y      Z
 C          0.141  0.203 -0.113    0.047  0.011 -0.036    0.056 -0.023  0.059
 O         -0.013  0.003 -0.008    0.009 -0.009 -0.004   -0.003 -0.001 -0.008
 C         -0.039 -0.063 -0.010   -0.115 -0.065  0.278    0.002  0.044  0.004
 O          0.002  0.001  0.003    0.065  0.015 -0.106   -0.000 -0.004  0.004
 C          0.019  0.009 -0.007   -0.016  0.013 -0.054   -0.054 -0.075 -0.004
 C          0.005  0.013  0.010    0.038 -0.023  0.008   -0.021 -0.019 -0.050
 O         -0.003  0.000 -0.005    0.005  0.005 -0.005    0.002  0.002  0.002
 O         -0.001  0.005  0.001   -0.004 -0.015 -0.004    0.000 -0.003 -0.001
 C          0.013  0.049  0.084   -0.043 -0.034 -0.072    0.112  0.042  0.159
 O          0.021 -0.011 -0.012    0.005  0.005  0.003   -0.026  0.002 -0.001
 O         -0.013 -0.009 -0.039    0.014  0.006  0.038   -0.025 -0.007 -0.092
 H          0.017  0.002 -0.172   -0.286  0.075 -0.367   -0.250  0.099 -0.268
 H          0.201 -0.222  0.103   -0.040  0.065  0.011   -0.174  0.177 -0.059
 H          0.051  0.057  0.031   -0.212 -0.260 -0.101    0.082  0.119  0.019
 H         -0.099 -0.098 -0.061    0.304  0.519  0.094    0.237  0.302  0.129
 H         -0.136 -0.227 -0.055    0.146  0.148  0.071    0.153  0.246  0.121
 H          0.054 -0.032  0.002   -0.115  0.090  0.022   -0.026  0.018 -0.002
 H         -0.124 -0.012  0.018    0.022  0.015 -0.041    0.138  0.006  0.172
 H         -0.021  0.002  0.006   -0.062  0.021  0.011    0.079 -0.027 -0.026
 H         -0.212 -0.122 -0.131    0.175  0.105  0.114   -0.434 -0.271 -0.290
 O         -0.064 -0.068  0.093   -0.005  0.003  0.020   -0.008 -0.014 -0.012
 H         -0.279 -0.687  0.101   -0.046 -0.099  0.015    0.052  0.168 -0.020
 O         -0.004  0.004  0.006   -0.045  0.026 -0.003   -0.016 -0.003  0.014
 O          0.004 -0.000 -0.003    0.030 -0.006 -0.020    0.013  0.001 -0.016
 TransDip   0.003 -0.003 -0.065   -0.371  0.042  0.358    0.215  0.103  0.099

 Mode:                49                     50                     51
 Frequency:      1349.89                1384.41                1390.63
 Force Cnst:      1.6727                 1.5685                 1.7512
 Red. Mass:       1.5580                 1.3890                 1.5370
 IR Active:          YES                    YES                    YES
 IR Intens:       18.011                 40.044                 68.859
 Raman Active:       YES                    YES                    YES
               X      Y      Z        X      Y      Z        X      Y      Z
 C         -0.138  0.021 -0.104    0.022 -0.017  0.016    0.019 -0.021  0.007
 O          0.012 -0.001  0.016   -0.002 -0.001 -0.001   -0.001 -0.000 -0.001
 C          0.027  0.024  0.078   -0.021 -0.018 -0.031   -0.032 -0.048 -0.015
 O          0.006 -0.003 -0.024   -0.002  0.002  0.009    0.003  0.004 -0.001
 C         -0.022  0.000 -0.005    0.043  0.070  0.057    0.075  0.135  0.022
 C         -0.023 -0.043 -0.036   -0.038 -0.002 -0.125   -0.058 -0.110  0.039
 O          0.010  0.001  0.001    0.041 -0.016  0.011   -0.009  0.012 -0.003
 O         -0.004 -0.000 -0.002   -0.010  0.004 -0.005    0.002  0.001  0.003
 C          0.032  0.004  0.048   -0.029 -0.002  0.017    0.016 -0.018  0.001
 O         -0.007  0.002 -0.002    0.014  0.001 -0.005   -0.013  0.003  0.005
 O         -0.002  0.003 -0.029    0.010  0.008  0.007    0.011  0.011 -0.020
 H          0.380 -0.289  0.484   -0.032  0.093 -0.071   -0.012  0.141 -0.077
 H          0.318 -0.307  0.103   -0.060  0.082 -0.025   -0.046  0.063 -0.015
 H         -0.074 -0.074 -0.047   -0.170 -0.238 -0.199   -0.240 -0.320 -0.020
 H          0.124  0.150  0.059   -0.126 -0.060 -0.021   -0.187 -0.393 -0.098
 H          0.170  0.230  0.244    0.014 -0.167  0.857    0.228  0.493 -0.260
 H         -0.020  0.018 -0.013    0.069 -0.023 -0.026    0.002 -0.004 -0.008
 H          0.095  0.057  0.083   -0.085 -0.098 -0.020    0.266  0.248  0.146
 H          0.006 -0.003 -0.008   -0.085  0.028  0.020    0.034 -0.014 -0.017
 H         -0.162 -0.101 -0.107   -0.023 -0.007 -0.005   -0.140 -0.099 -0.098
 O          0.024  0.024  0.002   -0.003  0.003  0.001   -0.002  0.010  0.007
 H         -0.025 -0.132  0.010   -0.008 -0.012  0.002   -0.029 -0.062  0.009
 O          0.009  0.001 -0.010   -0.001  0.001  0.003   -0.000  0.003 -0.002
 O         -0.007 -0.003  0.011    0.001  0.001 -0.002    0.000 -0.000  0.000
 TransDip  -0.058 -0.093  0.080   -0.090 -0.042 -0.177   -0.118 -0.233  0.047

 Mode:                52                     53                     54
 Frequency:      1425.72                1429.88                1442.31
 Force Cnst:      1.7483                 1.6023                 1.3409
 Red. Mass:       1.4598                 1.3301                 1.0940
 IR Active:          YES                    YES                    YES
 IR Intens:      158.188                 72.380                  8.049
 Raman Active:       YES                    YES                    YES
               X      Y      Z        X      Y      Z        X      Y      Z
 C         -0.027 -0.154 -0.041   -0.003 -0.007 -0.003    0.005  0.011  0.002
 O         -0.000  0.013 -0.011   -0.000  0.001 -0.001    0.000 -0.001  0.001
 C          0.043  0.052  0.006    0.004  0.002  0.006   -0.010 -0.000 -0.013
 O         -0.010 -0.010  0.001   -0.000 -0.000 -0.002   -0.001 -0.001  0.005
 C         -0.019 -0.025 -0.007   -0.001 -0.011  0.000   -0.032  0.038 -0.061
 C          0.006  0.009 -0.001    0.029  0.009  0.006    0.006  0.013 -0.021
 O         -0.004 -0.002  0.000    0.001 -0.001 -0.003    0.003 -0.003  0.002
 O          0.001  0.005  0.002   -0.001  0.001  0.000   -0.000  0.000 -0.001
 C          0.007 -0.002  0.003   -0.138  0.064 -0.040   -0.009  0.018 -0.004
 O          0.000  0.001 -0.001   -0.002 -0.020  0.026   -0.001 -0.004  0.003
 O         -0.003 -0.002  0.001    0.035  0.011 -0.009   -0.002 -0.003  0.002
 H          0.210  0.766 -0.126    0.010  0.033 -0.004   -0.013 -0.040  0.002
 H          0.043 -0.021  0.038    0.008 -0.009  0.005   -0.004  0.006 -0.004
 H          0.026  0.036  0.067    0.031  0.037 -0.055   -0.154 -0.148  0.664
 H          0.077  0.014  0.035   -0.043  0.051 -0.018    0.546 -0.380  0.180
 H         -0.008 -0.014 -0.005   -0.100 -0.224  0.022   -0.011 -0.051  0.115
 H          0.039 -0.025 -0.017    0.010 -0.006  0.001    0.004  0.003 -0.009
 H         -0.049 -0.001 -0.023    0.787 -0.268  0.345    0.033 -0.095  0.001
 H         -0.011  0.004  0.002    0.206 -0.079 -0.037    0.041 -0.015 -0.006
 H          0.013  0.011  0.010   -0.126 -0.114 -0.097    0.025  0.015  0.015
 O          0.003  0.069  0.036    0.000  0.003  0.002   -0.001 -0.004 -0.001
 H         -0.226 -0.486  0.051   -0.010 -0.022  0.002    0.008  0.018 -0.002
 O          0.001 -0.003 -0.003    0.000  0.000 -0.001    0.002 -0.001 -0.000
 O         -0.003 -0.000  0.003   -0.000  0.000  0.001   -0.001  0.000  0.001
 TransDip  -0.011 -0.402  0.016   -0.236  0.010 -0.135    0.062 -0.013  0.065

 Mode:                55                     56                     57
 Frequency:      1478.09                1520.56                1555.29
 Force Cnst:      2.3745                 1.7100                 1.5852
 Red. Mass:       1.8447                 1.2553                 1.1123
 IR Active:          YES                    YES                    YES
 IR Intens:      107.114                254.219                131.703
 Raman Active:       YES                    YES                    YES
               X      Y      Z        X      Y      Z        X      Y      Z
 C         -0.003 -0.004 -0.000    0.009 -0.025  0.099    0.001 -0.004  0.015
 O         -0.001  0.002 -0.002   -0.034  0.042 -0.070   -0.005  0.006 -0.011
 C         -0.001 -0.005  0.009   -0.012 -0.009 -0.015   -0.013  0.003  0.027
 O          0.002  0.001 -0.002    0.004  0.004  0.003   -0.002 -0.008 -0.013
 C          0.017  0.021  0.011    0.005  0.005  0.003    0.002 -0.002 -0.000
 C         -0.032 -0.098 -0.007   -0.002  0.003 -0.001    0.003 -0.006 -0.005
 O          0.000  0.010  0.000    0.007  0.005  0.001   -0.042 -0.022 -0.003
 O          0.001 -0.003 -0.001   -0.001 -0.009 -0.007   -0.008  0.050  0.028
 C          0.075  0.221 -0.010   -0.000 -0.007  0.001    0.002  0.004 -0.001
 O         -0.028 -0.037  0.020    0.002  0.001 -0.003   -0.000 -0.000  0.000
 O         -0.052 -0.044  0.000    0.002  0.001  0.001   -0.001 -0.001  0.001
 H         -0.001  0.016 -0.005   -0.225  0.133 -0.150   -0.052 -0.005 -0.029
 H          0.026 -0.023  0.015    0.633 -0.535  0.367    0.103 -0.081  0.065
 H         -0.024 -0.035 -0.089   -0.008 -0.013 -0.001   -0.003 -0.007  0.003
 H         -0.071  0.010 -0.027   -0.002 -0.017  0.000    0.018  0.033  0.010
 H          0.094  0.135 -0.052   -0.005 -0.008  0.020    0.014  0.025 -0.043
 H         -0.044  0.022  0.014   -0.160  0.068  0.059    0.860 -0.313 -0.343
 H         -0.142 -0.670 -0.225    0.004  0.017  0.006   -0.004 -0.017 -0.007
 H          0.435 -0.151 -0.070   -0.010  0.004 -0.001    0.006 -0.002 -0.001
 H          0.282  0.179  0.166   -0.011 -0.007 -0.005    0.009  0.011  0.008
 O          0.001  0.002  0.000    0.004 -0.007 -0.015    0.001 -0.004 -0.005
 H         -0.004 -0.007  0.000    0.054  0.170 -0.020    0.038  0.081 -0.009
 O         -0.000  0.001 -0.000   -0.002 -0.000  0.004   -0.002  0.001 -0.000
 O          0.000 -0.000  0.000    0.002 -0.001  0.002    0.002 -0.001 -0.000
 TransDip   0.261  0.162  0.125    0.380 -0.224  0.258    0.241 -0.242 -0.137

 Mode:                58                     59                     60
 Frequency:      2963.83                3087.98                3091.38
 Force Cnst:      5.5724                 6.0192                 6.0780
 Red. Mass:       1.0767                 1.0714                 1.0795
 IR Active:          YES                    YES                    YES
 IR Intens:     1719.828                  5.207                 38.371
 Raman Active:       YES                    YES                    YES
               X      Y      Z        X      Y      Z        X      Y      Z
 C         -0.001  0.000  0.001   -0.000  0.000 -0.000   -0.000  0.000  0.000
 O          0.000 -0.000  0.000   -0.000 -0.000 -0.000   -0.000 -0.000 -0.000
 C          0.005  0.002 -0.006   -0.000 -0.001 -0.000   -0.000 -0.000 -0.000
 O         -0.002  0.004  0.006    0.000 -0.000  0.000   -0.000 -0.000  0.000
 C         -0.001 -0.000  0.001   -0.005  0.021 -0.054   -0.000  0.013 -0.041
 C          0.001 -0.001  0.003    0.016 -0.008 -0.002   -0.029  0.016  0.003
 O          0.001 -0.001 -0.002    0.000  0.000 -0.000   -0.001 -0.000  0.001
 O         -0.031 -0.056 -0.020   -0.000 -0.000  0.000    0.000 -0.000 -0.000
 C          0.000 -0.000 -0.001   -0.019 -0.005  0.042    0.024  0.007 -0.055
 O         -0.000  0.000 -0.000   -0.000  0.001 -0.000    0.000 -0.001  0.000
 O          0.000  0.000  0.000    0.000  0.000 -0.001   -0.001 -0.000  0.001
 H          0.008  0.000 -0.002    0.002 -0.000 -0.001    0.002 -0.000 -0.001
 H         -0.003  0.001 -0.004    0.000  0.000 -0.000    0.000  0.000 -0.000
 H         -0.003  0.002 -0.001    0.333 -0.230 -0.009    0.206 -0.139 -0.005
 H          0.000 -0.005 -0.008   -0.274 -0.012  0.648   -0.206 -0.011  0.487
 H         -0.004  0.005 -0.007   -0.181  0.097  0.027    0.345 -0.187 -0.050
 H          0.478  0.830  0.279    0.003  0.008  0.003    0.001  0.002  0.001
 H         -0.002  0.002  0.006    0.224  0.056 -0.489   -0.291 -0.073  0.636
 H          0.000  0.000 -0.000   -0.003 -0.001 -0.001    0.004  0.002  0.001
 H         -0.001 -0.002 -0.003   -0.005 -0.004  0.006    0.008  0.006 -0.008
 O          0.000  0.000 -0.000    0.000  0.000  0.000    0.000  0.000  0.000
 H         -0.014 -0.009  0.014   -0.000 -0.000 -0.000   -0.000 -0.000 -0.000
 O         -0.001  0.000  0.000    0.000  0.000 -0.000    0.000  0.000  0.000
 O         -0.001  0.000  0.000    0.000 -0.000  0.000    0.000 -0.000  0.000
 TransDip   0.487  1.083  0.596   -0.039  0.049  0.037    0.028  0.002 -0.196

 Mode:                61                     62                     63
 Frequency:      3099.04                3128.58                3142.17
 Force Cnst:      6.1433                 6.2797                 6.3910
 Red. Mass:       1.0857                 1.0889                 1.0987
 IR Active:          YES                    YES                    YES
 IR Intens:       28.560                 15.028                 12.786
 Raman Active:       YES                    YES                    YES
               X      Y      Z        X      Y      Z        X      Y      Z
 C         -0.000 -0.000  0.000    0.056 -0.020 -0.062   -0.004  0.001  0.004
 O         -0.000  0.000  0.000    0.000 -0.000  0.000   -0.000 -0.000 -0.000
 C          0.000  0.000 -0.000    0.001  0.001  0.000   -0.001  0.001  0.001
 O         -0.000  0.000  0.000   -0.000 -0.000  0.001    0.000 -0.000 -0.000
 C          0.011 -0.007 -0.000   -0.005  0.002  0.002   -0.073  0.039  0.035
 C         -0.064  0.035  0.008   -0.001  0.000  0.000   -0.011  0.006  0.002
 O         -0.001  0.000  0.001    0.000 -0.000 -0.000   -0.000  0.000 -0.000
 O          0.001 -0.001 -0.001   -0.000 -0.000 -0.000    0.000 -0.000  0.000
 C         -0.017 -0.005  0.034   -0.000  0.000  0.000   -0.001 -0.000  0.002
 O          0.000 -0.000 -0.000    0.000  0.000  0.000    0.000  0.000  0.000
 O          0.001  0.000 -0.000   -0.000 -0.000 -0.000    0.000 -0.000 -0.000
 H          0.002 -0.001 -0.002   -0.660  0.229  0.707    0.041 -0.014 -0.045
 H         -0.000 -0.000 -0.000   -0.012  0.007  0.004    0.002  0.000 -0.000
 H         -0.125  0.091  0.002    0.045 -0.031  0.001    0.711 -0.495  0.010
 H         -0.002 -0.004  0.003    0.009 -0.000 -0.025    0.171  0.016 -0.432
 H          0.764 -0.420 -0.112    0.010 -0.005 -0.001    0.125 -0.065 -0.016
 H          0.004  0.007  0.002    0.004  0.007  0.003    0.000  0.001 -0.003
 H          0.186  0.050 -0.399    0.001  0.000 -0.002    0.011  0.003 -0.024
 H         -0.002 -0.001 -0.001    0.000  0.000  0.000    0.001  0.001  0.000
 H         -0.005 -0.004  0.004    0.000 -0.000 -0.000   -0.000 -0.000  0.000
 O         -0.000 -0.000 -0.000   -0.001  0.001  0.002    0.000 -0.000 -0.000
 H         -0.000  0.000  0.000    0.005 -0.011 -0.017    0.000  0.001  0.001
 O          0.000  0.000  0.000   -0.000  0.000 -0.000    0.000 -0.000  0.000
 O          0.000  0.000  0.000    0.000  0.000  0.000    0.000  0.000 -0.000
 TransDip  -0.135  0.035  0.100    0.087  0.015 -0.087   -0.101 -0.002  0.054

 Mode:                64                     65                     66
 Frequency:      3630.44                3765.46                3821.33
 Force Cnst:      8.2660                 8.9016                 9.1773
 Red. Mass:       1.0645                 1.0656                 1.0667
 IR Active:          YES                    YES                    YES
 IR Intens:      226.407                134.191                125.196
 Raman Active:       YES                    YES                    YES
               X      Y      Z        X      Y      Z        X      Y      Z
 C          0.002  0.001 -0.003   -0.000  0.000 -0.000   -0.000 -0.000 -0.000
 O          0.000 -0.001  0.000    0.000 -0.000  0.000    0.000  0.000  0.000
 C         -0.001 -0.000  0.000    0.000 -0.000  0.000   -0.000 -0.000  0.000
 O          0.000  0.001  0.000    0.000 -0.000 -0.000    0.000  0.000 -0.000
 C          0.000  0.000 -0.000    0.000  0.000 -0.000    0.000  0.000 -0.000
 C         -0.000 -0.000  0.000    0.000  0.000  0.000   -0.000  0.000 -0.000
 O         -0.000  0.000  0.000   -0.000 -0.000  0.000    0.000  0.000 -0.000
 O          0.000  0.001  0.000   -0.000 -0.000 -0.000   -0.000  0.000 -0.000
 C         -0.000  0.000 -0.000    0.001  0.001 -0.002   -0.001 -0.001  0.001
 O         -0.000 -0.000  0.000    0.001  0.001 -0.000   -0.010 -0.058  0.021
 O         -0.000 -0.000  0.000    0.016  0.018 -0.057   -0.000  0.000 -0.001
 H         -0.014  0.001  0.012   -0.000  0.000  0.000    0.000  0.000  0.000
 H         -0.000  0.002  0.000   -0.000 -0.000 -0.000   -0.000 -0.000 -0.000
 H          0.000 -0.000  0.000    0.000 -0.000  0.000   -0.000  0.000  0.000
 H          0.000  0.001  0.000   -0.000 -0.000  0.000   -0.000 -0.000  0.000
 H          0.000  0.000 -0.000    0.000 -0.001 -0.000   -0.001  0.001  0.000
 H         -0.005 -0.013 -0.006    0.000  0.001  0.001    0.000 -0.000  0.000
 H         -0.000 -0.000  0.000   -0.005 -0.001  0.014   -0.002  0.003 -0.002
 H          0.000  0.000 -0.000   -0.004 -0.017  0.006    0.171  0.921 -0.344
 H          0.000  0.000 -0.000   -0.264 -0.290  0.918   -0.005 -0.006  0.017
 O          0.018 -0.010 -0.058    0.000  0.000 -0.000    0.000  0.000  0.000
 H         -0.311  0.143  0.937   -0.000  0.000  0.000   -0.000 -0.000 -0.000
 O          0.000 -0.000 -0.000    0.000  0.000  0.000   -0.000  0.000 -0.000
 O          0.000 -0.000 -0.000    0.000  0.000  0.000   -0.000 -0.000  0.000
 TransDip  -0.043  0.129  0.462   -0.059 -0.125  0.344   -0.019  0.338 -0.116

 STANDARD THERMODYNAMIC QUANTITIES AT   298.15 K  AND     1.00 ATM

   This Molecule has  0 Imaginary Frequencies
   Zero point vibrational energy:      108.862 kcal/mol

   Atom    1 Element C  Has Mass   12.00000
   Atom    2 Element O  Has Mass   15.99491
   Atom    3 Element C  Has Mass   12.00000
   Atom    4 Element O  Has Mass   15.99491
   Atom    5 Element C  Has Mass   12.00000
   Atom    6 Element C  Has Mass   12.00000
   Atom    7 Element O  Has Mass   15.99491
   Atom    8 Element O  Has Mass   15.99491
   Atom    9 Element C  Has Mass   12.00000
   Atom   10 Element O  Has Mass   15.99491
   Atom   11 Element O  Has Mass   15.99491
   Atom   12 Element H  Has Mass    1.00783
   Atom   13 Element H  Has Mass    1.00783
   Atom   14 Element H  Has Mass    1.00783
   Atom   15 Element H  Has Mass    1.00783
   Atom   16 Element H  Has Mass    1.00783
   Atom   17 Element H  Has Mass    1.00783
   Atom   18 Element H  Has Mass    1.00783
   Atom   19 Element H  Has Mass    1.00783
   Atom   20 Element H  Has Mass    1.00783
   Atom   21 Element O  Has Mass   15.99491
   Atom   22 Element H  Has Mass    1.00783
   Atom   23 Element O  Has Mass   15.99491
   Atom   24 Element O  Has Mass   15.99491
   Molecular Mass:   214.032490 amu
   Principal axes and moments of inertia in amu*Bohr^2:
                             1           2           3
    Eigenvalues --     1520.29228  4286.49248  4466.63997
          X               0.41116     0.88064    -0.23541
          Y               0.84403    -0.46533    -0.26662
          Z               0.34434     0.08907     0.93461
   Rotational Symmetry Number is   1
   The Molecule is an Asymmetric Top
   Translational Enthalpy:        0.889 kcal/mol
   Rotational Enthalpy:           0.889 kcal/mol
   Vibrational Enthalpy:        116.188 kcal/mol
   gas constant (RT):             0.592 kcal/mol
   Translational Entropy:        41.986  cal/mol.K
   Rotational Entropy:           31.743  cal/mol.K
   Vibrational Entropy:          45.107  cal/mol.K

   Total Enthalpy:              118.558 kcal/mol
   Total Entropy:               118.836  cal/mol.K
 Total job time:  140583.38s(wall), 1251862.48s(cpu) 
 Sat Aug  3 11:40:42 2024

        *************************************************************
        *                                                           *
        *  Thank you very much for using Q-Chem.  Have a nice day.  *
        *                                                           *
        *************************************************************


