
Running Job 1 of 1 Q_in.in
qchem Q_in.in_111446.0 /scratch/ari.fischer/qChem2235438.hpc-mn1/qchem111446/ 0
/usr/local/qchem-5.4.1/exe/qcprog.exe_s Q_in.in_111446.0 /scratch/ari.fischer/qChem2235438.hpc-mn1/qchem111446/
                  Welcome to Q-Chem
     A Quantum Leap Into The Future Of Chemistry


 Q-Chem 5.4, Q-Chem, Inc., Pleasanton, CA (2021)

 License issued to: Nanyang Technological University (site)

 E. Epifanovsky,  A. T. B. Gilbert,  Xintian Feng,  Joonho Lee,  Yuezhi Mao,  
 N. Mardirossian,  P. Pokhilko,  A. White,  M. Wormit,  M. P. Coons,  
 A. L. Dempwolff,  Zhengting Gan,  D. Hait,  P. R. Horn,  L. D. Jacobson,  
 I. Kaliman,  J. Kussmann,  A. W. Lange,  Ka Un Lao,  D. S. Levine,  Jie Liu,  
 S. C. McKenzie,  A. F. Morrison,  K. Nanda,  F. Plasser,  D. R. Rehn,  
 M. L. Vidal,  Zhi-Qiang You,  Ying Zhu,  B. Alam,  B. Albrecht,  
 A. Aldossary,  E. Alguire,  J. H. Andersen,  D. Barton,  K. Begam,  A. Behn,  
 Y. A. Bernard,  E. J. Berquist,  H. Burton,  A. Carreras,  K. Carter-Fenk,  
 R. Chakraborty,  A. D. Chien,  K. D. Closser,  V. Cofer-Shabica,  
 S. Dasgupta,  Jia Deng,  M. de Wergifosse,  M. Diedenhofen,  Hainam Do,  
 S. Ehlert,  Po-Tung Fang,  S. Fatehi,  Qingguo Feng,  T. Friedhoff,  
 J. Gayvert,  Qinghui Ge,  G. Gidofalvi,  M. Goldey,  J. Gomes,  
 C. Gonzalez-Espinoza,  S. Gulania,  A. Gunina,  M. W. D. Hanson-Heine,  
 P. H. P. Harbach,  A. W. Hauser,  M. F. Herbst,  M. Hernandez Vera,  
 M. Hodecker,  Z. C. Holden,  S. Houck,  Xunkun Huang,  Kerwin Hui,  
 B. C. Huynh,  M. Ivanov,  Hyunjun Ji,  Hanjie Jiang,  B. Kaduk,  S. Kaehler,  
 K. Khistyaev,  Jaehoon Kim,  P. Klunzinger,  Z. Koczor-Benda,  
 Joong Hoon Koh,  D. Kosenkov,  L. Koulias,  T. Kowalczyk,  C. M. Krauter,  
 K. Kue,  A. Kunitsa,  T. Kus,  A. Landau,  K. V. Lawler,  D. Lefrancois,  
 S. Lehtola,  Rain Li,  Yi-Pei Li,  Jiashu Liang,  M. Liebenthal,  
 Hung-Hsuan Lin,  You-Sheng Lin,  Fenglai Liu,  Kuan-Yu Liu,  
 M. Loipersberger,  A. Luenser,  A. Manjanath,  P. Manohar,  E. Mansoor,  
 S. F. Manzer,  Shan-Ping Mao,  A. V. Marenich,  T. Markovich,  S. Mason,  
 S. A. Maurer,  P. F. McLaughlin,  M. F. S. J. Menger,  J.-M. Mewes,  
 S. A. Mewes,  P. Morgante,  J. W. Mullinax,  K. J. Oosterbaan,  G. Paran,  
 Alexander C. Paul,  Suranjan K. Paul,  F. Pavosevic,  Zheng Pei,  S. Prager,  
 E. I. Proynov,  E. Ramos,  B. Rana,  A. E. Rask,  A. Rettig,  R. M. Richard,  
 F. Rob,  E. Rossomme,  T. Scheele,  M. Scheurer,  M. Schneider,  
 N. Sergueev,  S. M. Sharada,  W. Skomorowski,  D. W. Small,  C. J. Stein,  
 Yu-Chuan Su,  E. J. Sundstrom,  Zhen Tao,  J. Thirman,  T. Tsuchimochi,  
 N. M. Tubman,  S. P. Veccham,  O. Vydrov,  J. Wenzel,  J. Witte,  A. Yamada,  
 Kun Yao,  S. Yeganeh,  S. R. Yost,  A. Zech,  Igor Ying Zhang,  Xing Zhang,  
 Yu Zhang,  D. Zuev,  A. Aspuru-Guzik,  A. T. Bell,  N. A. Besley,  
 K. B. Bravaya,  B. R. Brooks,  D. Casanova,  Jeng-Da Chai,  S. Coriani,  
 C. J. Cramer,  A. E. DePrince, III,  R. A. DiStasio Jr.,  A. Dreuw,  
 B. D. Dunietz,  T. R. Furlani,  W. A. Goddard III,  S. Grimme,  
 S. Hammes-Schiffer,  T. Head-Gordon,  W. J. Hehre,  Chao-Ping Hsu,  
 T.-C. Jagau,  Yousung Jung,  A. Klamt,  Jing Kong,  D. S. Lambrecht,  
 WanZhen Liang,  N. J. Mayhall,  C. W. McCurdy,  J. B. Neaton,  
 C. Ochsenfeld,  J. A. Parkhill,  R. Peverati,  V. A. Rassolov,  Yihan Shao,  
 L. V. Slipchenko,  T. Stauch,  R. P. Steele,  J. E. Subotnik,  
 A. J. W. Thom,  A. Tkatchenko,  D. G. Truhlar,  T. Van Voorhis,  
 T. A. Wesolowski,  K. B. Whaley,  H. L. Woodcock III,  P. M. Zimmerman,  
 S. Faraji,  P. M. W. Gill,  M. Head-Gordon,  J. M. Herbert,  A. I. Krylov

 Additional authors for Version 5.4.1: 
 S. Kotaru,  Shaozhi Li,  Xiangyuan Li,  F. Matz,  A. Molle,  Haisheng Ren,  
 Yingli Su,  Hung-Yi Tsai,  C. Utku,  Fang Wang

 Contributors to earlier versions of Q-Chem not listed above: 
 R. D. Adamson,  B. Austin,  R. Baer,  J. Baker,  G. J. O. Beran,  
 K. Brandhorst,  S. T. Brown,  E. F. C. Byrd,  A. K. Chakraborty,  
 G. K. L. Chan,  Chun-Min Chang,  Yunqing Chen,  C.-L. Cheng,  
 Siu Hung Chien,  D. M. Chipman,  D. L. Crittenden,  H. Dachsel,  
 R. J. Doerksen,  A. D. Dutoi,  R. G. Edgar,  J. Fosso-Tande,  
 L. Fusti-Molnar,  D. Ghosh,  A. Ghysels,  A. Golubeva-Zadorozhnaya,  
 J. Gonthier,  M. S. Gordon,  S. R. Gwaltney,  G. Hawkins,  J. E. Herr,  
 A. Heyden,  S. Hirata,  E. G. Hohenstein,  G. Kedziora,  F. J. Keil,  
 C. Kelley,  Jihan Kim,  R. A. King,  R. Z. Khaliullin,  P. P. Korambath,  
 W. Kurlancheek,  A. Laurent,  A. M. Lee,  M. S. Lee,  S. V. Levchenko,  
 Ching Yeh Lin,  D. Liotard,  E. Livshits,  R. C. Lochan,  I. Lotan,  
 L. A. Martinez-Martinez,  P. E. Maslen,  N. Nair,  D. P. O'Neill,  
 D. Neuhauser,  E. Neuscamman,  C. M. Oana,  R. Olivares-Amaya,  R. Olson,  
 T. M. Perrine,  B. Peters,  P. A. Pieniazek,  A. Prociuk,  Y. M. Rhee,  
 J. Ritchie,  M. A. Rohrdanz,  E. Rosta,  N. J. Russ,  H. F. Schaefer III,  
 M. W. Schmidt,  N. E. Schultz,  S. Sharma,  N. Shenvi,  C. D. Sherrill,  
 A. C. Simmonett,  A. Sodt,  T. Stein,  D. Stuck,  K. S. Thanthiriwatte,  
 V. Vanovschi,  L. Vogt,  Tao Wang,  A. Warshel,  M. A. Watson,  
 C. F. Williams,  Q. Wu,  X. Xu,  Jun Yang,  W. Zhang,  Yan Zhao

 Please cite Q-Chem as follows:
 Y. Shao et al., Mol. Phys. 113, 184-215 (2015)
 DOI: 10.1080/00268976.2014.952696

 Q-Chem 5.4.1 for Intel X86 EM64T Linux

 Parts of Q-Chem use Armadillo 9.800.1 (Horizon Scraper).
 http://arma.sourceforge.net/

 Q-Chem begins on Sat Jul 13 19:05:41 2024  

 Host: 
0

     Scratch files written to /scratch/ari.fischer/qChem2235438.hpc-mn1/qchem111446//
 Aug1521 |scratch|qcdevops|jenkins|workspace|build_RNUM 8249   
 Processing $rem in /usr/local/qchem-5.4.1/config/preferences:
 Processing $rem in /home/ari.fischer/.qchemrc:
 Symmetry turned off for PCM/SM12/SMD calculation

 Checking the input file for inconsistencies... 	...done.

--------------------------------------------------------------
User input:
--------------------------------------------------------------
$molecule
-1 2
C         2.6100661323   -1.2247868463   -0.8973383093
O         1.5698992717   -0.4101798202   -1.4026618774
C         3.2890053585   -0.4950902489    0.2812202655
O         2.5415713866   -0.6060755271    1.3707465420
C         3.7738374506    0.9090198967   -0.0914812659
C         4.8253412171    1.4898873455    0.8482606637
O         4.5682577516    1.2479168854    2.2376842514
O         3.1966300112    1.5766639311    2.5396993252
C         5.0935164046    2.9779815336    0.6122170372
O         3.8708343645    3.6836485370    0.6398248748
O         5.9891379143    3.4580584150    1.5891874177
H         3.2864781770   -1.4178216595   -1.7314906315
H         1.0488119146   -0.1366678597   -0.6254243327
H         2.8907186127    1.5515858864   -0.1181318953
H         4.2011418291    0.9066136830   -1.1002104568
H         5.7828590927    0.9775645189    0.7044249310
H         2.7724703256    0.7164836365    2.1960586532
H         5.5938699619    3.1155347595   -0.3529718228
H         4.0789996413    4.6052180813    0.4130843855
H         5.6670729809    3.0885999799    2.4330113328
O         2.1206295763   -2.4497390263   -0.4112206091
H         1.9155232696   -2.2300203581    0.5267855537
O         4.5693780712   -1.3429681966    0.5653476843
O         5.4220505843   -1.3355492475   -0.4296936172
$end

$rem
BASIS = 6-311++G(2df,2p)
GUI = 2
JOB_TYPE = Optimization
METHOD = wB97M-V
SCF_ALGORITHM = DIIS_GDM
MAX_SCF_CYCLES = 400
GEOM_OPT_MAX_CYCLES = 150
SCF_CONVERGENCE = 7
THRESH = 12
Solvent_method = SMD
$end
--------------------------------------------------------------
 ----------------------------------------------------------------
             Standard Nuclear Orientation (Angstroms)
    I     Atom           X                Y                Z
 ----------------------------------------------------------------
    1      C       2.6100661323    -1.2247868463    -0.8973383093
    2      O       1.5698992717    -0.4101798202    -1.4026618774
    3      C       3.2890053585    -0.4950902489     0.2812202655
    4      O       2.5415713866    -0.6060755271     1.3707465420
    5      C       3.7738374506     0.9090198967    -0.0914812659
    6      C       4.8253412171     1.4898873455     0.8482606637
    7      O       4.5682577516     1.2479168854     2.2376842514
    8      O       3.1966300112     1.5766639311     2.5396993252
    9      C       5.0935164046     2.9779815336     0.6122170372
   10      O       3.8708343645     3.6836485370     0.6398248748
   11      O       5.9891379143     3.4580584150     1.5891874177
   12      H       3.2864781770    -1.4178216595    -1.7314906315
   13      H       1.0488119146    -0.1366678597    -0.6254243327
   14      H       2.8907186127     1.5515858864    -0.1181318953
   15      H       4.2011418291     0.9066136830    -1.1002104568
   16      H       5.7828590927     0.9775645189     0.7044249310
   17      H       2.7724703256     0.7164836365     2.1960586532
   18      H       5.5938699619     3.1155347595    -0.3529718228
   19      H       4.0789996413     4.6052180813     0.4130843855
   20      H       5.6670729809     3.0885999799     2.4330113328
   21      O       2.1206295763    -2.4497390263    -0.4112206091
   22      H       1.9155232696    -2.2300203581     0.5267855537
   23      O       4.5693780712    -1.3429681966     0.5653476843
   24      O       5.4220505843    -1.3355492475    -0.4296936172
 ----------------------------------------------------------------
 Nuclear Repulsion Energy =        1071.22593721 hartrees
 There are       57 alpha and       56 beta electrons
 Requested basis set is 6-311++G(2df,2p)
 There are 172 shells and 576 basis functions

 Total QAlloc Memory Limit 288000 MB
 Mega-Array Size       188 MB
 MEM_STATIC part       192 MB
 
 Citation of the SMD model:
 Marenich, A.V.; Cramer, C.J.; Truhlar, D.G.
 J. Phys. Chem. B 2009, 113, 6378-6396.
 iSolventCode=           1
 Solvent: water                                                           
 
 vradii
            1           2           3           4           5           6
    1   1.8500000   1.5200000   1.8500000   1.5200000   1.8500000   1.8500000
            7           8           9          10          11          12
    1   1.5200000   1.5200000   1.8500000   1.5200000   1.5200000   1.2000000
           13          14          15          16          17          18
    1   1.2000000   1.2000000   1.2000000   1.2000000   1.2000000   1.2000000
           19          20          21          22          23          24
    1   1.2000000   1.2000000   1.5200000   1.2000000   1.5200000   1.5200000
 Changing PCM_VDW_RADII to SMD_RADIUS
 Discretize the solute cavity surface with Lebedev spheres
	Using 110 Lebedev grid points for each H atom
	Using 194 Lebedev grid points for other atoms
	Atomic van der Waals radii will be scaled by 1.20
 Remove points where switching function is < 1.0e-08
 Keep 1816 surface tesserae and discard 2000 interior tesserae
 Molecular Surface Area = 200.149 Angst**2
 A cutoff of  1.0D-12 yielded  12319 shell pairs
 There are    135324 function pairs (    168016 Cartesian)
 Smallest overlap matrix eigenvalue = 2.15E-06

 Scale SEOQF with 1.000000e-02/1.000000e-01/1.000000e-01

 Standard Electronic Orientation quadrupole field applied
 Nucleus-field energy     =     0.0000000195 hartrees
 Guess from superposition of atomic densities
 Warning:  Energy on first SCF cycle will be non-variational
 SAD guess density has 112.000000 electrons

 -----------------------------------------------------------------------
  General SCF calculation program by
  Eric Jon Sundstrom, Paul Horn, Yuezhi Mao, Dmitri Zuev, Alec White,
  David Stuck, Shaama M.S., Shane Yost, Joonho Lee, David Small,
  Daniel Levine, Susi Lehtola, Hugh Burton, Evgeny Epifanovsky,
  Bang C. Huynh
 -----------------------------------------------------------------------
 Exchange:     0.1500 Hartree-Fock + 1.0000 wB97M-V + LR-HF
 Correlation:  1.0000 wB97M-V
 Using SG-2 standard quadrature grid
 Nonlocal Correlation:  VV10 with C = 0.0100 and b = 6.00 and scale = 1.00000
 Grid used for NLC:  SG-1 standard quadrature
 
 Citation of the SMD model:
 Marenich, A.V.; Cramer, C.J.; Truhlar, D.G.
 J. Phys. Chem. B 2009, 113, 6378-6396.
 iSolventCode=           1
 Solvent: water                                                           
 
 vradii
            1           2           3           4           5           6
    1   1.8500000   1.5200000   1.8500000   1.5200000   1.8500000   1.8500000
            7           8           9          10          11          12
    1   1.5200000   1.5200000   1.8500000   1.5200000   1.5200000   1.2000000
           13          14          15          16          17          18
    1   1.2000000   1.2000000   1.2000000   1.2000000   1.2000000   1.2000000
           19          20          21          22          23          24
    1   1.2000000   1.2000000   1.5200000   1.2000000   1.5200000   1.5200000
 using 32 threads for integral computing
 -------------------------------------------------------
 OpenMP Integral computing Module                
 Release: version 1.0, May 2013, Q-Chem Inc. Pittsburgh 
 -------------------------------------------------------
 -------------------------------------------------------
 OpenMP BLAS3 based DFT computing Module                
 Release: version 1.0, May 2013, Q-Chem Inc. Pittsburgh 
 -------------------------------------------------------
 A unrestricted SCF calculation will be
 performed using DIIS, GDM
 SCF converges when RMS gradient is below 1.0e-07
 ---------------------------------------
  Cycle       Energy         DIIS error
 ---------------------------------------
    1    -875.9534040197      1.01e-02  
    2    -873.2932358795      1.49e-03  Done DIIS. Switching to GDM
 ---------------------------------------
  Cycle       Energy        RMS Gradient
 ---------------------------------------
    1    -873.2932358795      1.01e-01   Descent step
    2    -873.5210280586      3.77e-02   Descent step
    3    -873.5660659002      2.48e-02   Normal BFGS step
    4    -873.5813642409      1.47e-02   Normal BFGS step
    5    -873.5826265964      8.43e-03   Normal BFGS step
    6    -873.5828893808      3.08e-03   Normal BFGS step
    7    -873.5830263870      2.56e-03   Normal BFGS step
    8    -873.5830626258      1.43e-03   Normal BFGS step
    9    -873.5830776982      1.17e-03   Normal BFGS step
   10    -873.5830853789      8.84e-04   Normal BFGS step
   11    -873.5830910212      7.09e-04   Normal BFGS step
   12    -873.5830947569      6.13e-04   Normal BFGS step
   13    -873.5830971157      3.26e-04   Normal BFGS step
   14    -873.5830978822      1.32e-04   Normal BFGS step
   15    -873.5830980504      6.12e-05   Normal BFGS step
   16    -873.5830980916      1.41e-05   Normal BFGS step
   17    -873.5830980959      6.73e-06   Normal BFGS step
   18    -873.5830980972      2.29e-06   Normal BFGS step
   19    -873.5830980972      1.46e-06   Normal BFGS step
   20    -873.5830980972      7.86e-07   Normal BFGS step
   21    -873.5830980973      2.39e-07   Normal BFGS step
   22    -873.5830980973      5.06e-08  Convergence criterion met
 ---------------------------------------
 SCF time:   CPU 7120.55s  wall 318.00s 
<S^2> =          0.754311200
(3)  G-ENP(liq) elect-nuc-pol free energy of system     -873.583098097 a.u.
(4)  G-CDS(liq) cavity-dispersion-solvent structure 
     free energy                                                3.2083 kcal/mol
(6)  G-S(liq) free energy of system                     -873.577985391 a.u.
 SCF   energy in the final basis set =     -873.5779853912
 Total energy in the final basis set =     -873.5779853912
 
 --------------------------------------------------------------
 
                    Orbital Energies (a.u.)
 --------------------------------------------------------------
 
 Alpha MOs
 -- Occupied --
-19.4381 -19.4018 -19.3931 -19.3646 -19.3424 -19.3423 -19.3417 -19.3361
-19.2807 -10.4426 -10.4413 -10.4354 -10.3988 -10.3393  -1.3154  -1.2485
 -1.1998  -1.1955  -1.1302  -1.1298  -1.1124  -1.0278  -0.9635  -0.8968
 -0.8336  -0.7900  -0.7266  -0.6927  -0.6813  -0.6510  -0.6350  -0.6261
 -0.6126  -0.6036  -0.5969  -0.5813  -0.5730  -0.5547  -0.5523  -0.5440
 -0.5356  -0.5143  -0.4863  -0.4826  -0.4616  -0.4522  -0.4488  -0.4311
 -0.4291  -0.4133  -0.4105  -0.4070  -0.3985  -0.3841  -0.3703  -0.3549
 -0.3460
 -- Virtual --
  0.0278   0.0383   0.0430   0.0468   0.0596   0.0622   0.0695   0.0732
  0.0825   0.0967   0.0991   0.1115   0.1153   0.1226   0.1371   0.1412
  0.1445   0.1509   0.1550   0.1585   0.1615   0.1687   0.1722   0.1753
  0.1815   0.1869   0.1904   0.1952   0.2044   0.2110   0.2133   0.2250
  0.2326   0.2437   0.2453   0.2606   0.2635   0.2674   0.2707   0.2788
  0.2841   0.2876   0.2935   0.2948   0.2985   0.3023   0.3037   0.3163
  0.3212   0.3282   0.3292   0.3341   0.3390   0.3425   0.3460   0.3511
  0.3633   0.3644   0.3669   0.3708   0.3770   0.3789   0.3821   0.3853
  0.3893   0.3931   0.4019   0.4072   0.4112   0.4158   0.4207   0.4232
  0.4291   0.4320   0.4379   0.4477   0.4565   0.4575   0.4664   0.4699
  0.4828   0.4865   0.4944   0.5091   0.5218   0.5251   0.5395   0.5566
  0.5643   0.5857   0.5957   0.6153   0.6224   0.6292   0.6398   0.6472
  0.6628   0.6685   0.6696   0.6791   0.6952   0.7009   0.7109   0.7166
  0.7315   0.7364   0.7427   0.7610   0.7725   0.7820   0.7912   0.7985
  0.8078   0.8125   0.8248   0.8421   0.8451   0.8644   0.8842   0.8946
  0.9269   0.9381   0.9429   0.9606   0.9727   0.9992   1.0092   1.0263
  1.0498   1.0532   1.0686   1.0807   1.0892   1.0912   1.0938   1.1144
  1.1383   1.1455   1.1521   1.1621   1.1683   1.1718   1.1759   1.1892
  1.1992   1.2005   1.2096   1.2158   1.2270   1.2285   1.2340   1.2425
  1.2491   1.2563   1.2647   1.2717   1.2786   1.2907   1.2958   1.3004
  1.3137   1.3162   1.3195   1.3303   1.3554   1.3570   1.3604   1.3695
  1.3820   1.3982   1.4019   1.4133   1.4229   1.4335   1.4467   1.4633
  1.4695   1.4738   1.4858   1.4976   1.5041   1.5168   1.5199   1.5290
  1.5381   1.5565   1.5665   1.5681   1.5854   1.5887   1.6249   1.6280
  1.6379   1.6487   1.6695   1.6820   1.6930   1.6992   1.7075   1.7159
  1.7227   1.7371   1.7552   1.7609   1.7786   1.7891   1.8073   1.8223
  1.8267   1.8491   1.8724   1.8793   1.9048   1.9206   1.9416   1.9551
  1.9827   1.9885   2.0044   2.0160   2.0396   2.0499   2.0744   2.0960
  2.1007   2.1442   2.1790   2.2087   2.2112   2.2274   2.2523   2.2605
  2.2736   2.2986   2.3190   2.3275   2.3552   2.3786   2.3941   2.4059
  2.4130   2.4433   2.4473   2.4545   2.4744   2.4841   2.5080   2.5344
  2.5622   2.5785   2.6281   2.6392   2.6506   2.6788   2.7247   2.7431
  2.7717   2.7819   2.8128   2.8477   2.8498   2.8770   2.8947   2.9234
  2.9451   2.9522   2.9926   3.0199   3.0540   3.0747   3.0960   3.1302
  3.1413   3.1589   3.2157   3.2301   3.2316   3.2619   3.2913   3.2996
  3.3277   3.3312   3.3604   3.4046   3.4091   3.4348   3.4449   3.4579
  3.4805   3.4931   3.5046   3.5162   3.5470   3.5626   3.5843   3.6096
  3.6306   3.6483   3.6574   3.6647   3.6973   3.7020   3.7072   3.7208
  3.7445   3.7611   3.7797   3.7870   3.7991   3.8269   3.8360   3.8514
  3.8638   3.8671   3.8804   3.8923   3.8975   3.9098   3.9128   3.9183
  3.9399   3.9458   3.9667   3.9766   4.0023   4.0291   4.0527   4.0713
  4.1194   4.1308   4.1360   4.1588   4.1802   4.1807   4.1985   4.2233
  4.2471   4.2653   4.2748   4.2822   4.2875   4.3002   4.3283   4.3346
  4.3482   4.3635   4.3939   4.4030   4.4142   4.4405   4.4488   4.4781
  4.4878   4.5094   4.5584   4.5893   4.6108   4.6182   4.6370   4.6656
  4.6946   4.7115   4.7362   4.7654   4.7827   4.8260   4.8519   4.8989
  4.9291   4.9495   4.9979   5.0143   5.0877   5.1090   5.1260   5.1330
  5.1696   5.1850   5.2114   5.2161   5.2251   5.2468   5.2589   5.2634
  5.2794   5.2895   5.2980   5.3023   5.3147   5.3242   5.3322   5.3413
  5.3499   5.3569   5.3620   5.3705   5.3717   5.3796   5.3872   5.4164
  5.4232   5.4317   5.4335   5.4554   5.4785   5.4873   5.4936   5.4984
  5.5279   5.5311   5.5415   5.5509   5.5522   5.5664   5.5739   5.5793
  5.6113   5.6160   5.6314   5.6397   5.6579   5.6668   5.6970   5.7092
  5.7152   5.7251   5.7672   5.7730   5.8027   5.8202   5.8263   5.8538
  5.8750   5.9318   5.9761   5.9960   6.0230   6.0499   6.0655   6.0900
  6.1407   6.1673   6.2380   6.2678   6.3487   6.4610   6.5506   6.5657
  6.5882   6.6849   6.7333   6.7446   6.8297   6.9064   6.9215   6.9753
  6.9850   7.0231   7.0556   7.0719   7.0927   7.0973   7.1220   7.1375
  7.1418   7.1739   7.1923   7.2020   7.2360   7.2450   7.2511   7.2773
  7.2806   7.3080   7.3342   7.3468   7.3723   7.3819   7.4047   7.4282
  7.4494   7.4708   7.4918   7.5028   7.5294   7.5404   7.5591   7.5900
  7.5972   7.6133   7.6492   7.6819   7.6882   7.7414   7.8013   7.8284
  7.8542   7.8819   7.9024   7.9120   7.9408   7.9963   8.0833   8.1391
  8.2370  24.6288  24.7720  24.7923  24.8164  24.8827  50.4503  50.5435
 50.5946  50.6152  50.6196  50.6259  50.6492  50.6737  50.7990
 
 Beta MOs
 -- Occupied --
-19.4267 -19.3930 -19.3839 -19.3646 -19.3424 -19.3423 -19.3417 -19.3360
-19.2808 -10.4430 -10.4413 -10.4352 -10.3988 -10.3392  -1.2885  -1.2483
 -1.1992  -1.1955  -1.1301  -1.1295  -1.1111  -1.0275  -0.9303  -0.8940
 -0.8309  -0.7892  -0.7258  -0.6888  -0.6799  -0.6432  -0.6334  -0.6235
 -0.6020  -0.5943  -0.5869  -0.5730  -0.5698  -0.5512  -0.5430  -0.5355
 -0.5199  -0.4991  -0.4816  -0.4774  -0.4602  -0.4510  -0.4478  -0.4307
 -0.4271  -0.4080  -0.4067  -0.4050  -0.3956  -0.3725  -0.3483  -0.3435
 -- Virtual --
 -0.0194   0.0279   0.0383   0.0431   0.0470   0.0602   0.0625   0.0695
  0.0734   0.0825   0.0973   0.0994   0.1122   0.1156   0.1233   0.1375
  0.1416   0.1450   0.1511   0.1552   0.1599   0.1618   0.1696   0.1729
  0.1759   0.1824   0.1885   0.1917   0.1956   0.2050   0.2115   0.2136
  0.2273   0.2337   0.2450   0.2465   0.2622   0.2649   0.2689   0.2717
  0.2805   0.2873   0.2902   0.2941   0.2952   0.2990   0.3041   0.3053
  0.3167   0.3223   0.3295   0.3297   0.3345   0.3396   0.3446   0.3467
  0.3523   0.3640   0.3653   0.3677   0.3714   0.3775   0.3792   0.3830
  0.3860   0.3899   0.3935   0.4032   0.4080   0.4115   0.4162   0.4221
  0.4239   0.4299   0.4325   0.4382   0.4489   0.4567   0.4583   0.4667
  0.4708   0.4835   0.4868   0.4952   0.5099   0.5220   0.5258   0.5402
  0.5568   0.5647   0.5863   0.5959   0.6153   0.6228   0.6296   0.6409
  0.6476   0.6634   0.6689   0.6697   0.6793   0.6956   0.7011   0.7111
  0.7170   0.7316   0.7367   0.7429   0.7617   0.7730   0.7822   0.7919
  0.7987   0.8085   0.8129   0.8250   0.8425   0.8456   0.8651   0.8854
  0.8950   0.9274   0.9382   0.9437   0.9628   0.9729   0.9999   1.0110
  1.0268   1.0503   1.0544   1.0702   1.0809   1.0902   1.0923   1.0950
  1.1149   1.1409   1.1469   1.1531   1.1628   1.1708   1.1728   1.1783
  1.1913   1.2008   1.2049   1.2119   1.2178   1.2290   1.2321   1.2353
  1.2447   1.2529   1.2607   1.2668   1.2748   1.2814   1.2924   1.2985
  1.3058   1.3142   1.3196   1.3230   1.3309   1.3563   1.3601   1.3633
  1.3705   1.3910   1.3998   1.4023   1.4141   1.4241   1.4345   1.4472
  1.4641   1.4718   1.4775   1.4867   1.5041   1.5055   1.5171   1.5229
  1.5322   1.5421   1.5582   1.5671   1.5695   1.5865   1.5895   1.6259
  1.6293   1.6404   1.6497   1.6725   1.6878   1.6951   1.7021   1.7131
  1.7199   1.7243   1.7475   1.7587   1.7664   1.7813   1.7990   1.8080
  1.8254   1.8341   1.8503   1.8758   1.8808   1.9078   1.9239   1.9436
  1.9578   1.9841   1.9889   2.0059   2.0177   2.0428   2.0526   2.0760
  2.0970   2.1015   2.1494   2.1803   2.2117   2.2145   2.2304   2.2585
  2.2701   2.2799   2.3012   2.3210   2.3309   2.3565   2.3795   2.3946
  2.4063   2.4154   2.4443   2.4475   2.4574   2.4776   2.4859   2.5084
  2.5348   2.5628   2.5792   2.6290   2.6410   2.6516   2.6799   2.7285
  2.7459   2.7736   2.7822   2.8138   2.8481   2.8502   2.8774   2.8952
  2.9243   2.9452   2.9527   2.9932   3.0203   3.0541   3.0749   3.0963
  3.1305   3.1420   3.1592   3.2164   3.2303   3.2321   3.2622   3.2920
  3.3008   3.3280   3.3313   3.3612   3.4049   3.4092   3.4348   3.4453
  3.4582   3.4807   3.4935   3.5049   3.5163   3.5472   3.5631   3.5844
  3.6096   3.6310   3.6486   3.6576   3.6649   3.6978   3.7021   3.7075
  3.7214   3.7447   3.7612   3.7798   3.7873   3.7995   3.8278   3.8365
  3.8517   3.8641   3.8671   3.8806   3.8931   3.8977   3.9100   3.9130
  3.9184   3.9400   3.9461   3.9669   3.9769   4.0027   4.0293   4.0529
  4.0715   4.1196   4.1315   4.1362   4.1591   4.1804   4.1810   4.1985
  4.2234   4.2474   4.2656   4.2751   4.2826   4.2877   4.3006   4.3288
  4.3349   4.3482   4.3637   4.3943   4.4034   4.4149   4.4410   4.4491
  4.4787   4.4885   4.5106   4.5592   4.5917   4.6116   4.6208   4.6530
  4.6763   4.6967   4.7137   4.7369   4.7808   4.7900   4.8267   4.8685
  4.9074   4.9314   4.9530   5.0112   5.0205   5.0880   5.1324   5.1619
  5.1746   5.1858   5.2086   5.2223   5.2281   5.2479   5.2550   5.2646
  5.2801   5.2938   5.2990   5.3059   5.3094   5.3263   5.3285   5.3401
  5.3438   5.3552   5.3602   5.3636   5.3723   5.3766   5.3906   5.3971
  5.4253   5.4279   5.4339   5.4390   5.4616   5.4805   5.4915   5.4957
  5.5017   5.5300   5.5320   5.5465   5.5525   5.5575   5.5681   5.5761
  5.5862   5.6117   5.6172   5.6327   5.6404   5.6587   5.6670   5.6985
  5.7127   5.7183   5.7343   5.7718   5.7812   5.8053   5.8239   5.8293
  5.8547   5.8776   5.9323   5.9780   5.9963   6.0236   6.0503   6.0657
  6.0935   6.1408   6.1688   6.2381   6.2685   6.3571   6.5055   6.5514
  6.5699   6.5966   6.6853   6.7334   6.7454   6.8304   6.9772   6.9803
  7.0014   7.0033   7.0441   7.0681   7.0778   7.0951   7.1018   7.1316
  7.1386   7.1646   7.1935   7.1979   7.2065   7.2387   7.2475   7.2530
  7.2807   7.2911   7.3108   7.3352   7.3590   7.3792   7.3891   7.4180
  7.4394   7.4530   7.4879   7.5028   7.5112   7.5336   7.5478   7.5612
  7.5912   7.6011   7.6150   7.6495   7.6820   7.6891   7.7429   7.8027
  7.8291   7.8557   7.8876   7.9028   7.9125   7.9443   7.9969   8.0985
  8.1552   8.2377  24.6289  24.7720  24.7924  24.8164  24.8826  50.4622
 50.5441  50.5972  50.6178  50.6208  50.6265  50.6493  50.6768  50.7989
 --------------------------------------------------------------
 
          Ground-State Mulliken Net Atomic Charges

     Atom                 Charge (a.u.)    Spin (a.u.)
  --------------------------------------------------------
      1 C                    -0.184792       0.003177
      2 O                    -0.421683       0.000421
      3 C                     0.457353       0.014628
      4 O                    -0.792178      -0.003811
      5 C                    -1.227266      -0.008165
      6 C                     0.496188       0.010886
      7 O                    -0.146912       0.002599
      8 O                    -0.431233       0.000029
      9 C                    -0.367505      -0.003977
     10 O                    -0.452267      -0.000018
     11 O                    -0.443415      -0.000126
     12 H                     0.294429      -0.000618
     13 H                     0.333455       0.000061
     14 H                     0.306113      -0.000607
     15 H                     0.297769       0.001019
     16 H                     0.295882      -0.002629
     17 H                     0.406939      -0.000031
     18 H                     0.256814      -0.000049
     19 H                     0.350792      -0.000076
     20 H                     0.338466       0.000017
     21 O                    -0.449633       0.002712
     22 H                     0.343450      -0.000904
     23 O                     0.002107       0.347110
     24 O                    -0.262872       0.638352
  --------------------------------------------------------
  Sum of atomic charges =    -1.000000
  Sum of spin   charges =     1.000000

 -----------------------------------------------------------------
                    Cartesian Multipole Moments
 -----------------------------------------------------------------
    Charge (ESU x 10^10)
                -4.8032
    Dipole Moment (Debye)
         X     -16.4515      Y       3.8043      Z      -5.9281
       Tot      17.8960
    Quadrupole Moments (Debye-Ang)
        XX    -153.6824     XY      11.0837     YY    -100.2900
        XZ     -27.6797     YZ     -12.9557     ZZ    -105.2547
    Octopole Moments (Debye-Ang^2)
       XXX   -1321.8911    XXY     -17.7508    XYY    -379.8459
       YYY     -89.5509    XXZ    -162.9471    XYZ     -49.0709
       YYZ     -71.3543    XZZ    -379.3041    YZZ     -62.5020
       ZZZ    -163.4605
    Hexadecapole Moments (Debye-Ang^3)
      XXXX  -10388.4004   XXXY    -887.5879   XXYY   -2069.5024
      XYYY    -748.9082   YYYY   -1935.9885   XXXZ   -1186.1670
      XXYZ    -359.2891   XYYZ    -371.7953   YYYZ    -477.8242
      XXZZ   -1707.9279   XYZZ    -339.6757   YYZZ    -535.1389
      XZZZ    -753.1929   YZZZ    -364.8707   ZZZZ    -963.1693
 -----------------------------------------------------------------
 Calculating analytic gradient of the SCF energy
 Gradient of CDS energy
            1           2           3           4           5           6
    1  -0.0016585   0.0006648  -0.0014206   0.0015460  -0.0000582  -0.0000371
    2  -0.0025513  -0.0003805  -0.0002249   0.0001435   0.0000331   0.0000341
    3   0.0002760   0.0003715   0.0021291  -0.0020341  -0.0000315   0.0000301
            7           8           9          10          11          12
    1  -0.0000981   0.0002172   0.0006310   0.0009228  -0.0013424   0.0002363
    2  -0.0000258   0.0001261   0.0013202  -0.0007306  -0.0007379   0.0000906
    3  -0.0000859  -0.0000752   0.0011214   0.0001700  -0.0014451  -0.0000111
           13          14          15          16          17          18
    1  -0.0004689  -0.0000495   0.0001295   0.0001014  -0.0002636   0.0000864
    2   0.0001613   0.0000788  -0.0000820  -0.0001630  -0.0000350  -0.0000526
    3  -0.0000531   0.0000620  -0.0001159   0.0000511   0.0002198  -0.0001441
           19          20          21          22          23          24
    1  -0.0002599   0.0001657   0.0011041  -0.0002064   0.0000389   0.0000192
    2   0.0004412   0.0001152   0.0027357  -0.0003300   0.0000321   0.0000017
    3  -0.0000780   0.0004480  -0.0010185   0.0002348  -0.0000493   0.0000281
 Gradient of SCF Energy
            1           2           3           4           5           6
    1   0.0100323  -0.0144850   0.0170880   0.0056166  -0.0252851   0.0415289
    2   0.0045889   0.0078344  -0.0467505  -0.0025443   0.0595338  -0.0139267
    3  -0.0257028  -0.0018782   0.0239891   0.0123773  -0.0421650   0.0202936
            7           8           9          10          11          12
    1   0.0069014  -0.0240088   0.0114045  -0.0177061   0.0075083  -0.0213192
    2  -0.0141695  -0.0088528  -0.0005021  -0.0033938  -0.0000848   0.0084120
    3   0.0002798  -0.0091017  -0.0283535   0.0050909   0.0159446   0.0212405
           13          14          15          16          17          18
    1   0.0082504   0.0196808  -0.0077835  -0.0235093   0.0083528  -0.0081267
    2  -0.0045877  -0.0160740   0.0035781   0.0136577   0.0172576  -0.0018021
    3  -0.0081886  -0.0052228   0.0202462   0.0044708   0.0026671   0.0133692
           19          20          21          22          23          24
    1   0.0071367   0.0002189  -0.0031937   0.0031346   0.0006865  -0.0021231
    2  -0.0011899   0.0037085  -0.0092288   0.0019727   0.0028616  -0.0002983
    3  -0.0021658  -0.0154067   0.0172911  -0.0219559   0.0038798  -0.0009990
 Max gradient component =       5.953E-02
 RMS gradient           =       1.670E-02
 Computing fast CPCM-SWIG gradient
 Updating gradient with PCM contributions...
 -- total gradient after adding PCM contribution --
---------------------------------------------------
  Atom         X              Y              Z     
---------------------------------------------------
   1      -0.003597      -0.000156       0.005682
   2       0.002333       0.001133      -0.009074
   3       0.000142      -0.000855      -0.000139
   4      -0.003047      -0.002039      -0.000451
   5       0.000449      -0.001698       0.001251
   6      -0.002068       0.002082      -0.000646
   7       0.004023      -0.002775       0.001402
   8      -0.002510       0.007557       0.001319
   9      -0.000994       0.003288       0.004441
  10      -0.005347      -0.008986       0.001943
  11       0.005736       0.003367      -0.005965
  12       0.001593      -0.000534      -0.002693
  13      -0.001486       0.000212       0.007349
  14      -0.002433       0.002335      -0.000149
  15       0.001332       0.000129      -0.002998
  16       0.002577      -0.001683      -0.000380
  17      -0.000089      -0.003771      -0.001362
  18       0.002181       0.000393      -0.002557
  19       0.003152       0.006100      -0.001290
  20      -0.004446      -0.003911       0.004152
  21       0.001589      -0.004981      -0.006567
  22       0.000022       0.004637       0.005903
  23      -0.004095      -0.000812       0.008155
  24       0.004985       0.000968      -0.007326
---------------------------------------------------
 Number of fixed atoms: 0
 Gradient time:  CPU 880.75 s  wall 49.45 s
 Geometry Optimization Parameters
   NAtoms,    NIC,     NZ,  NCons,   NDum,   NFix, NCnnct, MaxDiis
       24     163       0       0       0       0       0       0


** GEOMETRY OPTIMIZATION IN DELOCALIZED INTERNAL COORDINATES **
   Searching for a Minimum

   Optimization Cycle:   1

                       Coordinates (Angstroms)
     ATOM                X               Y               Z
      1  C         2.6100661323   -1.2247868463   -0.8973383093
      2  O         1.5698992717   -0.4101798202   -1.4026618774
      3  C         3.2890053585   -0.4950902489    0.2812202655
      4  O         2.5415713866   -0.6060755271    1.3707465420
      5  C         3.7738374506    0.9090198967   -0.0914812659
      6  C         4.8253412171    1.4898873455    0.8482606637
      7  O         4.5682577516    1.2479168854    2.2376842514
      8  O         3.1966300112    1.5766639311    2.5396993252
      9  C         5.0935164046    2.9779815336    0.6122170372
     10  O         3.8708343645    3.6836485370    0.6398248748
     11  O         5.9891379143    3.4580584150    1.5891874177
     12  H         3.2864781770   -1.4178216595   -1.7314906315
     13  H         1.0488119146   -0.1366678597   -0.6254243327
     14  H         2.8907186127    1.5515858864   -0.1181318953
     15  H         4.2011418291    0.9066136830   -1.1002104568
     16  H         5.7828590927    0.9775645189    0.7044249310
     17  H         2.7724703256    0.7164836365    2.1960586532
     18  H         5.5938699619    3.1155347595   -0.3529718228
     19  H         4.0789996413    4.6052180813    0.4130843855
     20  H         5.6670729809    3.0885999799    2.4330113328
     21  O         2.1206295763   -2.4497390263   -0.4112206091
     22  H         1.9155232696   -2.2300203581    0.5267855537
     23  O         4.5693780712   -1.3429681966    0.5653476843
     24  O         5.4220505843   -1.3355492475   -0.4296936172
   Point Group: c1    Number of degrees of freedom:    66


   Energy is   -873.577985391


 Attempting to generate delocalized internal coordinates
 Initial Hessian constructed with Jon Baker's OPTIMIZE code

 66 Hessian modes will be used to form the next step
  Hessian Eigenvalues:
     0.002000    0.003424    0.003492    0.005012    0.005160    0.005848
     0.011204    0.013724    0.014061    0.014370    0.014874    0.035184
     0.038225    0.047809    0.047920    0.049370    0.054917    0.058090
     0.060998    0.063510    0.068848    0.077057    0.087206    0.093409
     0.093901    0.108722    0.124600    0.160000    0.160000    0.160000
     0.160000    0.160000    0.177411    0.181515    0.182131    0.186457
     0.204498    0.204877    0.205975    0.207190    0.219671    0.250000
     0.250000    0.266780    0.282105    0.292853    0.293885    0.298728
     0.341464    0.341842    0.341907    0.345283    0.346802    0.392518
     0.404798    0.432955    0.436919    0.440597    0.445335    0.446674
     0.504282    0.522012    0.523872    0.530485    0.604817    0.643792

 Minimum search - taking simple RFO step
 Searching for Lamda that Minimizes Along All modes
 Value Taken    Lamda =  -0.00292478
 Step Taken.  Stepsize is  0.259069

                             Maximum     Tolerance    Cnvgd?
         Gradient           0.008469      0.000300      NO
         Displacement       0.106076      0.001200      NO
         Energy change     *********      0.000001      NO


 New Cartesian Coordinates Obtained by Inverse Iteration

 Displacement from previous Coordinates is:  0.637799
 ----------------------------------------------------------------
             Standard Nuclear Orientation (Angstroms)
    I     Atom           X                Y                Z
 ----------------------------------------------------------------
    1      C       2.6040537996    -1.2063751037    -0.8718457448
    2      O       1.5780109227    -0.3858574558    -1.3936602355
    3      C       3.3046402142    -0.4755222716     0.2952215244
    4      O       2.5828757893    -0.5521031386     1.4032469823
    5      C       3.7995513479     0.9150119600    -0.0930615691
    6      C       4.8306812512     1.5047387846     0.8558617512
    7      O       4.5649993584     1.2394392211     2.2382200258
    8      O       3.1649288130     1.4009749231     2.5234606042
    9      C       5.0857316945     2.9936646794     0.6129276912
   10      O       3.8677524413     3.7068197007     0.6196296504
   11      O       5.9728363683     3.4995880706     1.5857016328
   12      H       3.2772807384    -1.4185413313    -1.6976710753
   13      H       1.0366732920    -0.0803573222    -0.6513598044
   14      H       2.9190275219     1.5518759838    -0.1321679757
   15      H       4.2327687542     0.9023353645    -1.0936988357
   16      H       5.7940870715     1.0118649631     0.7195437328
   17      H       2.8235668075     0.5417363567     2.1060131471
   18      H       5.5848982691     3.1217737388    -0.3484231493
   19      H       4.0622649854     4.6186725126     0.3711978108
   20      H       5.6773193158     3.1615098197     2.4446608475
   21      O       2.0859349487    -2.4205707257    -0.3868150098
   22      H       1.8570782341    -2.2294481342     0.5446692616
   23      O       4.5701192539    -1.3443894385     0.5738428050
   24      O       5.4010201074    -1.4009628575    -0.4285659674
 ----------------------------------------------------------------
 Nuclear Repulsion Energy =        1073.44083123 hartrees
 There are       57 alpha and       56 beta electrons
 Discretize the solute cavity surface with Lebedev spheres
	Using 110 Lebedev grid points for each H atom
	Using 194 Lebedev grid points for other atoms
	Atomic van der Waals radii will be scaled by 1.20
 Remove points where switching function is < 1.0e-08
 Keep 1817 surface tesserae and discard 1999 interior tesserae
 Molecular Surface Area = 200.414 Angst**2
 Applying Cartesian multipole field
    Component          Value
    ---------          -----
     (2,0,0)        1.00000E-12
     (0,2,0)        2.00000E-11
     (0,0,2)       -3.00000E-11
 Nucleus-field energy     =     0.0000000196 hartrees
 Requested basis set is 6-311++G(2df,2p)
 There are 172 shells and 576 basis functions
 A cutoff of  1.0D-12 yielded  12314 shell pairs
 There are    135187 function pairs (    167799 Cartesian)
 Smallest overlap matrix eigenvalue = 2.24E-06
 Guess MOs from SCF MO coefficient file

 -----------------------------------------------------------------------
  General SCF calculation program by
  Eric Jon Sundstrom, Paul Horn, Yuezhi Mao, Dmitri Zuev, Alec White,
  David Stuck, Shaama M.S., Shane Yost, Joonho Lee, David Small,
  Daniel Levine, Susi Lehtola, Hugh Burton, Evgeny Epifanovsky,
  Bang C. Huynh
 -----------------------------------------------------------------------
 Exchange:     0.1500 Hartree-Fock + 1.0000 wB97M-V + LR-HF
 Correlation:  1.0000 wB97M-V
 Using SG-2 standard quadrature grid
 Nonlocal Correlation:  VV10 with C = 0.0100 and b = 6.00 and scale = 1.00000
 Grid used for NLC:  SG-1 standard quadrature
 
 Citation of the SMD model:
 Marenich, A.V.; Cramer, C.J.; Truhlar, D.G.
 J. Phys. Chem. B 2009, 113, 6378-6396.
 iSolventCode=           1
 Solvent: water                                                           
 
 vradii
            1           2           3           4           5           6
    1   1.8500000   1.5200000   1.8500000   1.5200000   1.8500000   1.8500000
            7           8           9          10          11          12
    1   1.5200000   1.5200000   1.8500000   1.5200000   1.5200000   1.2000000
           13          14          15          16          17          18
    1   1.2000000   1.2000000   1.2000000   1.2000000   1.2000000   1.2000000
           19          20          21          22          23          24
    1   1.2000000   1.2000000   1.5200000   1.2000000   1.5200000   1.5200000
 -------------------------------------------------------
 OpenMP BLAS3 based DFT computing Module                
 Release: version 1.0, May 2013, Q-Chem Inc. Pittsburgh 
 -------------------------------------------------------
 A unrestricted SCF calculation will be
 performed using Roothaan-Hall, DIIS, GDM
 SCF converges when RMS gradient is below 1.0e-07
 ---------------------------------------
  Cycle       Energy         DIIS error
 ---------------------------------------
    1    -873.4386582663      3.35e-04  Roothaan Step
 ---------------------------------------
  Cycle       Energy         DIIS error
 ---------------------------------------
    1    -873.5664270035      2.11e-04  
    2    -873.5755992102      1.67e-04  Done DIIS. Switching to GDM
 ---------------------------------------
  Cycle       Energy        RMS Gradient
 ---------------------------------------
    1    -873.5755992102      1.33e-02   Normal BFGS step
    2    -873.5754770422      2.03e-02  Line search: overstep
    3    -873.5786717192      4.31e-03   Normal BFGS step
    4    -873.5789980814      2.43e-03   Normal BFGS step
    5    -873.5790772366      1.48e-03   Normal BFGS step
    6    -873.5790990363      3.54e-04   Normal BFGS step
    7    -873.5791008941      2.42e-04   Normal BFGS step
    8    -873.5791016935      1.82e-04   Normal BFGS step
    9    -873.5791019140      1.76e-04   Normal BFGS step
   10    -873.5791020379      1.57e-04   Normal BFGS step
   11    -873.5791021057      1.24e-04   Normal BFGS step
   12    -873.5791021648      7.41e-05   Normal BFGS step
   13    -873.5791022096      2.95e-05   Normal BFGS step
   14    -873.5791022210      1.25e-05   Normal BFGS step
   15    -873.5791022239      6.51e-06   Normal BFGS step
   16    -873.5791022246      4.25e-06   Normal BFGS step
   17    -873.5791022248      2.10e-06   Normal BFGS step
   18    -873.5791022248      7.38e-07   Normal BFGS step
   19    -873.5791022248      2.35e-07   Normal BFGS step
   20    -873.5791022248      9.54e-08  Convergence criterion met
 ---------------------------------------
 SCF time:   CPU 6881.66s  wall 310.00s 
<S^2> =          0.754285493
(3)  G-ENP(liq) elect-nuc-pol free energy of system     -873.579102225 a.u.
(4)  G-CDS(liq) cavity-dispersion-solvent structure 
     free energy                                                3.1852 kcal/mol
(6)  G-S(liq) free energy of system                     -873.574026339 a.u.
 SCF   energy in the final basis set =     -873.5740263387
 Total energy in the final basis set =     -873.5740263387
 
 --------------------------------------------------------------
 
                    Orbital Energies (a.u.)
 --------------------------------------------------------------
 
 Alpha MOs
 -- Occupied --
-19.4396 -19.4021 -19.3861 -19.3430 -19.3422 -19.3415 -19.3410 -19.3383
-19.2842 -10.4456 -10.4409 -10.4379 -10.3970 -10.3389  -1.3209  -1.2425
 -1.2009  -1.1955  -1.1333  -1.1302  -1.1233  -1.0209  -0.9643  -0.8975
 -0.8382  -0.7942  -0.7326  -0.6933  -0.6817  -0.6538  -0.6386  -0.6310
 -0.6181  -0.6070  -0.5935  -0.5809  -0.5759  -0.5573  -0.5550  -0.5418
 -0.5337  -0.5107  -0.4868  -0.4810  -0.4636  -0.4535  -0.4483  -0.4340
 -0.4293  -0.4173  -0.4104  -0.4062  -0.3967  -0.3824  -0.3616  -0.3561
 -0.3452
 -- Virtual --
  0.0278   0.0384   0.0432   0.0467   0.0594   0.0623   0.0702   0.0731
  0.0838   0.0977   0.0995   0.1115   0.1158   0.1238   0.1375   0.1418
  0.1439   0.1524   0.1577   0.1588   0.1618   0.1690   0.1727   0.1758
  0.1815   0.1866   0.1911   0.1946   0.2047   0.2118   0.2140   0.2258
  0.2321   0.2453   0.2469   0.2598   0.2629   0.2680   0.2717   0.2790
  0.2846   0.2858   0.2918   0.2966   0.2985   0.3043   0.3063   0.3175
  0.3203   0.3275   0.3326   0.3353   0.3409   0.3438   0.3479   0.3535
  0.3622   0.3646   0.3681   0.3728   0.3760   0.3821   0.3825   0.3859
  0.3932   0.3976   0.4015   0.4068   0.4125   0.4196   0.4222   0.4270
  0.4303   0.4343   0.4436   0.4492   0.4563   0.4596   0.4692   0.4702
  0.4834   0.4952   0.5024   0.5082   0.5181   0.5288   0.5356   0.5594
  0.5656   0.5941   0.6000   0.6166   0.6230   0.6296   0.6382   0.6532
  0.6644   0.6699   0.6723   0.6810   0.6966   0.7035   0.7123   0.7189
  0.7322   0.7405   0.7468   0.7597   0.7688   0.7872   0.7955   0.7975
  0.8068   0.8124   0.8225   0.8406   0.8472   0.8744   0.8892   0.8939
  0.9266   0.9333   0.9358   0.9678   0.9802   0.9956   1.0046   1.0258
  1.0502   1.0576   1.0669   1.0793   1.0837   1.0955   1.0989   1.1188
  1.1360   1.1470   1.1478   1.1629   1.1667   1.1705   1.1773   1.1868
  1.1977   1.1994   1.2083   1.2148   1.2196   1.2288   1.2326   1.2428
  1.2477   1.2540   1.2692   1.2728   1.2809   1.2924   1.2953   1.3028
  1.3116   1.3207   1.3276   1.3320   1.3492   1.3524   1.3579   1.3725
  1.3788   1.4022   1.4068   1.4123   1.4177   1.4393   1.4568   1.4627
  1.4679   1.4740   1.4840   1.5014   1.5073   1.5191   1.5267   1.5396
  1.5468   1.5531   1.5672   1.5822   1.5903   1.6079   1.6335   1.6393
  1.6458   1.6538   1.6766   1.6851   1.6899   1.7057   1.7154   1.7190
  1.7269   1.7424   1.7583   1.7709   1.7915   1.8067   1.8167   1.8236
  1.8339   1.8520   1.8691   1.8798   1.9189   1.9293   1.9469   1.9594
  1.9856   1.9964   2.0028   2.0079   2.0494   2.0589   2.0855   2.1096
  2.1356   2.1705   2.1886   2.2097   2.2296   2.2517   2.2579   2.2668
  2.2718   2.2924   2.3227   2.3527   2.3603   2.3880   2.3925   2.4090
  2.4155   2.4411   2.4451   2.4572   2.4722   2.4893   2.5049   2.5367
  2.5601   2.5914   2.6351   2.6384   2.6697   2.7178   2.7357   2.7535
  2.7810   2.8033   2.8326   2.8541   2.8544   2.8728   2.8983   2.9269
  2.9481   2.9740   3.0088   3.0191   3.0305   3.0734   3.0996   3.1295
  3.1543   3.1563   3.2090   3.2355   3.2438   3.2666   3.2892   3.2969
  3.3247   3.3323   3.3566   3.4059   3.4143   3.4376   3.4476   3.4578
  3.4809   3.4974   3.5078   3.5275   3.5502   3.5650   3.5858   3.6177
  3.6347   3.6475   3.6615   3.6682   3.6969   3.6998   3.7127   3.7186
  3.7458   3.7605   3.7762   3.7884   3.7999   3.8227   3.8368   3.8494
  3.8623   3.8655   3.8817   3.8864   3.8890   3.9104   3.9196   3.9279
  3.9387   3.9499   3.9698   3.9723   4.0035   4.0310   4.0549   4.0734
  4.1168   4.1235   4.1404   4.1628   4.1740   4.1754   4.2056   4.2303
  4.2353   4.2496   4.2778   4.2903   4.2946   4.3005   4.3406   4.3504
  4.3601   4.3682   4.3886   4.4091   4.4231   4.4351   4.4448   4.4881
  4.5034   4.5124   4.5689   4.5952   4.6102   4.6249   4.6465   4.6658
  4.6985   4.7230   4.7475   4.7667   4.7898   4.8474   4.8579   4.9156
  4.9259   4.9723   5.0064   5.0227   5.0907   5.1078   5.1191   5.1305
  5.1689   5.1816   5.2063   5.2080   5.2218   5.2444   5.2619   5.2703
  5.2712   5.2836   5.2985   5.3070   5.3083   5.3186   5.3224   5.3390
  5.3466   5.3596   5.3617   5.3679   5.3750   5.3802   5.4079   5.4180
  5.4201   5.4331   5.4390   5.4694   5.4846   5.4907   5.5056   5.5280
  5.5382   5.5456   5.5564   5.5606   5.5677   5.5764   5.5840   5.6237
  5.6303   5.6425   5.6507   5.6714   5.6800   5.6873   5.7007   5.7116
  5.7194   5.7385   5.7762   5.7890   5.7937   5.8229   5.8374   5.8617
  5.8896   5.9483   5.9879   6.0130   6.0397   6.0715   6.0927   6.1383
  6.1552   6.1637   6.2669   6.3019   6.3505   6.4875   6.5545   6.5722
  6.6103   6.6939   6.7357   6.7481   6.8615   6.9069   6.9181   6.9786
  6.9882   7.0352   7.0746   7.0917   7.0965   7.1220   7.1387   7.1440
  7.1806   7.1923   7.2181   7.2563   7.2714   7.2742   7.2803   7.2876
  7.3117   7.3286   7.3420   7.3642   7.3742   7.3852   7.4077   7.4440
  7.4602   7.4748   7.5034   7.5265   7.5443   7.5539   7.5650   7.6011
  7.6238   7.6481   7.6720   7.6877   7.7070   7.7974   7.8168   7.8273
  7.8705   7.8940   7.9070   7.9347   8.0215   8.0907   8.1167   8.1676
  8.2555  24.6416  24.7885  24.8060  24.8223  24.8919  50.4537  50.5729
 50.5995  50.6159  50.6229  50.6309  50.6480  50.6782  50.8187
 
 Beta MOs
 -- Occupied --
-19.4282 -19.3861 -19.3842 -19.3430 -19.3422 -19.3415 -19.3410 -19.3383
-19.2843 -10.4459 -10.4409 -10.4377 -10.3970 -10.3387  -1.2940  -1.2423
 -1.2004  -1.1955  -1.1326  -1.1302  -1.1226  -1.0201  -0.9318  -0.8947
 -0.8351  -0.7935  -0.7315  -0.6896  -0.6801  -0.6466  -0.6368  -0.6280
 -0.6098  -0.5924  -0.5857  -0.5732  -0.5715  -0.5543  -0.5413  -0.5334
 -0.5187  -0.4991  -0.4809  -0.4781  -0.4624  -0.4523  -0.4473  -0.4326
 -0.4287  -0.4129  -0.4061  -0.4049  -0.3925  -0.3641  -0.3458  -0.3453
 -- Virtual --
 -0.0185   0.0279   0.0384   0.0433   0.0469   0.0600   0.0626   0.0703
  0.0734   0.0838   0.0983   0.0998   0.1122   0.1160   0.1244   0.1379
  0.1420   0.1445   0.1526   0.1582   0.1600   0.1619   0.1698   0.1736
  0.1763   0.1825   0.1881   0.1925   0.1948   0.2052   0.2123   0.2142
  0.2278   0.2328   0.2468   0.2475   0.2614   0.2645   0.2692   0.2730
  0.2808   0.2861   0.2896   0.2932   0.2968   0.2993   0.3058   0.3078
  0.3179   0.3213   0.3290   0.3330   0.3357   0.3421   0.3455   0.3485
  0.3544   0.3636   0.3650   0.3693   0.3732   0.3765   0.3827   0.3832
  0.3866   0.3937   0.3981   0.4027   0.4077   0.4130   0.4207   0.4229
  0.4276   0.4312   0.4349   0.4438   0.4503   0.4572   0.4601   0.4696
  0.4710   0.4837   0.4960   0.5031   0.5086   0.5183   0.5293   0.5365
  0.5599   0.5658   0.5947   0.6002   0.6166   0.6233   0.6299   0.6394
  0.6536   0.6647   0.6700   0.6727   0.6811   0.6970   0.7037   0.7126
  0.7193   0.7323   0.7407   0.7469   0.7603   0.7694   0.7875   0.7961
  0.7978   0.8070   0.8131   0.8227   0.8411   0.8476   0.8750   0.8901
  0.8946   0.9271   0.9339   0.9359   0.9701   0.9808   0.9964   1.0063
  1.0262   1.0507   1.0591   1.0681   1.0795   1.0850   1.0962   1.1002
  1.1194   1.1387   1.1477   1.1500   1.1634   1.1694   1.1719   1.1781
  1.1889   1.1997   1.2043   1.2099   1.2173   1.2212   1.2322   1.2353
  1.2446   1.2535   1.2551   1.2716   1.2758   1.2825   1.2952   1.3011
  1.3055   1.3156   1.3230   1.3294   1.3335   1.3513   1.3541   1.3608
  1.3741   1.3869   1.4029   1.4075   1.4136   1.4186   1.4401   1.4573
  1.4644   1.4685   1.4775   1.4854   1.5024   1.5156   1.5199   1.5281
  1.5431   1.5478   1.5579   1.5681   1.5837   1.5913   1.6087   1.6344
  1.6407   1.6467   1.6565   1.6824   1.6915   1.6918   1.7087   1.7188
  1.7218   1.7366   1.7465   1.7605   1.7760   1.7971   1.8102   1.8211
  1.8328   1.8355   1.8536   1.8734   1.8814   1.9213   1.9310   1.9492
  1.9629   1.9873   1.9966   2.0037   2.0090   2.0516   2.0616   2.0871
  2.1115   2.1396   2.1728   2.1897   2.2145   2.2313   2.2550   2.2641
  2.2748   2.2790   2.2950   2.3270   2.3538   2.3615   2.3891   2.3931
  2.4101   2.4173   2.4413   2.4478   2.4582   2.4737   2.4922   2.5060
  2.5371   2.5608   2.5917   2.6367   2.6391   2.6706   2.7229   2.7385
  2.7539   2.7826   2.8042   2.8329   2.8544   2.8550   2.8733   2.8988
  2.9275   2.9482   2.9744   3.0093   3.0196   3.0306   3.0736   3.0999
  3.1300   3.1548   3.1566   3.2096   3.2357   3.2445   3.2671   3.2903
  3.2975   3.3249   3.3325   3.3574   3.4060   3.4145   3.4378   3.4478
  3.4582   3.4810   3.4977   3.5081   3.5276   3.5504   3.5655   3.5860
  3.6178   3.6351   3.6478   3.6617   3.6684   3.6974   3.7000   3.7132
  3.7189   3.7460   3.7607   3.7763   3.7887   3.8004   3.8238   3.8370
  3.8496   3.8625   3.8655   3.8819   3.8868   3.8893   3.9109   3.9197
  3.9280   3.9388   3.9502   3.9701   3.9725   4.0038   4.0312   4.0551
  4.0736   4.1172   4.1236   4.1409   4.1631   4.1742   4.1755   4.2057
  4.2306   4.2354   4.2500   4.2780   4.2904   4.2950   4.3011   4.3408
  4.3510   4.3603   4.3685   4.3891   4.4093   4.4235   4.4355   4.4455
  4.4886   4.5048   4.5133   4.5701   4.5965   4.6164   4.6255   4.6600
  4.6765   4.7002   4.7253   4.7500   4.7797   4.7984   4.8479   4.8746
  4.9241   4.9291   4.9766   5.0192   5.0266   5.0911   5.1339   5.1600
  5.1681   5.1822   5.2012   5.2207   5.2253   5.2457   5.2482   5.2683
  5.2751   5.2869   5.2983   5.3048   5.3110   5.3177   5.3216   5.3379
  5.3410   5.3545   5.3613   5.3694   5.3746   5.3830   5.3881   5.4131
  5.4225   5.4282   5.4387   5.4410   5.4738   5.4866   5.4940   5.5085
  5.5360   5.5398   5.5471   5.5581   5.5652   5.5726   5.5810   5.5867
  5.6247   5.6315   5.6442   5.6511   5.6716   5.6811   5.6889   5.7030
  5.7133   5.7220   5.7425   5.7833   5.7943   5.8018   5.8260   5.8409
  5.8625   5.8921   5.9488   5.9893   6.0133   6.0410   6.0719   6.0954
  6.1383   6.1561   6.1644   6.2671   6.3025   6.3589   6.5307   6.5550
  6.5764   6.6210   6.6943   6.7358   6.7489   6.8629   6.9775   6.9823
  6.9986   7.0099   7.0675   7.0776   7.0950   7.1016   7.1295   7.1435
  7.1668   7.1915   7.2066   7.2250   7.2608   7.2717   7.2761   7.2836
  7.2882   7.3228   7.3332   7.3458   7.3697   7.3761   7.4002   7.4269
  7.4460   7.4665   7.4922   7.5123   7.5384   7.5448   7.5590   7.5681
  7.6054   7.6248   7.6483   7.6728   7.6877   7.7077   7.7993   7.8170
  7.8303   7.8716   7.8963   7.9071   7.9393   8.0217   8.1056   8.1234
  8.1786   8.2559  24.6417  24.7885  24.8061  24.8223  24.8918  50.4656
 50.5737  50.6037  50.6174  50.6233  50.6312  50.6481  50.6817  50.8187
 --------------------------------------------------------------
 
          Ground-State Mulliken Net Atomic Charges

     Atom                 Charge (a.u.)    Spin (a.u.)
  --------------------------------------------------------
      1 C                    -0.169043       0.004468
      2 O                    -0.421843       0.000431
      3 C                     0.443893       0.011789
      4 O                    -0.800508      -0.003311
      5 C                    -1.134792      -0.007092
      6 C                     0.424712       0.010207
      7 O                    -0.175535       0.003255
      8 O                    -0.509693      -0.000276
      9 C                    -0.383005      -0.003554
     10 O                    -0.453122      -0.000047
     11 O                    -0.448601      -0.000121
     12 H                     0.303400      -0.000680
     13 H                     0.333399       0.000048
     14 H                     0.306742      -0.000683
     15 H                     0.294366       0.001011
     16 H                     0.292515      -0.002567
     17 H                     0.498422       0.000012
     18 H                     0.261415      -0.000072
     19 H                     0.348428      -0.000062
     20 H                     0.339985       0.000024
     21 O                    -0.447804       0.002270
     22 H                     0.350653      -0.000860
     23 O                     0.014730       0.348344
     24 O                    -0.268716       0.637467
  --------------------------------------------------------
  Sum of atomic charges =    -1.000000
  Sum of spin   charges =     1.000000

 -----------------------------------------------------------------
                    Cartesian Multipole Moments
 -----------------------------------------------------------------
    Charge (ESU x 10^10)
                -4.8032
    Dipole Moment (Debye)
         X     -16.6480      Y       3.1542      Z      -6.6542
       Tot      18.2039
    Quadrupole Moments (Debye-Ang)
        XX    -153.9926     XY       9.8033     YY     -99.4888
        XZ     -29.7091     YZ     -13.9812     ZZ    -107.0377
    Octopole Moments (Debye-Ang^2)
       XXX   -1318.9102    XXY     -19.5371    XYY    -378.4099
       YYY     -92.0599    XXZ    -168.8861    XYZ     -50.5688
       YYZ     -71.8595    XZZ    -384.1021    YZZ     -64.1560
       ZZZ    -170.6738
    Hexadecapole Moments (Debye-Ang^3)
      XXXX  -10342.0680   XXXY    -882.2139   XXYY   -2067.0990
      XYYY    -754.8541   YYYY   -1930.0400   XXXZ   -1200.5331
      XXYZ    -353.9582   XYYZ    -369.7026   YYYZ    -468.7863
      XXZZ   -1716.7311   XYZZ    -338.1326   YYZZ    -527.6596
      XZZZ    -770.6054   YZZZ    -356.7582   ZZZZ    -976.9800
 -----------------------------------------------------------------
 Calculating analytic gradient of the SCF energy
 Gradient of CDS energy
            1           2           3           4           5           6
    1  -0.0017661   0.0007838  -0.0013383   0.0014655  -0.0000591  -0.0000419
    2  -0.0022532  -0.0004885  -0.0001562   0.0000728   0.0000333   0.0000364
    3   0.0001477   0.0004492   0.0021113  -0.0020259  -0.0000317   0.0000331
            7           8           9          10          11          12
    1  -0.0000974   0.0002164   0.0003607   0.0010487  -0.0011972   0.0002347
    2  -0.0000546   0.0001679   0.0013440  -0.0008018  -0.0006990   0.0000788
    3  -0.0000893  -0.0000461   0.0009643   0.0001684  -0.0012875  -0.0000041
           13          14          15          16          17          18
    1  -0.0004733  -0.0000503   0.0001323   0.0001070  -0.0002375   0.0000753
    2   0.0001719   0.0000740  -0.0000800  -0.0001607  -0.0000519  -0.0000538
    3  -0.0000676   0.0000668  -0.0001131   0.0000484   0.0002009  -0.0001429
           19          20          21          22          23          24
    1  -0.0002610   0.0001545   0.0011030  -0.0002200   0.0000374   0.0000229
    2   0.0004394   0.0001274   0.0025600  -0.0003374   0.0000277   0.0000036
    3  -0.0000913   0.0004573  -0.0009588   0.0002349  -0.0000520   0.0000282
 Gradient of SCF Energy
            1           2           3           4           5           6
    1   0.0154888  -0.0173118   0.0195229   0.0127816  -0.0262102   0.0406409
    2  -0.0000433   0.0082060  -0.0413844   0.0259116   0.0601996  -0.0135901
    3  -0.0320624   0.0034101   0.0281153   0.0297016  -0.0446837   0.0195531
            7           8           9          10          11          12
    1   0.0076989  -0.0382114   0.0126792  -0.0135687   0.0034018  -0.0225850
    2  -0.0127752  -0.0472708  -0.0041100   0.0047333  -0.0014074   0.0096841
    3   0.0001227  -0.0240286  -0.0334521   0.0032130   0.0227144   0.0227474
           13          14          15          16          17          18
    1   0.0094799   0.0222315  -0.0088791  -0.0268194   0.0156152  -0.0106905
    2  -0.0055597  -0.0187720   0.0037858   0.0143732   0.0247310  -0.0017936
    3  -0.0120112  -0.0046191   0.0224062   0.0048113  -0.0003210   0.0160092
           19          20          21          22          23          24
    1   0.0047696   0.0043210  -0.0049438   0.0025912   0.0036866  -0.0056891
    2  -0.0065571   0.0069396  -0.0072935   0.0000427   0.0023869  -0.0004367
    3  -0.0007522  -0.0194382   0.0192484  -0.0233598  -0.0007747   0.0034502
 Max gradient component =       6.020E-02
 RMS gradient           =       1.969E-02
 Computing fast CPCM-SWIG gradient
 Updating gradient with PCM contributions...
 -- total gradient after adding PCM contribution --
---------------------------------------------------
  Atom         X              Y              Z     
---------------------------------------------------
   1       0.002702      -0.001681      -0.000762
   2      -0.000932       0.000667      -0.001323
   3      -0.001987       0.002693       0.004763
   4       0.005250       0.022528       0.012362
   5       0.000577      -0.000904       0.000628
   6      -0.001157       0.000630      -0.002998
   7       0.001554      -0.001272       0.000486
   8      -0.014300      -0.037099      -0.017292
   9       0.000070       0.000097      -0.000237
  10       0.000237       0.000514      -0.001260
  11       0.000853       0.001180      -0.000664
  12      -0.000057       0.000001      -0.000529
  13      -0.000657       0.000337       0.001133
  14       0.000245      -0.000107       0.000424
  15       0.000102       0.000591      -0.000204
  16      -0.000304      -0.000093       0.001122
  17       0.008009       0.012575       0.003052
  18      -0.000307       0.000283      -0.000121
  19       0.000204       0.000893       0.000079
  20      -0.000216      -0.000445       0.001401
  21      -0.000522      -0.002372      -0.004003
  22      -0.000504       0.001772       0.003911
  23      -0.000624      -0.000201       0.002594
  24       0.001763      -0.000586      -0.002560
---------------------------------------------------
 Number of fixed atoms: 0
 Gradient time:  CPU 877.60 s  wall 49.64 s
 Geometry Optimization Parameters
   NAtoms,    NIC,     NZ,  NCons,   NDum,   NFix, NCnnct, MaxDiis
       24     163       0       0       0       0       0       0

 Cartesian Hessian Update
 Hessian updated using BFGS update


** GEOMETRY OPTIMIZATION IN DELOCALIZED INTERNAL COORDINATES **
   Searching for a Minimum

   Optimization Cycle:   2

                       Coordinates (Angstroms)
     ATOM                X               Y               Z
      1  C         2.6040537996   -1.2063751037   -0.8718457448
      2  O         1.5780109227   -0.3858574558   -1.3936602355
      3  C         3.3046402142   -0.4755222716    0.2952215244
      4  O         2.5828757893   -0.5521031386    1.4032469823
      5  C         3.7995513479    0.9150119600   -0.0930615691
      6  C         4.8306812512    1.5047387846    0.8558617512
      7  O         4.5649993584    1.2394392211    2.2382200258
      8  O         3.1649288130    1.4009749231    2.5234606042
      9  C         5.0857316945    2.9936646794    0.6129276912
     10  O         3.8677524413    3.7068197007    0.6196296504
     11  O         5.9728363683    3.4995880706    1.5857016328
     12  H         3.2772807384   -1.4185413313   -1.6976710753
     13  H         1.0366732920   -0.0803573222   -0.6513598044
     14  H         2.9190275219    1.5518759838   -0.1321679757
     15  H         4.2327687542    0.9023353645   -1.0936988357
     16  H         5.7940870715    1.0118649631    0.7195437328
     17  H         2.8235668075    0.5417363567    2.1060131471
     18  H         5.5848982691    3.1217737388   -0.3484231493
     19  H         4.0622649854    4.6186725126    0.3711978108
     20  H         5.6773193158    3.1615098197    2.4446608475
     21  O         2.0859349487   -2.4205707257   -0.3868150098
     22  H         1.8570782341   -2.2294481342    0.5446692616
     23  O         4.5701192539   -1.3443894385    0.5738428050
     24  O         5.4010201074   -1.4009628575   -0.4285659674
   Point Group: c1    Number of degrees of freedom:    66


   Energy is   -873.574026339

 Hessian updated using BFGS update

 63 Hessian modes will be used to form the next step
  Hessian Eigenvalues:
     0.001995    0.003403    0.003486    0.004855    0.005158    0.006304
     0.013699    0.013835    0.014370    0.014757    0.023854    0.032327
     0.044557    0.046439    0.048293    0.050193    0.054918    0.058408
     0.061133    0.062534    0.071310    0.075204    0.081436    0.087878
     0.093779    0.094580    0.113650    0.125854    0.160114    0.177248
     0.181417    0.185164    0.197856    0.204581    0.205240    0.206579
     0.207162    0.240481    0.249130    0.266634    0.281354    0.284540
     0.293818    0.296135    0.328384    0.341604    0.341876    0.344297
     0.346315    0.389108    0.403459    0.432473    0.435166    0.437036
     0.440724    0.446645    0.474772    0.511245    0.522919    0.528381
     0.602930    0.629524    1.272864

 Minimum search - taking simple RFO step
 Searching for Lamda that Minimizes Along All modes
 Value Taken    Lamda =  -0.01749833
 Calculated Step too Large.  Step scaled by  0.953792
 Step Taken.  Stepsize is  0.300000

                             Maximum     Tolerance    Cnvgd?
         Gradient           0.076185      0.000300      NO
         Displacement       0.114340      0.001200      NO
         Energy change      0.003959      0.000001      NO


 New Cartesian Coordinates Obtained by Inverse Iteration

 Displacement from previous Coordinates is:  1.170734
 ----------------------------------------------------------------
             Standard Nuclear Orientation (Angstroms)
    I     Atom           X                Y                Z
 ----------------------------------------------------------------
    1      C       2.6234475427    -1.1880249740    -0.9142317701
    2      O       1.5914016632    -0.3725224996    -1.4256612070
    3      C       3.3004570941    -0.5124976330     0.3024688313
    4      O       2.5973421931    -0.6541189342     1.4115456748
    5      C       3.7683241853     0.8978472560    -0.0198226078
    6      C       4.8021790716     1.4980469943     0.9136493317
    7      O       4.5835290387     1.2806010006     2.3117064785
    8      O       3.2353978200     1.5111790501     2.7226776601
    9      C       5.0769016071     2.9670601187     0.5931654457
   10      O       3.8959473456     3.7375248066     0.5768475091
   11      O       5.9993215284     3.5235185930     1.5056400140
   12      H       3.3190648101    -1.3343229224    -1.7221662925
   13      H       0.9838079417    -0.0916802854    -0.7467415342
   14      H       2.8846836455     1.5125671452    -0.0417483305
   15      H       4.1883556176     0.9107425326    -1.0143389554
   16      H       5.7514527464     1.0033847191     0.7648858506
   17      H       2.7788339528     0.6858606194     2.3671349254
   18      H       5.5433166599     3.0233452366    -0.3792434755
   19      H       4.0866985055     4.6131155238     0.2609194969
   20      H       5.7773794616     3.2916669128     2.4047735673
   21      O       2.1071321728    -2.4437471866    -0.5433715423
   22      H       1.8112975890    -2.4021378363     0.3713431265
   23      O       4.5663049490    -1.3871243313     0.5365136125
   24      O       5.4055241584    -1.4144056066    -0.4390177091
 ----------------------------------------------------------------
 Nuclear Repulsion Energy =        1062.69641150 hartrees
 There are       57 alpha and       56 beta electrons
 Discretize the solute cavity surface with Lebedev spheres
	Using 110 Lebedev grid points for each H atom
	Using 194 Lebedev grid points for other atoms
	Atomic van der Waals radii will be scaled by 1.20
 Remove points where switching function is < 1.0e-08
 Keep 1853 surface tesserae and discard 1963 interior tesserae
 Molecular Surface Area = 203.627 Angst**2
 Applying Cartesian multipole field
    Component          Value
    ---------          -----
     (2,0,0)        1.00000E-12
     (0,2,0)        2.00000E-11
     (0,0,2)       -3.00000E-11
 Nucleus-field energy     =     0.0000000190 hartrees
 Requested basis set is 6-311++G(2df,2p)
 There are 172 shells and 576 basis functions
 A cutoff of  1.0D-12 yielded  12243 shell pairs
 There are    134382 function pairs (    166818 Cartesian)
 Smallest overlap matrix eigenvalue = 2.08E-06
 Guess MOs from SCF MO coefficient file

 -----------------------------------------------------------------------
  General SCF calculation program by
  Eric Jon Sundstrom, Paul Horn, Yuezhi Mao, Dmitri Zuev, Alec White,
  David Stuck, Shaama M.S., Shane Yost, Joonho Lee, David Small,
  Daniel Levine, Susi Lehtola, Hugh Burton, Evgeny Epifanovsky,
  Bang C. Huynh
 -----------------------------------------------------------------------
 Exchange:     0.1500 Hartree-Fock + 1.0000 wB97M-V + LR-HF
 Correlation:  1.0000 wB97M-V
 Using SG-2 standard quadrature grid
 Nonlocal Correlation:  VV10 with C = 0.0100 and b = 6.00 and scale = 1.00000
 Grid used for NLC:  SG-1 standard quadrature
 
 Citation of the SMD model:
 Marenich, A.V.; Cramer, C.J.; Truhlar, D.G.
 J. Phys. Chem. B 2009, 113, 6378-6396.
 iSolventCode=           1
 Solvent: water                                                           
 
 vradii
            1           2           3           4           5           6
    1   1.8500000   1.5200000   1.8500000   1.5200000   1.8500000   1.8500000
            7           8           9          10          11          12
    1   1.5200000   1.5200000   1.8500000   1.5200000   1.5200000   1.2000000
           13          14          15          16          17          18
    1   1.2000000   1.2000000   1.2000000   1.2000000   1.2000000   1.2000000
           19          20          21          22          23          24
    1   1.2000000   1.2000000   1.5200000   1.2000000   1.5200000   1.5200000
 -------------------------------------------------------
 OpenMP BLAS3 based DFT computing Module                
 Release: version 1.0, May 2013, Q-Chem Inc. Pittsburgh 
 -------------------------------------------------------
 A unrestricted SCF calculation will be
 performed using Roothaan-Hall, DIIS, GDM
 SCF converges when RMS gradient is below 1.0e-07
 ---------------------------------------
  Cycle       Energy         DIIS error
 ---------------------------------------
    1    -873.4177112390      4.60e-04  Roothaan Step
 ---------------------------------------
  Cycle       Energy         DIIS error
 ---------------------------------------
    1    -873.5644443513      2.42e-04  
    2    -873.5739890510      2.17e-04  Done DIIS. Switching to GDM
 ---------------------------------------
  Cycle       Energy        RMS Gradient
 ---------------------------------------
    1    -873.5739890510      1.50e-02   Normal BFGS step
    2    -873.5728496352      2.09e-02  Line search: overstep
    3    -873.5790873221      2.24e-03   Normal BFGS step
    4    -873.5794577528      1.73e-03   Normal BFGS step
    5    -873.5795241068      1.75e-03   Normal BFGS step
    6    -873.5795472627      8.90e-04   Normal BFGS step
    7    -873.5795506540      7.38e-04   Normal BFGS step
    8    -873.5795529896      6.77e-04   Normal BFGS step
    9    -873.5795554195      4.92e-04   Normal BFGS step
   10    -873.5795573286      2.15e-04   Normal BFGS step
   11    -873.5795580417      1.30e-04   Normal BFGS step
   12    -873.5795582350      6.56e-05   Normal BFGS step
   13    -873.5795582933      2.82e-05   Normal BFGS step
   14    -873.5795583012      1.13e-05   Normal BFGS step
   15    -873.5795583036      3.72e-06   Normal BFGS step
   16    -873.5795583039      1.69e-06   Normal BFGS step
   17    -873.5795583039      9.73e-07   Normal BFGS step
   18    -873.5795583040      4.33e-07   Normal BFGS step
   19    -873.5795583040      2.36e-07   Normal BFGS step
   20    -873.5795583040      1.30e-07   Normal BFGS step
  GDM::WARNING energy changes are now smaller than effective accuracy.
  GDM::        calculation will continue, but THRESH should be increased
  GDM::        or SCF_CONVERGENCE decreased. 
  GDM::        effective_thresh = 7.59e-09
   21    -873.5795583038      6.32e-08  Convergence criterion met
 ---------------------------------------
 SCF time:   CPU 7002.26s  wall 320.00s 
<S^2> =          0.754242287
(3)  G-ENP(liq) elect-nuc-pol free energy of system     -873.579558304 a.u.
(4)  G-CDS(liq) cavity-dispersion-solvent structure 
     free energy                                                3.4125 kcal/mol
(6)  G-S(liq) free energy of system                     -873.574120124 a.u.
 SCF   energy in the final basis set =     -873.5741201241
 Total energy in the final basis set =     -873.5741201241
 
 --------------------------------------------------------------
 
                    Orbital Energies (a.u.)
 --------------------------------------------------------------
 
 Alpha MOs
 -- Occupied --
-19.4366 -19.3979 -19.3919 -19.3689 -19.3394 -19.3390 -19.3384 -19.3365
-19.2712 -10.4417 -10.4388 -10.4359 -10.3989 -10.3348  -1.3283  -1.2512
 -1.1980  -1.1971  -1.1311  -1.1297  -1.1094  -1.0317  -0.9583  -0.9015
 -0.8402  -0.7991  -0.7354  -0.6972  -0.6814  -0.6518  -0.6453  -0.6373
 -0.6158  -0.6063  -0.5982  -0.5810  -0.5725  -0.5593  -0.5558  -0.5465
 -0.5299  -0.5089  -0.4870  -0.4830  -0.4631  -0.4539  -0.4473  -0.4318
 -0.4285  -0.4102  -0.4068  -0.4049  -0.3994  -0.3792  -0.3679  -0.3489
 -0.3381
 -- Virtual --
  0.0274   0.0378   0.0433   0.0467   0.0605   0.0618   0.0675   0.0728
  0.0848   0.0969   0.1012   0.1115   0.1173   0.1227   0.1375   0.1414
  0.1426   0.1522   0.1552   0.1601   0.1630   0.1698   0.1708   0.1764
  0.1834   0.1881   0.1926   0.1950   0.2041   0.2123   0.2134   0.2269
  0.2340   0.2448   0.2462   0.2600   0.2632   0.2676   0.2722   0.2802
  0.2847   0.2877   0.2920   0.2946   0.2987   0.3036   0.3083   0.3161
  0.3192   0.3274   0.3315   0.3355   0.3403   0.3461   0.3482   0.3508
  0.3599   0.3668   0.3692   0.3752   0.3752   0.3807   0.3828   0.3853
  0.3917   0.3953   0.4042   0.4053   0.4092   0.4172   0.4198   0.4230
  0.4344   0.4356   0.4376   0.4478   0.4543   0.4566   0.4635   0.4667
  0.4721   0.4913   0.4988   0.5032   0.5155   0.5213   0.5366   0.5546
  0.5662   0.5861   0.5981   0.6177   0.6259   0.6326   0.6378   0.6554
  0.6674   0.6718   0.6796   0.6808   0.6963   0.7061   0.7150   0.7160
  0.7324   0.7369   0.7495   0.7650   0.7688   0.7784   0.7896   0.7997
  0.8103   0.8201   0.8229   0.8417   0.8454   0.8664   0.8897   0.8976
  0.9214   0.9282   0.9433   0.9515   0.9771   0.9919   1.0013   1.0098
  1.0417   1.0563   1.0646   1.0708   1.0764   1.0951   1.0956   1.1097
  1.1271   1.1381   1.1493   1.1583   1.1617   1.1720   1.1773   1.1828
  1.1913   1.1986   1.2030   1.2141   1.2220   1.2252   1.2285   1.2450
  1.2466   1.2539   1.2576   1.2698   1.2812   1.2863   1.2944   1.2985
  1.3036   1.3182   1.3238   1.3314   1.3381   1.3527   1.3640   1.3677
  1.3741   1.3847   1.4017   1.4074   1.4172   1.4294   1.4297   1.4496
  1.4636   1.4765   1.4889   1.4961   1.4988   1.5079   1.5227   1.5256
  1.5412   1.5496   1.5554   1.5759   1.5855   1.6037   1.6210   1.6344
  1.6500   1.6568   1.6623   1.6817   1.6890   1.6913   1.7015   1.7153
  1.7233   1.7254   1.7463   1.7618   1.7744   1.7806   1.8036   1.8205
  1.8341   1.8484   1.8650   1.8753   1.8959   1.9136   1.9300   1.9479
  1.9691   1.9864   1.9907   2.0068   2.0260   2.0456   2.0826   2.0844
  2.0957   2.1453   2.1755   2.1986   2.2102   2.2275   2.2492   2.2558
  2.2687   2.2876   2.2979   2.3258   2.3397   2.3610   2.3776   2.3912
  2.3958   2.4207   2.4383   2.4554   2.4708   2.4882   2.5020   2.5063
  2.5534   2.5599   2.6128   2.6208   2.6347   2.6604   2.7185   2.7368
  2.7595   2.7928   2.8001   2.8366   2.8569   2.8690   2.8918   2.9280
  2.9591   2.9751   2.9945   3.0139   3.0332   3.0691   3.1045   3.1328
  3.1475   3.1515   3.2050   3.2330   3.2459   3.2625   3.2869   3.2998
  3.3211   3.3270   3.3518   3.3731   3.4118   3.4361   3.4442   3.4619
  3.4775   3.4875   3.5003   3.5153   3.5408   3.5705   3.5855   3.5985
  3.6277   3.6494   3.6583   3.6689   3.6921   3.7026   3.7138   3.7234
  3.7403   3.7536   3.7731   3.7857   3.7990   3.8234   3.8419   3.8461
  3.8509   3.8595   3.8819   3.8938   3.8967   3.9022   3.9175   3.9258
  3.9376   3.9489   3.9539   3.9700   4.0050   4.0386   4.0646   4.0690
  4.1039   4.1304   4.1527   4.1719   4.1880   4.1937   4.2138   4.2383
  4.2472   4.2624   4.2915   4.2995   4.3136   4.3193   4.3596   4.3632
  4.3854   4.3952   4.4065   4.4220   4.4322   4.4485   4.4641   4.4937
  4.5062   4.5184   4.5759   4.5919   4.6167   4.6363   4.6474   4.6624
  4.7024   4.7295   4.7461   4.7646   4.7872   4.8228   4.8606   4.9232
  4.9444   4.9732   5.0117   5.0206   5.0860   5.1011   5.1152   5.1194
  5.1626   5.1828   5.2044   5.2138   5.2189   5.2365   5.2560   5.2625
  5.2729   5.2837   5.2934   5.2953   5.3025   5.3112   5.3199   5.3309
  5.3322   5.3455   5.3518   5.3610   5.3681   5.3747   5.3811   5.4082
  5.4212   5.4272   5.4305   5.4533   5.4636   5.4702   5.4837   5.5037
  5.5111   5.5360   5.5449   5.5516   5.5562   5.5657   5.5731   5.5965
  5.6253   5.6453   5.6609   5.6743   5.6897   5.6946   5.7069   5.7179
  5.7338   5.7431   5.7739   5.7939   5.8035   5.8196   5.8415   5.8807
  5.9124   5.9695   6.0273   6.0405   6.0652   6.0992   6.1091   6.1202
  6.1450   6.1634   6.2910   6.3046   6.3582   6.5482   6.5603   6.5802
  6.6755   6.6843   6.7427   6.7596   6.8845   6.9072   6.9219   6.9844
  6.9938   7.0316   7.0597   7.0752   7.0881   7.1241   7.1256   7.1388
  7.1461   7.1718   7.1819   7.2005   7.2593   7.2899   7.2942   7.3065
  7.3184   7.3356   7.3505   7.3640   7.3841   7.3897   7.4151   7.4214
  7.4432   7.4540   7.4723   7.4847   7.5173   7.5456   7.5537   7.6104
  7.6151   7.6653   7.6770   7.7100   7.7344   7.7495   7.8004   7.8182
  7.8371   7.8847   7.9027   7.9110   7.9415   7.9797   8.1116   8.1734
  8.2143  24.6619  24.7969  24.8304  24.8370  24.9145  50.4718  50.5220
 50.5880  50.6151  50.6326  50.6395  50.6426  50.6793  50.7831
 
 Beta MOs
 -- Occupied --
-19.4250 -19.3919 -19.3803 -19.3689 -19.3394 -19.3390 -19.3384 -19.3365
-19.2714 -10.4417 -10.4391 -10.4357 -10.3990 -10.3346  -1.3012  -1.2511
 -1.1977  -1.1971  -1.1311  -1.1295  -1.1078  -1.0315  -0.9272  -0.8979
 -0.8372  -0.7984  -0.7346  -0.6923  -0.6803  -0.6446  -0.6442  -0.6327
 -0.6046  -0.5958  -0.5871  -0.5735  -0.5716  -0.5528  -0.5460  -0.5298
 -0.5200  -0.4956  -0.4854  -0.4782  -0.4621  -0.4527  -0.4470  -0.4305
 -0.4274  -0.4081  -0.4046  -0.4022  -0.3941  -0.3703  -0.3412  -0.3366
 -- Virtual --
 -0.0131   0.0275   0.0379   0.0434   0.0468   0.0609   0.0623   0.0675
  0.0731   0.0848   0.0973   0.1018   0.1121   0.1176   0.1233   0.1379
  0.1414   0.1431   0.1523   0.1555   0.1610   0.1636   0.1703   0.1718
  0.1771   0.1841   0.1894   0.1941   0.1953   0.2046   0.2126   0.2141
  0.2281   0.2345   0.2458   0.2464   0.2618   0.2643   0.2690   0.2726
  0.2812   0.2855   0.2894   0.2939   0.2953   0.2997   0.3070   0.3116
  0.3167   0.3206   0.3286   0.3318   0.3357   0.3417   0.3465   0.3501
  0.3519   0.3619   0.3677   0.3698   0.3753   0.3763   0.3811   0.3831
  0.3866   0.3925   0.3956   0.4049   0.4063   0.4101   0.4180   0.4207
  0.4237   0.4346   0.4360   0.4384   0.4492   0.4548   0.4571   0.4638
  0.4677   0.4728   0.4916   0.4996   0.5036   0.5159   0.5220   0.5374
  0.5551   0.5664   0.5866   0.5984   0.6178   0.6261   0.6328   0.6386
  0.6558   0.6677   0.6725   0.6797   0.6809   0.6965   0.7062   0.7150
  0.7166   0.7324   0.7371   0.7496   0.7656   0.7695   0.7783   0.7905
  0.8000   0.8107   0.8205   0.8233   0.8420   0.8458   0.8670   0.8900
  0.8986   0.9219   0.9290   0.9435   0.9539   0.9774   0.9933   1.0032
  1.0102   1.0426   1.0575   1.0659   1.0715   1.0774   1.0957   1.0968
  1.1101   1.1288   1.1392   1.1518   1.1594   1.1645   1.1726   1.1786
  1.1837   1.1942   1.2022   1.2056   1.2169   1.2240   1.2282   1.2302
  1.2460   1.2495   1.2592   1.2606   1.2731   1.2824   1.2875   1.2962
[...]
       24     163       0       0       0       0       0       0

 Cartesian Hessian Update
 Hessian updated using BFGS update


** GEOMETRY OPTIMIZATION IN DELOCALIZED INTERNAL COORDINATES **
   Searching for a Minimum

   Optimization Cycle:  15

                       Coordinates (Angstroms)
     ATOM                X               Y               Z
      1  C         2.6153777469   -1.2021897889   -0.9010718719
      2  O         1.5793010802   -0.3900129122   -1.4097044090
      3  C         3.2896070842   -0.5000782702    0.2958596035
      4  O         2.5714320860   -0.6327550514    1.3972812541
      5  C         3.7661795681    0.9083289642   -0.0531151220
      6  C         4.8090053241    1.4908468783    0.8893190495
      7  O         4.5431018090    1.2794334023    2.2791787912
      8  O         3.1658781375    1.5469967426    2.5738452189
      9  C         5.0900010742    2.9646242234    0.6062356259
     10  O         3.8883950832    3.7012468442    0.6653447267
     11  O         6.0362078227    3.4656967648    1.5234480440
     12  H         3.3039622442   -1.3714037358   -1.7241804829
     13  H         1.0271938385   -0.1116728860   -0.6664442701
     14  H         2.8792775062    1.5379223506   -0.0736411873
     15  H         4.1925009972    0.9227791960   -1.0568393410
     16  H         5.7607852129    0.9739360696    0.7595458075
     17  H         2.7649071325    0.6853475129    2.2213379384
     18  H         5.5446959676    3.0626205533   -0.3802646399
     19  H         4.0726451321    4.5895614634    0.3394763833
     20  H         5.7609350471    3.1752548605    2.4042222537
     21  O         2.1255112072   -2.4451015372   -0.4654621957
     22  H         1.8861824242   -2.3008309375    0.4671567469
     23  O         4.5764522375   -1.3581412183    0.5436722183
     24  O         5.4285655368   -1.3365311891   -0.4382720421
   Point Group: c1    Number of degrees of freedom:    66


   Energy is   -873.579340737

 Hessian updated using BFGS update

 66 Hessian modes will be used to form the next step
  Hessian Eigenvalues:
     0.004877    0.004997    0.005970    0.006556    0.009043    0.009368
     0.013810    0.014203    0.015577    0.028270    0.039302    0.046212
     0.047576    0.049455    0.053953    0.057695    0.058131    0.062100
     0.064740    0.070552    0.075050    0.087317    0.088477    0.094189
     0.095237    0.123932    0.134821    0.157541    0.159953    0.165234
     0.171380    0.184932    0.190346    0.191721    0.202578    0.207792
     0.211692    0.215291    0.223516    0.247080    0.258762    0.266704
     0.282976    0.293926    0.295456    0.299123    0.340291    0.341719
     0.342701    0.345655    0.346777    0.354004    0.383106    0.410988
     0.436709    0.438184    0.448686    0.470593    0.483402    0.518256
     0.522070    0.523773    0.531368    0.595870    0.634202    0.979383

 Minimum search - taking simple RFO step
 Searching for Lamda that Minimizes Along All modes
 Value Taken    Lamda =  -0.00000025
 Step Taken.  Stepsize is  0.003995

                             Maximum     Tolerance    Cnvgd?
         Gradient           0.000074      0.000300     YES
         Displacement       0.001728      0.001200      NO
         Energy change     -0.000000      0.000001     YES

 Final energy is   -873.579340737494     


 ******************************
 **  OPTIMIZATION CONVERGED  **
 ******************************

                       Coordinates (Angstroms)
     ATOM                X               Y               Z
      1  C         2.6153777469   -1.2021897889   -0.9010718719
      2  O         1.5793010802   -0.3900129122   -1.4097044090
      3  C         3.2896070842   -0.5000782702    0.2958596035
      4  O         2.5714320860   -0.6327550514    1.3972812541
      5  C         3.7661795681    0.9083289642   -0.0531151220
      6  C         4.8090053241    1.4908468783    0.8893190495
      7  O         4.5431018090    1.2794334023    2.2791787912
      8  O         3.1658781375    1.5469967426    2.5738452189
      9  C         5.0900010742    2.9646242234    0.6062356259
     10  O         3.8883950832    3.7012468442    0.6653447267
     11  O         6.0362078227    3.4656967648    1.5234480440
     12  H         3.3039622442   -1.3714037358   -1.7241804829
     13  H         1.0271938385   -0.1116728860   -0.6664442701
     14  H         2.8792775062    1.5379223506   -0.0736411873
     15  H         4.1925009972    0.9227791960   -1.0568393410
     16  H         5.7607852129    0.9739360696    0.7595458075
     17  H         2.7649071325    0.6853475129    2.2213379384
     18  H         5.5446959676    3.0626205533   -0.3802646399
     19  H         4.0726451321    4.5895614634    0.3394763833
     20  H         5.7609350471    3.1752548605    2.4042222537
     21  O         2.1255112072   -2.4451015372   -0.4654621957
     22  H         1.8861824242   -2.3008309375    0.4671567469
     23  O         4.5764522375   -1.3581412183    0.5436722183
     24  O         5.4285655368   -1.3365311891   -0.4382720421

Z-matrix Print:
$molecule
-1 2
O 
O  1 1.300299
C  1 1.566414 2 114.191445
O  3 1.321555 1 105.046045 2 -179.057176 0
C  3 1.527258 1 106.556270 2 -54.387558 0
H  5 1.087844 3 106.476467 1 -171.454292 0
H  5 1.090606 3 110.150825 1 72.777013 0
C  5 1.521511 3 115.175994 1 -48.699026 0
H  8 1.090836 5 110.054046 3 70.526273 0
O  8 1.430773 5 114.692418 3 -43.753894 0
O  10 1.433584 8 110.525805 5 -44.571764 0
H  11 1.013646 10 98.620422 8 78.079738 0
C  8 1.526799 5 112.386711 3 -171.652949 0
H  13 1.090657 8 109.339256 5 -65.179400 0
O  13 1.409844 8 110.240590 5 178.590616 0
H  15 0.967417 13 107.135876 8 -46.875228 0
O  13 1.410661 8 109.847130 5 55.927677 0
H  17 0.963972 13 107.711480 8 -170.637071 0
C  3 1.542787 1 103.442305 2 64.124385 0
H  19 1.086411 3 112.438286 1 -50.246150 0
O  19 1.405188 3 108.323495 1 69.704095 0
H  21 0.973586 19 104.571104 3 31.630449 0
O  19 1.411309 3 109.787757 1 -168.454566 0
H  23 0.966815 19 107.929132 3 -49.442925 0
$end

 
 --------------------------------------------------------------
 
                    Orbital Energies (a.u.)
 --------------------------------------------------------------
 
 Alpha MOs
 -- Occupied --
-19.4367 -19.3998 -19.3915 -19.3634 -19.3416 -19.3412 -19.3410 -19.3367
-19.2786 -10.4413 -10.4406 -10.4354 -10.3974 -10.3375  -1.3199  -1.2505
 -1.2001  -1.1964  -1.1312  -1.1308  -1.1137  -1.0277  -0.9606  -0.8986
 -0.8362  -0.7932  -0.7300  -0.6938  -0.6818  -0.6511  -0.6396  -0.6312
 -0.6144  -0.6046  -0.5963  -0.5812  -0.5729  -0.5566  -0.5534  -0.5456
 -0.5335  -0.5127  -0.4859  -0.4827  -0.4621  -0.4537  -0.4479  -0.4329
 -0.4303  -0.4120  -0.4102  -0.4057  -0.3987  -0.3817  -0.3678  -0.3525
 -0.3438
 -- Virtual --
  0.0277   0.0381   0.0433   0.0464   0.0603   0.0621   0.0693   0.0729
  0.0836   0.0968   0.1001   0.1117   0.1163   0.1232   0.1377   0.1414
  0.1441   0.1514   0.1558   0.1584   0.1617   0.1689   0.1713   0.1762
  0.1826   0.1865   0.1922   0.1949   0.2040   0.2116   0.2138   0.2258
  0.2332   0.2454   0.2466   0.2612   0.2651   0.2674   0.2719   0.2798
  0.2849   0.2874   0.2927   0.2943   0.2979   0.3027   0.3067   0.3169
  0.3207   0.3280   0.3311   0.3353   0.3422   0.3435   0.3472   0.3518
  0.3634   0.3666   0.3673   0.3732   0.3764   0.3809   0.3828   0.3851
  0.3907   0.3944   0.4030   0.4060   0.4103   0.4176   0.4207   0.4243
  0.4313   0.4335   0.4382   0.4487   0.4545   0.4571   0.4644   0.4724
  0.4804   0.4892   0.4966   0.5047   0.5194   0.5213   0.5369   0.5573
  0.5623   0.5890   0.5961   0.6155   0.6227   0.6310   0.6380   0.6488
  0.6652   0.6707   0.6743   0.6800   0.6969   0.7019   0.7127   0.7162
  0.7343   0.7349   0.7474   0.7656   0.7695   0.7806   0.7922   0.8021
  0.8090   0.8158   0.8227   0.8399   0.8429   0.8621   0.8900   0.8967
  0.9244   0.9308   0.9356   0.9582   0.9721   0.9966   1.0037   1.0249
  1.0493   1.0585   1.0662   1.0829   1.0861   1.0929   1.0956   1.1114
  1.1349   1.1431   1.1486   1.1613   1.1678   1.1735   1.1757   1.1870
  1.1967   1.2022   1.2100   1.2142   1.2226   1.2277   1.2342   1.2443
  1.2470   1.2533   1.2621   1.2716   1.2791   1.2898   1.2975   1.2985
  1.3107   1.3160   1.3217   1.3304   1.3429   1.3544   1.3630   1.3663
  1.3834   1.3915   1.4013   1.4157   1.4183   1.4357   1.4445   1.4632
  1.4663   1.4758   1.4834   1.4946   1.5047   1.5194   1.5205   1.5354
  1.5431   1.5502   1.5631   1.5691   1.5860   1.5970   1.6292   1.6334
  1.6433   1.6511   1.6676   1.6882   1.6913   1.6985   1.7051   1.7175
  1.7213   1.7319   1.7518   1.7609   1.7741   1.7865   1.8080   1.8224
  1.8270   1.8478   1.8698   1.8816   1.9016   1.9227   1.9368   1.9491
  1.9775   1.9957   1.9971   2.0161   2.0376   2.0537   2.0812   2.0980
  2.1040   2.1475   2.1787   2.2007   2.2136   2.2283   2.2568   2.2669
  2.2690   2.2862   2.3162   2.3321   2.3578   2.3794   2.3921   2.4031
  2.4123   2.4349   2.4441   2.4529   2.4706   2.4881   2.5007   2.5256
  2.5629   2.5745   2.6273   2.6424   2.6514   2.6727   2.7247   2.7415
  2.7702   2.7823   2.8095   2.8429   2.8499   2.8842   2.8992   2.9255
  2.9428   2.9649   2.9942   3.0157   3.0437   3.0773   3.0978   3.1373
  3.1399   3.1562   3.2176   3.2360   3.2430   3.2646   3.2914   3.2998
  3.3240   3.3310   3.3569   3.4015   3.4106   3.4372   3.4400   3.4603
  3.4802   3.4960   3.5072   3.5213   3.5486   3.5661   3.5866   3.6087
  3.6341   3.6480   3.6569   3.6666   3.6958   3.7030   3.7092   3.7214
  3.7464   3.7596   3.7741   3.7859   3.8014   3.8233   3.8363   3.8523
  3.8585   3.8656   3.8843   3.8929   3.8944   3.9051   3.9133   3.9271
  3.9404   3.9503   3.9647   3.9731   4.0053   4.0344   4.0598   4.0725
  4.1269   4.1273   4.1448   4.1671   4.1788   4.1861   4.2046   4.2300
  4.2499   4.2694   4.2839   4.2914   4.2930   4.3075   4.3401   4.3507
  4.3578   4.3773   4.3989   4.4126   4.4204   4.4463   4.4518   4.4881
  4.4894   4.5142   4.5709   4.5935   4.6155   4.6230   4.6408   4.6645
  4.6984   4.7196   4.7458   4.7649   4.7839   4.8268   4.8550   4.9155
  4.9331   4.9600   5.0046   5.0142   5.0845   5.1062   5.1220   5.1285
  5.1679   5.1858   5.2099   5.2192   5.2243   5.2463   5.2622   5.2663
  5.2791   5.2870   5.2969   5.3008   5.3096   5.3195   5.3230   5.3396
  5.3478   5.3504   5.3606   5.3674   5.3698   5.3798   5.3871   5.4182
  5.4227   5.4292   5.4373   5.4562   5.4800   5.4884   5.4913   5.5023
  5.5264   5.5382   5.5423   5.5539   5.5568   5.5673   5.5743   5.5836
  5.6205   5.6289   5.6448   5.6488   5.6696   5.6764   5.7037   5.7096
  5.7200   5.7320   5.7715   5.7797   5.8039   5.8246   5.8322   5.8636
  5.8884   5.9497   5.9940   6.0166   6.0498   6.0760   6.0922   6.0985
  6.1375   6.1721   6.2710   6.2858   6.3472   6.5007   6.5572   6.5756
  6.6222   6.6949   6.7397   6.7547   6.8623   6.9068   6.9226   6.9845
  6.9916   7.0287   7.0635   7.0742   7.0887   7.1041   7.1240   7.1411
  7.1454   7.1842   7.1963   7.2065   7.2519   7.2747   7.2773   7.2872
  7.2965   7.3261   7.3406   7.3612   7.3715   7.3845   7.4014   7.4311
  7.4474   7.4686   7.4762   7.5038   7.5372   7.5418   7.5504   7.6031
  7.6044   7.6304   7.6607   7.6934   7.7097   7.7523   7.8069   7.8236
  7.8559   7.8841   7.8990   7.9125   7.9446   8.0024   8.0954   8.1531
  8.2270  24.6375  24.7835  24.8089  24.8321  24.8992  50.4591  50.5395
 50.5928  50.6170  50.6261  50.6326  50.6518  50.6756  50.7988
 
 Beta MOs
 -- Occupied --
-19.4252 -19.3915 -19.3820 -19.3634 -19.3415 -19.3412 -19.3410 -19.3366
-19.2788 -10.4416 -10.4406 -10.4352 -10.3974 -10.3374  -1.2929  -1.2504
 -1.1996  -1.1964  -1.1310  -1.1307  -1.1124  -1.0275  -0.9282  -0.8953
 -0.8333  -0.7925  -0.7292  -0.6896  -0.6807  -0.6435  -0.6380  -0.6283
 -0.6034  -0.5942  -0.5872  -0.5728  -0.5709  -0.5513  -0.5448  -0.5333
 -0.5197  -0.4983  -0.4818  -0.4786  -0.4608  -0.4524  -0.4472  -0.4325
 -0.4283  -0.4083  -0.4055  -0.4047  -0.3954  -0.3698  -0.3463  -0.3406
 -- Virtual --
 -0.0164   0.0277   0.0382   0.0434   0.0466   0.0608   0.0625   0.0694
  0.0732   0.0837   0.0973   0.1006   0.1124   0.1166   0.1238   0.1380
  0.1416   0.1445   0.1516   0.1560   0.1598   0.1620   0.1697   0.1720
  0.1768   0.1834   0.1878   0.1938   0.1952   0.2046   0.2122   0.2142
  0.2276   0.2339   0.2468   0.2471   0.2632   0.2662   0.2689   0.2725
  0.2809   0.2869   0.2903   0.2941   0.2952   0.2985   0.3066   0.3075
  0.3172   0.3217   0.3293   0.3315   0.3356   0.3426   0.3459   0.3480
  0.3528   0.3649   0.3674   0.3679   0.3737   0.3770   0.3812   0.3834
  0.3861   0.3916   0.3947   0.4044   0.4065   0.4110   0.4180   0.4216
  0.4252   0.4316   0.4340   0.4388   0.4499   0.4550   0.4576   0.4645
  0.4735   0.4809   0.4896   0.4973   0.5053   0.5197   0.5220   0.5375
  0.5576   0.5627   0.5894   0.5966   0.6155   0.6230   0.6313   0.6390
  0.6492   0.6656   0.6710   0.6746   0.6801   0.6972   0.7021   0.7131
  0.7165   0.7343   0.7352   0.7476   0.7663   0.7701   0.7807   0.7930
  0.8025   0.8094   0.8161   0.8231   0.8404   0.8432   0.8627   0.8908
  0.8973   0.9248   0.9312   0.9359   0.9606   0.9722   0.9975   1.0058
  1.0253   1.0499   1.0597   1.0677   1.0839   1.0867   1.0940   1.0965
  1.1118   1.1371   1.1444   1.1502   1.1622   1.1704   1.1743   1.1779
  1.1890   1.1991   1.2059   1.2129   1.2158   1.2240   1.2321   1.2353
  1.2453   1.2511   1.2585   1.2639   1.2743   1.2815   1.2915   1.2990
  1.3058   1.3116   1.3204   1.3249   1.3308   1.3459   1.3553   1.3652
  1.3682   1.3908   1.3939   1.4022   1.4168   1.4189   1.4366   1.4451
  1.4638   1.4680   1.4789   1.4841   1.5043   1.5056   1.5199   1.5228
  1.5361   1.5477   1.5532   1.5641   1.5698   1.5872   1.5980   1.6308
  1.6347   1.6447   1.6528   1.6722   1.6924   1.6930   1.7023   1.7107
  1.7196   1.7251   1.7419   1.7550   1.7655   1.7756   1.7975   1.8096
  1.8236   1.8366   1.8492   1.8727   1.8832   1.9044   1.9271   1.9392
  1.9502   1.9791   1.9961   1.9991   2.0171   2.0411   2.0561   2.0826
  2.0985   2.1055   2.1525   2.1796   2.2020   2.2184   2.2304   2.2605
  2.2751   2.2786   2.2901   2.3180   2.3359   2.3593   2.3801   2.3925
  2.4039   2.4143   2.4370   2.4448   2.4538   2.4724   2.4919   2.5011
  2.5259   2.5635   2.5751   2.6279   2.6443   2.6526   2.6741   2.7287
  2.7442   2.7718   2.7833   2.8097   2.8433   2.8504   2.8851   2.8994
  2.9262   2.9429   2.9654   2.9947   3.0162   3.0437   3.0775   3.0981
  3.1377   3.1405   3.1565   3.2182   3.2364   3.2433   3.2650   3.2920
  3.3008   3.3244   3.3310   3.3576   3.4017   3.4107   3.4375   3.4400
  3.4607   3.4803   3.4964   3.5075   3.5214   3.5488   3.5667   3.5867
  3.6086   3.6345   3.6482   3.6571   3.6667   3.6961   3.7034   3.7095
  3.7220   3.7466   3.7597   3.7743   3.7861   3.8018   3.8244   3.8367
  3.8525   3.8587   3.8657   3.8847   3.8933   3.8946   3.9051   3.9137
  3.9272   3.9405   3.9506   3.9649   3.9735   4.0057   4.0346   4.0599
  4.0727   4.1272   4.1278   4.1453   4.1673   4.1790   4.1862   4.2046
  4.2301   4.2501   4.2696   4.2845   4.2915   4.2933   4.3079   4.3407
  4.3509   4.3579   4.3774   4.3993   4.4131   4.4209   4.4465   4.4526
  4.4888   4.4900   4.5155   4.5717   4.5952   4.6179   4.6253   4.6557
  4.6766   4.7003   4.7219   4.7465   4.7779   4.7938   4.8275   4.8721
  4.9237   4.9353   4.9634   5.0151   5.0219   5.0849   5.1274   5.1586
  5.1711   5.1862   5.2097   5.2246   5.2264   5.2470   5.2533   5.2667
  5.2754   5.2938   5.3004   5.3049   5.3065   5.3214   5.3241   5.3350
  5.3428   5.3505   5.3546   5.3632   5.3683   5.3798   5.3878   5.3979
  5.4264   5.4304   5.4324   5.4403   5.4635   5.4815   5.4918   5.4948
  5.5051   5.5278   5.5421   5.5438   5.5575   5.5607   5.5688   5.5776
  5.5888   5.6222   5.6290   5.6455   5.6492   5.6709   5.6766   5.7048
  5.7110   5.7237   5.7387   5.7789   5.7884   5.8091   5.8291   5.8343
  5.8645   5.8908   5.9501   5.9953   6.0169   6.0511   6.0767   6.0924
  6.1011   6.1375   6.1737   6.2711   6.2863   6.3551   6.5433   6.5577
  6.5804   6.6333   6.6954   6.7398   6.7556   6.8633   6.9804   6.9841
  7.0045   7.0087   7.0555   7.0681   7.0786   7.0971   7.1059   7.1363
  7.1425   7.1661   7.1984   7.2044   7.2146   7.2610   7.2748   7.2782
  7.2880   7.3129   7.3294   7.3431   7.3692   7.3742   7.3912   7.4188
  7.4356   7.4482   7.4781   7.5035   7.5091   7.5396   7.5495   7.5538
  7.6052   7.6076   7.6319   7.6609   7.6935   7.7102   7.7542   7.8077
  7.8245   7.8586   7.8879   7.8996   7.9130   7.9477   8.0027   8.1107
  8.1698   8.2280  24.6375  24.7834  24.8089  24.8321  24.8991  50.4709
 50.5398  50.5958  50.6198  50.6265  50.6332  50.6519  50.6791  50.7988
 --------------------------------------------------------------
 
          Ground-State Mulliken Net Atomic Charges

     Atom                 Charge (a.u.)    Spin (a.u.)
  --------------------------------------------------------
      1 C                    -0.179245       0.003612
      2 O                    -0.422510       0.000524
      3 C                     0.447116       0.015741
      4 O                    -0.799687      -0.003899
      5 C                    -1.194270      -0.010197
      6 C                     0.462651       0.010704
      7 O                    -0.166593       0.002324
      8 O                    -0.414359      -0.000143
      9 C                    -0.364389      -0.003683
     10 O                    -0.450103      -0.000051
     11 O                    -0.448131      -0.000078
     12 H                     0.302227      -0.000656
     13 H                     0.333512       0.000027
     14 H                     0.310568      -0.000685
     15 H                     0.300057       0.001006
     16 H                     0.293274      -0.002620
     17 H                     0.405710      -0.000013
     18 H                     0.261945      -0.000040
     19 H                     0.346392      -0.000053
     20 H                     0.342295      -0.000006
     21 O                    -0.448777       0.002665
     22 H                     0.344082      -0.000806
     23 O                     0.008709       0.353563
     24 O                    -0.270475       0.632764
  --------------------------------------------------------
  Sum of atomic charges =    -1.000000
  Sum of spin   charges =     1.000000

 -----------------------------------------------------------------
                    Cartesian Multipole Moments
 -----------------------------------------------------------------
    Charge (ESU x 10^10)
                -4.8032
    Dipole Moment (Debye)
         X     -16.7827      Y       3.7621      Z      -6.1480
       Tot      18.2650
    Quadrupole Moments (Debye-Ang)
        XX    -155.3790     XY      11.4753     YY     -99.8754
        XZ     -27.6157     YZ     -13.5165     ZZ    -106.0365
    Octopole Moments (Debye-Ang^2)
       XXX   -1332.2427    XXY     -15.9959    XYY    -380.6155
       YYY     -93.0323    XXZ    -158.3503    XYZ     -48.3317
       YYZ     -71.9777    XZZ    -379.5938    YZZ     -60.4742
       ZZZ    -166.0984
    Hexadecapole Moments (Debye-Ang^3)
      XXXX  -10467.0482   XXXY    -886.1827   XXYY   -2079.6407
      XYYY    -759.1582   YYYY   -1944.8437   XXXZ   -1140.6553
      XXYZ    -341.1913   XYYZ    -365.4687   YYYZ    -488.7027
      XXZZ   -1696.7481   XYZZ    -324.4617   YYZZ    -532.4461
      XZZZ    -755.9517   YZZZ    -364.3485   ZZZZ    -985.4130
 -----------------------------------------------------------------
 Total job time:  5445.45s(wall), 116932.09s(cpu) 
 Sat Jul 13 20:36:26 2024

        *************************************************************
        *                                                           *
        *  Thank you very much for using Q-Chem.  Have a nice day.  *
        *                                                           *
        *************************************************************


