
Running Job 1 of 1 Q_in.in
qchem Q_in.in_63658.0 /scratch/ari.fischer/qChem1519369.hpc-mn1/qchem63658/ 0
/usr/local/qchem-5.4.1/exe/qcprog.exe_s Q_in.in_63658.0 /scratch/ari.fischer/qChem1519369.hpc-mn1/qchem63658/
                  Welcome to Q-Chem
     A Quantum Leap Into The Future Of Chemistry


 Q-Chem 5.4, Q-Chem, Inc., Pleasanton, CA (2021)

 License issued to: Nanyang Technological University (site)

 E. Epifanovsky,  A. T. B. Gilbert,  Xintian Feng,  Joonho Lee,  Yuezhi Mao,  
 N. Mardirossian,  P. Pokhilko,  A. White,  M. Wormit,  M. P. Coons,  
 A. L. Dempwolff,  Zhengting Gan,  D. Hait,  P. R. Horn,  L. D. Jacobson,  
 I. Kaliman,  J. Kussmann,  A. W. Lange,  Ka Un Lao,  D. S. Levine,  Jie Liu,  
 S. C. McKenzie,  A. F. Morrison,  K. Nanda,  F. Plasser,  D. R. Rehn,  
 M. L. Vidal,  Zhi-Qiang You,  Ying Zhu,  B. Alam,  B. Albrecht,  
 A. Aldossary,  E. Alguire,  J. H. Andersen,  D. Barton,  K. Begam,  A. Behn,  
 Y. A. Bernard,  E. J. Berquist,  H. Burton,  A. Carreras,  K. Carter-Fenk,  
 R. Chakraborty,  A. D. Chien,  K. D. Closser,  V. Cofer-Shabica,  
 S. Dasgupta,  Jia Deng,  M. de Wergifosse,  M. Diedenhofen,  Hainam Do,  
 S. Ehlert,  Po-Tung Fang,  S. Fatehi,  Qingguo Feng,  T. Friedhoff,  
 J. Gayvert,  Qinghui Ge,  G. Gidofalvi,  M. Goldey,  J. Gomes,  
 C. Gonzalez-Espinoza,  S. Gulania,  A. Gunina,  M. W. D. Hanson-Heine,  
 P. H. P. Harbach,  A. W. Hauser,  M. F. Herbst,  M. Hernandez Vera,  
 M. Hodecker,  Z. C. Holden,  S. Houck,  Xunkun Huang,  Kerwin Hui,  
 B. C. Huynh,  M. Ivanov,  Hyunjun Ji,  Hanjie Jiang,  B. Kaduk,  S. Kaehler,  
 K. Khistyaev,  Jaehoon Kim,  P. Klunzinger,  Z. Koczor-Benda,  
 Joong Hoon Koh,  D. Kosenkov,  L. Koulias,  T. Kowalczyk,  C. M. Krauter,  
 K. Kue,  A. Kunitsa,  T. Kus,  A. Landau,  K. V. Lawler,  D. Lefrancois,  
 S. Lehtola,  Rain Li,  Yi-Pei Li,  Jiashu Liang,  M. Liebenthal,  
 Hung-Hsuan Lin,  You-Sheng Lin,  Fenglai Liu,  Kuan-Yu Liu,  
 M. Loipersberger,  A. Luenser,  A. Manjanath,  P. Manohar,  E. Mansoor,  
 S. F. Manzer,  Shan-Ping Mao,  A. V. Marenich,  T. Markovich,  S. Mason,  
 S. A. Maurer,  P. F. McLaughlin,  M. F. S. J. Menger,  J.-M. Mewes,  
 S. A. Mewes,  P. Morgante,  J. W. Mullinax,  K. J. Oosterbaan,  G. Paran,  
 Alexander C. Paul,  Suranjan K. Paul,  F. Pavosevic,  Zheng Pei,  S. Prager,  
 E. I. Proynov,  E. Ramos,  B. Rana,  A. E. Rask,  A. Rettig,  R. M. Richard,  
 F. Rob,  E. Rossomme,  T. Scheele,  M. Scheurer,  M. Schneider,  
 N. Sergueev,  S. M. Sharada,  W. Skomorowski,  D. W. Small,  C. J. Stein,  
 Yu-Chuan Su,  E. J. Sundstrom,  Zhen Tao,  J. Thirman,  T. Tsuchimochi,  
 N. M. Tubman,  S. P. Veccham,  O. Vydrov,  J. Wenzel,  J. Witte,  A. Yamada,  
 Kun Yao,  S. Yeganeh,  S. R. Yost,  A. Zech,  Igor Ying Zhang,  Xing Zhang,  
 Yu Zhang,  D. Zuev,  A. Aspuru-Guzik,  A. T. Bell,  N. A. Besley,  
 K. B. Bravaya,  B. R. Brooks,  D. Casanova,  Jeng-Da Chai,  S. Coriani,  
 C. J. Cramer,  A. E. DePrince, III,  R. A. DiStasio Jr.,  A. Dreuw,  
 B. D. Dunietz,  T. R. Furlani,  W. A. Goddard III,  S. Grimme,  
 S. Hammes-Schiffer,  T. Head-Gordon,  W. J. Hehre,  Chao-Ping Hsu,  
 T.-C. Jagau,  Yousung Jung,  A. Klamt,  Jing Kong,  D. S. Lambrecht,  
 WanZhen Liang,  N. J. Mayhall,  C. W. McCurdy,  J. B. Neaton,  
 C. Ochsenfeld,  J. A. Parkhill,  R. Peverati,  V. A. Rassolov,  Yihan Shao,  
 L. V. Slipchenko,  T. Stauch,  R. P. Steele,  J. E. Subotnik,  
 A. J. W. Thom,  A. Tkatchenko,  D. G. Truhlar,  T. Van Voorhis,  
 T. A. Wesolowski,  K. B. Whaley,  H. L. Woodcock III,  P. M. Zimmerman,  
 S. Faraji,  P. M. W. Gill,  M. Head-Gordon,  J. M. Herbert,  A. I. Krylov

 Additional authors for Version 5.4.1: 
 S. Kotaru,  Shaozhi Li,  Xiangyuan Li,  F. Matz,  A. Molle,  Haisheng Ren,  
 Yingli Su,  Hung-Yi Tsai,  C. Utku,  Fang Wang

 Contributors to earlier versions of Q-Chem not listed above: 
 R. D. Adamson,  B. Austin,  R. Baer,  J. Baker,  G. J. O. Beran,  
 K. Brandhorst,  S. T. Brown,  E. F. C. Byrd,  A. K. Chakraborty,  
 G. K. L. Chan,  Chun-Min Chang,  Yunqing Chen,  C.-L. Cheng,  
 Siu Hung Chien,  D. M. Chipman,  D. L. Crittenden,  H. Dachsel,  
 R. J. Doerksen,  A. D. Dutoi,  R. G. Edgar,  J. Fosso-Tande,  
 L. Fusti-Molnar,  D. Ghosh,  A. Ghysels,  A. Golubeva-Zadorozhnaya,  
 J. Gonthier,  M. S. Gordon,  S. R. Gwaltney,  G. Hawkins,  J. E. Herr,  
 A. Heyden,  S. Hirata,  E. G. Hohenstein,  G. Kedziora,  F. J. Keil,  
 C. Kelley,  Jihan Kim,  R. A. King,  R. Z. Khaliullin,  P. P. Korambath,  
 W. Kurlancheek,  A. Laurent,  A. M. Lee,  M. S. Lee,  S. V. Levchenko,  
 Ching Yeh Lin,  D. Liotard,  E. Livshits,  R. C. Lochan,  I. Lotan,  
 L. A. Martinez-Martinez,  P. E. Maslen,  N. Nair,  D. P. O'Neill,  
 D. Neuhauser,  E. Neuscamman,  C. M. Oana,  R. Olivares-Amaya,  R. Olson,  
 T. M. Perrine,  B. Peters,  P. A. Pieniazek,  A. Prociuk,  Y. M. Rhee,  
 J. Ritchie,  M. A. Rohrdanz,  E. Rosta,  N. J. Russ,  H. F. Schaefer III,  
 M. W. Schmidt,  N. E. Schultz,  S. Sharma,  N. Shenvi,  C. D. Sherrill,  
 A. C. Simmonett,  A. Sodt,  T. Stein,  D. Stuck,  K. S. Thanthiriwatte,  
 V. Vanovschi,  L. Vogt,  Tao Wang,  A. Warshel,  M. A. Watson,  
 C. F. Williams,  Q. Wu,  X. Xu,  Jun Yang,  W. Zhang,  Yan Zhao

 Please cite Q-Chem as follows:
 Y. Shao et al., Mol. Phys. 113, 184-215 (2015)
 DOI: 10.1080/00268976.2014.952696

 Q-Chem 5.4.1 for Intel X86 EM64T Linux

 Parts of Q-Chem use Armadillo 9.800.1 (Horizon Scraper).
 http://arma.sourceforge.net/

 Q-Chem begins on Sat Apr 29 12:03:51 2023  

 Host: 
0

     Scratch files written to /scratch/ari.fischer/qChem1519369.hpc-mn1/qchem63658//
 Aug1521 |scratch|qcdevops|jenkins|workspace|build_RNUM 8249   
 Processing $rem in /usr/local/qchem-5.4.1/config/preferences:
 Processing $rem in /home/ari.fischer/.qchemrc:
 Symmetry turned off for PCM/SM12/SMD calculation


!!********************************************.
!!******************Warning*******************.
!!Desired Analytical derivatives not available.
!!Finite difference job might take a long time.
!!********************************************.
!!********************************************.


 2-order derivative to be evaluated numerically with 1-order analytical derivatives

 Checking the input file for inconsistencies... 	...done.

--------------------------------------------------------------
User input:
--------------------------------------------------------------
$molecule
0 2
C         0.8750341572    0.1398017542    0.0589428138
C         2.3307329501    0.5100687137    0.0995547142
O         3.0731423174   -0.3375126766    0.9801461585
C        -0.0884852070    0.9978685499    0.4489008100
C        -1.5035650046    0.6536260040    0.3008952774
O        -2.4185522915    1.2842425303    1.1758435038
C        -1.8320908149   -0.7147270774    0.0037405118
C        -0.7855171009   -1.6140853290   -0.3360126144
C         0.5028669495   -1.1888143870   -0.3456627760
H         2.7836411094    0.3809107117   -0.8825546724
H         2.4390991565    1.5561314833    0.3908422196
H         2.7266904452   -0.2108095967    1.8703023630
H         0.1499498025    1.9963929533    0.7958268361
H        -1.7237399056    1.0760053513   -0.8023852395
H        -2.4332322982    2.2267458659    0.9752590297
H        -2.7900070868   -1.0988164497    0.3203615313
H        -1.0297184281   -2.6420891957   -0.5629854124
H         1.2913900386   -1.8811817589   -0.6133575548
O        -2.4315257853    0.8144961722   -2.1357417664
O        -2.6800238034   -0.3998328188   -1.8720148334
$end

$rem
BASIS = 6-311++G(2df,2p)
GUI = 2
JOB_TYPE = Frequency
METHOD = wB97M-V
SOLVENT_METHOD = SMD
SCF_ALGORITHM = DIIS_GDM
MAX_SCF_CYCLES = 400
SCF_CONVERGENCE = 7
THRESH = 12
UNRESTRICTED = 1
SYMMETRY_IGNORE = 1
$end
--------------------------------------------------------------
 ----------------------------------------------------------------
             Standard Nuclear Orientation (Angstroms)
    I     Atom           X                Y                Z
 ----------------------------------------------------------------
    1      C       0.8750341572     0.1398017542     0.0589428138
    2      C       2.3307329501     0.5100687137     0.0995547142
    3      O       3.0731423174    -0.3375126766     0.9801461585
    4      C      -0.0884852070     0.9978685499     0.4489008100
    5      C      -1.5035650046     0.6536260040     0.3008952774
    6      O      -2.4185522915     1.2842425303     1.1758435038
    7      C      -1.8320908149    -0.7147270774     0.0037405118
    8      C      -0.7855171009    -1.6140853290    -0.3360126144
    9      C       0.5028669495    -1.1888143870    -0.3456627760
   10      H       2.7836411094     0.3809107117    -0.8825546724
   11      H       2.4390991565     1.5561314833     0.3908422196
   12      H       2.7266904452    -0.2108095967     1.8703023630
   13      H       0.1499498025     1.9963929533     0.7958268361
   14      H      -1.7237399056     1.0760053513    -0.8023852395
   15      H      -2.4332322982     2.2267458659     0.9752590297
   16      H      -2.7900070868    -1.0988164497     0.3203615313
   17      H      -1.0297184281    -2.6420891957    -0.5629854124
   18      H       1.2913900386    -1.8811817589    -0.6133575548
   19      O      -2.4315257853     0.8144961722    -2.1357417664
   20      O      -2.6800238034    -0.3998328188    -1.8720148334
 ----------------------------------------------------------------
 Nuclear Repulsion Energy =         617.30625173 hartrees
 There are       42 alpha and       41 beta electrons
 Requested basis set is 6-311++G(2df,2p)
 There are 142 shells and 464 basis functions

 Total QAlloc Memory Limit 288000 MB
 Mega-Array Size       188 MB
 MEM_STATIC part       192 MB
 
 Citation of the SMD model:
 Marenich, A.V.; Cramer, C.J.; Truhlar, D.G.
 J. Phys. Chem. B 2009, 113, 6378-6396.
 iSolventCode=           1
 Solvent: water                                                           
 
 vradii
            1           2           3           4           5           6
    1   1.8500000   1.8500000   1.5200000   1.8500000   1.8500000   1.5200000
            7           8           9          10          11          12
    1   1.8500000   1.8500000   1.8500000   1.2000000   1.2000000   1.2000000
           13          14          15          16          17          18
    1   1.2000000   1.2000000   1.2000000   1.2000000   1.2000000   1.2000000
           19          20
    1   1.5200000   1.5200000
 Changing PCM_VDW_RADII to SMD_RADIUS
 Discretize the solute cavity surface with Lebedev spheres
	Using 110 Lebedev grid points for each H atom
	Using 194 Lebedev grid points for other atoms
	Atomic van der Waals radii will be scaled by 1.20
 Remove points where switching function is < 1.0e-08
 Keep 1513 surface tesserae and discard 1611 interior tesserae
 Molecular Surface Area = 175.582 Angst**2
 A cutoff of  1.0D-12 yielded   8793 shell pairs
 There are     93560 function pairs (    116311 Cartesian)
 Smallest overlap matrix eigenvalue = 6.26E-07
 Linear dependence detected in AO basis
 Tighter screening thresholds may be required for diffuse basis sets
 Use S2THRESH > 14 and THRESH = 14 in case of SCF convergence issues
 Number of orthogonalized atomic orbitals = 463
 Maximum deviation from orthogonality = 1.210E-10
 Guess from superposition of atomic densities
 Warning:  Energy on first SCF cycle will be non-variational
 SAD guess density has 83.000000 electrons

 -----------------------------------------------------------------------
  General SCF calculation program by
  Eric Jon Sundstrom, Paul Horn, Yuezhi Mao, Dmitri Zuev, Alec White,
  David Stuck, Shaama M.S., Shane Yost, Joonho Lee, David Small,
  Daniel Levine, Susi Lehtola, Hugh Burton, Evgeny Epifanovsky,
  Bang C. Huynh
 -----------------------------------------------------------------------
 Exchange:     0.1500 Hartree-Fock + 1.0000 wB97M-V + LR-HF
 Correlation:  1.0000 wB97M-V
 Using SG-2 standard quadrature grid
 Nonlocal Correlation:  VV10 with C = 0.0100 and b = 6.00 and scale = 1.00000
 Grid used for NLC:  SG-1 standard quadrature
 using 8 threads for integral computing
 -------------------------------------------------------
 OpenMP Integral computing Module                
 Release: version 1.0, May 2013, Q-Chem Inc. Pittsburgh 
 -------------------------------------------------------
 
 Citation of the SMD model:
 Marenich, A.V.; Cramer, C.J.; Truhlar, D.G.
 J. Phys. Chem. B 2009, 113, 6378-6396.
 iSolventCode=           1
 Solvent: water                                                           
 
 vradii
            1           2           3           4           5           6
    1   1.8500000   1.8500000   1.5200000   1.8500000   1.8500000   1.5200000
            7           8           9          10          11          12
    1   1.8500000   1.8500000   1.8500000   1.2000000   1.2000000   1.2000000
           13          14          15          16          17          18
    1   1.2000000   1.2000000   1.2000000   1.2000000   1.2000000   1.2000000
           19          20
    1   1.5200000   1.5200000
 -------------------------------------------------------
 OpenMP BLAS3 based DFT computing Module                
 Release: version 1.0, May 2013, Q-Chem Inc. Pittsburgh 
 -------------------------------------------------------
 A unrestricted SCF calculation will be
 performed using DIIS, GDM
 SCF converges when RMS gradient is below 1.0e-07
 ---------------------------------------
  Cycle       Energy         DIIS error
 ---------------------------------------
    1    -575.6971594923      1.17e-02  
    2    -572.7493294698      1.11e-03  Done DIIS. Switching to GDM
 ---------------------------------------
  Cycle       Energy        RMS Gradient
 ---------------------------------------
    1    -572.7493294698      5.47e-02   Descent step
    2    -572.8506228547      1.71e-02   Normal BFGS step
    3    -572.8653366949      1.13e-02   Normal BFGS step
    4    -572.8670346128      7.77e-03   Normal BFGS step
    5    -572.8673414066      3.56e-03   Normal BFGS step
    6    -572.8674348681      2.60e-03   Normal BFGS step
    7    -572.8674768197      1.77e-03   Normal BFGS step
    8    -572.8675014133      1.79e-03   Normal BFGS step
    9    -572.8675187639      8.07e-04   Normal BFGS step
   10    -572.8675241226      5.33e-04   Normal BFGS step
   11    -572.8675256592      2.72e-04   Normal BFGS step
   12    -572.8675261299      1.90e-04   Normal BFGS step
   13    -572.8675263045      1.04e-04   Normal BFGS step
   14    -572.8675263867      5.38e-05   Normal BFGS step
   15    -572.8675264097      2.75e-05   Normal BFGS step
   16    -572.8675264216      2.52e-05   Normal BFGS step
   17    -572.8675264283      1.57e-05   Normal BFGS step
   18    -572.8675264303      7.38e-06   Normal BFGS step
   19    -572.8675264312      4.19e-06   Normal BFGS step
   20    -572.8675264314      3.64e-06   Normal BFGS step
   21    -572.8675264315      1.60e-06   Normal BFGS step
   22    -572.8675264315      9.04e-07   Normal BFGS step
   23    -572.8675264315      1.35e-07   Normal BFGS step
   24    -572.8675264315      1.34e-07   Normal BFGS step
   25    -572.8675264315      5.12e-08  Convergence criterion met
 ---------------------------------------
 SCF time:   CPU 3153.48s  wall 400.00s 
<S^2> =          0.767014513
(3)  G-ENP(liq) elect-nuc-pol free energy of system     -572.867526432 a.u.
(4)  G-CDS(liq) cavity-dispersion-solvent structure 
     free energy                                                3.2712 kcal/mol
(6)  G-S(liq) free energy of system                     -572.862313378 a.u.
 SCF   energy in the final basis set =     -572.8623133783
 Total energy in the final basis set =     -572.8623133783
 
 --------------------------------------------------------------
 
                    Orbital Energies (a.u.)
 --------------------------------------------------------------
 
 Alpha MOs
 -- Occupied --
-19.4199 -19.4149 -19.3495 -19.3385 -10.4062 -10.3951 -10.3878 -10.3644
-10.3612 -10.3561 -10.3522  -1.3289  -1.1715  -1.1556  -0.9961  -0.9281
 -0.9008  -0.8792  -0.8054  -0.7438  -0.7165  -0.6640  -0.6469  -0.6215
 -0.6058  -0.5946  -0.5905  -0.5867  -0.5529  -0.5512  -0.5348  -0.5289
 -0.4927  -0.4788  -0.4549  -0.4451  -0.4399  -0.4018  -0.3894  -0.3724
 -0.3540  -0.3246
 -- Virtual --
 -0.0051   0.0256   0.0345   0.0376   0.0443   0.0537   0.0580   0.0640
  0.0681   0.0807   0.0870   0.1010   0.1069   0.1183   0.1302   0.1348
  0.1411   0.1435   0.1511   0.1565   0.1577   0.1607   0.1646   0.1708
  0.1718   0.1781   0.1787   0.1915   0.1986   0.2026   0.2065   0.2144
  0.2196   0.2221   0.2341   0.2406   0.2448   0.2574   0.2610   0.2659
  0.2775   0.2798   0.2889   0.2924   0.3013   0.3072   0.3139   0.3188
  0.3224   0.3283   0.3327   0.3436   0.3455   0.3535   0.3562   0.3591
  0.3676   0.3727   0.3802   0.3878   0.3969   0.3983   0.4034   0.4153
  0.4190   0.4297   0.4396   0.4520   0.4572   0.4651   0.4668   0.4748
  0.5318   0.5412   0.5505   0.5818   0.5875   0.5920   0.6000   0.6077
  0.6213   0.6313   0.6344   0.6409   0.6464   0.6616   0.6681   0.6732
  0.6899   0.6952   0.6991   0.7180   0.7243   0.7275   0.7329   0.7419
  0.7464   0.7599   0.7647   0.7852   0.7945   0.7986   0.8066   0.8168
  0.8238   0.8405   0.8516   0.8674   0.8816   0.8845   0.8999   0.9156
  0.9409   0.9564   0.9704   0.9972   1.0155   1.0226   1.0418   1.0495
  1.0547   1.0639   1.0741   1.0941   1.1058   1.1176   1.1302   1.1392
  1.1477   1.1555   1.1671   1.1759   1.1828   1.2041   1.2230   1.2282
  1.2390   1.2411   1.2505   1.2621   1.2719   1.2806   1.2859   1.2930
  1.3086   1.3117   1.3285   1.3415   1.3572   1.3711   1.3867   1.3965
  1.4067   1.4187   1.4272   1.4394   1.4446   1.4569   1.4682   1.4834
  1.4857   1.4893   1.4984   1.5139   1.5328   1.5385   1.5446   1.5613
  1.5771   1.5895   1.6033   1.6241   1.6391   1.6491   1.6647   1.6836
  1.6909   1.7158   1.7443   1.7540   1.7690   1.7825   1.8055   1.8289
  1.8391   1.8613   1.9065   1.9166   1.9421   1.9774   2.0205   2.0499
  2.0562   2.0966   2.1194   2.1330   2.1730   2.1935   2.2484   2.2760
  2.3035   2.3334   2.3557   2.3630   2.3760   2.4122   2.4321   2.4815
  2.6001   2.6263   2.6350   2.6575   2.6952   2.7164   2.7344   2.7526
  2.7853   2.7921   2.8254   2.8350   2.8425   2.8564   2.8853   2.8970
  2.9034   2.9221   2.9334   2.9453   2.9626   2.9743   2.9774   3.0175
  3.0354   3.0442   3.0606   3.0779   3.1111   3.1271   3.1398   3.1606
  3.1650   3.1881   3.2178   3.2230   3.2396   3.2500   3.2662   3.2769
  3.2837   3.3029   3.3099   3.3283   3.3345   3.3745   3.3776   3.3871
  3.4027   3.4218   3.4414   3.4548   3.4814   3.4886   3.4915   3.5132
  3.5433   3.5471   3.5576   3.5674   3.5883   3.6031   3.6177   3.6474
  3.6506   3.6666   3.6889   3.7296   3.7550   3.7721   3.7849   3.7932
  3.7972   3.8275   3.8305   3.8415   3.8596   3.8663   3.8865   3.8969
  3.9235   3.9324   3.9579   3.9640   3.9893   4.0178   4.0342   4.0462
  4.0612   4.1080   4.1297   4.1758   4.1865   4.2107   4.2125   4.2396
  4.2509   4.2788   4.2946   4.3125   4.3219   4.3324   4.3537   4.3660
  4.3851   4.4020   4.4171   4.4375   4.4659   4.4875   4.5088   4.5110
  4.5366   4.5441   4.5731   4.5766   4.5947   4.6128   4.6384   4.6653
  4.6880   4.7275   4.7302   4.7474   4.7576   4.8045   4.8243   4.8391
  4.9294   4.9428   4.9682   5.0028   5.0525   5.0885   5.0967   5.1068
  5.1507   5.1815   5.1869   5.2004   5.2273   5.2532   5.2807   5.2817
  5.2914   5.2998   5.3147   5.3169   5.3321   5.3468   5.3543   5.3880
  5.4070   5.4533   5.4827   5.5157   5.5413   5.5907   5.6069   5.6498
  5.6754   5.6798   5.7058   5.7176   5.7275   5.7448   5.7991   5.8369
  5.8755   5.9225   5.9946   6.0379   6.0717   6.1929   6.4835   6.6074
  6.6226   6.6637   6.6772   6.8862   6.9729   7.0278   7.0744   7.1022
  7.1192   7.1317   7.1958   7.2738   7.3085   7.3230   7.3311   7.3516
  7.3650   7.3980   7.4277   7.5499   7.6429   7.6723   7.7755   7.8230
  8.1057   8.1246  24.2520  24.6956  24.7733  24.8168  24.9190  25.1217
 25.4277  50.5155  50.5459  50.5922  50.6253
 
 Beta MOs
 -- Occupied --
-19.4033 -19.3992 -19.3495 -19.3385 -10.4061 -10.3958 -10.3878 -10.3649
-10.3615 -10.3559 -10.3518  -1.2979  -1.1716  -1.1555  -0.9964  -0.9096
 -0.8823  -0.8730  -0.8052  -0.7439  -0.7165  -0.6611  -0.6437  -0.6205
 -0.5912  -0.5896  -0.5710  -0.5515  -0.5465  -0.5367  -0.5280  -0.5126
 -0.4890  -0.4778  -0.4547  -0.4449  -0.4388  -0.3979  -0.3877  -0.3493
 -0.3105
 -- Virtual --
 -0.0065   0.0010   0.0256   0.0346   0.0377   0.0445   0.0540   0.0580
  0.0644   0.0685   0.0810   0.0872   0.1018   0.1073   0.1187   0.1307
  0.1358   0.1414   0.1438   0.1514   0.1568   0.1579   0.1612   0.1653
  0.1710   0.1722   0.1783   0.1802   0.1916   0.1993   0.2027   0.2067
  0.2144   0.2200   0.2231   0.2365   0.2417   0.2453   0.2583   0.2641
  0.2663   0.2784   0.2809   0.2894   0.2933   0.3020   0.3092   0.3149
  0.3214   0.3254   0.3309   0.3335   0.3443   0.3455   0.3550   0.3573
  0.3593   0.3684   0.3730   0.3812   0.3899   0.3979   0.3995   0.4042
  0.4159   0.4215   0.4331   0.4404   0.4521   0.4575   0.4662   0.4670
  0.4766   0.5319   0.5412   0.5504   0.5815   0.5872   0.5916   0.5998
  0.6078   0.6213   0.6312   0.6344   0.6409   0.6464   0.6614   0.6679
  0.6731   0.6906   0.6956   0.6989   0.7180   0.7242   0.7274   0.7328
  0.7420   0.7462   0.7600   0.7645   0.7857   0.7945   0.7988   0.8074
  0.8166   0.8240   0.8401   0.8516   0.8672   0.8818   0.8850   0.8998
  0.9158   0.9411   0.9568   0.9717   0.9984   1.0165   1.0227   1.0428
  1.0503   1.0560   1.0644   1.0751   1.0966   1.1087   1.1253   1.1334
  1.1430   1.1501   1.1597   1.1687   1.1766   1.1959   1.2090   1.2256
  1.2328   1.2412   1.2436   1.2541   1.2671   1.2746   1.2879   1.2904
  1.2979   1.3097   1.3129   1.3315   1.3428   1.3615   1.3732   1.3892
  1.3967   1.4074   1.4191   1.4293   1.4408   1.4456   1.4599   1.4688
  1.4848   1.4886   1.4930   1.5048   1.5141   1.5330   1.5403   1.5464
  1.5632   1.5776   1.5904   1.6041   1.6260   1.6457   1.6527   1.6711
  1.6854   1.6995   1.7206   1.7485   1.7670   1.7696   1.7857   1.8130
  1.8302   1.8398   1.8637   1.9070   1.9246   1.9477   1.9794   2.0269
  2.0534   2.0579   2.0985   2.1214   2.1335   2.1733   2.1946   2.2521
  2.2884   2.3065   2.3532   2.3582   2.3669   2.3820   2.4172   2.4373
  2.4818   2.6003   2.6259   2.6352   2.6572   2.6988   2.7162   2.7360
  2.7526   2.7846   2.7918   2.8245   2.8346   2.8421   2.8557   2.8842
  2.8964   2.9027   2.9212   2.9326   2.9447   2.9613   2.9739   2.9766
  3.0165   3.0345   3.0433   3.0589   3.0768   3.1098   3.1268   3.1388
  3.1604   3.1640   3.1876   3.2168   3.2226   3.2383   3.2495   3.2657
  3.2760   3.2833   3.3017   3.3090   3.3273   3.3341   3.3741   3.3768
  3.3864   3.4018   3.4211   3.4408   3.4536   3.4807   3.4873   3.4902
  3.5128   3.5427   3.5466   3.5571   3.5668   3.5871   3.6020   3.6169
  3.6459   3.6498   3.6657   3.6875   3.7291   3.7546   3.7718   3.7843
  3.7927   3.7964   3.8271   3.8301   3.8413   3.8590   3.8658   3.8860
  3.8961   3.9228   3.9317   3.9574   3.9632   3.9888   4.0169   4.0331
  4.0455   4.0603   4.1073   4.1287   4.1754   4.1862   4.2099   4.2120
  4.2390   4.2499   4.2781   4.2943   4.3118   4.3216   4.3322   4.3517
  4.3648   4.3846   4.4017   4.4164   4.4368   4.4648   4.4871   4.5080
  4.5102   4.5363   4.5444   4.5773   4.5935   4.6072   4.6190   4.6393
  4.6646   4.6956   4.7290   4.7409   4.7558   4.7599   4.8111   4.8261
  4.8533   4.9291   4.9506   4.9689   5.0072   5.0594   5.1153   5.1333
  5.1625   5.1677   5.1892   5.2051   5.2230   5.2630   5.2805   5.2960
  5.3015   5.3109   5.3179   5.3198   5.3326   5.3392   5.3602   5.3669
  5.3976   5.4143   5.4572   5.4831   5.5164   5.5413   5.5910   5.6069
  5.6503   5.6761   5.7040   5.7096   5.7266   5.7363   5.7567   5.7972
  5.8362   5.8747   5.9224   5.9941   6.0378   6.0711   6.1924   6.4827
  6.6075   6.6693   6.6756   6.6884   6.9555   7.0393   7.0974   7.1021
  7.1175   7.1339   7.1746   7.2412   7.3080   7.3142   7.3261   7.3333
  7.3550   7.3651   7.4278   7.4491   7.5664   7.6429   7.6727   7.7756
  7.8233   8.1190   8.1493  24.2519  24.6954  24.7731  24.8168  24.9186
 25.1216  25.4275  50.5280  50.5583  50.5923  50.6253
 --------------------------------------------------------------
 
          Ground-State Mulliken Net Atomic Charges

     Atom                 Charge (a.u.)    Spin (a.u.)
  --------------------------------------------------------
      1 C                     0.512349       0.009400
      2 C                    -0.548812      -0.000073
      3 O                    -0.395333       0.000216
      4 C                    -0.451283      -0.020466
      5 C                    -0.440840       0.003192
      6 O                    -0.439156      -0.000518
      7 C                    -0.161384      -0.044870
      8 C                    -0.291538       0.013501
      9 C                    -0.170874      -0.031054
     10 H                     0.216895       0.000278
     11 H                     0.228300       0.000071
     12 H                     0.329481      -0.000069
     13 H                     0.286233      -0.000132
     14 H                     0.347733      -0.014736
     15 H                     0.357202      -0.000333
     16 H                     0.349511       0.002153
     17 H                     0.309273      -0.001070
     18 H                     0.282967       0.000630
     19 O                    -0.251386       0.533634
     20 O                    -0.069336       0.550244
  --------------------------------------------------------
  Sum of atomic charges =    -0.000000
  Sum of spin   charges =     1.000000

 -----------------------------------------------------------------
                    Cartesian Multipole Moments
 -----------------------------------------------------------------
    Charge (ESU x 10^10)
                -0.0000
    Dipole Moment (Debye)
         X       2.2182      Y       1.7450      Z       3.0388
       Tot       4.1472
    Quadrupole Moments (Debye-Ang)
        XX     -82.4794     XY       3.6244     YY     -53.4394
        XZ      -7.8118     YZ       3.4288     ZZ     -74.1416
    Octopole Moments (Debye-Ang^2)
       XXX      71.4750    XXY       7.4724    XYY      10.3225
       YYY       8.1929    XXZ      22.8694    XYZ       2.2645
       YYZ      13.5551    XZZ      69.1842    YZZ      -5.5118
       ZZZ      52.9964
    Hexadecapole Moments (Debye-Ang^3)
      XXXX   -1856.4614   XXXY      94.4308   XXYY    -301.5834
      XYYY      17.9642   YYYY    -356.3457   XXXZ    -266.1611
      XXYZ      -3.9011   XYYZ     -76.3876   YYYZ      -6.0852
      XXZZ    -404.2956   XYZZ      25.4330   YYZZ    -157.4753
      XZZZ    -196.1925   YZZZ     -39.5006   ZZZZ    -506.7570
 -----------------------------------------------------------------
 Calculating analytic gradient of the SCF energy
 Gradient of CDS energy
            1           2           3           4           5           6
    1   0.0000508   0.0008567  -0.0002147   0.0000944  -0.0007052   0.0005895
    2  -0.0000516   0.0007279  -0.0000838   0.0001571   0.0003409  -0.0005273
    3   0.0000857  -0.0002780  -0.0001964   0.0000857   0.0005398  -0.0005455
            7           8           9          10          11          12
    1  -0.0001999  -0.0001353   0.0002382  -0.0000446  -0.0002146   0.0000905
    2   0.0000282  -0.0003520  -0.0001450  -0.0002799   0.0000779  -0.0001883
    3   0.0000999  -0.0000793  -0.0001331  -0.0001376   0.0000882   0.0004850
           13          14          15          16          17          18
    1   0.0000928  -0.0000452  -0.0002774  -0.0002350  -0.0000465   0.0001700
    2   0.0001349  -0.0000330   0.0004174   0.0000094  -0.0001959  -0.0000832
    3   0.0000518  -0.0000736   0.0001172   0.0000146  -0.0000433  -0.0000124
           19          20
    1  -0.0000256  -0.0000389
    2  -0.0000282   0.0000747
    3  -0.0000378  -0.0000308
 Gradient of SCF Energy
            1           2           3           4           5           6
    1   0.0085937  -0.0045620   0.0089561  -0.0102491  -0.0037831  -0.0037574
    2  -0.0004392  -0.0150352  -0.0043089  -0.0094659  -0.0006791  -0.0167323
    3  -0.0065072   0.0080114  -0.0129269   0.0011803   0.0039315   0.0064404
            7           8           9          10          11          12
    1   0.0019376   0.0006924   0.0013724   0.0011919  -0.0000471  -0.0067292
    2   0.0024402   0.0035339   0.0080702   0.0009169   0.0095164   0.0039446
    3  -0.0050413   0.0025259  -0.0012386  -0.0069152   0.0031634   0.0122219
           13          14          15          16          17          18
    1   0.0036734   0.0009333   0.0027333  -0.0035207  -0.0013520   0.0045386
    2   0.0145365   0.0036487   0.0161047  -0.0033229  -0.0073114  -0.0048746
    3   0.0046154  -0.0018759  -0.0045763   0.0017972  -0.0009657  -0.0025087
           19          20
    1  -0.0017676   0.0011454
    2  -0.0033429   0.0028003
    3  -0.0012161  -0.0001153
 Max gradient component =       1.673E-02
 RMS gradient           =       6.389E-03
 Computing fast CPCM-SWIG gradient
 Updating gradient with PCM contributions...
 -- total gradient after adding PCM contribution --
---------------------------------------------------
  Atom         X              Y              Z     
---------------------------------------------------
   1      -0.000001       0.000002      -0.000002
   2       0.000000       0.000000      -0.000006
   3       0.000002      -0.000000      -0.000008
   4      -0.000002      -0.000003       0.000001
   5       0.000020       0.000042       0.000026
   6       0.000003       0.000000       0.000012
   7      -0.000015      -0.000046      -0.000008
   8       0.000014       0.000003       0.000004
   9      -0.000012      -0.000005      -0.000002
  10      -0.000002       0.000000      -0.000007
  11       0.000001       0.000000      -0.000006
  12       0.000004       0.000000      -0.000007
  13       0.000001       0.000000      -0.000001
  14      -0.000001       0.000007      -0.000016
  15      -0.000001      -0.000001       0.000004
  16       0.000003       0.000000       0.000006
  17      -0.000001      -0.000000       0.000001
  18      -0.000001       0.000000      -0.000004
  19      -0.000005       0.000007       0.000006
  20      -0.000008      -0.000006       0.000005
---------------------------------------------------
 Number of fixed atoms: 0
 Gradient time:  CPU 404.26 s  wall 58.68 s
 ######################################################
 ######################################################
 # Starting finite difference calculation for IDERIV  #
 Finite diff step size:  1.88973e-03 a.u.
 ----------------------------------------------------------------
             Standard Nuclear Orientation (Angstroms)
    I     Atom           X                Y                Z
 ----------------------------------------------------------------
    1      C       0.8760341572     0.1398017542     0.0589428138
    2      C       2.3307329501     0.5100687137     0.0995547142
    3      O       3.0731423174    -0.3375126766     0.9801461585
    4      C      -0.0884852070     0.9978685499     0.4489008100
    5      C      -1.5035650046     0.6536260040     0.3008952774
    6      O      -2.4185522915     1.2842425303     1.1758435038
    7      C      -1.8320908149    -0.7147270774     0.0037405118
    8      C      -0.7855171009    -1.6140853290    -0.3360126144
    9      C       0.5028669495    -1.1888143870    -0.3456627760
   10      H       2.7836411094     0.3809107117    -0.8825546724
   11      H       2.4390991565     1.5561314833     0.3908422196
   12      H       2.7266904452    -0.2108095967     1.8703023630
   13      H       0.1499498025     1.9963929533     0.7958268361
   14      H      -1.7237399056     1.0760053513    -0.8023852395
   15      H      -2.4332322982     2.2267458659     0.9752590297
   16      H      -2.7900070868    -1.0988164497     0.3203615313
   17      H      -1.0297184281    -2.6420891957    -0.5629854124
   18      H       1.2913900386    -1.8811817589    -0.6133575548
   19      O      -2.4315257853     0.8144961722    -2.1357417664
   20      O      -2.6800238034    -0.3998328188    -1.8720148334
 ----------------------------------------------------------------
 Nuclear Repulsion Energy =         617.29710485 hartrees
 There are       42 alpha and       41 beta electrons
 Discretize the solute cavity surface with Lebedev spheres
	Using 110 Lebedev grid points for each H atom
	Using 194 Lebedev grid points for other atoms
	Atomic van der Waals radii will be scaled by 1.20
 Remove points where switching function is < 1.0e-08
 Keep 1512 surface tesserae and discard 1612 interior tesserae
 Molecular Surface Area = 175.581 Angst**2
 Requested basis set is 6-311++G(2df,2p)
 There are 142 shells and 464 basis functions
 A cutoff of  1.0D-12 yielded   8793 shell pairs
 There are     93560 function pairs (    116311 Cartesian)
 Smallest overlap matrix eigenvalue = 6.26E-07
 Linear dependence detected in AO basis
 Tighter screening thresholds may be required for diffuse basis sets
 Use S2THRESH > 14 and THRESH = 14 in case of SCF convergence issues
 Number of orthogonalized atomic orbitals = 463
 Maximum deviation from orthogonality = 2.865E-10
 Guess MOs from SCF MO coefficient file

 -----------------------------------------------------------------------
  General SCF calculation program by
  Eric Jon Sundstrom, Paul Horn, Yuezhi Mao, Dmitri Zuev, Alec White,
  David Stuck, Shaama M.S., Shane Yost, Joonho Lee, David Small,
  Daniel Levine, Susi Lehtola, Hugh Burton, Evgeny Epifanovsky,
  Bang C. Huynh
 -----------------------------------------------------------------------
 Exchange:     0.1500 Hartree-Fock + 1.0000 wB97M-V + LR-HF
 Correlation:  1.0000 wB97M-V
 Using SG-2 standard quadrature grid
 Nonlocal Correlation:  VV10 with C = 0.0100 and b = 6.00 and scale = 1.00000
 Grid used for NLC:  SG-1 standard quadrature
 
 Citation of the SMD model:
 Marenich, A.V.; Cramer, C.J.; Truhlar, D.G.
 J. Phys. Chem. B 2009, 113, 6378-6396.
 iSolventCode=           1
 Solvent: water                                                           
 
 vradii
            1           2           3           4           5           6
    1   1.8500000   1.8500000   1.5200000   1.8500000   1.8500000   1.5200000
            7           8           9          10          11          12
    1   1.8500000   1.8500000   1.8500000   1.2000000   1.2000000   1.2000000
           13          14          15          16          17          18
    1   1.2000000   1.2000000   1.2000000   1.2000000   1.2000000   1.2000000
           19          20
    1   1.5200000   1.5200000
 -------------------------------------------------------
 OpenMP BLAS3 based DFT computing Module                
 Release: version 1.0, May 2013, Q-Chem Inc. Pittsburgh 
 -------------------------------------------------------
 A unrestricted SCF calculation will be
 performed using Roothaan-Hall, DIIS, GDM
 SCF converges when RMS gradient is below 1.0e-07
 ---------------------------------------
  Cycle       Energy         DIIS error
 ---------------------------------------
    1    -572.8303115423      1.80e-04  Roothaan Step
 ---------------------------------------
  Cycle       Energy         DIIS error
 ---------------------------------------
    1    -572.8602155632      2.08e-04  
    2    -572.8646287298      1.90e-04  Done DIIS. Switching to GDM
 ---------------------------------------
  Cycle       Energy        RMS Gradient
 ---------------------------------------
    1    -572.8646287298      1.34e-02   Normal BFGS step
    2    -572.8645034734      2.56e-02  Line search: overstep
    3    -572.8672917353      4.47e-03   Normal BFGS step
    4    -572.8674721042      2.86e-03   Normal BFGS step
    5    -572.8675070504      2.00e-03   Normal BFGS step
    6    -572.8675207094      8.05e-04   Normal BFGS step
    7    -572.8675238048      4.81e-04   Normal BFGS step
    8    -572.8675247554      2.09e-04   Normal BFGS step
    9    -572.8675250215      1.30e-04   Normal BFGS step
   10    -572.8675251628      1.64e-04   Normal BFGS step
   11    -572.8675252291      1.02e-04   Normal BFGS step
   12    -572.8675252626      2.83e-05   Normal BFGS step
   13    -572.8675252708      2.48e-05   Normal BFGS step
   14    -572.8675252737      1.39e-05   Normal BFGS step
   15    -572.8675252750      7.31e-06   Normal BFGS step
   16    -572.8675252754      4.29e-06   Normal BFGS step
   17    -572.8675252755      3.32e-06   Normal BFGS step
   18    -572.8675252756      1.91e-06   Normal BFGS step
   19    -572.8675252756      1.40e-06   Normal BFGS step
   20    -572.8675252756      7.66e-07   Normal BFGS step
   21    -572.8675252756      5.27e-07   Normal BFGS step
   22    -572.8675252756      2.26e-07   Normal BFGS step
   23    -572.8675252756      7.03e-08  Convergence criterion met
 ---------------------------------------
 SCF time:   CPU 3644.01s  wall 464.00s 
<S^2> =          0.767012271
(3)  G-ENP(liq) elect-nuc-pol free energy of system     -572.867525276 a.u.
(4)  G-CDS(liq) cavity-dispersion-solvent structure 
     free energy                                                3.2713 kcal/mol
(6)  G-S(liq) free energy of system                     -572.862312125 a.u.
 SCF   energy in the final basis set =     -572.8623121249
 Total energy in the final basis set =     -572.8623121249
 
 --------------------------------------------------------------
 
                    Orbital Energies (a.u.)
 --------------------------------------------------------------
 
 Alpha MOs
 -- Occupied --
-19.4199 -19.4149 -19.3495 -19.3385 -10.4063 -10.3951 -10.3878 -10.3644
-10.3613 -10.3562 -10.3522  -1.3289  -1.1715  -1.1556  -0.9961  -0.9281
 -0.9008  -0.8792  -0.8055  -0.7438  -0.7165  -0.6640  -0.6469  -0.6215
 -0.6058  -0.5946  -0.5905  -0.5868  -0.5529  -0.5513  -0.5348  -0.5289
 -0.4927  -0.4787  -0.4549  -0.4451  -0.4399  -0.4018  -0.3895  -0.3724
 -0.3540  -0.3246
 -- Virtual --
 -0.0051   0.0255   0.0345   0.0376   0.0443   0.0537   0.0580   0.0640
  0.0681   0.0807   0.0870   0.1010   0.1069   0.1183   0.1302   0.1348
  0.1411   0.1435   0.1511   0.1565   0.1577   0.1607   0.1646   0.1708
  0.1718   0.1781   0.1787   0.1915   0.1986   0.2026   0.2065   0.2144
  0.2196   0.2221   0.2341   0.2406   0.2448   0.2574   0.2610   0.2659
  0.2775   0.2798   0.2889   0.2924   0.3013   0.3072   0.3139   0.3188
  0.3224   0.3283   0.3327   0.3437   0.3455   0.3535   0.3563   0.3591
  0.3676   0.3727   0.3802   0.3878   0.3969   0.3983   0.4034   0.4153
  0.4190   0.4297   0.4396   0.4520   0.4572   0.4651   0.4668   0.4748
  0.5318   0.5412   0.5504   0.5817   0.5875   0.5920   0.6000   0.6077
  0.6213   0.6313   0.6343   0.6409   0.6464   0.6616   0.6681   0.6732
  0.6899   0.6952   0.6991   0.7180   0.7242   0.7275   0.7328   0.7419
  0.7464   0.7599   0.7646   0.7852   0.7945   0.7986   0.8065   0.8167
  0.8238   0.8405   0.8516   0.8674   0.8815   0.8845   0.8998   0.9156
  0.9409   0.9564   0.9704   0.9972   1.0155   1.0227   1.0418   1.0495
  1.0547   1.0639   1.0741   1.0941   1.1058   1.1176   1.1302   1.1392
  1.1477   1.1554   1.1672   1.1760   1.1828   1.2041   1.2229   1.2281
  1.2390   1.2411   1.2505   1.2621   1.2719   1.2806   1.2860   1.2930
  1.3086   1.3117   1.3284   1.3415   1.3572   1.3710   1.3867   1.3965
  1.4067   1.4187   1.4273   1.4394   1.4446   1.4569   1.4681   1.4834
  1.4857   1.4893   1.4984   1.5139   1.5328   1.5385   1.5446   1.5613
  1.5771   1.5895   1.6033   1.6241   1.6391   1.6491   1.6647   1.6836
  1.6909   1.7158   1.7443   1.7539   1.7690   1.7825   1.8054   1.8289
  1.8391   1.8614   1.9065   1.9166   1.9420   1.9774   2.0205   2.0499
  2.0562   2.0968   2.1194   2.1331   2.1731   2.1935   2.2484   2.2761
  2.3036   2.3334   2.3558   2.3630   2.3759   2.4123   2.4321   2.4815
  2.6000   2.6263   2.6349   2.6576   2.6952   2.7164   2.7344   2.7525
  2.7853   2.7921   2.8255   2.8350   2.8426   2.8565   2.8853   2.8970
  2.9034   2.9221   2.9334   2.9454   2.9627   2.9744   2.9775   3.0174
  3.0353   3.0443   3.0607   3.0777   3.1111   3.1270   3.1398   3.1605
  3.1650   3.1881   3.2178   3.2230   3.2395   3.2499   3.2661   3.2768
  3.2838   3.3029   3.3099   3.3284   3.3344   3.3745   3.3777   3.3870
  3.4027   3.4216   3.4413   3.4548   3.4814   3.4886   3.4915   3.5133
  3.5432   3.5471   3.5575   3.5674   3.5883   3.6031   3.6176   3.6473
  3.6505   3.6666   3.6889   3.7296   3.7550   3.7722   3.7849   3.7931
  3.7971   3.8275   3.8306   3.8415   3.8596   3.8664   3.8865   3.8970
  3.9234   3.9324   3.9579   3.9640   3.9895   4.0177   4.0342   4.0465
  4.0610   4.1082   4.1296   4.1761   4.1869   4.2106   4.2125   4.2397
  4.2507   4.2786   4.2945   4.3126   4.3218   4.3323   4.3537   4.3660
  4.3849   4.4019   4.4170   4.4375   4.4657   4.4875   4.5088   4.5110
  4.5365   4.5441   4.5731   4.5765   4.5946   4.6128   4.6386   4.6651
  4.6881   4.7272   4.7302   4.7472   4.7576   4.8043   4.8241   4.8390
  4.9300   4.9427   4.9678   5.0024   5.0522   5.0885   5.0965   5.1068
  5.1506   5.1814   5.1868   5.2004   5.2273   5.2532   5.2808   5.2817
  5.2914   5.2998   5.3147   5.3169   5.3321   5.3468   5.3543   5.3879
  5.4069   5.4531   5.4827   5.5157   5.5412   5.5907   5.6070   5.6499
  5.6755   5.6798   5.7058   5.7176   5.7276   5.7449   5.7990   5.8368
  5.8751   5.9226   5.9946   6.0379   6.0715   6.1927   6.4826   6.6076
  6.6226   6.6637   6.6771   6.8862   6.9729   7.0278   7.0744   7.1023
  7.1192   7.1317   7.1958   7.2738   7.3085   7.3230   7.3311   7.3516
  7.3651   7.3980   7.4277   7.5499   7.6429   7.6723   7.7756   7.8230
  8.1057   8.1246  24.2525  24.6958  24.7731  24.8180  24.9188  25.1204
 25.4263  50.5155  50.5459  50.5922  50.6253
 
 Beta MOs
 -- Occupied --
-19.4033 -19.3992 -19.3495 -19.3385 -10.4062 -10.3958 -10.3878 -10.3649
-10.3616 -10.3560 -10.3518  -1.2979  -1.1716  -1.1556  -0.9963  -0.9096
 -0.8823  -0.8730  -0.8053  -0.7439  -0.7165  -0.6611  -0.6437  -0.6205
 -0.5913  -0.5896  -0.5710  -0.5516  -0.5465  -0.5367  -0.5280  -0.5126
 -0.4890  -0.4778  -0.4547  -0.4449  -0.4389  -0.3979  -0.3878  -0.3493
 -0.3104
 -- Virtual --
 -0.0065   0.0010   0.0256   0.0346   0.0377   0.0445   0.0540   0.0580
  0.0644   0.0685   0.0810   0.0872   0.1018   0.1073   0.1187   0.1306
  0.1358   0.1414   0.1438   0.1514   0.1568   0.1579   0.1612   0.1653
  0.1710   0.1722   0.1783   0.1802   0.1916   0.1992   0.2027   0.2067
  0.2144   0.2199   0.2231   0.2365   0.2417   0.2453   0.2583   0.2641
  0.2663   0.2784   0.2809   0.2895   0.2933   0.3021   0.3092   0.3148
  0.3214   0.3254   0.3309   0.3335   0.3443   0.3455   0.3550   0.3573
  0.3593   0.3684   0.3731   0.3812   0.3899   0.3979   0.3995   0.4042
  0.4159   0.4215   0.4331   0.4405   0.4521   0.4574   0.4662   0.4670
  0.4766   0.5319   0.5412   0.5504   0.5815   0.5871   0.5917   0.5998
  0.6078   0.6212   0.6312   0.6343   0.6409   0.6464   0.6614   0.6679
  0.6731   0.6906   0.6956   0.6989   0.7180   0.7242   0.7274   0.7327
  0.7420   0.7461   0.7600   0.7645   0.7857   0.7945   0.7987   0.8074
  0.8166   0.8240   0.8400   0.8515   0.8672   0.8817   0.8850   0.8997
  0.9158   0.9411   0.9568   0.9717   0.9984   1.0164   1.0227   1.0428
  1.0504   1.0560   1.0644   1.0751   1.0966   1.1086   1.1253   1.1334
  1.1430   1.1501   1.1597   1.1687   1.1767   1.1959   1.2090   1.2255
  1.2328   1.2412   1.2436   1.2541   1.2671   1.2746   1.2879   1.2904
  1.2979   1.3097   1.3129   1.3314   1.3428   1.3615   1.3732   1.3892
  1.3968   1.4074   1.4191   1.4293   1.4408   1.4456   1.4599   1.4687
  1.4848   1.4886   1.4931   1.5048   1.5141   1.5329   1.5403   1.5464
  1.5632   1.5776   1.5904   1.6041   1.6259   1.6457   1.6527   1.6711
  1.6853   1.6995   1.7206   1.7485   1.7669   1.7696   1.7857   1.8130
  1.8301   1.8399   1.8637   1.9070   1.9246   1.9477   1.9795   2.0269
  2.0535   2.0578   2.0986   2.1215   2.1336   2.1734   2.1946   2.2521
  2.2885   2.3066   2.3532   2.3583   2.3668   2.3819   2.4173   2.4373
  2.4818   2.6003   2.6260   2.6350   2.6573   2.6988   2.7163   2.7360
  2.7525   2.7846   2.7919   2.8246   2.8346   2.8422   2.8558   2.8842
  2.8964   2.9028   2.9213   2.9326   2.9447   2.9613   2.9740   2.9767
  3.0165   3.0344   3.0434   3.0590   3.0767   3.1098   3.1267   3.1389
  3.1603   3.1640   3.1876   3.2169   3.2225   3.2383   3.2494   3.2655
  3.2760   3.2834   3.3017   3.3090   3.3274   3.3340   3.3741   3.3769
  3.3864   3.4018   3.4210   3.4407   3.4536   3.4807   3.4873   3.4901
  3.5129   3.5427   3.5466   3.5570   3.5668   3.5871   3.6019   3.6167
  3.6458   3.6497   3.6657   3.6875   3.7292   3.7546   3.7718   3.7843
  3.7925   3.7963   3.8271   3.8303   3.8413   3.8590   3.8659   3.8860
  3.8962   3.9227   3.9317   3.9574   3.9631   3.9890   4.0168   4.0332
  4.0457   4.0601   4.1074   4.1285   4.1757   4.1867   4.2098   4.2119
  4.2391   4.2497   4.2779   4.2942   4.3120   4.3215   4.3321   4.3516
  4.3648   4.3844   4.4015   4.4163   4.4368   4.4646   4.4871   4.5080
  4.5102   4.5362   4.5444   4.5771   4.5935   4.6072   4.6190   4.6395
  4.6643   4.6958   4.7287   4.7407   4.7558   4.7599   4.8109   4.8259
  4.8533   4.9298   4.9504   4.9684   5.0070   5.0591   5.1151   5.1332
  5.1625   5.1676   5.1892   5.2049   5.2230   5.2630   5.2805   5.2960
  5.3015   5.3108   5.3179   5.3199   5.3326   5.3392   5.3602   5.3668
  5.3975   5.4142   5.4571   5.4830   5.5163   5.5412   5.5910   5.6070
  5.6504   5.6761   5.7041   5.7096   5.7267   5.7364   5.7567   5.7970
  5.8362   5.8743   5.9224   5.9941   6.0379   6.0709   6.1922   6.4819
  6.6077   6.6693   6.6756   6.6884   6.9554   7.0393   7.0974   7.1022
  7.1175   7.1338   7.1746   7.2412   7.3081   7.3142   7.3261   7.3333
  7.3550   7.3652   7.4278   7.4491   7.5664   7.6429   7.6727   7.7756
  7.8233   8.1190   8.1493  24.2524  24.6956  24.7729  24.8180  24.9185
 25.1202  25.4262  50.5281  50.5583  50.5923  50.6253
 --------------------------------------------------------------
 
          Ground-State Mulliken Net Atomic Charges

     Atom                 Charge (a.u.)    Spin (a.u.)
  --------------------------------------------------------
      1 C                     0.511425       0.009423
      2 C                    -0.548968      -0.000071
      3 O                    -0.395368       0.000218
      4 C                    -0.450510      -0.020494
      5 C                    -0.440615       0.003190
      6 O                    -0.439084      -0.000518
      7 C                    -0.161417      -0.044858
      8 C                    -0.291755       0.013500
      9 C                    -0.170559      -0.031048
     10 H                     0.216872       0.000279
     11 H                     0.228345       0.000071
     12 H                     0.329510      -0.000069
     13 H                     0.286253      -0.000132
     14 H                     0.347696      -0.014736
     15 H                     0.357209      -0.000332
     16 H                     0.349517       0.002152
     17 H                     0.309281      -0.001070
     18 H                     0.282933       0.000630
     19 O                    -0.251406       0.533621
     20 O                    -0.069362       0.550245
  --------------------------------------------------------
  Sum of atomic charges =    -0.000000
  Sum of spin   charges =     1.000000

 -----------------------------------------------------------------
                    Cartesian Multipole Moments
 -----------------------------------------------------------------
    Charge (ESU x 10^10)
                -0.0000
    Dipole Moment (Debye)
         X       2.2183      Y       1.7463      Z       3.0390
       Tot       4.1480
    Quadrupole Moments (Debye-Ang)
        XX     -82.4768     XY       3.6258     YY     -53.4413
        XZ      -7.8136     YZ       3.4288     ZZ     -74.1439
    Octopole Moments (Debye-Ang^2)
       XXX      71.4586    XXY       7.4794    XYY      10.3152
       YYY       8.1956    XXZ      22.8710    XYZ       2.2631
       YYZ      13.5563    XZZ      69.1790    YZZ      -5.5108
       ZZZ      52.9969
    Hexadecapole Moments (Debye-Ang^3)
      XXXX   -1856.5023   XXXY      94.4332   XXYY    -301.5852
      XYYY      17.9733   YYYY    -356.3582   XXXZ    -266.1804
      XXYZ      -3.8979   XYYZ     -76.3870   YYYZ      -6.0869
      XXZZ    -404.3056   XYZZ      25.4325   YYZZ    -157.4794
      XZZZ    -196.2023   YZZZ     -39.5008   ZZZZ    -506.7686
 -----------------------------------------------------------------
 Calculating analytic gradient of the SCF energy
 Gradient of CDS energy
            1           2           3           4           5           6
    1   0.0000524   0.0008557  -0.0002147   0.0000942  -0.0007053   0.0005895
    2  -0.0000517   0.0007275  -0.0000837   0.0001574   0.0003409  -0.0005273
    3   0.0000859  -0.0002778  -0.0001965   0.0000856   0.0005398  -0.0005455
            7           8           9          10          11          12
    1  -0.0001999  -0.0001354   0.0002380  -0.0000446  -0.0002144   0.0000904
    2   0.0000282  -0.0003520  -0.0001452  -0.0002798   0.0000780  -0.0001882
    3   0.0000999  -0.0000793  -0.0001333  -0.0001378   0.0000882   0.0004850
           13          14          15          16          17          18
    1   0.0000928  -0.0000454  -0.0002774  -0.0002350  -0.0000465   0.0001701
    2   0.0001348  -0.0000329   0.0004174   0.0000094  -0.0001959  -0.0000832
    3   0.0000517  -0.0000735   0.0001172   0.0000146  -0.0000433  -0.0000124
           19          20
    1  -0.0000256  -0.0000389
    2  -0.0000282   0.0000747
    3  -0.0000378  -0.0000308
 Gradient of SCF Energy
            1           2           3           4           5           6
    1   0.0099527  -0.0049621   0.0088999  -0.0108102  -0.0038456  -0.0037706
    2  -0.0005580  -0.0151395  -0.0042950  -0.0091392  -0.0006484  -0.0167339
    3  -0.0066300   0.0080235  -0.0129493   0.0013213   0.0039411   0.0064451
            7           8           9          10          11          12
    1   0.0019310   0.0007084   0.0011152   0.0011605  -0.0000559  -0.0067261
    2   0.0024589   0.0034697   0.0079507   0.0009071   0.0095188   0.0039453
    3  -0.0050367   0.0024994  -0.0012575  -0.0069184   0.0031704   0.0122208
           13          14          15          16          17          18
    1   0.0036909   0.0009298   0.0027332  -0.0035197  -0.0013614   0.0045532
    2   0.0145228   0.0036460   0.0161048  -0.0033231  -0.0073123  -0.0048283
    3   0.0046074  -0.0018640  -0.0045764   0.0017981  -0.0009638  -0.0024946
           19          20
    1  -0.0017712   0.0011480
    2  -0.0033525   0.0028060
    3  -0.0012202  -0.0001163
 Max gradient component =       1.673E-02
 RMS gradient           =       6.437E-03
 Computing fast CPCM-SWIG gradient
 Updating gradient with PCM contributions...
 -- total gradient after adding PCM contribution --
---------------------------------------------------
  Atom         X              Y              Z     
---------------------------------------------------
   1       0.001331      -0.000134      -0.000124
   2      -0.000391      -0.000082       0.000002
   3      -0.000052       0.000015      -0.000031
   4      -0.000559       0.000321       0.000152
   5      -0.000042       0.000071       0.000033
   6      -0.000011      -0.000000       0.000017
   7      -0.000020      -0.000024      -0.000005
   8       0.000021      -0.000064      -0.000018
   9      -0.000252      -0.000114      -0.000026
  10      -0.000033      -0.000009      -0.000007
  11      -0.000009      -0.000002      -0.000001
  12       0.000007       0.000000      -0.000007
  13       0.000018      -0.000011      -0.000008
  14      -0.000003       0.000003      -0.000004
  15      -0.000000      -0.000002       0.000004
  16       0.000004      -0.000000       0.000007
  17      -0.000010      -0.000003       0.000003
  18       0.000016       0.000040       0.000008
  19      -0.000009      -0.000003       0.000002
  20      -0.000005      -0.000001       0.000004
---------------------------------------------------
 Number of fixed atoms: 0
 Gradient time:  CPU 489.10 s  wall 70.80 s
 ----------------------------------------------------------------
             Standard Nuclear Orientation (Angstroms)
    I     Atom           X                Y                Z
 ----------------------------------------------------------------
    1      C       0.8740341572     0.1398017542     0.0589428138
    2      C       2.3307329501     0.5100687137     0.0995547142
    3      O       3.0731423174    -0.3375126766     0.9801461585
    4      C      -0.0884852070     0.9978685499     0.4489008100
    5      C      -1.5035650046     0.6536260040     0.3008952774
    6      O      -2.4185522915     1.2842425303     1.1758435038
    7      C      -1.8320908149    -0.7147270774     0.0037405118
    8      C      -0.7855171009    -1.6140853290    -0.3360126144
    9      C       0.5028669495    -1.1888143870    -0.3456627760
   10      H       2.7836411094     0.3809107117    -0.8825546724
   11      H       2.4390991565     1.5561314833     0.3908422196
   12      H       2.7266904452    -0.2108095967     1.8703023630
   13      H       0.1499498025     1.9963929533     0.7958268361
   14      H      -1.7237399056     1.0760053513    -0.8023852395
   15      H      -2.4332322982     2.2267458659     0.9752590297
   16      H      -2.7900070868    -1.0988164497     0.3203615313
   17      H      -1.0297184281    -2.6420891957    -0.5629854124
   18      H       1.2913900386    -1.8811817589    -0.6133575548
   19      O      -2.4315257853     0.8144961722    -2.1357417664
   20      O      -2.6800238034    -0.3998328188    -1.8720148334
 ----------------------------------------------------------------
 Nuclear Repulsion Energy =         617.31541692 hartrees
 There are       42 alpha and       41 beta electrons
 Discretize the solute cavity surface with Lebedev spheres
	Using 110 Lebedev grid points for each H atom
	Using 194 Lebedev grid points for other atoms
	Atomic van der Waals radii will be scaled by 1.20
 Remove points where switching function is < 1.0e-08
 Keep 1513 surface tesserae and discard 1611 interior tesserae
 Molecular Surface Area = 175.583 Angst**2
 Requested basis set is 6-311++G(2df,2p)
 There are 142 shells and 464 basis functions
 A cutoff of  1.0D-12 yielded   8793 shell pairs
 There are     93560 function pairs (    116311 Cartesian)
 Smallest overlap matrix eigenvalue = 6.26E-07
 Linear dependence detected in AO basis
 Tighter screening thresholds may be required for diffuse basis sets
 Use S2THRESH > 14 and THRESH = 14 in case of SCF convergence issues
 Number of orthogonalized atomic orbitals = 463
 Maximum deviation from orthogonality = 1.117E-10
 Guess MOs from SCF MO coefficient file

 -----------------------------------------------------------------------
  General SCF calculation program by
  Eric Jon Sundstrom, Paul Horn, Yuezhi Mao, Dmitri Zuev, Alec White,
  David Stuck, Shaama M.S., Shane Yost, Joonho Lee, David Small,
  Daniel Levine, Susi Lehtola, Hugh Burton, Evgeny Epifanovsky,
  Bang C. Huynh
 -----------------------------------------------------------------------
 Exchange:     0.1500 Hartree-Fock + 1.0000 wB97M-V + LR-HF
 Correlation:  1.0000 wB97M-V
 Using SG-2 standard quadrature grid
 Nonlocal Correlation:  VV10 with C = 0.0100 and b = 6.00 and scale = 1.00000
 Grid used for NLC:  SG-1 standard quadrature
 
 Citation of the SMD model:
 Marenich, A.V.; Cramer, C.J.; Truhlar, D.G.
 J. Phys. Chem. B 2009, 113, 6378-6396.
 iSolventCode=           1
 Solvent: water                                                           
 
 vradii
            1           2           3           4           5           6
    1   1.8500000   1.8500000   1.5200000   1.8500000   1.8500000   1.5200000
            7           8           9          10          11          12
    1   1.8500000   1.8500000   1.8500000   1.2000000   1.2000000   1.2000000
           13          14          15          16          17          18
    1   1.2000000   1.2000000   1.2000000   1.2000000   1.2000000   1.2000000
           19          20
    1   1.5200000   1.5200000
 -------------------------------------------------------
 OpenMP BLAS3 based DFT computing Module                
 Release: version 1.0, May 2013, Q-Chem Inc. Pittsburgh 
 -------------------------------------------------------
 A unrestricted SCF calculation will be
 performed using Roothaan-Hall, DIIS, GDM
 SCF converges when RMS gradient is below 1.0e-07
 ---------------------------------------
  Cycle       Energy         DIIS error
 ---------------------------------------
    1    -572.8303032065      1.80e-04  Roothaan Step
 ---------------------------------------
  Cycle       Energy         DIIS error
 ---------------------------------------
    1    -572.8602042801      2.08e-04  
    2    -572.8646155896      1.91e-04  Done DIIS. Switching to GDM
 ---------------------------------------
  Cycle       Energy        RMS Gradient
 ---------------------------------------
    1    -572.8646155896      1.36e-02   Normal BFGS step
    2    -572.8644902047      2.57e-02  Line search: overstep
    3    -572.8672919291      4.46e-03   Normal BFGS step
    4    -572.8674721276      2.85e-03   Normal BFGS step
    5    -572.8675070564      1.98e-03   Normal BFGS step
    6    -572.8675205295      8.10e-04   Normal BFGS step
    7    -572.8675236069      4.79e-04   Normal BFGS step
    8    -572.8675245588      2.07e-04   Normal BFGS step
    9    -572.8675248226      1.29e-04   Normal BFGS step
   10    -572.8675249637      1.63e-04   Normal BFGS step
   11    -572.8675250295      1.01e-04   Normal BFGS step
   12    -572.8675250627      2.88e-05   Normal BFGS step
   13    -572.8675250708      2.46e-05   Normal BFGS step
   14    -572.8675250737      1.38e-05   Normal BFGS step
   15    -572.8675250749      7.31e-06   Normal BFGS step
   16    -572.8675250754      4.23e-06   Normal BFGS step
   17    -572.8675250755      3.27e-06   Normal BFGS step
   18    -572.8675250755      1.89e-06   Normal BFGS step
   19    -572.8675250755      1.39e-06   Normal BFGS step
   20    -572.8675250756      7.59e-07   Normal BFGS step
   21    -572.8675250756      5.23e-07   Normal BFGS step
   22    -572.8675250756      2.26e-07   Normal BFGS step
   23    -572.8675250756      7.07e-08  Convergence criterion met
 ---------------------------------------
 SCF time:   CPU 3778.16s  wall 567.00s 
<S^2> =          0.767016702
(3)  G-ENP(liq) elect-nuc-pol free energy of system     -572.867525076 a.u.
(4)  G-CDS(liq) cavity-dispersion-solvent structure 
     free energy                                                3.2712 kcal/mol
(6)  G-S(liq) free energy of system                     -572.862312117 a.u.
 SCF   energy in the final basis set =     -572.8623121168
 Total energy in the final basis set =     -572.8623121168
 
 --------------------------------------------------------------
 
                    Orbital Energies (a.u.)
 --------------------------------------------------------------
 
 Alpha MOs
 -- Occupied --
-19.4199 -19.4149 -19.3495 -19.3385 -10.4062 -10.3951 -10.3879 -10.3644
-10.3611 -10.3560 -10.3522  -1.3289  -1.1715  -1.1555  -0.9962  -0.9281
 -0.9007  -0.8792  -0.8054  -0.7439  -0.7165  -0.6640  -0.6469  -0.6215
 -0.6058  -0.5947  -0.5905  -0.5867  -0.5529  -0.5512  -0.5348  -0.5289
 -0.4927  -0.4788  -0.4550  -0.4451  -0.4399  -0.4018  -0.3893  -0.3724
 -0.3541  -0.3246
 -- Virtual --
 -0.0051   0.0256   0.0345   0.0376   0.0443   0.0537   0.0580   0.0641
  0.0681   0.0807   0.0870   0.1010   0.1069   0.1183   0.1302   0.1348
  0.1411   0.1435   0.1511   0.1565   0.1577   0.1607   0.1646   0.1708
  0.1718   0.1781   0.1787   0.1915   0.1986   0.2026   0.2065   0.2144
  0.2196   0.2221   0.2341   0.2406   0.2448   0.2574   0.2610   0.2659
  0.2775   0.2798   0.2888   0.2923   0.3013   0.3072   0.3140   0.3188
  0.3224   0.3283   0.3327   0.3436   0.3454   0.3535   0.3562   0.3591
  0.3676   0.3726   0.3802   0.3878   0.3969   0.3983   0.4034   0.4153
  0.4190   0.4297   0.4396   0.4520   0.4572   0.4651   0.4667   0.4748
  0.5317   0.5412   0.5505   0.5818   0.5875   0.5920   0.6000   0.6077
  0.6213   0.6313   0.6344   0.6409   0.6464   0.6616   0.6680   0.6732
  0.6899   0.6951   0.6991   0.7180   0.7243   0.7274   0.7330   0.7419
  0.7464   0.7599   0.7647   0.7853   0.7945   0.7986   0.8066   0.8168
  0.8238   0.8405   0.8517   0.8674   0.8816   0.8845   0.9000   0.9156
  0.9409   0.9564   0.9704   0.9972   1.0155   1.0226   1.0419   1.0495
  1.0547   1.0639   1.0741   1.0941   1.1058   1.1176   1.1302   1.1392
  1.1477   1.1555   1.1671   1.1759   1.1828   1.2041   1.2230   1.2282
  1.2390   1.2411   1.2505   1.2621   1.2719   1.2806   1.2859   1.2930
  1.3086   1.3118   1.3285   1.3415   1.3572   1.3711   1.3867   1.3964
  1.4067   1.4187   1.4272   1.4394   1.4446   1.4568   1.4683   1.4834
  1.4857   1.4893   1.4983   1.5139   1.5328   1.5385   1.5447   1.5612
  1.5771   1.5895   1.6033   1.6242   1.6391   1.6492   1.6647   1.6837
  1.6909   1.7158   1.7443   1.7540   1.7691   1.7825   1.8055   1.8290
  1.8391   1.8613   1.9065   1.9166   1.9421   1.9774   2.0205   2.0499
  2.0563   2.0965   2.1194   2.1330   2.1729   2.1935   2.2484   2.2760
  2.3033   2.3334   2.3557   2.3630   2.3760   2.4122   2.4320   2.4815
  2.6001   2.6262   2.6352   2.6574   2.6953   2.7164   2.7344   2.7527
  2.7853   2.7920   2.8254   2.8349   2.8425   2.8563   2.8853   2.8969
  2.9033   2.9220   2.9334   2.9453   2.9625   2.9742   2.9773   3.0175
  3.0355   3.0442   3.0606   3.0780   3.1112   3.1271   3.1398   3.1607
  3.1650   3.1881   3.2178   3.2231   3.2396   3.2501   3.2664   3.2769
  3.2836   3.3029   3.3100   3.3282   3.3345   3.3745   3.3776   3.3871
  3.4028   3.4219   3.4414   3.4547   3.4814   3.4886   3.4915   3.5131
  3.5433   3.5471   3.5577   3.5673   3.5883   3.6032   3.6178   3.6475
  3.6507   3.6667   3.6890   3.7296   3.7550   3.7721   3.7850   3.7934
  3.7973   3.8275   3.8303   3.8414   3.8596   3.8663   3.8866   3.8969
  3.9236   3.9325   3.9579   3.9641   3.9890   4.0178   4.0342   4.0459
  4.0614   4.1079   4.1299   4.1755   4.1861   4.2107   4.2126   4.2394
  4.2511   4.2789   4.2947   4.3123   4.3219   4.3325   4.3538   4.3660
  4.3853   4.4021   4.4173   4.4375   4.4661   4.4875   4.5087   4.5110
  4.5367   4.5441   4.5731   4.5768   4.5947   4.6128   4.6382   4.6656
  4.6879   4.7277   4.7303   4.7477   4.7577   4.8047   4.8245   4.8392
  4.9287   4.9429   4.9686   5.0031   5.0527   5.0886   5.0969   5.1069
  5.1508   5.1816   5.1870   5.2005   5.2273   5.2532   5.2807   5.2817
  5.2915   5.2998   5.3147   5.3168   5.3322   5.3468   5.3543   5.3881
  5.4071   5.4534   5.4828   5.5158   5.5413   5.5907   5.6069   5.6497
  5.6754   5.6798   5.7058   5.7176   5.7273   5.7448   5.7992   5.8369
  5.8759   5.9224   5.9946   6.0379   6.0719   6.1931   6.4843   6.6073
  6.6226   6.6637   6.6772   6.8862   6.9729   7.0278   7.0744   7.1021
  7.1192   7.1318   7.1958   7.2738   7.3084   7.3229   7.3311   7.3516
  7.3650   7.3980   7.4278   7.5499   7.6428   7.6723   7.7754   7.8230
  8.1057   8.1246  24.2515  24.6954  24.7735  24.8156  24.9191  25.1230
 25.4290  50.5155  50.5459  50.5922  50.6253
 
 Beta MOs
 -- Occupied --
-19.4034 -19.3992 -19.3495 -19.3385 -10.4061 -10.3958 -10.3879 -10.3649
-10.3614 -10.3559 -10.3518  -1.2979  -1.1716  -1.1555  -0.9965  -0.9096
 -0.8823  -0.8730  -0.8051  -0.7439  -0.7165  -0.6611  -0.6437  -0.6205
 -0.5912  -0.5896  -0.5710  -0.5515  -0.5466  -0.5367  -0.5280  -0.5126
 -0.4890  -0.4779  -0.4548  -0.4449  -0.4388  -0.3979  -0.3876  -0.3494
 -0.3105
 -- Virtual --
 -0.0065   0.0010   0.0256   0.0346   0.0377   0.0445   0.0540   0.0580
  0.0645   0.0685   0.0810   0.0872   0.1018   0.1073   0.1187   0.1307
  0.1358   0.1414   0.1438   0.1514   0.1568   0.1579   0.1612   0.1653
  0.1710   0.1722   0.1783   0.1802   0.1916   0.1993   0.2027   0.2067
  0.2144   0.2200   0.2231   0.2365   0.2417   0.2453   0.2583   0.2641
  0.2663   0.2784   0.2809   0.2894   0.2933   0.3020   0.3092   0.3149
  0.3215   0.3254   0.3309   0.3335   0.3443   0.3455   0.3550   0.3573
  0.3593   0.3684   0.3730   0.3812   0.3899   0.3979   0.3995   0.4042
  0.4159   0.4215   0.4331   0.4404   0.4521   0.4575   0.4662   0.4670
  0.4766   0.5318   0.5412   0.5505   0.5816   0.5872   0.5916   0.5998
  0.6078   0.6213   0.6312   0.6344   0.6409   0.6464   0.6614   0.6678
  0.6731   0.6906   0.6956   0.6989   0.7180   0.7242   0.7274   0.7329
  0.7420   0.7462   0.7600   0.7645   0.7858   0.7946   0.7988   0.8074
  0.8167   0.8240   0.8401   0.8516   0.8672   0.8818   0.8850   0.8998
  0.9159   0.9411   0.9568   0.9717   0.9984   1.0165   1.0227   1.0428
  1.0503   1.0560   1.0645   1.0751   1.0966   1.1087   1.1253   1.1334
  1.1430   1.1502   1.1597   1.1687   1.1765   1.1959   1.2090   1.2256
  1.2328   1.2412   1.2435   1.2541   1.2671   1.2746   1.2878   1.2905
  1.2978   1.3097   1.3130   1.3315   1.3428   1.3615   1.3732   1.3892
  1.3967   1.4074   1.4191   1.4292   1.4407   1.4456   1.4598   1.4689
  1.4848   1.4886   1.4930   1.5048   1.5141   1.5330   1.5403   1.5465
  1.5632   1.5776   1.5904   1.6041   1.6260   1.6458   1.6527   1.6711
  1.6855   1.6995   1.7206   1.7485   1.7670   1.7696   1.7857   1.8131
  1.8302   1.8398   1.8637   1.9070   1.9246   1.9477   1.9794   2.0269
  2.0534   2.0579   2.0984   2.1214   2.1334   2.1732   2.1946   2.2521
  2.2884   2.3064   2.3531   2.3582   2.3669   2.3820   2.4171   2.4372
  2.4819   2.6004   2.6259   2.6354   2.6571   2.6989   2.7162   2.7360
  2.7527   2.7846   2.7917   2.8244   2.8346   2.8420   2.8556   2.8842
  2.8963   2.9027   2.9212   2.9325   2.9447   2.9612   2.9738   2.9765
  3.0166   3.0346   3.0433   3.0589   3.0769   3.1099   3.1269   3.1388
  3.1605   3.1640   3.1876   3.2168   3.2227   3.2384   3.2496   3.2658
  3.2760   3.2833   3.3017   3.3091   3.3272   3.3342   3.3741   3.3768
  3.3865   3.4019   3.4212   3.4408   3.4536   3.4807   3.4872   3.4902
  3.5127   3.5428   3.5466   3.5572   3.5668   3.5872   3.6020   3.6170
  3.6460   3.6499   3.6657   3.6876   3.7291   3.7547   3.7718   3.7844
  3.7928   3.7965   3.8271   3.8300   3.8412   3.8590   3.8658   3.8861
  3.8961   3.9229   3.9318   3.9574   3.9632   3.9886   4.0169   4.0331
  4.0452   4.0604   4.1072   4.1288   4.1751   4.1858   4.2099   4.2120
  4.2389   4.2501   4.2783   4.2944   4.3117   4.3217   4.3323   4.3517
  4.3648   4.3848   4.4018   4.4166   4.4368   4.4650   4.4871   4.5080
  4.5102   4.5364   4.5445   4.5775   4.5935   4.6073   4.6190   4.6390
  4.6648   4.6955   4.7293   4.7412   4.7559   4.7600   4.8113   4.8264
  4.8533   4.9285   4.9508   4.9693   5.0075   5.0598   5.1155   5.1334
  5.1625   5.1678   5.1893   5.2052   5.2231   5.2630   5.2804   5.2960
  5.3015   5.3109   5.3179   5.3198   5.3326   5.3393   5.3602   5.3669
  5.3977   5.4143   5.4573   5.4831   5.5164   5.5413   5.5910   5.6069
  5.6501   5.6761   5.7040   5.7096   5.7266   5.7361   5.7567   5.7973
  5.8363   5.8751   5.9223   5.9941   6.0378   6.0713   6.1926   6.4835
  6.6074   6.6694   6.6756   6.6884   6.9555   7.0393   7.0974   7.1021
  7.1175   7.1339   7.1746   7.2412   7.3080   7.3141   7.3260   7.3333
  7.3550   7.3651   7.4278   7.4491   7.5664   7.6429   7.6727   7.7755
  7.8233   8.1190   8.1493  24.2514  24.6953  24.7733  24.8156  24.9188
 25.1229  25.4288  50.5280  50.5583  50.5923  50.6254
 --------------------------------------------------------------
 
          Ground-State Mulliken Net Atomic Charges

     Atom                 Charge (a.u.)    Spin (a.u.)
  --------------------------------------------------------
      1 C                     0.513273       0.009377
      2 C                    -0.548656      -0.000075
      3 O                    -0.395298       0.000215
      4 C                    -0.452057      -0.020436
      5 C                    -0.441066       0.003194
      6 O                    -0.439229      -0.000517
      7 C                    -0.161352      -0.044882
      8 C                    -0.291323       0.013502
      9 C                    -0.171188      -0.031059
     10 H                     0.216917       0.000278
     11 H                     0.228255       0.000070
     12 H                     0.329454      -0.000069
     13 H                     0.286213      -0.000132
     14 H                     0.347769      -0.014736
     15 H                     0.357196      -0.000333
     16 H                     0.349505       0.002153
     17 H                     0.309265      -0.001070
     18 H                     0.283000       0.000630
     19 O                    -0.251367       0.533648
     20 O                    -0.069309       0.550244
  --------------------------------------------------------
  Sum of atomic charges =    -0.000000
  Sum of spin   charges =     1.000000

 -----------------------------------------------------------------
                    Cartesian Multipole Moments
 -----------------------------------------------------------------
    Charge (ESU x 10^10)
                -0.0000
    Dipole Moment (Debye)
         X       2.2180      Y       1.7436      Z       3.0385
       Tot       4.1464
    Quadrupole Moments (Debye-Ang)
        XX     -82.4820     XY       3.6230     YY     -53.4376
        XZ      -7.8100     YZ       3.4287     ZZ     -74.1394
    Octopole Moments (Debye-Ang^2)
       XXX      71.4915    XXY       7.4654    XYY      10.3298
       YYY       8.1902    XXZ      22.8678    XYZ       2.2659
       YYZ      13.5539    XZZ      69.1894    YZZ      -5.5127
       ZZZ      52.9960
    Hexadecapole Moments (Debye-Ang^3)
      XXXX   -1856.4206   XXXY      94.4284   XXYY    -301.5815
      XYYY      17.9550   YYYY    -356.3334   XXXZ    -266.1417
      XXYZ      -3.9043   XYYZ     -76.3882   YYYZ      -6.0835
      XXZZ    -404.2857   XYZZ      25.4335   YYZZ    -157.4712
      XZZZ    -196.1826   YZZZ     -39.5003   ZZZZ    -506.7454
 -----------------------------------------------------------------
 Calculating analytic gradient of the SCF energy
 Gradient of CDS energy
            1           2           3           4           5           6
    1   0.0000492   0.0008577  -0.0002148   0.0000946  -0.0007052   0.0005895
    2  -0.0000514   0.0007283  -0.0000839   0.0001568   0.0003409  -0.0005273
    3   0.0000856  -0.0002782  -0.0001964   0.0000857   0.0005399  -0.0005454
            7           8           9          10          11          12
    1  -0.0001999  -0.0001353   0.0002383  -0.0000445  -0.0002147   0.0000905
    2   0.0000282  -0.0003520  -0.0001449  -0.0002801   0.0000778  -0.0001883
    3   0.0000999  -0.0000793  -0.0001330  -0.0001375   0.0000882   0.0004850
           13          14          15          16          17          18
    1   0.0000928  -0.0000450  -0.0002774  -0.0002350  -0.0000465   0.0001700
    2   0.0001349  -0.0000331   0.0004174   0.0000094  -0.0001959  -0.0000833
    3   0.0000518  -0.0000737   0.0001172   0.0000146  -0.0000433  -0.0000124
           19          20
    1  -0.0000256  -0.0000389
    2  -0.0000282   0.0000747
    3  -0.0000378  -0.0000308
 Gradient of SCF Energy
            1           2           3           4           5           6
    1   0.0072358  -0.0041643   0.0090122  -0.0096864  -0.0037204  -0.0037441
    2  -0.0003178  -0.0149316  -0.0043228  -0.0097945  -0.0007100  -0.0167307
    3  -0.0063833   0.0079992  -0.0129046   0.0010384   0.0039217   0.0064357
            7           8           9          10          11          12
    1   0.0019442   0.0006763   0.0016294   0.0012233  -0.0000382  -0.0067323
    2   0.0024215   0.0035982   0.0081898   0.0009266   0.0095141   0.0039439
    3  -0.0050460   0.0025523  -0.0012198  -0.0069120   0.0031564   0.0122231
           13          14          15          16          17          18
    1   0.0036558   0.0009367   0.0027334  -0.0035216  -0.0013426   0.0045241
    2   0.0145501   0.0036513   0.0161046  -0.0033227  -0.0073105  -0.0049208
    3   0.0046234  -0.0018878  -0.0045763   0.0017962  -0.0009676  -0.0025228
           19          20
    1  -0.0017641   0.0011428
    2  -0.0033332   0.0027945
    3  -0.0012120  -0.0001142
 Max gradient component =       1.673E-02
 RMS gradient           =       6.348E-03
 Computing fast CPCM-SWIG gradient
 Updating gradient with PCM contributions...
 -- total gradient after adding PCM contribution --
---------------------------------------------------
  Atom         X              Y              Z     
---------------------------------------------------
   1      -0.001331       0.000140       0.000121
   2       0.000389       0.000082      -0.000014
   3       0.000057      -0.000015       0.000015
   4       0.000557      -0.000328      -0.000150
   5       0.000082       0.000013       0.000020
   6       0.000018       0.000000       0.000008
   7      -0.000010      -0.000069      -0.000010
   8       0.000006       0.000070       0.000027
   9       0.000228       0.000105       0.000023
  10       0.000029       0.000010      -0.000007
  11       0.000010       0.000003      -0.000011
  12       0.000002       0.000000      -0.000006
  13      -0.000015       0.000011       0.000005
  14       0.000001       0.000010      -0.000028
  15      -0.000002       0.000001       0.000004
  16       0.000002       0.000001       0.000005
  17       0.000007       0.000003       0.000000
  18      -0.000019      -0.000040      -0.000016
  19      -0.000001       0.000016       0.000009
  20      -0.000011      -0.000012       0.000006
---------------------------------------------------
 Number of fixed atoms: 0
 Gradient time:  CPU 488.05 s  wall 70.57 s
 ----------------------------------------------------------------
             Standard Nuclear Orientation (Angstroms)
    I     Atom           X                Y                Z
 ----------------------------------------------------------------
    1      C       0.8750341572     0.1408017542     0.0589428138
    2      C       2.3307329501     0.5100687137     0.0995547142
    3      O       3.0731423174    -0.3375126766     0.9801461585
    4      C      -0.0884852070     0.9978685499     0.4489008100
    5      C      -1.5035650046     0.6536260040     0.3008952774
    6      O      -2.4185522915     1.2842425303     1.1758435038
    7      C      -1.8320908149    -0.7147270774     0.0037405118
    8      C      -0.7855171009    -1.6140853290    -0.3360126144
    9      C       0.5028669495    -1.1888143870    -0.3456627760
   10      H       2.7836411094     0.3809107117    -0.8825546724
   11      H       2.4390991565     1.5561314833     0.3908422196
   12      H       2.7266904452    -0.2108095967     1.8703023630
   13      H       0.1499498025     1.9963929533     0.7958268361
   14      H      -1.7237399056     1.0760053513    -0.8023852395
   15      H      -2.4332322982     2.2267458659     0.9752590297
   16      H      -2.7900070868    -1.0988164497     0.3203615313
   17      H      -1.0297184281    -2.6420891957    -0.5629854124
   18      H       1.2913900386    -1.8811817589    -0.6133575548
   19      O      -2.4315257853     0.8144961722    -2.1357417664
   20      O      -2.6800238034    -0.3998328188    -1.8720148334
 ----------------------------------------------------------------
 Nuclear Repulsion Energy =         617.30438378 hartrees
 There are       42 alpha and       41 beta electrons
 Discretize the solute cavity surface with Lebedev spheres
	Using 110 Lebedev grid points for each H atom
	Using 194 Lebedev grid points for other atoms
	Atomic van der Waals radii will be scaled by 1.20
 Remove points where switching function is < 1.0e-08
 Keep 1513 surface tesserae and discard 1611 interior tesserae
 Molecular Surface Area = 175.583 Angst**2
 Requested basis set is 6-311++G(2df,2p)
 There are 142 shells and 464 basis functions
 A cutoff of  1.0D-12 yielded   8793 shell pairs
 There are     93560 function pairs (    116311 Cartesian)
 Smallest overlap matrix eigenvalue = 6.26E-07
 Linear dependence detected in AO basis
 Tighter screening thresholds may be required for diffuse basis sets
 Use S2THRESH > 14 and THRESH = 14 in case of SCF convergence issues
 Number of orthogonalized atomic orbitals = 463
 Maximum deviation from orthogonality = 1.568E-10
 Guess MOs from SCF MO coefficient file

 -----------------------------------------------------------------------
  General SCF calculation program by
  Eric Jon Sundstrom, Paul Horn, Yuezhi Mao, Dmitri Zuev, Alec White,
  David Stuck, Shaama M.S., Shane Yost, Joonho Lee, David Small,
  Daniel Levine, Susi Lehtola, Hugh Burton, Evgeny Epifanovsky,
  Bang C. Huynh
 -----------------------------------------------------------------------
 Exchange:     0.1500 Hartree-Fock + 1.0000 wB97M-V + LR-HF
 Correlation:  1.0000 wB97M-V
 Using SG-2 standard quadrature grid
 Nonlocal Correlation:  VV10 with C = 0.0100 and b = 6.00 and scale = 1.00000
 Grid used for NLC:  SG-1 standard quadrature
 
 Citation of the SMD model:
 Marenich, A.V.; Cramer, C.J.; Truhlar, D.G.
 J. Phys. Chem. B 2009, 113, 6378-6396.
 iSolventCode=           1
 Solvent: water                                                           
 
 vradii
            1           2           3           4           5           6
    1   1.8500000   1.8500000   1.5200000   1.8500000   1.8500000   1.5200000
            7           8           9          10          11          12
    1   1.8500000   1.8500000   1.8500000   1.2000000   1.2000000   1.2000000
           13          14          15          16          17          18
    1   1.2000000   1.2000000   1.2000000   1.2000000   1.2000000   1.2000000
           19          20
    1   1.5200000   1.5200000
 -------------------------------------------------------
 OpenMP BLAS3 based DFT computing Module                
 Release: version 1.0, May 2013, Q-Chem Inc. Pittsburgh 
 -------------------------------------------------------
 A unrestricted SCF calculation will be
 performed using Roothaan-Hall, DIIS, GDM
 SCF converges when RMS gradient is below 1.0e-07
 ---------------------------------------
  Cycle       Energy         DIIS error
 ---------------------------------------
    1    -572.8303115928      1.80e-04  Roothaan Step
 ---------------------------------------
  Cycle       Energy         DIIS error
 ---------------------------------------
    1    -572.8602137082      2.08e-04  
    2    -572.8646259670      1.90e-04  Done DIIS. Switching to GDM
 ---------------------------------------
  Cycle       Energy        RMS Gradient
 ---------------------------------------
    1    -572.8646259670      1.34e-02   Normal BFGS step
    2    -572.8645004689      2.55e-02  Line search: overstep
    3    -572.8672920661      4.47e-03   Normal BFGS step
    4    -572.8674722123      2.84e-03   Normal BFGS step
    5    -572.8675071118      2.00e-03   Normal BFGS step
    6    -572.8675206845      8.05e-04   Normal BFGS step
    7    -572.8675237716      4.77e-04   Normal BFGS step
    8    -572.8675247179      2.07e-04   Normal BFGS step
    9    -572.8675249821      1.29e-04   Normal BFGS step
   10    -572.8675251234      1.63e-04   Normal BFGS step
   11    -572.8675251895      1.02e-04   Normal BFGS step
   12    -572.8675252228      2.83e-05   Normal BFGS step
   13    -572.8675252309      2.45e-05   Normal BFGS step
[...]
 Force Cnst:      1.2124                 0.9444                 1.0544
 Red. Mass:       1.4437                 1.1096                 1.1880
 IR Active:          YES                    YES                    YES
 IR Intens:       14.042                  7.487                 84.038
 Raman Active:       YES                    YES                    YES
               X      Y      Z        X      Y      Z        X      Y      Z
 C         -0.102 -0.070  0.004    0.027 -0.034  0.025    0.045  0.013 -0.015
 C          0.064  0.022 -0.002   -0.011  0.011 -0.058   -0.021 -0.004  0.013
 O         -0.014  0.009 -0.012   -0.027 -0.000  0.005    0.006 -0.004  0.002
 C         -0.070  0.032  0.009    0.010  0.025  0.013    0.013 -0.010  0.022
 C          0.018  0.046  0.043    0.004 -0.011 -0.016    0.048  0.009  0.010
 O          0.031 -0.006 -0.027   -0.008  0.008  0.011    0.007  0.031 -0.004
 C         -0.007 -0.013 -0.012   -0.010  0.002 -0.005   -0.034  0.004 -0.036
 C          0.049  0.036  0.009   -0.007 -0.005  0.002   -0.006 -0.028  0.008
 C         -0.044 -0.017 -0.001    0.011  0.012 -0.006   -0.001 -0.000 -0.000
 H          0.265 -0.036  0.096    0.503 -0.055  0.189   -0.156  0.000 -0.049
 H          0.061  0.044 -0.056   -0.409  0.105 -0.226    0.028 -0.015  0.025
 H          0.092 -0.087  0.040    0.393 -0.380  0.216   -0.072  0.071 -0.038
 H          0.135 -0.021  0.017   -0.218  0.069  0.053   -0.176  0.060 -0.048
 H          0.067 -0.076 -0.073   -0.025 -0.056 -0.087   -0.025 -0.439 -0.391
 H         -0.146  0.027  0.158   -0.033  0.013  0.036   -0.445  0.121  0.480
 H         -0.004  0.041  0.069    0.014 -0.029  0.032    0.129 -0.286  0.122
 H          0.720 -0.092 -0.109   -0.125  0.020  0.011   -0.070 -0.008 -0.032
 H         -0.345 -0.321 -0.072    0.132  0.126  0.053   -0.008 -0.006 -0.013
 O         -0.003  0.006 -0.006   -0.002  0.005 -0.005   -0.006  0.042 -0.027
 O          0.002 -0.004  0.002    0.003 -0.002  0.005    0.010 -0.025  0.025
 TransDip  -0.042  0.023  0.110    0.045 -0.051  0.055   -0.269  0.117  0.011

 Mode:                34                     35                     36
 Frequency:      1277.21                1308.34                1336.67
 Force Cnst:      1.6610                 2.2912                 2.0447
 Red. Mass:       1.7282                 2.2718                 1.9424
 IR Active:          YES                    YES                    YES
 IR Intens:      132.998                150.835                137.266
 Raman Active:       YES                    YES                    YES
               X      Y      Z        X      Y      Z        X      Y      Z
 C         -0.058 -0.043 -0.010   -0.096 -0.136 -0.050   -0.008  0.053  0.024
 C          0.021  0.016  0.009    0.044  0.045  0.040   -0.014 -0.020 -0.029
 O          0.002 -0.001 -0.004    0.008 -0.010 -0.011   -0.006  0.012  0.005
 C          0.004  0.040  0.006    0.027  0.002  0.020   -0.062 -0.009 -0.000
 C          0.012 -0.095 -0.116    0.200 -0.015 -0.065    0.079 -0.067 -0.009
 O         -0.072  0.040  0.109   -0.069  0.033  0.050   -0.002  0.043 -0.013
 C          0.028 -0.049 -0.021   -0.012 -0.041 -0.007    0.032 -0.113 -0.036
 C         -0.008  0.051  0.009   -0.032  0.067  0.023   -0.005  0.028  0.001
 C          0.013  0.007  0.002   -0.017 -0.011  0.005    0.046  0.028  0.005
 H          0.023 -0.012  0.013   -0.048 -0.073  0.011    0.093  0.046  0.012
 H          0.103  0.013 -0.004    0.179  0.055 -0.045    0.060 -0.059  0.081
 H         -0.036  0.036 -0.024   -0.138  0.139 -0.087    0.088 -0.090  0.054
 H          0.235 -0.024  0.029   -0.554  0.143  0.002    0.334 -0.092 -0.050
 H          0.676 -0.288 -0.394   -0.427  0.178  0.033   -0.230  0.123  0.097
 H          0.113  0.003 -0.128    0.047  0.017 -0.061   -0.342  0.113  0.372
 H         -0.068  0.325  0.138    0.025 -0.135 -0.015   -0.099  0.350  0.131
 H         -0.099  0.078  0.011    0.210  0.031 -0.048   -0.388  0.108  0.057
 H          0.021  0.016  0.013    0.285  0.318  0.061   -0.205 -0.239 -0.043
 O         -0.007  0.033 -0.006   -0.011 -0.067  0.003   -0.023 -0.121  0.017
 O          0.007 -0.027  0.014    0.013  0.068 -0.008    0.024  0.124 -0.022
 TransDip   0.346 -0.079 -0.102   -0.009  0.017 -0.393   -0.266  0.077 -0.253

 Mode:                37                     38                     39
 Frequency:      1353.01                1374.62                1405.42
 Force Cnst:      4.1133                 1.4311                 2.3961
 Red. Mass:       3.8137                 1.2854                 2.0589
 IR Active:          YES                    YES                    YES
 IR Intens:      425.601                 43.056                113.337
 Raman Active:       YES                    YES                    YES
               X      Y      Z        X      Y      Z        X      Y      Z
 C          0.032  0.003 -0.004   -0.010  0.027  0.020    0.025  0.098  0.039
 C         -0.008  0.005  0.012   -0.036 -0.021 -0.090   -0.046 -0.016  0.014
 O          0.002 -0.005 -0.003   -0.031  0.051  0.033    0.023 -0.016 -0.023
 C          0.070  0.013 -0.004    0.001 -0.031 -0.015   -0.112 -0.049 -0.016
 C         -0.146 -0.043  0.023    0.054  0.017 -0.015    0.170  0.114 -0.003
 O          0.021 -0.019  0.007   -0.022 -0.001  0.022   -0.049 -0.019  0.051
 C         -0.011  0.159  0.038   -0.021  0.028  0.013   -0.075  0.013  0.015
 C          0.030 -0.053 -0.012   -0.004 -0.010 -0.001   -0.016 -0.059 -0.011
 C         -0.070 -0.024 -0.001   -0.005 -0.017 -0.005    0.061  0.018 -0.003
 H         -0.028 -0.020  0.005   -0.058  0.195 -0.136    0.347 -0.135  0.220
 H         -0.039  0.022 -0.034    0.558 -0.233  0.389   -0.154  0.027 -0.076
 H         -0.034  0.038 -0.022    0.359 -0.379  0.236   -0.184  0.198 -0.129
 H         -0.026  0.027  0.037   -0.018 -0.037 -0.003    0.199 -0.110 -0.075
 H          0.500 -0.282 -0.437    0.023 -0.043 -0.063    0.041 -0.121 -0.229
 H          0.023 -0.028 -0.036    0.091 -0.023 -0.106    0.312 -0.088 -0.356
 H          0.138 -0.308 -0.090    0.039 -0.174 -0.051    0.048 -0.369 -0.046
 H          0.291 -0.116 -0.027    0.079 -0.028 -0.015   -0.085 -0.054 -0.020
 H          0.109  0.167  0.037    0.023  0.010  0.003   -0.176 -0.241 -0.057
 O         -0.066 -0.245  0.043   -0.001  0.003 -0.001   -0.010 -0.020 -0.001
 O          0.061  0.255 -0.050    0.000 -0.002 -0.001    0.008  0.022 -0.005
 TransDip  -0.463  0.177 -0.437    0.107 -0.161 -0.083   -0.108 -0.034 -0.322

 Mode:                40                     41                     42
 Frequency:      1414.27                1477.48                1485.32
 Force Cnst:      1.5826                 3.3710                 1.5127
 Red. Mass:       1.3430                 2.6210                 1.1637
 IR Active:          YES                    YES                    YES
 IR Intens:       67.845                 79.427                 20.711
 Raman Active:       YES                    YES                    YES
               X      Y      Z        X      Y      Z        X      Y      Z
 C          0.007 -0.003  0.018   -0.058  0.182  0.066    0.026 -0.029 -0.010
 C         -0.134  0.021 -0.006    0.017 -0.049  0.019   -0.051 -0.055  0.043
 O          0.030 -0.000 -0.029    0.005 -0.010  0.001    0.002 -0.006  0.006
 C          0.055 -0.007 -0.007    0.008 -0.060 -0.035   -0.006  0.011  0.008
 C         -0.045 -0.040 -0.006    0.085 -0.178 -0.087   -0.018  0.037  0.020
 O          0.009  0.007 -0.012   -0.031  0.046  0.017    0.007 -0.009 -0.004
 C          0.015  0.015  0.005    0.001  0.124  0.050    0.006 -0.030 -0.013
 C          0.018  0.005 -0.001    0.021  0.027  0.006   -0.022  0.000  0.002
 C         -0.026 -0.005 -0.001   -0.082 -0.128 -0.033    0.019  0.017  0.003
 H          0.605 -0.226  0.374    0.107  0.327  0.008    0.101  0.681  0.002
 H          0.480 -0.100  0.164   -0.169  0.096 -0.357    0.359  0.098 -0.598
 H         -0.197  0.211 -0.144   -0.025  0.025 -0.014   -0.015  0.013 -0.002
 H         -0.086  0.012  0.029    0.295 -0.151 -0.028   -0.049  0.029 -0.006
 H         -0.026  0.038  0.072    0.019  0.218  0.241   -0.006 -0.039 -0.051
 H         -0.088  0.026  0.100   -0.227  0.087  0.240    0.044 -0.017 -0.047
 H         -0.008  0.062 -0.019    0.078 -0.209 -0.178   -0.010  0.046  0.038
 H         -0.010  0.010  0.019    0.307 -0.033 -0.000   -0.018 -0.000 -0.006
 H          0.020  0.046  0.019    0.189  0.157  0.022   -0.006 -0.010 -0.001
 O          0.005  0.014 -0.001    0.011  0.030 -0.000   -0.002 -0.006 -0.000
 O         -0.006 -0.015  0.001   -0.015 -0.037 -0.004    0.003  0.007  0.001
 TransDip  -0.251  0.079  0.019    0.166 -0.233 -0.001    0.009  0.143 -0.026

 Mode:                43                     44                     45
 Frequency:      1492.05                1579.56                1698.88
 Force Cnst:      3.7708                 4.1899                 7.8234
 Red. Mass:       2.8749                 2.8502                 4.6006
 IR Active:          YES                    YES                    YES
 IR Intens:       42.575                 58.443                128.709
 Raman Active:       YES                    YES                    YES
               X      Y      Z        X      Y      Z        X      Y      Z
 C         -0.158 -0.054 -0.005    0.042 -0.134 -0.049    0.278 -0.118 -0.064
 C          0.052  0.010  0.013   -0.012  0.009  0.003   -0.046  0.008  0.008
 O         -0.002 -0.002  0.003   -0.002  0.001  0.000   -0.005  0.002 -0.001
 C          0.098 -0.035 -0.022   -0.063  0.095  0.044   -0.250  0.127  0.061
 C          0.025 -0.029 -0.029   -0.000 -0.165 -0.035    0.073 -0.016  0.017
 O         -0.012  0.000  0.006   -0.001  0.021  0.005   -0.000  0.000  0.005
 C         -0.099  0.095  0.057   -0.019  0.151  0.038   -0.063 -0.008  0.020
 C          0.277 -0.085 -0.050   -0.122 -0.108 -0.014    0.251  0.027 -0.019
 C         -0.058  0.107  0.036    0.166  0.141  0.027   -0.249 -0.099 -0.006
 H         -0.009  0.140 -0.037   -0.041 -0.009 -0.009   -0.096 -0.030 -0.015
 H          0.056  0.057 -0.135    0.098 -0.009  0.009    0.106 -0.023  0.033
 H          0.010 -0.015  0.009    0.004 -0.003  0.003    0.008 -0.002  0.005
 H         -0.240  0.014  0.028    0.172  0.054  0.025    0.315  0.050 -0.007
 H         -0.006 -0.006  0.078    0.041  0.693 -0.139    0.043  0.501 -0.284
 H         -0.005 -0.001 -0.001   -0.118  0.040  0.120    0.006 -0.004 -0.013
 H         -0.087 -0.078 -0.083    0.133 -0.308 -0.080   -0.089  0.019  0.006
 H         -0.625  0.090  0.129    0.089 -0.171 -0.066   -0.187  0.139  0.060
 H         -0.454 -0.275 -0.049   -0.184 -0.242 -0.061    0.146  0.347  0.085
 O          0.004  0.008  0.003   -0.001  0.012 -0.011   -0.002  0.008 -0.009
 O         -0.008 -0.008 -0.009   -0.002 -0.028  0.008   -0.004 -0.015  0.000
 TransDip  -0.174 -0.116 -0.005    0.005  0.229 -0.086   -0.263  0.169 -0.185

 Mode:                46                     47                     48
 Frequency:      1838.90                3063.31                3116.67
 Force Cnst:      2.6045                 5.8676                 6.3233
 Red. Mass:       1.3073                 1.0613                 1.1049
 IR Active:          YES                    YES                    YES
 IR Intens:      772.464                 59.475                 30.202
 Raman Active:       YES                    YES                    YES
               X      Y      Z        X      Y      Z        X      Y      Z
 C          0.052 -0.063 -0.027    0.001 -0.000 -0.001    0.000 -0.001 -0.001
 C         -0.009  0.003  0.001   -0.027 -0.062  0.015    0.026 -0.048 -0.077
 O         -0.000  0.000 -0.000    0.001 -0.001  0.001   -0.001  0.001  0.001
 C         -0.080  0.041  0.014    0.000  0.000  0.000   -0.000  0.000  0.000
 C          0.018 -0.011 -0.075   -0.000  0.000  0.000   -0.000  0.000 -0.000
 O         -0.005  0.006  0.003   -0.000 -0.000  0.000    0.000 -0.000 -0.000
 C          0.002  0.059  0.016    0.000 -0.000  0.000   -0.000  0.000 -0.000
 C         -0.005 -0.013 -0.003   -0.000 -0.000 -0.000    0.000 -0.000 -0.000
 C          0.011  0.025  0.007    0.001  0.000 -0.000   -0.000  0.000  0.000
 H         -0.006 -0.005  0.002    0.203 -0.072 -0.449   -0.368  0.105  0.780
 H          0.033 -0.006  0.002    0.089  0.823  0.250    0.059  0.463  0.132
 H         -0.001  0.000 -0.000   -0.002  0.003  0.007    0.010 -0.006 -0.010
 H          0.071  0.009  0.016   -0.003 -0.004 -0.003   -0.001 -0.001  0.000
 H          0.030 -0.642  0.740    0.000 -0.001  0.001   -0.000 -0.000  0.001
 H         -0.012  0.012  0.020    0.000  0.000 -0.000   -0.000 -0.000 -0.000
 H          0.032 -0.037 -0.046    0.001  0.000 -0.000   -0.001 -0.000  0.000
 H          0.010 -0.015 -0.005   -0.000  0.000  0.000    0.000  0.001 -0.000
 H         -0.003  0.013 -0.001   -0.003  0.003  0.001    0.004 -0.002 -0.001
 O          0.005 -0.007  0.012    0.000  0.000 -0.000   -0.000 -0.000 -0.000
 O         -0.002  0.013 -0.011   -0.000 -0.000 -0.000    0.000  0.000  0.000
 TransDip   0.588 -0.439  0.504   -0.089 -0.214  0.085    0.061 -0.098 -0.133

 Mode:                49                     50                     51
 Frequency:      3188.72                3191.46                3214.15
 Force Cnst:      6.5426                 6.5348                 6.6558
 Red. Mass:       1.0921                 1.0889                 1.0935
 IR Active:          YES                    YES                    YES
 IR Intens:        4.021                  4.372                  9.669
 Raman Active:       YES                    YES                    YES
               X      Y      Z        X      Y      Z        X      Y      Z
 C         -0.004  0.003  0.001   -0.001 -0.001 -0.000    0.000  0.001  0.000
 C         -0.000 -0.000 -0.000   -0.000  0.000  0.000    0.000 -0.000 -0.000
 O          0.000 -0.000  0.000    0.000 -0.000  0.000   -0.000  0.000 -0.000
 C         -0.017 -0.080 -0.029   -0.001 -0.006 -0.002    0.000  0.001  0.000
 C          0.002 -0.000 -0.000    0.000 -0.000 -0.000   -0.000 -0.001 -0.000
 O         -0.000  0.000  0.000   -0.000  0.000  0.000   -0.000  0.000 -0.000
 C         -0.001  0.000  0.001    0.003  0.002 -0.001    0.029  0.014 -0.009
 C         -0.000  0.000  0.000   -0.003 -0.026 -0.006   -0.021 -0.071 -0.015
 C          0.005 -0.003 -0.001   -0.059  0.052  0.020    0.024 -0.016 -0.007
 H          0.001  0.001 -0.001    0.004 -0.000 -0.005   -0.001 -0.000  0.001
 H          0.003  0.005  0.001    0.002  0.002  0.000   -0.001 -0.001 -0.000
 H         -0.000 -0.000  0.000   -0.000 -0.000  0.000    0.000  0.000 -0.000
 H          0.220  0.914  0.321    0.015  0.064  0.022   -0.003 -0.012 -0.004
 H          0.001 -0.000  0.002   -0.000 -0.000  0.000    0.000 -0.000  0.001
 H         -0.002  0.002  0.000   -0.000  0.000  0.000   -0.000  0.000  0.000
 H          0.015  0.006 -0.005   -0.036 -0.015  0.011   -0.354 -0.146  0.112
 H         -0.001 -0.004 -0.001    0.072  0.313  0.070    0.195  0.815  0.180
 H         -0.053  0.046  0.018    0.679 -0.602 -0.233   -0.229  0.200  0.077
 O         -0.000  0.000 -0.000   -0.000 -0.000  0.000    0.000 -0.000  0.000
 O         -0.000 -0.000 -0.000   -0.000  0.000 -0.000   -0.000  0.000 -0.000
 TransDip  -0.009 -0.056 -0.031   -0.042  0.036  0.038    0.037 -0.092 -0.011

 Mode:                52                     53                     54
 Frequency:      3227.86                3822.55                3824.43
 Force Cnst:      6.7195                 9.1824                 9.1955
 Red. Mass:       1.0946                 1.0666                 1.0671
 IR Active:          YES                    YES                    YES
 IR Intens:        3.153                100.858                160.825
 Raman Active:       YES                    YES                    YES
               X      Y      Z        X      Y      Z        X      Y      Z
 C          0.000  0.000  0.000   -0.000 -0.000  0.000   -0.000  0.000  0.000
 C          0.000 -0.000 -0.000    0.001 -0.001 -0.001    0.000  0.000 -0.000
 O         -0.000  0.000 -0.000    0.021 -0.007 -0.058    0.001 -0.000 -0.003
 C          0.001  0.002  0.001    0.000  0.000 -0.000    0.000  0.000  0.000
 C          0.000  0.003  0.001    0.000  0.000 -0.000   -0.001 -0.000  0.001
 O          0.000 -0.000 -0.000   -0.000  0.003 -0.001    0.002 -0.062  0.012
 C         -0.072 -0.028  0.023   -0.000  0.000 -0.000   -0.000  0.000  0.000
 C         -0.007 -0.034 -0.008    0.000  0.000 -0.000    0.000  0.000 -0.000
 C          0.008 -0.004 -0.002   -0.000 -0.000 -0.000   -0.000 -0.000 -0.000
 H         -0.001  0.000  0.001   -0.005  0.002  0.014   -0.000  0.000  0.001
 H         -0.001 -0.001 -0.000    0.002 -0.001  0.002    0.000 -0.000  0.000
 H          0.000 -0.000 -0.000   -0.350  0.125  0.925   -0.017  0.006  0.046
 H         -0.005 -0.018 -0.006   -0.000 -0.000  0.000    0.000 -0.002 -0.000
 H         -0.001  0.003 -0.008    0.000 -0.000 -0.000   -0.002  0.003  0.001
 H          0.001 -0.003 -0.000    0.001 -0.049  0.010   -0.024  0.976 -0.201
 H          0.813  0.326 -0.256    0.000 -0.000  0.000    0.002  0.001  0.000
 H          0.085  0.369  0.081    0.000  0.000  0.000   -0.000  0.001  0.000
 H         -0.069  0.059  0.024   -0.000  0.000  0.000   -0.000  0.000  0.000
 O         -0.000  0.000  0.000   -0.000 -0.000  0.000    0.000 -0.000 -0.000
 O          0.000  0.000 -0.000    0.000  0.000  0.000    0.000 -0.000  0.000
 TransDip  -0.052 -0.023  0.001   -0.029 -0.024  0.319   -0.093  0.395  0.013

 STANDARD THERMODYNAMIC QUANTITIES AT   298.15 K  AND     1.00 ATM

   This Molecule has  1 Imaginary Frequencies
   Zero point vibrational energy:       95.487 kcal/mol

   Atom    1 Element C  Has Mass   12.00000
   Atom    2 Element C  Has Mass   12.00000
   Atom    3 Element O  Has Mass   15.99491
   Atom    4 Element C  Has Mass   12.00000
   Atom    5 Element C  Has Mass   12.00000
   Atom    6 Element O  Has Mass   15.99491
   Atom    7 Element C  Has Mass   12.00000
   Atom    8 Element C  Has Mass   12.00000
   Atom    9 Element C  Has Mass   12.00000
   Atom   10 Element H  Has Mass    1.00783
   Atom   11 Element H  Has Mass    1.00783
   Atom   12 Element H  Has Mass    1.00783
   Atom   13 Element H  Has Mass    1.00783
   Atom   14 Element H  Has Mass    1.00783
   Atom   15 Element H  Has Mass    1.00783
   Atom   16 Element H  Has Mass    1.00783
   Atom   17 Element H  Has Mass    1.00783
   Atom   18 Element H  Has Mass    1.00783
   Atom   19 Element O  Has Mass   15.99491
   Atom   20 Element O  Has Mass   15.99491
   Molecular Mass:   157.050110 amu
   Principal axes and moments of inertia in amu*Bohr^2:
                             1           2           3
    Eigenvalues --      945.89873  2684.43743  2992.47692
          X               0.95206    -0.14555    -0.26907
          Y              -0.07330     0.74540    -0.66258
          Z               0.29700     0.65054     0.69900
   Rotational Symmetry Number is   1
   The Molecule is an Asymmetric Top
   Translational Enthalpy:        0.889 kcal/mol
   Rotational Enthalpy:           0.889 kcal/mol
   Vibrational Enthalpy:        100.464 kcal/mol
   gas constant (RT):             0.592 kcal/mol
   Translational Entropy:        41.063  cal/mol.K
   Rotational Entropy:           30.408  cal/mol.K
   Vibrational Entropy:          30.314  cal/mol.K

   Total Enthalpy:              102.834 kcal/mol
   Total Entropy:               101.786  cal/mol.K
 Total job time:  68278.74s(wall), 494528.54s(cpu) 
 Sun Apr 30 07:01:50 2023

        *************************************************************
        *                                                           *
        *  Thank you very much for using Q-Chem.  Have a nice day.  *
        *                                                           *
        *************************************************************


