
Running Job 1 of 2 Q_in.in
qchem Q_in.in_47014.0 /scratch/ari.fischer/qChem1518522.hpc-mn1/qchem47014/ 0
/usr/local/qchem-5.4.1/exe/qcprog.exe_s Q_in.in_47014.0 /scratch/ari.fischer/qChem1518522.hpc-mn1/qchem47014/
                  Welcome to Q-Chem
     A Quantum Leap Into The Future Of Chemistry


 Q-Chem 5.4, Q-Chem, Inc., Pleasanton, CA (2021)

 License issued to: Nanyang Technological University (site)

 E. Epifanovsky,  A. T. B. Gilbert,  Xintian Feng,  Joonho Lee,  Yuezhi Mao,  
 N. Mardirossian,  P. Pokhilko,  A. White,  M. Wormit,  M. P. Coons,  
 A. L. Dempwolff,  Zhengting Gan,  D. Hait,  P. R. Horn,  L. D. Jacobson,  
 I. Kaliman,  J. Kussmann,  A. W. Lange,  Ka Un Lao,  D. S. Levine,  Jie Liu,  
 S. C. McKenzie,  A. F. Morrison,  K. Nanda,  F. Plasser,  D. R. Rehn,  
 M. L. Vidal,  Zhi-Qiang You,  Ying Zhu,  B. Alam,  B. Albrecht,  
 A. Aldossary,  E. Alguire,  J. H. Andersen,  D. Barton,  K. Begam,  A. Behn,  
 Y. A. Bernard,  E. J. Berquist,  H. Burton,  A. Carreras,  K. Carter-Fenk,  
 R. Chakraborty,  A. D. Chien,  K. D. Closser,  V. Cofer-Shabica,  
 S. Dasgupta,  Jia Deng,  M. de Wergifosse,  M. Diedenhofen,  Hainam Do,  
 S. Ehlert,  Po-Tung Fang,  S. Fatehi,  Qingguo Feng,  T. Friedhoff,  
 J. Gayvert,  Qinghui Ge,  G. Gidofalvi,  M. Goldey,  J. Gomes,  
 C. Gonzalez-Espinoza,  S. Gulania,  A. Gunina,  M. W. D. Hanson-Heine,  
 P. H. P. Harbach,  A. W. Hauser,  M. F. Herbst,  M. Hernandez Vera,  
 M. Hodecker,  Z. C. Holden,  S. Houck,  Xunkun Huang,  Kerwin Hui,  
 B. C. Huynh,  M. Ivanov,  Hyunjun Ji,  Hanjie Jiang,  B. Kaduk,  S. Kaehler,  
 K. Khistyaev,  Jaehoon Kim,  P. Klunzinger,  Z. Koczor-Benda,  
 Joong Hoon Koh,  D. Kosenkov,  L. Koulias,  T. Kowalczyk,  C. M. Krauter,  
 K. Kue,  A. Kunitsa,  T. Kus,  A. Landau,  K. V. Lawler,  D. Lefrancois,  
 S. Lehtola,  Rain Li,  Yi-Pei Li,  Jiashu Liang,  M. Liebenthal,  
 Hung-Hsuan Lin,  You-Sheng Lin,  Fenglai Liu,  Kuan-Yu Liu,  
 M. Loipersberger,  A. Luenser,  A. Manjanath,  P. Manohar,  E. Mansoor,  
 S. F. Manzer,  Shan-Ping Mao,  A. V. Marenich,  T. Markovich,  S. Mason,  
 S. A. Maurer,  P. F. McLaughlin,  M. F. S. J. Menger,  J.-M. Mewes,  
 S. A. Mewes,  P. Morgante,  J. W. Mullinax,  K. J. Oosterbaan,  G. Paran,  
 Alexander C. Paul,  Suranjan K. Paul,  F. Pavosevic,  Zheng Pei,  S. Prager,  
 E. I. Proynov,  E. Ramos,  B. Rana,  A. E. Rask,  A. Rettig,  R. M. Richard,  
 F. Rob,  E. Rossomme,  T. Scheele,  M. Scheurer,  M. Schneider,  
 N. Sergueev,  S. M. Sharada,  W. Skomorowski,  D. W. Small,  C. J. Stein,  
 Yu-Chuan Su,  E. J. Sundstrom,  Zhen Tao,  J. Thirman,  T. Tsuchimochi,  
 N. M. Tubman,  S. P. Veccham,  O. Vydrov,  J. Wenzel,  J. Witte,  A. Yamada,  
 Kun Yao,  S. Yeganeh,  S. R. Yost,  A. Zech,  Igor Ying Zhang,  Xing Zhang,  
 Yu Zhang,  D. Zuev,  A. Aspuru-Guzik,  A. T. Bell,  N. A. Besley,  
 K. B. Bravaya,  B. R. Brooks,  D. Casanova,  Jeng-Da Chai,  S. Coriani,  
 C. J. Cramer,  A. E. DePrince, III,  R. A. DiStasio Jr.,  A. Dreuw,  
 B. D. Dunietz,  T. R. Furlani,  W. A. Goddard III,  S. Grimme,  
 S. Hammes-Schiffer,  T. Head-Gordon,  W. J. Hehre,  Chao-Ping Hsu,  
 T.-C. Jagau,  Yousung Jung,  A. Klamt,  Jing Kong,  D. S. Lambrecht,  
 WanZhen Liang,  N. J. Mayhall,  C. W. McCurdy,  J. B. Neaton,  
 C. Ochsenfeld,  J. A. Parkhill,  R. Peverati,  V. A. Rassolov,  Yihan Shao,  
 L. V. Slipchenko,  T. Stauch,  R. P. Steele,  J. E. Subotnik,  
 A. J. W. Thom,  A. Tkatchenko,  D. G. Truhlar,  T. Van Voorhis,  
 T. A. Wesolowski,  K. B. Whaley,  H. L. Woodcock III,  P. M. Zimmerman,  
 S. Faraji,  P. M. W. Gill,  M. Head-Gordon,  J. M. Herbert,  A. I. Krylov

 Additional authors for Version 5.4.1: 
 S. Kotaru,  Shaozhi Li,  Xiangyuan Li,  F. Matz,  A. Molle,  Haisheng Ren,  
 Yingli Su,  Hung-Yi Tsai,  C. Utku,  Fang Wang

 Contributors to earlier versions of Q-Chem not listed above: 
 R. D. Adamson,  B. Austin,  R. Baer,  J. Baker,  G. J. O. Beran,  
 K. Brandhorst,  S. T. Brown,  E. F. C. Byrd,  A. K. Chakraborty,  
 G. K. L. Chan,  Chun-Min Chang,  Yunqing Chen,  C.-L. Cheng,  
 Siu Hung Chien,  D. M. Chipman,  D. L. Crittenden,  H. Dachsel,  
 R. J. Doerksen,  A. D. Dutoi,  R. G. Edgar,  J. Fosso-Tande,  
 L. Fusti-Molnar,  D. Ghosh,  A. Ghysels,  A. Golubeva-Zadorozhnaya,  
 J. Gonthier,  M. S. Gordon,  S. R. Gwaltney,  G. Hawkins,  J. E. Herr,  
 A. Heyden,  S. Hirata,  E. G. Hohenstein,  G. Kedziora,  F. J. Keil,  
 C. Kelley,  Jihan Kim,  R. A. King,  R. Z. Khaliullin,  P. P. Korambath,  
 W. Kurlancheek,  A. Laurent,  A. M. Lee,  M. S. Lee,  S. V. Levchenko,  
 Ching Yeh Lin,  D. Liotard,  E. Livshits,  R. C. Lochan,  I. Lotan,  
 L. A. Martinez-Martinez,  P. E. Maslen,  N. Nair,  D. P. O'Neill,  
 D. Neuhauser,  E. Neuscamman,  C. M. Oana,  R. Olivares-Amaya,  R. Olson,  
 T. M. Perrine,  B. Peters,  P. A. Pieniazek,  A. Prociuk,  Y. M. Rhee,  
 J. Ritchie,  M. A. Rohrdanz,  E. Rosta,  N. J. Russ,  H. F. Schaefer III,  
 M. W. Schmidt,  N. E. Schultz,  S. Sharma,  N. Shenvi,  C. D. Sherrill,  
 A. C. Simmonett,  A. Sodt,  T. Stein,  D. Stuck,  K. S. Thanthiriwatte,  
 V. Vanovschi,  L. Vogt,  Tao Wang,  A. Warshel,  M. A. Watson,  
 C. F. Williams,  Q. Wu,  X. Xu,  Jun Yang,  W. Zhang,  Yan Zhao

 Please cite Q-Chem as follows:
 Y. Shao et al., Mol. Phys. 113, 184-215 (2015)
 DOI: 10.1080/00268976.2014.952696

 Q-Chem 5.4.1 for Intel X86 EM64T Linux

 Parts of Q-Chem use Armadillo 9.800.1 (Horizon Scraper).
 http://arma.sourceforge.net/

 Q-Chem begins on Thu Apr 27 16:33:49 2023  

 Host: 
0

     Scratch files written to /scratch/ari.fischer/qChem1518522.hpc-mn1/qchem47014//
 Aug1521 |scratch|qcdevops|jenkins|workspace|build_RNUM 8249   
 Processing $rem in /usr/local/qchem-5.4.1/config/preferences:
 Processing $rem in /home/ari.fischer/.qchemrc:
 Symmetry turned off for PCM/SM12/SMD calculation


!!********************************************.
!!******************Warning*******************.
!!Desired Analytical derivatives not available.
!!Finite difference job might take a long time.
!!********************************************.
!!********************************************.


 2-order derivative to be evaluated numerically with 1-order analytical derivatives

 Checking the input file for inconsistencies... 	...done.

--------------------------------------------------------------
User input:
--------------------------------------------------------------
$molecule
0 2
C    0.8665396    0.0998288    0.0302134
C    2.3238157    0.4748175    0.0049630
O    3.0988602   -0.3210830    0.9074558
C   -0.0759809    0.9935918    0.4149026
C   -1.6344671    0.7919732    0.4611231
O   -2.6919180    1.2807543    1.3251375
C   -1.8336241   -0.7443746    0.0932135
C   -0.8624873   -1.6126226   -0.2904468
C    0.4909362   -1.2211321   -0.3402099
H    2.7451523    0.2916938   -0.9826808
H    2.4411413    1.5349826    0.2361891
H    2.7796813   -0.1468313    1.7997765
H    0.2091385    1.9991316    0.7038355
H   -1.8208709    1.2284897   -0.7070446
H   -2.7852173    2.2274557    1.1673934
H   -2.8707274   -1.0509347    0.1336596
H   -1.1282295   -2.6251124   -0.5657823
H    1.2506583   -1.9259002   -0.6487125
O   -1.9502247    0.7744363   -2.0713688
O   -2.0960870   -0.5007436   -1.8017164
$end

$rem
BASIS = 6-311++G(2df,2p)
GUI = 2
JOB_TYPE = Frequency
METHOD = wB97M-V
SOLVENT_METHOD = SMD
SCF_ALGORITHM = DIIS_GDM
MAX_SCF_CYCLES = 400
SCF_CONVERGENCE = 6
THRESH = 11
SYMMETRY_IGNORE = 1
$end

--------------------------------------------------------------
 ----------------------------------------------------------------
             Standard Nuclear Orientation (Angstroms)
    I     Atom           X                Y                Z
 ----------------------------------------------------------------
    1      C       0.8665396000     0.0998288000     0.0302134000
    2      C       2.3238157000     0.4748175000     0.0049630000
    3      O       3.0988602000    -0.3210830000     0.9074558000
    4      C      -0.0759809000     0.9935918000     0.4149026000
    5      C      -1.6344671000     0.7919732000     0.4611231000
    6      O      -2.6919180000     1.2807543000     1.3251375000
    7      C      -1.8336241000    -0.7443746000     0.0932135000
    8      C      -0.8624873000    -1.6126226000    -0.2904468000
    9      C       0.4909362000    -1.2211321000    -0.3402099000
   10      H       2.7451523000     0.2916938000    -0.9826808000
   11      H       2.4411413000     1.5349826000     0.2361891000
   12      H       2.7796813000    -0.1468313000     1.7997765000
   13      H       0.2091385000     1.9991316000     0.7038355000
   14      H      -1.8208709000     1.2284897000    -0.7070446000
   15      H      -2.7852173000     2.2274557000     1.1673934000
   16      H      -2.8707274000    -1.0509347000     0.1336596000
   17      H      -1.1282295000    -2.6251124000    -0.5657823000
   18      H       1.2506583000    -1.9259002000    -0.6487125000
   19      O      -1.9502247000     0.7744363000    -2.0713688000
   20      O      -2.0960870000    -0.5007436000    -1.8017164000
 ----------------------------------------------------------------
 Nuclear Repulsion Energy =         618.51420496 hartrees
 There are       42 alpha and       41 beta electrons
 Requested basis set is 6-311++G(2df,2p)
 There are 142 shells and 464 basis functions

 Total QAlloc Memory Limit 288000 MB
 Mega-Array Size       188 MB
 MEM_STATIC part       192 MB
 
 Citation of the SMD model:
 Marenich, A.V.; Cramer, C.J.; Truhlar, D.G.
 J. Phys. Chem. B 2009, 113, 6378-6396.
 iSolventCode=           1
 Solvent: water                                                           
 
 vradii
            1           2           3           4           5           6
    1   1.8500000   1.8500000   1.5200000   1.8500000   1.8500000   1.5200000
            7           8           9          10          11          12
    1   1.8500000   1.8500000   1.8500000   1.2000000   1.2000000   1.2000000
           13          14          15          16          17          18
    1   1.2000000   1.2000000   1.2000000   1.2000000   1.2000000   1.2000000
           19          20
    1   1.5200000   1.5200000
 Changing PCM_VDW_RADII to SMD_RADIUS
 Discretize the solute cavity surface with Lebedev spheres
	Using 110 Lebedev grid points for each H atom
	Using 194 Lebedev grid points for other atoms
	Atomic van der Waals radii will be scaled by 1.20
 Remove points where switching function is < 1.0e-08
 Keep 1504 surface tesserae and discard 1620 interior tesserae
 Molecular Surface Area = 174.764 Angst**2
 A cutoff of  1.0D-11 yielded   8623 shell pairs
 There are     92053 function pairs (    114531 Cartesian)
 Smallest overlap matrix eigenvalue = 7.92E-07

 Q-Chem warning in module stvman/mkSTV.C, line 323:

 Overlap eigenvalue is smaller than square root of threshold
 Use THRESH >= 12 to get rid of this warning

 Linear dependence detected in AO basis
 Tighter screening thresholds may be required for diffuse basis sets
 Use S2THRESH > 14 and THRESH = 14 in case of SCF convergence issues
 Number of orthogonalized atomic orbitals = 463
 Maximum deviation from orthogonality = 9.596E-11
 Guess from superposition of atomic densities
 Warning:  Energy on first SCF cycle will be non-variational
 SAD guess density has 83.000000 electrons

 -----------------------------------------------------------------------
  General SCF calculation program by
  Eric Jon Sundstrom, Paul Horn, Yuezhi Mao, Dmitri Zuev, Alec White,
  David Stuck, Shaama M.S., Shane Yost, Joonho Lee, David Small,
  Daniel Levine, Susi Lehtola, Hugh Burton, Evgeny Epifanovsky,
  Bang C. Huynh
 -----------------------------------------------------------------------
 Exchange:     0.1500 Hartree-Fock + 1.0000 wB97M-V + LR-HF
 Correlation:  1.0000 wB97M-V
 Using SG-2 standard quadrature grid
 Nonlocal Correlation:  VV10 with C = 0.0100 and b = 6.00 and scale = 1.00000
 Grid used for NLC:  SG-1 standard quadrature
 using 8 threads for integral computing
 -------------------------------------------------------
 OpenMP Integral computing Module                
 Release: version 1.0, May 2013, Q-Chem Inc. Pittsburgh 
 -------------------------------------------------------
 
 Citation of the SMD model:
 Marenich, A.V.; Cramer, C.J.; Truhlar, D.G.
 J. Phys. Chem. B 2009, 113, 6378-6396.
 iSolventCode=           1
 Solvent: water                                                           
 
 vradii
            1           2           3           4           5           6
    1   1.8500000   1.8500000   1.5200000   1.8500000   1.8500000   1.5200000
            7           8           9          10          11          12
    1   1.8500000   1.8500000   1.8500000   1.2000000   1.2000000   1.2000000
           13          14          15          16          17          18
    1   1.2000000   1.2000000   1.2000000   1.2000000   1.2000000   1.2000000
           19          20
    1   1.5200000   1.5200000
 -------------------------------------------------------
 OpenMP BLAS3 based DFT computing Module                
 Release: version 1.0, May 2013, Q-Chem Inc. Pittsburgh 
 -------------------------------------------------------
 A unrestricted SCF calculation will be
 performed using DIIS, GDM
 SCF converges when RMS gradient is below 1.0e-06
 ---------------------------------------
  Cycle       Energy         DIIS error
 ---------------------------------------
    1    -575.2983004103      1.12e-02  
    2    -572.6875914478      1.08e-03  Done DIIS. Switching to GDM
 ---------------------------------------
  Cycle       Energy        RMS Gradient
 ---------------------------------------
    1    -572.6875914478      3.50e-02   Descent step
    2    -572.7835713121      3.37e-02   Normal BFGS step
    3    -572.8010135122      2.48e-02   Normal BFGS step
    4    -572.8038198207      1.61e-02   Normal BFGS step
    5    -572.8054068674      1.28e-02   Normal BFGS step
    6    -572.8061523073      1.03e-02   Normal BFGS step
    7    -572.8064527699      6.41e-03   Normal BFGS step
    8    -572.8066172070      3.59e-03   Normal BFGS step
    9    -572.8067656785      3.05e-03   Normal BFGS step
   10    -572.8068181385      2.08e-03   Normal BFGS step
   11    -572.8068470310      1.06e-03   Normal BFGS step
   12    -572.8068600682      7.14e-04   Normal BFGS step
   13    -572.8068649278      4.69e-04   Normal BFGS step
   14    -572.8068661526      2.40e-04   Normal BFGS step
   15    -572.8068664720      1.86e-04   Normal BFGS step
   16    -572.8068666364      1.31e-04   Normal BFGS step
   17    -572.8068667283      5.64e-05   Normal BFGS step
   18    -572.8068667586      2.62e-05   Normal BFGS step
   19    -572.8068667694      1.55e-05   Normal BFGS step
   20    -572.8068667725      8.65e-06   Normal BFGS step
   21    -572.8068667734      4.90e-06   Normal BFGS step
   22    -572.8068667735      2.08e-06   Normal BFGS step
   23    -572.8068667734      8.07e-07  Convergence criterion met
 ---------------------------------------
 SCF time:   CPU 3638.31s  wall 464.00s 
<S^2> =          0.759232313
(3)  G-ENP(liq) elect-nuc-pol free energy of system     -572.806866773 a.u.
(4)  G-CDS(liq) cavity-dispersion-solvent structure 
     free energy                                                3.4371 kcal/mol
(6)  G-S(liq) free energy of system                     -572.801389429 a.u.
 SCF   energy in the final basis set =     -572.8013894290
 Total energy in the final basis set =     -572.8013894290
 
 --------------------------------------------------------------
 
                    Orbital Energies (a.u.)
 --------------------------------------------------------------
 
 Alpha MOs
 -- Occupied --
-19.4289 -19.4128 -19.3623 -19.3395 -10.4264 -10.3984 -10.3891 -10.3737
-10.3695 -10.3591 -10.3530  -1.3053  -1.1629  -1.1559  -0.9908  -0.9507
 -0.8950  -0.8625  -0.8003  -0.7466  -0.7073  -0.6576  -0.6402  -0.6193
 -0.6024  -0.5923  -0.5847  -0.5795  -0.5512  -0.5472  -0.5283  -0.5183
 -0.4897  -0.4833  -0.4518  -0.4463  -0.4321  -0.4088  -0.3857  -0.3824
 -0.3446  -0.3158
 -- Virtual --
 -0.0118   0.0255   0.0342   0.0366   0.0456   0.0534   0.0567   0.0679
  0.0717   0.0810   0.0848   0.0956   0.1038   0.1158   0.1282   0.1338
  0.1426   0.1427   0.1509   0.1541   0.1572   0.1602   0.1664   0.1685
  0.1722   0.1784   0.1799   0.1881   0.1924   0.2016   0.2075   0.2129
  0.2174   0.2205   0.2270   0.2338   0.2481   0.2487   0.2621   0.2693
  0.2706   0.2739   0.2796   0.2860   0.2954   0.3051   0.3067   0.3107
  0.3182   0.3272   0.3278   0.3369   0.3437   0.3465   0.3500   0.3579
  0.3658   0.3666   0.3703   0.3811   0.3871   0.3907   0.3987   0.4044
  0.4105   0.4139   0.4318   0.4354   0.4395   0.4616   0.4628   0.4795
  0.5392   0.5426   0.5462   0.5704   0.5854   0.5889   0.5919   0.6104
  0.6199   0.6287   0.6349   0.6371   0.6454   0.6609   0.6738   0.6823
  0.6856   0.6964   0.6983   0.7077   0.7120   0.7229   0.7268   0.7308
  0.7526   0.7612   0.7632   0.7757   0.7828   0.8053   0.8167   0.8195
  0.8319   0.8418   0.8530   0.8547   0.8632   0.8855   0.8878   0.9118
  0.9346   0.9510   0.9645   0.9904   1.0173   1.0205   1.0316   1.0333
  1.0452   1.0668   1.0740   1.0979   1.1018   1.1209   1.1265   1.1326
  1.1436   1.1584   1.1704   1.1768   1.1841   1.1914   1.2161   1.2281
  1.2350   1.2372   1.2497   1.2525   1.2673   1.2728   1.2777   1.2968
  1.3057   1.3158   1.3228   1.3326   1.3508   1.3682   1.3804   1.3886
  1.3939   1.4134   1.4189   1.4249   1.4315   1.4435   1.4493   1.4600
  1.4776   1.4840   1.5086   1.5230   1.5281   1.5423   1.5544   1.5648
  1.5744   1.5837   1.5914   1.6120   1.6292   1.6427   1.6622   1.6709
  1.6950   1.7106   1.7200   1.7452   1.7618   1.7911   1.7983   1.8303
  1.8541   1.8829   1.8971   1.9238   1.9655   1.9923   2.0110   2.0378
  2.0610   2.0924   2.1085   2.1246   2.1557   2.1866   2.1896   2.2192
  2.3003   2.3186   2.3355   2.3550   2.3555   2.3724   2.3958   2.4773
  2.5971   2.6172   2.6423   2.6459   2.6906   2.7083   2.7272   2.7521
  2.7723   2.7893   2.7976   2.8301   2.8443   2.8506   2.8714   2.8878
  2.8956   2.9080   2.9293   2.9378   2.9465   2.9647   2.9860   2.9984
  3.0197   3.0383   3.0467   3.0603   3.0785   3.1012   3.1170   3.1296
  3.1743   3.1882   3.2004   3.2135   3.2228   3.2383   3.2530   3.2749
  3.2818   3.2951   3.3171   3.3285   3.3512   3.3554   3.3661   3.3844
  3.3948   3.4241   3.4473   3.4611   3.4698   3.4864   3.5071   3.5177
  3.5270   3.5384   3.5497   3.5640   3.5750   3.5980   3.6088   3.6203
  3.6362   3.6689   3.6727   3.6899   3.7133   3.7432   3.7516   3.7708
  3.7851   3.7899   3.8123   3.8271   3.8384   3.8416   3.8562   3.8731
  3.8944   3.9074   3.9243   3.9386   3.9705   3.9882   4.0231   4.0345
  4.0424   4.0750   4.1139   4.1265   4.1293   4.1654   4.1972   4.2197
  4.2262   4.2326   4.2557   4.2705   4.2853   4.2959   4.3108   4.3329
  4.3388   4.3564   4.3702   4.3949   4.4086   4.4148   4.4672   4.4837
  4.4996   4.5172   4.5337   4.5507   4.5776   4.6145   4.6184   4.6332
  4.6504   4.6655   4.6786   4.7112   4.7494   4.7855   4.8085   4.8399
  4.8738   4.9014   4.9092   4.9338   4.9812   5.0472   5.0687   5.1197
  5.1322   5.1682   5.1925   5.2132   5.2343   5.2543   5.2554   5.2684
  5.2797   5.2878   5.3044   5.3090   5.3203   5.3360   5.3610   5.4006
  5.4257   5.4519   5.4650   5.4867   5.4894   5.5586   5.5806   5.5989
  5.6175   5.6389   5.6706   5.6766   5.6951   5.7094   5.7636   5.8134
  5.8718   5.9149   5.9412   6.0062   6.0341   6.0857   6.3114   6.4583
  6.5085   6.5768   6.6126   6.8806   6.9732   7.0589   7.0845   7.0990
  7.1081   7.1179   7.2435   7.3068   7.3093   7.3168   7.3288   7.3428
  7.3613   7.3663   7.4227   7.6017   7.6371   7.6419   7.7736   7.7992
  8.0338   8.0705  24.2923  24.4929  24.5975  24.8065  24.8643  25.0942
 25.3166  50.4861  50.5258  50.5904  50.6083
 
 Beta MOs
 -- Occupied --
-19.4128 -19.3984 -19.3624 -19.3395 -10.4264 -10.3989 -10.3892 -10.3735
-10.3693 -10.3591 -10.3527  -1.2756  -1.1630  -1.1559  -0.9879  -0.9270
 -0.8811  -0.8614  -0.7993  -0.7458  -0.7068  -0.6537  -0.6370  -0.6147
 -0.5936  -0.5863  -0.5670  -0.5513  -0.5450  -0.5308  -0.5167  -0.5107
 -0.4878  -0.4792  -0.4501  -0.4382  -0.4252  -0.4039  -0.3842  -0.3393
 -0.3135
 -- Virtual --
 -0.0268  -0.0003   0.0257   0.0345   0.0368   0.0458   0.0537   0.0568
  0.0685   0.0727   0.0812   0.0850   0.0968   0.1045   0.1163   0.1286
  0.1345   0.1427   0.1430   0.1512   0.1544   0.1580   0.1612   0.1669
  0.1693   0.1723   0.1790   0.1802   0.1900   0.1927   0.2017   0.2077
  0.2130   0.2209   0.2226   0.2280   0.2353   0.2490   0.2493   0.2627
  0.2713   0.2730   0.2743   0.2813   0.2869   0.2973   0.3062   0.3094
  0.3120   0.3191   0.3286   0.3294   0.3378   0.3444   0.3466   0.3525
  0.3583   0.3667   0.3682   0.3707   0.3836   0.3880   0.3915   0.4006
  0.4057   0.4114   0.4160   0.4326   0.4365   0.4398   0.4618   0.4630
  0.4809   0.5396   0.5427   0.5465   0.5710   0.5855   0.5890   0.5921
  0.6109   0.6205   0.6289   0.6352   0.6374   0.6458   0.6611   0.6741
  0.6824   0.6863   0.6966   0.6987   0.7078   0.7122   0.7234   0.7270
  0.7308   0.7527   0.7615   0.7639   0.7759   0.7830   0.8058   0.8168
  0.8198   0.8324   0.8430   0.8534   0.8553   0.8635   0.8863   0.8882
  0.9123   0.9351   0.9520   0.9661   0.9918   1.0192   1.0208   1.0321
  1.0343   1.0462   1.0672   1.0746   1.0996   1.1038   1.1238   1.1283
  1.1355   1.1459   1.1612   1.1741   1.1817   1.1877   1.2005   1.2216
  1.2319   1.2399   1.2405   1.2517   1.2667   1.2726   1.2738   1.2817
  1.3030   1.3077   1.3166   1.3251   1.3332   1.3534   1.3705   1.3822
  1.3897   1.3948   1.4147   1.4195   1.4258   1.4324   1.4441   1.4510
  1.4608   1.4790   1.4860   1.5106   1.5258   1.5284   1.5434   1.5584
  1.5697   1.5754   1.5838   1.5923   1.6136   1.6317   1.6430   1.6648
  1.6813   1.6988   1.7137   1.7301   1.7485   1.7672   1.7953   1.8028
  1.8386   1.8545   1.8861   1.9025   1.9263   1.9751   1.9954   2.0164
  2.0407   2.0621   2.0981   2.1096   2.1258   2.1580   2.1873   2.2038
  2.2208   2.3096   2.3339   2.3366   2.3576   2.3616   2.3731   2.3991
  2.4796   2.5980   2.6178   2.6429   2.6465   2.6914   2.7087   2.7298
  2.7547   2.7740   2.7897   2.7982   2.8309   2.8442   2.8509   2.8714
  2.8876   2.8959   2.9081   2.9292   2.9382   2.9462   2.9651   2.9861
  2.9982   3.0202   3.0386   3.0467   3.0605   3.0785   3.1015   3.1171
  3.1297   3.1741   3.1883   3.2001   3.2128   3.2231   3.2386   3.2531
  3.2750   3.2822   3.2951   3.3170   3.3288   3.3514   3.3562   3.3660
  3.3844   3.3952   3.4240   3.4473   3.4610   3.4701   3.4865   3.5073
  3.5176   3.5274   3.5388   3.5499   3.5643   3.5752   3.5982   3.6089
  3.6205   3.6367   3.6684   3.6727   3.6904   3.7126   3.7429   3.7515
  3.7709   3.7851   3.7901   3.8124   3.8272   3.8385   3.8415   3.8564
  3.8732   3.8946   3.9075   3.9244   3.9386   3.9704   3.9885   4.0232
  4.0346   4.0424   4.0749   4.1136   4.1266   4.1293   4.1656   4.1975
  4.2194   4.2262   4.2325   4.2558   4.2704   4.2854   4.2960   4.3107
  4.3323   4.3392   4.3566   4.3696   4.3952   4.4088   4.4148   4.4679
  4.4838   4.5006   4.5201   4.5345   4.5524   4.5798   4.6173   4.6342
  4.6415   4.6532   4.6670   4.6797   4.7159   4.7620   4.7947   4.8240
  4.8529   4.8759   4.9030   4.9151   4.9381   4.9914   5.0498   5.0733
  5.1374   5.1768   5.1917   5.2244   5.2390   5.2572   5.2749   5.2819
  5.2858   5.2927   5.3080   5.3108   5.3165   5.3347   5.3469   5.3818
  5.4099   5.4293   5.4633   5.4765   5.4887   5.4953   5.5598   5.5855
  5.5991   5.6372   5.6440   5.6743   5.6920   5.6972   5.7169   5.7644
  5.8139   5.8727   5.9150   5.9413   6.0063   6.0342   6.0857   6.3115
  6.5026   6.5216   6.5771   6.6127   6.9457   7.0352   7.0861   7.1003
  7.1031   7.1576   7.1831   7.2864   7.3070   7.3133   7.3183   7.3293
  7.3475   7.3661   7.3955   7.4735   7.6096   7.6403   7.6500   7.7736
  7.7995   8.0532   8.0869  24.2923  24.4929  24.5975  24.8065  24.8644
 25.0942  25.3166  50.4978  50.5369  50.5905  50.6091
 --------------------------------------------------------------
 
          Ground-State Mulliken Net Atomic Charges

     Atom                 Charge (a.u.)    Spin (a.u.)
  --------------------------------------------------------
      1 C                     0.396239      -0.009596
      2 C                    -0.535404      -0.003955
      3 O                    -0.387979      -0.000560
      4 C                    -0.347765       0.021478
      5 C                    -0.590600      -0.004558
      6 O                    -0.431507      -0.000281
      7 C                    -0.167892      -0.026950
      8 C                    -0.269722       0.011060
      9 C                    -0.101334       0.009482
     10 H                     0.215689       0.000501
     11 H                     0.233218      -0.000097
     12 H                     0.330971      -0.000036
     13 H                     0.293880      -0.000128
     14 H                     0.307965      -0.007132
     15 H                     0.358906      -0.000049
     16 H                     0.354222       0.001226
     17 H                     0.325746      -0.000112
     18 H                     0.291242      -0.000072
     19 O                    -0.238295       0.489840
     20 O                    -0.037579       0.519938
  --------------------------------------------------------
  Sum of atomic charges =    -0.000000
  Sum of spin   charges =     1.000000

 -----------------------------------------------------------------
                    Cartesian Multipole Moments
 -----------------------------------------------------------------
    Charge (ESU x 10^10)
                -0.0000
    Dipole Moment (Debye)
         X       0.6345      Y       2.0132      Z       2.6717
       Tot       3.4049
    Quadrupole Moments (Debye-Ang)
        XX     -75.4478     XY       1.6827     YY     -53.3647
        XZ      -4.4081     YZ       4.4253     ZZ     -74.6093
    Octopole Moments (Debye-Ang^2)
       XXX      38.0607    XXY      15.1976    XYY       2.1467
       YYY      11.2065    XXZ       7.5815    XYZ      -0.0836
       YYZ      11.5107    XZZ      60.4524    YZZ      -3.6993
       ZZZ      45.3873
    Hexadecapole Moments (Debye-Ang^3)
      XXXX   -1694.3981   XXXY      74.1562   XXYY    -266.9302
      XYYY       9.2169   YYYY    -368.1465   XXXZ    -138.2515
      XXYZ       2.5635   XYYZ     -56.6625   YYYZ     -10.3358
      XXZZ    -357.1698   XYZZ      21.5697   YYZZ    -155.3447
      XZZZ    -108.4697   YZZZ     -47.5829   ZZZZ    -505.6481
 -----------------------------------------------------------------
 Calculating analytic gradient of the SCF energy
 Gradient of CDS energy
            1           2           3           4           5           6
    1   0.0000065   0.0008325  -0.0002175   0.0002624  -0.0003924   0.0000657
    2  -0.0000486   0.0006998  -0.0000833   0.0001620   0.0002379  -0.0002237
    3   0.0000102  -0.0003641  -0.0001784   0.0000799   0.0002805  -0.0001232
            7           8           9          10          11          12
    1  -0.0001878  -0.0001499   0.0002539  -0.0000468  -0.0002051   0.0001062
    2  -0.0002318  -0.0002766  -0.0001772  -0.0002908   0.0000804  -0.0001612
    3   0.0001292  -0.0000553  -0.0000933  -0.0001160   0.0001033   0.0004915
           13          14          15          16          17          18
    1   0.0001062  -0.0000007  -0.0002614  -0.0002247  -0.0000709   0.0001694
    2   0.0001491  -0.0000265   0.0004108   0.0000355  -0.0001902  -0.0000819
    3   0.0000325  -0.0001342   0.0001435  -0.0000604  -0.0000767  -0.0000256
           19          20
    1  -0.0000150  -0.0000305
    2  -0.0000529   0.0000695
    3  -0.0000397  -0.0000038
 Gradient of SCF Energy
            1           2           3           4           5           6
    1   0.0171508  -0.0052785   0.0105566   0.0388806  -0.0344357  -0.0428433
    2  -0.0016261  -0.0141237  -0.0053313  -0.0390001   0.0708497  -0.0102896
    3  -0.0033509   0.0079901  -0.0107959  -0.0383326   0.0490489   0.0159012
            7           8           9          10          11          12
    1   0.0580600  -0.0886646   0.0451390   0.0005079   0.0003619  -0.0059917
    2  -0.0927132   0.0360444   0.0197579   0.0007571   0.0086061   0.0044333
    3  -0.0058640  -0.0101508  -0.0051906  -0.0059764   0.0026920   0.0112541
           13          14          15          16          17          18
    1  -0.0034347  -0.0005840  -0.0001990  -0.0066197  -0.0012815   0.0042494
    2   0.0118699   0.0165711   0.0161934   0.0051245  -0.0071389  -0.0036484
    3   0.0039396  -0.0259513  -0.0028469  -0.0131491  -0.0022297  -0.0011663
           19          20
    1   0.0050425   0.0093838
    2   0.0323351  -0.0486711
    3   0.0074440   0.0267346
 Max gradient component =       9.271E-02
 RMS gradient           =       2.775E-02
 Computing fast CPCM-SWIG gradient
 Updating gradient with PCM contributions...
 -- total gradient after adding PCM contribution --
---------------------------------------------------
  Atom         X              Y              Z     
---------------------------------------------------
   1       0.010182      -0.003458       0.001134
   2      -0.001316      -0.002647       0.001279
   3       0.002230      -0.000072       0.001009
   4       0.046591      -0.027713      -0.036927
   5      -0.031820       0.073620       0.044569
   6      -0.040613       0.006954       0.010081
   7       0.053600      -0.094902      -0.005448
   8      -0.089580       0.029708      -0.010707
   9       0.045312       0.013885      -0.004177
  10      -0.000150       0.000153      -0.000270
  11       0.000277       0.000229       0.000241
  12      -0.000077      -0.000051      -0.000227
  13      -0.006330       0.000091       0.000597
  14      -0.000470       0.013116      -0.024468
  15      -0.000663      -0.000382       0.001109
  16      -0.002269       0.007812      -0.013500
  17       0.000286      -0.000786      -0.001085
  18       0.000589       0.000474       0.001111
  19       0.006041       0.036138       0.008329
  20       0.008179      -0.052167       0.027349
---------------------------------------------------
 Number of fixed atoms: 0
 Gradient time:  CPU 437.97 s  wall 64.77 s
 ######################################################
 ######################################################
 # Starting finite difference calculation for IDERIV  #
 Finite diff step size:  1.88973e-03 a.u.
 ----------------------------------------------------------------
             Standard Nuclear Orientation (Angstroms)
    I     Atom           X                Y                Z
 ----------------------------------------------------------------
    1      C       0.8675396000     0.0998288000     0.0302134000
    2      C       2.3238157000     0.4748175000     0.0049630000
    3      O       3.0988602000    -0.3210830000     0.9074558000
    4      C      -0.0759809000     0.9935918000     0.4149026000
    5      C      -1.6344671000     0.7919732000     0.4611231000
    6      O      -2.6919180000     1.2807543000     1.3251375000
    7      C      -1.8336241000    -0.7443746000     0.0932135000
    8      C      -0.8624873000    -1.6126226000    -0.2904468000
    9      C       0.4909362000    -1.2211321000    -0.3402099000
   10      H       2.7451523000     0.2916938000    -0.9826808000
   11      H       2.4411413000     1.5349826000     0.2361891000
   12      H       2.7796813000    -0.1468313000     1.7997765000
   13      H       0.2091385000     1.9991316000     0.7038355000
   14      H      -1.8208709000     1.2284897000    -0.7070446000
   15      H      -2.7852173000     2.2274557000     1.1673934000
   16      H      -2.8707274000    -1.0509347000     0.1336596000
   17      H      -1.1282295000    -2.6251124000    -0.5657823000
   18      H       1.2506583000    -1.9259002000    -0.6487125000
   19      O      -1.9502247000     0.7744363000    -2.0713688000
   20      O      -2.0960870000    -0.5007436000    -1.8017164000
 ----------------------------------------------------------------
 Nuclear Repulsion Energy =         618.50529457 hartrees
 There are       42 alpha and       41 beta electrons
 Discretize the solute cavity surface with Lebedev spheres
	Using 110 Lebedev grid points for each H atom
	Using 194 Lebedev grid points for other atoms
	Atomic van der Waals radii will be scaled by 1.20
 Remove points where switching function is < 1.0e-08
 Keep 1504 surface tesserae and discard 1620 interior tesserae
 Molecular Surface Area = 174.763 Angst**2
 Requested basis set is 6-311++G(2df,2p)
 There are 142 shells and 464 basis functions
 A cutoff of  1.0D-11 yielded   8623 shell pairs
 There are     92053 function pairs (    114531 Cartesian)
 Smallest overlap matrix eigenvalue = 7.92E-07

 Q-Chem warning in module stvman/mkSTV.C, line 323:

 Overlap eigenvalue is smaller than square root of threshold
 Use THRESH >= 12 to get rid of this warning

 Linear dependence detected in AO basis
 Tighter screening thresholds may be required for diffuse basis sets
 Use S2THRESH > 14 and THRESH = 14 in case of SCF convergence issues
 Number of orthogonalized atomic orbitals = 463
 Maximum deviation from orthogonality = 1.750E-10
 Guess MOs from SCF MO coefficient file

 -----------------------------------------------------------------------
  General SCF calculation program by
  Eric Jon Sundstrom, Paul Horn, Yuezhi Mao, Dmitri Zuev, Alec White,
  David Stuck, Shaama M.S., Shane Yost, Joonho Lee, David Small,
  Daniel Levine, Susi Lehtola, Hugh Burton, Evgeny Epifanovsky,
  Bang C. Huynh
 -----------------------------------------------------------------------
 Exchange:     0.1500 Hartree-Fock + 1.0000 wB97M-V + LR-HF
 Correlation:  1.0000 wB97M-V
 Using SG-2 standard quadrature grid
 Nonlocal Correlation:  VV10 with C = 0.0100 and b = 6.00 and scale = 1.00000
 Grid used for NLC:  SG-1 standard quadrature
 
 Citation of the SMD model:
 Marenich, A.V.; Cramer, C.J.; Truhlar, D.G.
 J. Phys. Chem. B 2009, 113, 6378-6396.
 iSolventCode=           1
 Solvent: water                                                           
 
 vradii
            1           2           3           4           5           6
    1   1.8500000   1.8500000   1.5200000   1.8500000   1.8500000   1.5200000
            7           8           9          10          11          12
    1   1.8500000   1.8500000   1.8500000   1.2000000   1.2000000   1.2000000
           13          14          15          16          17          18
    1   1.2000000   1.2000000   1.2000000   1.2000000   1.2000000   1.2000000
           19          20
    1   1.5200000   1.5200000
 -------------------------------------------------------
 OpenMP BLAS3 based DFT computing Module                
 Release: version 1.0, May 2013, Q-Chem Inc. Pittsburgh 
 -------------------------------------------------------
 A unrestricted SCF calculation will be
 performed using Roothaan-Hall, DIIS, GDM
 SCF converges when RMS gradient is below 1.0e-06
 ---------------------------------------
  Cycle       Energy         DIIS error
 ---------------------------------------
    1    -572.7716116999      1.75e-04  Roothaan Step
 ---------------------------------------
  Cycle       Energy         DIIS error
 ---------------------------------------
    1    -572.8003209191      1.98e-04  
    2    -572.8044858033      1.72e-04  Done DIIS. Switching to GDM
 ---------------------------------------
  Cycle       Energy        RMS Gradient
 ---------------------------------------
    1    -572.8044858033      1.03e-02   Normal BFGS step
    2    -572.8044018348      1.85e-02  Line search: overstep
    3    -572.8066595117      3.21e-03   Normal BFGS step
    4    -572.8068099210      2.08e-03   Normal BFGS step
    5    -572.8068389507      7.18e-04   Normal BFGS step
    6    -572.8068433992      5.45e-04   Normal BFGS step
    7    -572.8068450336      4.24e-04   Normal BFGS step
    8    -572.8068457406      2.26e-04   Normal BFGS step
    9    -572.8068460093      2.09e-04   Normal BFGS step
   10    -572.8068461692      1.16e-04   Normal BFGS step
   11    -572.8068462738      9.97e-05   Normal BFGS step
   12    -572.8068463356      5.73e-05   Normal BFGS step
   13    -572.8068463590      4.05e-05   Normal BFGS step
   14    -572.8068463692      2.93e-05   Normal BFGS step
   15    -572.8068463734      1.88e-05   Normal BFGS step
   16    -572.8068463747      1.09e-05   Normal BFGS step
   17    -572.8068463751      4.80e-06   Normal BFGS step
   18    -572.8068463752      3.26e-06   Normal BFGS step
   19    -572.8068463755      1.91e-06   Normal BFGS step
   20    -572.8068463754      1.24e-06   Normal BFGS step
   21    -572.8068463758      8.35e-07  Convergence criterion met
 ---------------------------------------
 SCF time:   CPU 3369.18s  wall 430.00s 
<S^2> =          0.759230514
(3)  G-ENP(liq) elect-nuc-pol free energy of system     -572.806846376 a.u.
(4)  G-CDS(liq) cavity-dispersion-solvent structure 
     free energy                                                3.4371 kcal/mol
(6)  G-S(liq) free energy of system                     -572.801369018 a.u.
 SCF   energy in the final basis set =     -572.8013690176
 Total energy in the final basis set =     -572.8013690176
 
 --------------------------------------------------------------
 
                    Orbital Energies (a.u.)
 --------------------------------------------------------------
 
 Alpha MOs
 -- Occupied --
-19.4289 -19.4128 -19.3623 -19.3395 -10.4264 -10.3984 -10.3891 -10.3738
-10.3695 -10.3592 -10.3530  -1.3053  -1.1629  -1.1559  -0.9908  -0.9507
 -0.8950  -0.8625  -0.8003  -0.7465  -0.7073  -0.6576  -0.6402  -0.6193
 -0.6024  -0.5923  -0.5847  -0.5795  -0.5512  -0.5471  -0.5284  -0.5183
 -0.4896  -0.4833  -0.4518  -0.4462  -0.4321  -0.4088  -0.3858  -0.3824
 -0.3446  -0.3157
 -- Virtual --
 -0.0118   0.0255   0.0342   0.0366   0.0456   0.0534   0.0567   0.0679
  0.0717   0.0810   0.0848   0.0955   0.1038   0.1158   0.1282   0.1338
  0.1426   0.1427   0.1509   0.1541   0.1572   0.1602   0.1664   0.1685
  0.1722   0.1784   0.1799   0.1881   0.1924   0.2016   0.2075   0.2129
  0.2174   0.2205   0.2270   0.2338   0.2481   0.2487   0.2621   0.2693
  0.2706   0.2739   0.2797   0.2860   0.2954   0.3051   0.3067   0.3107
  0.3182   0.3272   0.3278   0.3369   0.3436   0.3465   0.3500   0.3579
  0.3658   0.3666   0.3703   0.3811   0.3871   0.3907   0.3987   0.4044
  0.4105   0.4140   0.4318   0.4354   0.4395   0.4616   0.4628   0.4796
  0.5392   0.5426   0.5461   0.5704   0.5853   0.5889   0.5919   0.6104
  0.6198   0.6287   0.6349   0.6371   0.6453   0.6609   0.6738   0.6823
  0.6856   0.6964   0.6983   0.7077   0.7120   0.7229   0.7269   0.7308
  0.7526   0.7612   0.7632   0.7757   0.7827   0.8053   0.8167   0.8195
  0.8318   0.8418   0.8530   0.8547   0.8632   0.8854   0.8878   0.9118
  0.9345   0.9510   0.9645   0.9904   1.0173   1.0205   1.0317   1.0333
  1.0452   1.0668   1.0740   1.0979   1.1018   1.1209   1.1265   1.1326
  1.1436   1.1584   1.1704   1.1768   1.1841   1.1914   1.2161   1.2281
  1.2350   1.2372   1.2497   1.2525   1.2673   1.2728   1.2776   1.2968
  1.3057   1.3157   1.3228   1.3326   1.3508   1.3682   1.3804   1.3886
  1.3939   1.4133   1.4191   1.4249   1.4314   1.4436   1.4493   1.4600
  1.4776   1.4840   1.5086   1.5230   1.5281   1.5423   1.5544   1.5649
  1.5744   1.5837   1.5914   1.6119   1.6292   1.6426   1.6622   1.6709
  1.6950   1.7106   1.7200   1.7451   1.7617   1.7911   1.7983   1.8304
  1.8541   1.8829   1.8971   1.9238   1.9654   1.9923   2.0110   2.0378
  2.0610   2.0925   2.1086   2.1246   2.1558   2.1866   2.1896   2.2192
  2.3003   2.3187   2.3355   2.3550   2.3555   2.3723   2.3958   2.4773
  2.5970   2.6171   2.6423   2.6458   2.6906   2.7083   2.7271   2.7521
  2.7724   2.7893   2.7977   2.8302   2.8443   2.8507   2.8714   2.8878
  2.8956   2.9080   2.9294   2.9379   2.9466   2.9647   2.9861   2.9985
  3.0197   3.0382   3.0467   3.0604   3.0784   3.1011   3.1171   3.1294
  3.1743   3.1882   3.2004   3.2133   3.2227   3.2382   3.2530   3.2749
  3.2818   3.2950   3.3173   3.3285   3.3512   3.3554   3.3661   3.3845
  3.3947   3.4240   3.4473   3.4611   3.4699   3.4864   3.5070   3.5176
  3.5269   3.5383   3.5496   3.5639   3.5750   3.5979   3.6089   3.6204
  3.6362   3.6689   3.6727   3.6899   3.7132   3.7432   3.7515   3.7707
  3.7851   3.7898   3.8125   3.8271   3.8383   3.8416   3.8562   3.8731
  3.8945   3.9074   3.9242   3.9385   3.9706   3.9883   4.0232   4.0346
  4.0424   4.0748   4.1139   4.1265   4.1294   4.1656   4.1975   4.2197
  4.2260   4.2327   4.2557   4.2704   4.2852   4.2960   4.3108   4.3329
  4.3388   4.3564   4.3702   4.3948   4.4085   4.4148   4.4673   4.4837
  4.4995   4.5171   4.5336   4.5506   4.5775   4.6145   4.6185   4.6332
  4.6503   4.6653   4.6784   4.7111   4.7492   4.7854   4.8084   4.8399
  4.8740   4.9012   4.9090   4.9333   4.9811   5.0473   5.0684   5.1197
  5.1321   5.1681   5.1924   5.2132   5.2343   5.2543   5.2553   5.2684
  5.2797   5.2878   5.3044   5.3090   5.3203   5.3358   5.3610   5.4005
  5.4256   5.4519   5.4649   5.4867   5.4893   5.5587   5.5807   5.5989
  5.6175   5.6388   5.6707   5.6766   5.6952   5.7094   5.7641   5.8132
  5.8713   5.9150   5.9412   6.0061   6.0341   6.0855   6.3105   6.4583
  6.5085   6.5768   6.6127   6.8806   6.9732   7.0589   7.0845   7.0990
  7.1081   7.1179   7.2435   7.3069   7.3093   7.3168   7.3288   7.3428
  7.3613   7.3663   7.4227   7.6017   7.6371   7.6419   7.7736   7.7992
  8.0338   8.0705  24.2928  24.4928  24.5977  24.8077  24.8637  25.0929
 25.3155  50.4861  50.5258  50.5905  50.6082
 
 Beta MOs
 -- Occupied --
-19.4128 -19.3984 -19.3624 -19.3395 -10.4264 -10.3989 -10.3891 -10.3736
-10.3694 -10.3592 -10.3527  -1.2756  -1.1630  -1.1559  -0.9878  -0.9270
 -0.8812  -0.8614  -0.7994  -0.7457  -0.7068  -0.6537  -0.6370  -0.6147
 -0.5936  -0.5863  -0.5670  -0.5513  -0.5450  -0.5308  -0.5167  -0.5107
 -0.4877  -0.4792  -0.4501  -0.4381  -0.4252  -0.4039  -0.3842  -0.3393
 -0.3135
 -- Virtual --
 -0.0268  -0.0003   0.0257   0.0345   0.0368   0.0458   0.0537   0.0568
  0.0685   0.0726   0.0812   0.0850   0.0968   0.1045   0.1163   0.1286
  0.1345   0.1426   0.1430   0.1512   0.1544   0.1580   0.1612   0.1669
  0.1693   0.1723   0.1790   0.1802   0.1900   0.1927   0.2016   0.2077
  0.2130   0.2209   0.2226   0.2280   0.2353   0.2490   0.2493   0.2627
  0.2712   0.2730   0.2743   0.2813   0.2869   0.2973   0.3062   0.3095
  0.3121   0.3191   0.3286   0.3294   0.3378   0.3444   0.3466   0.3525
  0.3583   0.3667   0.3682   0.3707   0.3836   0.3880   0.3915   0.4006
  0.4057   0.4114   0.4160   0.4326   0.4365   0.4398   0.4618   0.4630
  0.4809   0.5396   0.5427   0.5464   0.5711   0.5855   0.5890   0.5921
  0.6109   0.6204   0.6289   0.6352   0.6374   0.6457   0.6611   0.6741
  0.6824   0.6863   0.6966   0.6987   0.7078   0.7121   0.7234   0.7270
  0.7308   0.7526   0.7615   0.7639   0.7759   0.7829   0.8058   0.8168
  0.8197   0.8324   0.8430   0.8534   0.8553   0.8635   0.8862   0.8882
  0.9123   0.9350   0.9520   0.9661   0.9917   1.0192   1.0208   1.0321
  1.0343   1.0461   1.0672   1.0746   1.0996   1.1038   1.1238   1.1283
  1.1355   1.1459   1.1612   1.1741   1.1817   1.1877   1.2005   1.2216
  1.2319   1.2399   1.2405   1.2517   1.2666   1.2726   1.2738   1.2816
  1.3030   1.3078   1.3165   1.3251   1.3332   1.3534   1.3705   1.3822
  1.3897   1.3948   1.4147   1.4196   1.4258   1.4324   1.4441   1.4510
  1.4608   1.4789   1.4860   1.5105   1.5259   1.5284   1.5434   1.5583
  1.5697   1.5754   1.5838   1.5923   1.6135   1.6317   1.6429   1.6648
  1.6813   1.6988   1.7137   1.7301   1.7485   1.7672   1.7952   1.8029
  1.8386   1.8545   1.8860   1.9025   1.9263   1.9750   1.9954   2.0163
  2.0407   2.0621   2.0982   2.1097   2.1259   2.1581   2.1872   2.2037
  2.2208   2.3098   2.3339   2.3366   2.3576   2.3616   2.3730   2.3991
  2.4796   2.5979   2.6176   2.6429   2.6465   2.6914   2.7087   2.7297
  2.7547   2.7740   2.7897   2.7983   2.8310   2.8442   2.8510   2.8714
  2.8876   2.8959   2.9081   2.9293   2.9383   2.9463   2.9652   2.9862
  2.9982   3.0201   3.0385   3.0467   3.0606   3.0784   3.1014   3.1171
  3.1295   3.1741   3.1882   3.2001   3.2127   3.2230   3.2384   3.2531
  3.2750   3.2822   3.2951   3.3171   3.3288   3.3514   3.3561   3.3661
  3.3845   3.3951   3.4240   3.4473   3.4609   3.4702   3.4864   3.5071
  3.5176   3.5273   3.5388   3.5498   3.5642   3.5752   3.5981   3.6090
  3.6206   3.6367   3.6684   3.6727   3.6903   3.7126   3.7429   3.7514
  3.7707   3.7852   3.7900   3.8126   3.8272   3.8385   3.8415   3.8564
  3.8732   3.8947   3.9074   3.9244   3.9385   3.9705   3.9885   4.0233
  4.0346   4.0424   4.0748   4.1135   4.1266   4.1295   4.1657   4.1978
  4.2194   4.2261   4.2326   4.2557   4.2704   4.2853   4.2961   4.3106
  4.3323   4.3392   4.3566   4.3696   4.3951   4.4088   4.4148   4.4681
  4.4838   4.5004   4.5200   4.5344   4.5523   4.5797   4.6174   4.6342
  4.6416   4.6531   4.6668   4.6795   4.7157   4.7618   4.7946   4.8239
  4.8529   4.8761   4.9027   4.9148   4.9376   4.9914   5.0500   5.0729
  5.1374   5.1767   5.1915   5.2244   5.2390   5.2572   5.2749   5.2819
  5.2858   5.2927   5.3080   5.3108   5.3165   5.3347   5.3467   5.3818
  5.4098   5.4293   5.4633   5.4764   5.4887   5.4953   5.5599   5.5856
  5.5992   5.6372   5.6441   5.6743   5.6920   5.6973   5.7169   5.7649
  5.8136   5.8722   5.9151   5.9413   6.0062   6.0341   6.0855   6.3106
  6.5026   6.5216   6.5772   6.6128   6.9457   7.0352   7.0861   7.1004
  7.1031   7.1576   7.1831   7.2864   7.3070   7.3132   7.3183   7.3294
  7.3475   7.3661   7.3955   7.4735   7.6095   7.6403   7.6500   7.7737
  7.7995   8.0532   8.0869  24.2928  24.4928  24.5977  24.8077  24.8638
 25.0929  25.3156  50.4978  50.5369  50.5905  50.6091
 --------------------------------------------------------------
 
          Ground-State Mulliken Net Atomic Charges

     Atom                 Charge (a.u.)    Spin (a.u.)
  --------------------------------------------------------
      1 C                     0.395063      -0.009573
      2 C                    -0.535551      -0.003964
      3 O                    -0.388005      -0.000561
      4 C                    -0.346876       0.021492
      5 C                    -0.590588      -0.004562
      6 O                    -0.431477      -0.000282
      7 C                    -0.167773      -0.026939
      8 C                    -0.269869       0.011058
      9 C                    -0.100845       0.009491
     10 H                     0.215660       0.000502
     11 H                     0.233263      -0.000098
     12 H                     0.330997      -0.000036
     13 H                     0.293902      -0.000128
     14 H                     0.307957      -0.007131
     15 H                     0.358911      -0.000049
     16 H                     0.354220       0.001225
     17 H                     0.325755      -0.000112
     18 H                     0.291198      -0.000073
     19 O                    -0.238352       0.489800
     20 O                    -0.037591       0.519939
  --------------------------------------------------------
  Sum of atomic charges =    -0.000000
  Sum of spin   charges =     1.000000

 -----------------------------------------------------------------
                    Cartesian Multipole Moments
 -----------------------------------------------------------------
    Charge (ESU x 10^10)
                -0.0000
    Dipole Moment (Debye)
         X       0.6343      Y       2.0145      Z       2.6722
       Tot       3.4061
    Quadrupole Moments (Debye-Ang)
        XX     -75.4454     XY       1.6837     YY     -53.3665
        XZ      -4.4106     YZ       4.4256     ZZ     -74.6116
    Octopole Moments (Debye-Ang^2)
       XXX      38.0392    XXY      15.2048    XYY       2.1389
       YYY      11.2092    XXZ       7.5836    XYZ      -0.0860
       YYZ      11.5121    XZZ      60.4465    YZZ      -3.6985
       ZZZ      45.3891
    Hexadecapole Moments (Debye-Ang^3)
      XXXX   -1694.4383   XXXY      74.1556   XXYY    -266.9307
      XYYY       9.2254   YYYY    -368.1594   XXXZ    -138.2751
      XXYZ       2.5686   XYYZ     -56.6631   YYYZ     -10.3373
      XXZZ    -357.1779   XYZZ      21.5689   YYZZ    -155.3492
      XZZZ    -108.4812   YZZZ     -47.5815   ZZZZ    -505.6603
 -----------------------------------------------------------------
 Calculating analytic gradient of the SCF energy
 Gradient of CDS energy
            1           2           3           4           5           6
    1   0.0000080   0.0008316  -0.0002175   0.0002622  -0.0003924   0.0000657
    2  -0.0000487   0.0006994  -0.0000833   0.0001625   0.0002379  -0.0002237
    3   0.0000103  -0.0003638  -0.0001784   0.0000800   0.0002805  -0.0001232
            7           8           9          10          11          12
    1  -0.0001878  -0.0001500   0.0002537  -0.0000469  -0.0002050   0.0001062
    2  -0.0002318  -0.0002766  -0.0001774  -0.0002907   0.0000804  -0.0001612
    3   0.0001292  -0.0000554  -0.0000935  -0.0001161   0.0001033   0.0004915
           13          14          15          16          17          18
    1   0.0001062  -0.0000007  -0.0002614  -0.0002247  -0.0000709   0.0001694
    2   0.0001490  -0.0000266   0.0004108   0.0000355  -0.0001902  -0.0000819
    3   0.0000325  -0.0001342   0.0001435  -0.0000604  -0.0000767  -0.0000255
           19          20
    1  -0.0000151  -0.0000305
    2  -0.0000529   0.0000695
    3  -0.0000397  -0.0000038
 Gradient of SCF Energy
            1           2           3           4           5           6
    1   0.0184234  -0.0056642   0.0104974   0.0383772  -0.0344735  -0.0428549
    2  -0.0017146  -0.0142219  -0.0053189  -0.0386735   0.0708765  -0.0102928
    3  -0.0034915   0.0080173  -0.0108189  -0.0381789   0.0490521   0.0159052
            7           8           9          10          11          12
    1   0.0580513  -0.0886498   0.0448772   0.0004773   0.0003526  -0.0059888
    2  -0.0926942   0.0359810   0.0196143   0.0007476   0.0086078   0.0044342
    3  -0.0058623  -0.0101770  -0.0052138  -0.0059778   0.0026991   0.0112531
           13          14          15          16          17          18
    1  -0.0034189  -0.0005884  -0.0001993  -0.0066194  -0.0012918   0.0042650
    2   0.0118542   0.0165702   0.0161937   0.0051244  -0.0071401  -0.0036047
    3   0.0039320  -0.0259360  -0.0028471  -0.0131482  -0.0022276  -0.0011526
           19          20
    1   0.0050403   0.0093874
    2   0.0323203  -0.0486636
    3   0.0074389   0.0267340
 Max gradient component =       9.269E-02
 RMS gradient           =       2.773E-02
 Computing fast CPCM-SWIG gradient
 Updating gradient with PCM contributions...
 -- total gradient after adding PCM contribution --
---------------------------------------------------
  Atom         X              Y              Z     
---------------------------------------------------
   1       0.011431      -0.003553       0.001001
   2      -0.001696      -0.002729       0.001301
   3       0.002172      -0.000059       0.000986
   4       0.046088      -0.027397      -0.036779
   5      -0.031858       0.073647       0.044573
   6      -0.040625       0.006953       0.010085
   7       0.053593      -0.094881      -0.005447
   8      -0.089574       0.029640      -0.010732
   9       0.045072       0.013753      -0.004198
  10      -0.000181       0.000144      -0.000268
  11       0.000268       0.000226       0.000247
  12      -0.000075      -0.000050      -0.000227
  13      -0.006315       0.000078       0.000590
  14      -0.000473       0.013113      -0.024454
  15      -0.000663      -0.000385       0.001109
  16      -0.002268       0.007812      -0.013500
  17       0.000276      -0.000788      -0.001083
  18       0.000607       0.000512       0.001123
  19       0.006039       0.036124       0.008326
  20       0.008182      -0.052160       0.027348
---------------------------------------------------
 Number of fixed atoms: 0
 Gradient time:  CPU 431.77 s  wall 63.53 s
 ----------------------------------------------------------------
             Standard Nuclear Orientation (Angstroms)
    I     Atom           X                Y                Z
 ----------------------------------------------------------------
    1      C       0.8655396000     0.0998288000     0.0302134000
    2      C       2.3238157000     0.4748175000     0.0049630000
    3      O       3.0988602000    -0.3210830000     0.9074558000
    4      C      -0.0759809000     0.9935918000     0.4149026000
    5      C      -1.6344671000     0.7919732000     0.4611231000
    6      O      -2.6919180000     1.2807543000     1.3251375000
    7      C      -1.8336241000    -0.7443746000     0.0932135000
    8      C      -0.8624873000    -1.6126226000    -0.2904468000
    9      C       0.4909362000    -1.2211321000    -0.3402099000
   10      H       2.7451523000     0.2916938000    -0.9826808000
   11      H       2.4411413000     1.5349826000     0.2361891000
   12      H       2.7796813000    -0.1468313000     1.7997765000
   13      H       0.2091385000     1.9991316000     0.7038355000
   14      H      -1.8208709000     1.2284897000    -0.7070446000
   15      H      -2.7852173000     2.2274557000     1.1673934000
   16      H      -2.8707274000    -1.0509347000     0.1336596000
   17      H      -1.1282295000    -2.6251124000    -0.5657823000
   18      H       1.2506583000    -1.9259002000    -0.6487125000
   19      O      -1.9502247000     0.7744363000    -2.0713688000
   20      O      -2.0960870000    -0.5007436000    -1.8017164000
 ----------------------------------------------------------------
 Nuclear Repulsion Energy =         618.52313246 hartrees
 There are       42 alpha and       41 beta electrons
 Discretize the solute cavity surface with Lebedev spheres
	Using 110 Lebedev grid points for each H atom
	Using 194 Lebedev grid points for other atoms
	Atomic van der Waals radii will be scaled by 1.20
 Remove points where switching function is < 1.0e-08
 Keep 1504 surface tesserae and discard 1620 interior tesserae
 Molecular Surface Area = 174.766 Angst**2
 Requested basis set is 6-311++G(2df,2p)
 There are 142 shells and 464 basis functions
 A cutoff of  1.0D-11 yielded   8623 shell pairs
 There are     92053 function pairs (    114531 Cartesian)
 Smallest overlap matrix eigenvalue = 7.92E-07

 Q-Chem warning in module stvman/mkSTV.C, line 323:

 Overlap eigenvalue is smaller than square root of threshold
 Use THRESH >= 12 to get rid of this warning

 Linear dependence detected in AO basis
 Tighter screening thresholds may be required for diffuse basis sets
 Use S2THRESH > 14 and THRESH = 14 in case of SCF convergence issues
 Number of orthogonalized atomic orbitals = 463
 Maximum deviation from orthogonality = 1.118E-10
 Guess MOs from SCF MO coefficient file

 -----------------------------------------------------------------------
  General SCF calculation program by
  Eric Jon Sundstrom, Paul Horn, Yuezhi Mao, Dmitri Zuev, Alec White,
  David Stuck, Shaama M.S., Shane Yost, Joonho Lee, David Small,
  Daniel Levine, Susi Lehtola, Hugh Burton, Evgeny Epifanovsky,
  Bang C. Huynh
 -----------------------------------------------------------------------
 Exchange:     0.1500 Hartree-Fock + 1.0000 wB97M-V + LR-HF
 Correlation:  1.0000 wB97M-V
 Using SG-2 standard quadrature grid
 Nonlocal Correlation:  VV10 with C = 0.0100 and b = 6.00 and scale = 1.00000
 Grid used for NLC:  SG-1 standard quadrature
 
 Citation of the SMD model:
 Marenich, A.V.; Cramer, C.J.; Truhlar, D.G.
 J. Phys. Chem. B 2009, 113, 6378-6396.
 iSolventCode=           1
 Solvent: water                                                           
 
 vradii
            1           2           3           4           5           6
    1   1.8500000   1.8500000   1.5200000   1.8500000   1.8500000   1.5200000
            7           8           9          10          11          12
    1   1.8500000   1.8500000   1.8500000   1.2000000   1.2000000   1.2000000
           13          14          15          16          17          18
    1   1.2000000   1.2000000   1.2000000   1.2000000   1.2000000   1.2000000
           19          20
    1   1.5200000   1.5200000
 -------------------------------------------------------
 OpenMP BLAS3 based DFT computing Module                
 Release: version 1.0, May 2013, Q-Chem Inc. Pittsburgh 
 -------------------------------------------------------
 A unrestricted SCF calculation will be
 performed using Roothaan-Hall, DIIS, GDM
 SCF converges when RMS gradient is below 1.0e-06
 ---------------------------------------
  Cycle       Energy         DIIS error
 ---------------------------------------
    1    -572.7716446389      1.75e-04  Roothaan Step
 ---------------------------------------
  Cycle       Energy         DIIS error
 ---------------------------------------
    1    -572.8003488595      1.99e-04  
    2    -572.8045080804      1.73e-04  Done DIIS. Switching to GDM
 ---------------------------------------
  Cycle       Energy        RMS Gradient
 ---------------------------------------
    1    -572.8045080804      1.05e-02   Normal BFGS step
    2    -572.8044190318      1.87e-02  Line search: overstep
    3    -572.8066983477      3.17e-03   Normal BFGS step
    4    -572.8068486222      2.07e-03   Normal BFGS step
    5    -572.8068775420      6.86e-04   Normal BFGS step
    6    -572.8068819673      5.37e-04   Normal BFGS step
    7    -572.8068835295      4.14e-04   Normal BFGS step
    8    -572.8068842124      2.17e-04   Normal BFGS step
    9    -572.8068844702      2.04e-04   Normal BFGS step
   10    -572.8068846199      1.16e-04   Normal BFGS step
   11    -572.8068847196      9.65e-05   Normal BFGS step
   12    -572.8068847783      5.64e-05   Normal BFGS step
   13    -572.8068848009      3.98e-05   Normal BFGS step
   14    -572.8068848109      2.81e-05   Normal BFGS step
   15    -572.8068848149      1.84e-05   Normal BFGS step
   16    -572.8068848162      1.07e-05   Normal BFGS step
   17    -572.8068848166      4.56e-06   Normal BFGS step
   18    -572.8068848166      3.15e-06   Normal BFGS step
   19    -572.8068848170      1.88e-06   Normal BFGS step
   20    -572.8068848169      1.18e-06   Normal BFGS step
   21    -572.8068848172      8.23e-07  Convergence criterion met
 ---------------------------------------
 SCF time:   CPU 3385.65s  wall 432.00s 
<S^2> =          0.759233842
(3)  G-ENP(liq) elect-nuc-pol free energy of system     -572.806884817 a.u.
(4)  G-CDS(liq) cavity-dispersion-solvent structure 
     free energy                                                3.4371 kcal/mol
(6)  G-S(liq) free energy of system                     -572.801407484 a.u.
 SCF   energy in the final basis set =     -572.8014074837
 Total energy in the final basis set =     -572.8014074837
 
 --------------------------------------------------------------
 
                    Orbital Energies (a.u.)
 --------------------------------------------------------------
 
 Alpha MOs
 -- Occupied --
-19.4289 -19.4128 -19.3623 -19.3395 -10.4264 -10.3984 -10.3892 -10.3736
-10.3694 -10.3590 -10.3529  -1.3053  -1.1629  -1.1559  -0.9909  -0.9507
 -0.8950  -0.8626  -0.8002  -0.7466  -0.7073  -0.6576  -0.6402  -0.6193
 -0.6024  -0.5923  -0.5847  -0.5795  -0.5511  -0.5472  -0.5283  -0.5182
 -0.4898  -0.4833  -0.4519  -0.4463  -0.4321  -0.4088  -0.3857  -0.3824
 -0.3446  -0.3158
 -- Virtual --
 -0.0118   0.0255   0.0342   0.0366   0.0456   0.0534   0.0567   0.0679
  0.0718   0.0810   0.0848   0.0956   0.1038   0.1159   0.1282   0.1338
  0.1426   0.1427   0.1509   0.1542   0.1572   0.1602   0.1664   0.1685
  0.1722   0.1783   0.1799   0.1881   0.1924   0.2016   0.2075   0.2129
  0.2174   0.2205   0.2270   0.2338   0.2481   0.2487   0.2621   0.2693
  0.2707   0.2739   0.2796   0.2860   0.2954   0.3051   0.3066   0.3107
  0.3182   0.3272   0.3278   0.3369   0.3437   0.3465   0.3500   0.3579
  0.3658   0.3666   0.3703   0.3812   0.3870   0.3907   0.3987   0.4044
  0.4105   0.4139   0.4318   0.4354   0.4395   0.4616   0.4628   0.4795
  0.5392   0.5425   0.5463   0.5703   0.5854   0.5889   0.5919   0.6104
  0.6200   0.6287   0.6349   0.6371   0.6454   0.6609   0.6738   0.6823
  0.6857   0.6963   0.6983   0.7078   0.7120   0.7229   0.7268   0.7308
  0.7527   0.7612   0.7632   0.7757   0.7828   0.8054   0.8167   0.8195
  0.8319   0.8418   0.8530   0.8546   0.8633   0.8856   0.8878   0.9118
  0.9346   0.9510   0.9645   0.9905   1.0173   1.0205   1.0316   1.0333
  1.0452   1.0668   1.0740   1.0980   1.1018   1.1209   1.1265   1.1326
  1.1435   1.1585   1.1704   1.1768   1.1842   1.1915   1.2161   1.2281
  1.2350   1.2371   1.2498   1.2525   1.2674   1.2729   1.2777   1.2968
  1.3056   1.3158   1.3228   1.3327   1.3508   1.3682   1.3804   1.3887
  1.3939   1.4134   1.4188   1.4249   1.4315   1.4435   1.4493   1.4600
  1.4776   1.4840   1.5087   1.5230   1.5281   1.5423   1.5545   1.5648
  1.5744   1.5837   1.5914   1.6121   1.6293   1.6427   1.6622   1.6709
  1.6950   1.7106   1.7200   1.7452   1.7618   1.7912   1.7983   1.8302
  1.8540   1.8829   1.8972   1.9238   1.9655   1.9923   2.0111   2.0378
  2.0610   2.0923   2.1084   2.1245   2.1556   2.1866   2.1896   2.2192
  2.3002   2.3185   2.3355   2.3549   2.3555   2.3725   2.3957   2.4773
  2.5972   2.6173   2.6423   2.6459   2.6906   2.7082   2.7273   2.7521
  2.7722   2.7893   2.7976   2.8300   2.8442   2.8506   2.8713   2.8877
  2.8955   2.9080   2.9291   2.9377   2.9465   2.9646   2.9859   2.9984
  3.0197   3.0385   3.0468   3.0602   3.0785   3.1013   3.1170   3.1297
  3.1743   3.1882   3.2005   3.2136   3.2229   3.2384   3.2529   3.2748
  3.2818   3.2952   3.3170   3.3285   3.3512   3.3555   3.3660   3.3843
  3.3950   3.4242   3.4474   3.4611   3.4697   3.4865   3.5072   3.5178
  3.5270   3.5384   3.5497   3.5641   3.5750   3.5981   3.6088   3.6202
  3.6362   3.6689   3.6727   3.6900   3.7133   3.7432   3.7516   3.7709
  3.7850   3.7900   3.8122   3.8272   3.8384   3.8417   3.8562   3.8732
  3.8943   3.9074   3.9243   3.9386   3.9705   3.9882   4.0231   4.0345
  4.0423   4.0751   4.1139   4.1265   4.1292   4.1653   4.1968   4.2197
  4.2263   4.2326   4.2558   4.2705   4.2853   4.2959   4.3109   4.3329
  4.3389   4.3564   4.3701   4.3949   4.4086   4.4149   4.4670   4.4838
  4.4998   4.5173   4.5338   4.5508   4.5777   4.6146   4.6183   4.6332
  4.6505   4.6657   4.6788   4.7113   4.7496   4.7856   4.8087   4.8400
  4.8735   4.9017   4.9094   4.9344   4.9812   5.0470   5.0690   5.1197
  5.1323   5.1683   5.1927   5.2132   5.2343   5.2543   5.2555   5.2685
  5.2796   5.2878   5.3044   5.3090   5.3204   5.3362   5.3610   5.4007
  5.4258   5.4519   5.4650   5.4867   5.4894   5.5584   5.5806   5.5988
  5.6175   5.6389   5.6705   5.6766   5.6949   5.7094   5.7630   5.8136
  5.8723   5.9148   5.9412   6.0063   6.0341   6.0858   6.3123   6.4583
  6.5085   6.5768   6.6125   6.8806   6.9732   7.0589   7.0845   7.0989
  7.1081   7.1179   7.2434   7.3068   7.3093   7.3168   7.3287   7.3428
  7.3613   7.3662   7.4227   7.6017   7.6371   7.6419   7.7735   7.7992
  8.0338   8.0705  24.2917  24.4930  24.5973  24.8053  24.8649  25.0955
 25.3176  50.4861  50.5258  50.5904  50.6083
 
 Beta MOs
 -- Occupied --
-19.4128 -19.3984 -19.3623 -19.3395 -10.4263 -10.3989 -10.3892 -10.3734
-10.3693 -10.3590 -10.3527  -1.2756  -1.1630  -1.1559  -0.9879  -0.9271
 -0.8811  -0.8615  -0.7993  -0.7458  -0.7068  -0.6537  -0.6370  -0.6147
 -0.5936  -0.5862  -0.5670  -0.5512  -0.5451  -0.5308  -0.5167  -0.5107
 -0.4878  -0.4792  -0.4501  -0.4382  -0.4252  -0.4039  -0.3841  -0.3393
 -0.3135
 -- Virtual --
 -0.0268  -0.0003   0.0257   0.0345   0.0368   0.0458   0.0537   0.0568
  0.0685   0.0727   0.0812   0.0850   0.0968   0.1045   0.1163   0.1286
  0.1345   0.1427   0.1430   0.1512   0.1544   0.1580   0.1612   0.1669
  0.1693   0.1724   0.1790   0.1802   0.1900   0.1927   0.2017   0.2077
  0.2130   0.2210   0.2226   0.2280   0.2353   0.2490   0.2493   0.2627
  0.2713   0.2730   0.2743   0.2813   0.2869   0.2973   0.3063   0.3094
  0.3120   0.3191   0.3286   0.3293   0.3378   0.3444   0.3466   0.3525
  0.3583   0.3667   0.3682   0.3707   0.3836   0.3880   0.3915   0.4006
  0.4056   0.4114   0.4160   0.4325   0.4365   0.4398   0.4618   0.4630
  0.4808   0.5396   0.5426   0.5466   0.5710   0.5855   0.5890   0.5921
  0.6109   0.6205   0.6289   0.6352   0.6374   0.6458   0.6611   0.6741
  0.6824   0.6863   0.6966   0.6987   0.7078   0.7122   0.7233   0.7270
  0.7308   0.7527   0.7615   0.7640   0.7760   0.7830   0.8059   0.8169
  0.8198   0.8324   0.8431   0.8534   0.8553   0.8635   0.8864   0.8882
  0.9123   0.9351   0.9520   0.9661   0.9918   1.0192   1.0208   1.0321
  1.0343   1.0462   1.0672   1.0746   1.0996   1.1038   1.1238   1.1283
  1.1355   1.1459   1.1612   1.1740   1.1817   1.1878   1.2005   1.2216
  1.2319   1.2398   1.2405   1.2517   1.2668   1.2727   1.2739   1.2817
  1.3030   1.3077   1.3166   1.3251   1.3332   1.3535   1.3706   1.3822
  1.3898   1.3948   1.4148   1.4193   1.4259   1.4325   1.4441   1.4510
  1.4608   1.4790   1.4860   1.5106   1.5258   1.5284   1.5434   1.5584
  1.5697   1.5755   1.5839   1.5923   1.6137   1.6318   1.6430   1.6648
  1.6813   1.6989   1.7137   1.7301   1.7485   1.7672   1.7953   1.8027
  1.8385   1.8544   1.8861   1.9025   1.9263   1.9751   1.9954   2.0164
  2.0407   2.0621   2.0979   2.1094   2.1258   2.1579   2.1873   2.2038
  2.2208   2.3095   2.3338   2.3366   2.3576   2.3616   2.3732   2.3991
  2.4796   2.5980   2.6179   2.6429   2.6466   2.6914   2.7086   2.7298
  2.7547   2.7739   2.7897   2.7982   2.8308   2.8442   2.8509   2.8714
  2.8876   2.8958   2.9081   2.9290   2.9380   2.9462   2.9651   2.9860
  2.9981   3.0202   3.0388   3.0468   3.0605   3.0785   3.1016   3.1171
  3.1298   3.1741   3.1883   3.2002   3.2130   3.2232   3.2387   3.2531
  3.2750   3.2822   3.2952   3.3168   3.3288   3.3514   3.3562   3.3660
  3.3844   3.3953   3.4241   3.4473   3.4610   3.4700   3.4865   3.5074
  3.5177   3.5274   3.5388   3.5499   3.5644   3.5752   3.5983   3.6089
  3.6204   3.6367   3.6684   3.6728   3.6905   3.7127   3.7429   3.7515
  3.7710   3.7851   3.7902   3.8123   3.8273   3.8386   3.8416   3.8564
  3.8733   3.8944   3.9075   3.9245   3.9386   3.9704   3.9885   4.0232
  4.0345   4.0423   4.0751   4.1136   4.1266   4.1292   4.1655   4.1971
  4.2194   4.2263   4.2325   4.2558   4.2704   4.2854   4.2959   4.3108
  4.3323   4.3393   4.3566   4.3695   4.3952   4.4088   4.4148   4.4678
  4.4838   4.5007   4.5202   4.5347   4.5525   4.5799   4.6172   4.6342
  4.6415   4.6533   4.6672   4.6799   4.7161   4.7622   4.7949   4.8240
  4.8530   4.8757   4.9032   4.9154   4.9386   4.9915   5.0496   5.0736
  5.1375   5.1768   5.1919   5.2245   5.2390   5.2572   5.2749   5.2819
  5.2858   5.2927   5.3080   5.3108   5.3165   5.3348   5.3471   5.3819
  5.4100   5.4294   5.4632   5.4765   5.4887   5.4953   5.5596   5.5854
  5.5991   5.6372   5.6440   5.6742   5.6920   5.6971   5.7169   5.7639
  5.8141   5.8732   5.9149   5.9413   6.0063   6.0342   6.0858   6.3124
  6.5026   6.5216   6.5771   6.6127   6.9457   7.0352   7.0861   7.1003
  7.1031   7.1576   7.1831   7.2864   7.3069   7.3133   7.3183   7.3293
  7.3476   7.3660   7.3955   7.4735   7.6096   7.6402   7.6500   7.7736
  7.7995   8.0532   8.0869  24.2917  24.4930  24.5973  24.8053  24.8649
 25.0955  25.3177  50.4978  50.5369  50.5905  50.6092
 --------------------------------------------------------------
 
          Ground-State Mulliken Net Atomic Charges

     Atom                 Charge (a.u.)    Spin (a.u.)
  --------------------------------------------------------
      1 C                     0.397426      -0.009616
      2 C                    -0.535259      -0.003946
      3 O                    -0.387954      -0.000559
      4 C                    -0.348667       0.021463
      5 C                    -0.590614      -0.004553
      6 O                    -0.431539      -0.000281
      7 C                    -0.168008      -0.026960
      8 C                    -0.269575       0.011062
      9 C                    -0.101817       0.009474
     10 H                     0.215719       0.000500
     11 H                     0.233174      -0.000097
     12 H                     0.330944      -0.000035
     13 H                     0.293857      -0.000128
     14 H                     0.307973      -0.007132
     15 H                     0.358901      -0.000049
     16 H                     0.354224       0.001226
     17 H                     0.325735      -0.000113
     18 H                     0.291286      -0.000071
     19 O                    -0.238240       0.489881
     20 O                    -0.037566       0.519934
  --------------------------------------------------------
  Sum of atomic charges =    -0.000000
  Sum of spin   charges =     1.000000

 -----------------------------------------------------------------
                    Cartesian Multipole Moments
 -----------------------------------------------------------------
    Charge (ESU x 10^10)
                -0.0000
    Dipole Moment (Debye)
         X       0.6346      Y       2.0119      Z       2.6713
       Tot       3.4038
    Quadrupole Moments (Debye-Ang)
        XX     -75.4502     XY       1.6818     YY     -53.3630
        XZ      -4.4056     YZ       4.4249     ZZ     -74.6069
    Octopole Moments (Debye-Ang^2)
       XXX      38.0822    XXY      15.1903    XYY       2.1546
       YYY      11.2039    XXZ       7.5793    XYZ      -0.0813
       YYZ      11.5093    XZZ      60.4582    YZZ      -3.7000
       ZZZ      45.3855
    Hexadecapole Moments (Debye-Ang^3)
      XXXX   -1694.3581   XXXY      74.1568   XXYY    -266.9297
      XYYY       9.2083   YYYY    -368.1335   XXXZ    -138.2280
      XXYZ       2.5584   XYYZ     -56.6620   YYYZ     -10.3343
      XXZZ    -357.1619   XYZZ      21.5705   YYZZ    -155.3403
      XZZZ    -108.4584   YZZZ     -47.5842   ZZZZ    -505.6359
 -----------------------------------------------------------------
 Calculating analytic gradient of the SCF energy
 Gradient of CDS energy
            1           2           3           4           5           6
    1   0.0000051   0.0008334  -0.0002176   0.0002625  -0.0003923   0.0000657
    2  -0.0000484   0.0007001  -0.0000833   0.0001616   0.0002379  -0.0002237
    3   0.0000101  -0.0003643  -0.0001784   0.0000798   0.0002806  -0.0001232
            7           8           9          10          11          12
    1  -0.0001878  -0.0001499   0.0002540  -0.0000468  -0.0002052   0.0001063
    2  -0.0002318  -0.0002767  -0.0001770  -0.0002910   0.0000803  -0.0001613
    3   0.0001292  -0.0000553  -0.0000932  -0.0001158   0.0001033   0.0004915
           13          14          15          16          17          18
    1   0.0001062  -0.0000007  -0.0002614  -0.0002247  -0.0000709   0.0001694
    2   0.0001491  -0.0000265   0.0004108   0.0000355  -0.0001902  -0.0000819
    3   0.0000325  -0.0001342   0.0001435  -0.0000604  -0.0000767  -0.0000256
           19          20
    1  -0.0000149  -0.0000305
    2  -0.0000529   0.0000695
    3  -0.0000397  -0.0000038
 Gradient of SCF Energy
            1           2           3           4           5           6
    1   0.0158795  -0.0048953   0.0106158   0.0393853  -0.0343979  -0.0428317
    2  -0.0015348  -0.0140265  -0.0053436  -0.0393288   0.0708231  -0.0102865
    3  -0.0032094   0.0079632  -0.0107730  -0.0384873   0.0490458   0.0158972
            7           8           9          10          11          12
    1   0.0580686  -0.0886795   0.0454011   0.0005385   0.0003712  -0.0059947
    2  -0.0927320   0.0361077   0.0199016   0.0007666   0.0086043   0.0044325
    3  -0.0058656  -0.0101247  -0.0051673  -0.0059750   0.0026850   0.0112550
           13          14          15          16          17          18
    1  -0.0034505  -0.0005797  -0.0001985  -0.0066200  -0.0012713   0.0042339
    2   0.0118856   0.0165719   0.0161930   0.0051246  -0.0071377  -0.0036922
    3   0.0039472  -0.0259667  -0.0028468  -0.0131501  -0.0022319  -0.0011801
           19          20
    1   0.0050449   0.0093803
    2   0.0323496  -0.0486784
    3   0.0074490   0.0267353
 Max gradient component =       9.273E-02
 RMS gradient           =       2.777E-02
 Computing fast CPCM-SWIG gradient
 Updating gradient with PCM contributions...
 -- total gradient after adding PCM contribution --
---------------------------------------------------
  Atom         X              Y              Z     
---------------------------------------------------
   1       0.008935      -0.003361       0.001267
   2      -0.000938      -0.002567       0.001256
   3       0.002288      -0.000085       0.001033
   4       0.047095      -0.028032      -0.037075
   5      -0.031781       0.073593       0.044565
   6      -0.040601       0.006955       0.010077
   7       0.053607      -0.094922      -0.005450
   8      -0.089586       0.029776      -0.010681
   9       0.045553       0.014016      -0.004156
  10      -0.000120       0.000162      -0.000271
  11       0.000287       0.000232       0.000235
  12      -0.000080      -0.000051      -0.000226
  13      -0.006345       0.000105       0.000604
  14      -0.000466       0.013118      -0.024483
  15      -0.000664      -0.000380       0.001109
  16      -0.002269       0.007812      -0.013501
  17       0.000296      -0.000783      -0.001086
  18       0.000572       0.000435       0.001099
  19       0.006044       0.036152       0.008333
  20       0.008175      -0.052174       0.027349
---------------------------------------------------
 Number of fixed atoms: 0
 Gradient time:  CPU 432.07 s  wall 63.33 s
 ----------------------------------------------------------------
             Standard Nuclear Orientation (Angstroms)
    I     Atom           X                Y                Z
 ----------------------------------------------------------------
    1      C       0.8665396000     0.1008288000     0.0302134000
    2      C       2.3238157000     0.4748175000     0.0049630000
    3      O       3.0988602000    -0.3210830000     0.9074558000
    4      C      -0.0759809000     0.9935918000     0.4149026000
    5      C      -1.6344671000     0.7919732000     0.4611231000
    6      O      -2.6919180000     1.2807543000     1.3251375000
    7      C      -1.8336241000    -0.7443746000     0.0932135000
    8      C      -0.8624873000    -1.6126226000    -0.2904468000
    9      C       0.4909362000    -1.2211321000    -0.3402099000
   10      H       2.7451523000     0.2916938000    -0.9826808000
   11      H       2.4411413000     1.5349826000     0.2361891000
   12      H       2.7796813000    -0.1468313000     1.7997765000
   13      H       0.2091385000     1.9991316000     0.7038355000
   14      H      -1.8208709000     1.2284897000    -0.7070446000
   15      H      -2.7852173000     2.2274557000     1.1673934000
   16      H      -2.8707274000    -1.0509347000     0.1336596000
   17      H      -1.1282295000    -2.6251124000    -0.5657823000
   18      H       1.2506583000    -1.9259002000    -0.6487125000
   19      O      -1.9502247000     0.7744363000    -2.0713688000
   20      O      -2.0960870000    -0.5007436000    -1.8017164000
 ----------------------------------------------------------------
 Nuclear Repulsion Energy =         618.51240933 hartrees
 There are       42 alpha and       41 beta electrons
 Discretize the solute cavity surface with Lebedev spheres
	Using 110 Lebedev grid points for each H atom
	Using 194 Lebedev grid points for other atoms
	Atomic van der Waals radii will be scaled by 1.20
 Remove points where switching function is < 1.0e-08
 Keep 1504 surface tesserae and discard 1620 interior tesserae
 Molecular Surface Area = 174.766 Angst**2
 Requested basis set is 6-311++G(2df,2p)
 There are 142 shells and 464 basis functions
 A cutoff of  1.0D-11 yielded   8623 shell pairs
 There are     92053 function pairs (    114531 Cartesian)
 Smallest overlap matrix eigenvalue = 7.92E-07

 Q-Chem warning in module stvman/mkSTV.C, line 323:

 Overlap eigenvalue is smaller than square root of threshold
 Use THRESH >= 12 to get rid of this warning

 Linear dependence detected in AO basis
 Tighter screening thresholds may be required for diffuse basis sets
 Use S2THRESH > 14 and THRESH = 14 in case of SCF convergence issues
 Number of orthogonalized atomic orbitals = 463
 Maximum deviation from orthogonality = 1.798E-10
 Guess MOs from SCF MO coefficient file

 -----------------------------------------------------------------------
  General SCF calculation program by
  Eric Jon Sundstrom, Paul Horn, Yuezhi Mao, Dmitri Zuev, Alec White,
  David Stuck, Shaama M.S., Shane Yost, Joonho Lee, David Small,
  Daniel Levine, Susi Lehtola, Hugh Burton, Evgeny Epifanovsky,
  Bang C. Huynh
 -----------------------------------------------------------------------
 Exchange:     0.1500 Hartree-Fock + 1.0000 wB97M-V + LR-HF
 Correlation:  1.0000 wB97M-V
 Using SG-2 standard quadrature grid
 Nonlocal Correlation:  VV10 with C = 0.0100 and b = 6.00 and scale = 1.00000
 Grid used for NLC:  SG-1 standard quadrature
 
 Citation of the SMD model:
 Marenich, A.V.; Cramer, C.J.; Truhlar, D.G.
 J. Phys. Chem. B 2009, 113, 6378-6396.
 iSolventCode=           1
 Solvent: water                                                           
 
 vradii
            1           2           3           4           5           6
    1   1.8500000   1.8500000   1.5200000   1.8500000   1.8500000   1.5200000
            7           8           9          10          11          12
    1   1.8500000   1.8500000   1.8500000   1.2000000   1.2000000   1.2000000
           13          14          15          16          17          18
    1   1.2000000   1.2000000   1.2000000   1.2000000   1.2000000   1.2000000
           19          20
    1   1.5200000   1.5200000
 -------------------------------------------------------
 OpenMP BLAS3 based DFT computing Module                
 Release: version 1.0, May 2013, Q-Chem Inc. Pittsburgh 
 -------------------------------------------------------
 A unrestricted SCF calculation will be
 performed using Roothaan-Hall, DIIS, GDM
 SCF converges when RMS gradient is below 1.0e-06
 ---------------------------------------
  Cycle       Energy         DIIS error
 ---------------------------------------
    1    -572.7716380598      1.75e-04  Roothaan Step
 ---------------------------------------
  Cycle       Energy         DIIS error
 ---------------------------------------
    1    -572.8003457074      1.98e-04  
    2    -572.8045094926      1.72e-04  Done DIIS. Switching to GDM
 ---------------------------------------
  Cycle       Energy        RMS Gradient
 ---------------------------------------
    1    -572.8045094926      1.03e-02   Normal BFGS step
    2    -572.8044252797      1.84e-02  Line search: overstep
    3    -572.8066856940      3.17e-03   Normal BFGS step
    4    -572.8068358350      2.06e-03   Normal BFGS step
    5    -572.8068647459      7.20e-04   Normal BFGS step
    6    -572.8068691653      5.32e-04   Normal BFGS step
    7    -572.8068707798      4.15e-04   Normal BFGS step
    8    -572.8068714716      2.20e-04   Normal BFGS step
    9    -572.8068717294      2.06e-04   Normal BFGS step
   10    -572.8068718809      1.15e-04   Normal BFGS step
   11    -572.8068719804      9.69e-05   Normal BFGS step
   12    -572.8068720398      5.75e-05   Normal BFGS step
   13    -572.8068720625      3.99e-05   Normal BFGS step
[...]
    1  -0.0000256  -0.0000389
    2  -0.0000282   0.0000747
    3  -0.0000378  -0.0000308
 Gradient of SCF Energy
            1           2           3           4           5           6
    1   0.0085937  -0.0045620   0.0089562  -0.0102490  -0.0037831  -0.0037574
    2  -0.0004392  -0.0150352  -0.0043089  -0.0094659  -0.0006791  -0.0167323
    3  -0.0065071   0.0080114  -0.0129269   0.0011803   0.0039314   0.0064404
            7           8           9          10          11          12
    1   0.0019376   0.0006924   0.0013724   0.0011919  -0.0000471  -0.0067292
    2   0.0024402   0.0035339   0.0080703   0.0009169   0.0095164   0.0039446
    3  -0.0050414   0.0025259  -0.0012386  -0.0069152   0.0031634   0.0122219
           13          14          15          16          17          18
    1   0.0036734   0.0009333   0.0027333  -0.0035207  -0.0013520   0.0045386
    2   0.0145365   0.0036487   0.0161047  -0.0033229  -0.0073114  -0.0048746
    3   0.0046154  -0.0018759  -0.0045763   0.0017972  -0.0009657  -0.0025087
           19          20
    1  -0.0017676   0.0011454
    2  -0.0033429   0.0028003
    3  -0.0012161  -0.0001153
 Max gradient component =       1.673E-02
 RMS gradient           =       6.389E-03
 Computing fast CPCM-SWIG gradient
 Updating gradient with PCM contributions...
 -- total gradient after adding PCM contribution --
---------------------------------------------------
  Atom         X              Y              Z     
---------------------------------------------------
   1      -0.000001       0.000002      -0.000002
   2       0.000000       0.000000      -0.000006
   3       0.000002      -0.000000      -0.000008
   4      -0.000002      -0.000003       0.000001
   5       0.000020       0.000042       0.000026
   6       0.000003       0.000000       0.000012
   7      -0.000015      -0.000046      -0.000008
   8       0.000014       0.000003       0.000004
   9      -0.000012      -0.000005      -0.000002
  10      -0.000002       0.000000      -0.000007
  11       0.000001       0.000000      -0.000006
  12       0.000004       0.000000      -0.000007
  13       0.000001       0.000000      -0.000001
  14      -0.000001       0.000007      -0.000016
  15      -0.000001      -0.000001       0.000004
  16       0.000003       0.000000       0.000006
  17      -0.000001      -0.000000       0.000001
  18      -0.000001       0.000000      -0.000004
  19      -0.000005       0.000007       0.000006
  20      -0.000008      -0.000006       0.000005
---------------------------------------------------
 Number of fixed atoms: 0
 Gradient time:  CPU 354.11 s  wall 51.03 s
 Geometry Optimization Parameters
   NAtoms,    NIC,     NZ,  NCons,   NDum,   NFix, NCnnct, MaxDiis
       20     141       0       0       0       0       0       0

 Cartesian Hessian Update
 Hessian updated using Powell/Murtagh-Sargent update
  Mixing factors:     0.980053 Powell                      0.019947 Murtagh-Sargent


** GEOMETRY OPTIMIZATION IN DELOCALIZED INTERNAL COORDINATES **
   Searching for a Transition State

   Optimization Cycle:  48

                       Coordinates (Angstroms)
     ATOM                X               Y               Z
      1  C         0.8750341572    0.1398017542    0.0589428138
      2  C         2.3307329501    0.5100687137    0.0995547142
      3  O         3.0731423174   -0.3375126766    0.9801461585
      4  C        -0.0884852070    0.9978685499    0.4489008100
      5  C        -1.5035650046    0.6536260040    0.3008952774
      6  O        -2.4185522915    1.2842425303    1.1758435038
      7  C        -1.8320908149   -0.7147270774    0.0037405118
      8  C        -0.7855171009   -1.6140853290   -0.3360126144
      9  C         0.5028669495   -1.1888143870   -0.3456627760
     10  H         2.7836411094    0.3809107117   -0.8825546724
     11  H         2.4390991565    1.5561314833    0.3908422196
     12  H         2.7266904452   -0.2108095967    1.8703023630
     13  H         0.1499498025    1.9963929533    0.7958268361
     14  H        -1.7237399056    1.0760053513   -0.8023852395
     15  H        -2.4332322982    2.2267458659    0.9752590297
     16  H        -2.7900070868   -1.0988164497    0.3203615313
     17  H        -1.0297184281   -2.6420891957   -0.5629854124
     18  H         1.2913900386   -1.8811817589   -0.6133575548
     19  O        -2.4315257853    0.8144961722   -2.1357417664
     20  O        -2.6800238034   -0.3998328188   -1.8720148334
   Point Group: c1    Number of degrees of freedom:    54


   Energy is   -572.862313378

 Hessian updated using Powell/Murtagh-Sargent update
  Mixing factors:     0.967551 Powell                      0.032449 Murtagh-Sargent

 54 Hessian modes will be used to form the next step
  Hessian Eigenvalues:
    -0.097675    0.000140    0.002494    0.003124    0.004337    0.011949
     0.016253    0.016652    0.017699    0.019496    0.026257    0.029932
     0.035999    0.037408    0.043726    0.058179    0.062404    0.070020
     0.074610    0.090084    0.093033    0.104093    0.108185    0.112163
     0.119327    0.133709    0.140285    0.150918    0.167025    0.168364
     0.180903    0.191048    0.195505    0.205006    0.224865    0.233517
     0.305026    0.320264    0.329930    0.336481    0.348761    0.356299
     0.359934    0.360025    0.364718    0.371487    0.384898    0.419093
     0.420315    0.489712    0.525163    0.525426    0.562751    0.793221

 Transition state search - taking P-RFO step
 Searching for Lamda that Maximizes Along the Lowest mode
 Value Taken    Lamda =   0.00000000
 Searching for Lamda that Minimizes Along All other modes
 Value Taken    Lamda =  -0.00000002
 Step Taken.  Stepsize is  0.006173

                             Maximum     Tolerance    Cnvgd?
         Gradient           0.000021      0.000300     YES
         Displacement       0.002675      0.001200      NO
         Energy change      0.000000      0.000001     YES

 Final energy is   -572.862313378042     


 ******************************
 **  OPTIMIZATION CONVERGED  **
 ******************************

                       Coordinates (Angstroms)
     ATOM                X               Y               Z
      1  C         0.8750341572    0.1398017542    0.0589428138
      2  C         2.3307329501    0.5100687137    0.0995547142
      3  O         3.0731423174   -0.3375126766    0.9801461585
      4  C        -0.0884852070    0.9978685499    0.4489008100
      5  C        -1.5035650046    0.6536260040    0.3008952774
      6  O        -2.4185522915    1.2842425303    1.1758435038
      7  C        -1.8320908149   -0.7147270774    0.0037405118
      8  C        -0.7855171009   -1.6140853290   -0.3360126144
      9  C         0.5028669495   -1.1888143870   -0.3456627760
     10  H         2.7836411094    0.3809107117   -0.8825546724
     11  H         2.4390991565    1.5561314833    0.3908422196
     12  H         2.7266904452   -0.2108095967    1.8703023630
     13  H         0.1499498025    1.9963929533    0.7958268361
     14  H        -1.7237399056    1.0760053513   -0.8023852395
     15  H        -2.4332322982    2.2267458659    0.9752590297
     16  H        -2.7900070868   -1.0988164497    0.3203615313
     17  H        -1.0297184281   -2.6420891957   -0.5629854124
     18  H         1.2913900386   -1.8811817589   -0.6133575548
     19  O        -2.4315257853    0.8144961722   -2.1357417664
     20  O        -2.6800238034   -0.3998328188   -1.8720148334

Z-matrix Print:
$molecule
0 2
O 
O  1 1.267240
H  2 1.532053 1 94.188432
C  3 1.201711 2 145.453889 1 -12.522090 0
O  4 1.414360 3 107.019977 2 -97.900350 0
H  5 0.963723 4 108.490546 3 -45.955413 0
C  4 1.438270 3 95.904027 2 19.271338 0
H  7 1.079526 4 118.723795 3 -102.064143 0
C  7 1.421124 4 118.898799 3 95.810596 0
H  9 1.080714 7 119.063965 4 -179.799128 0
C  9 1.356791 7 120.175570 4 1.590546 0
H  11 1.082960 9 119.523191 7 -179.544999 0
C  11 1.437858 9 122.236031 7 3.896061 0
C  13 1.347856 11 118.988410 9 -0.669309 0
H  14 1.083633 13 121.463161 11 177.751551 0
C  13 1.502600 11 119.081737 9 176.351669 0
H  16 1.089195 13 110.441391 11 58.700382 0
H  16 1.091256 13 109.854426 11 178.028022 0
O  16 1.430037 13 111.934177 11 -58.665177 0
H  19 0.963567 16 107.714205 13 -62.748328 0
$end

 
 --------------------------------------------------------------
 
                    Orbital Energies (a.u.)
 --------------------------------------------------------------
 
 Alpha MOs
 -- Occupied --
-19.4199 -19.4149 -19.3495 -19.3385 -10.4062 -10.3951 -10.3878 -10.3644
-10.3612 -10.3561 -10.3522  -1.3289  -1.1715  -1.1556  -0.9961  -0.9281
 -0.9008  -0.8792  -0.8054  -0.7438  -0.7165  -0.6640  -0.6469  -0.6215
 -0.6058  -0.5946  -0.5905  -0.5867  -0.5529  -0.5512  -0.5348  -0.5289
 -0.4927  -0.4788  -0.4549  -0.4451  -0.4399  -0.4018  -0.3894  -0.3724
 -0.3540  -0.3246
 -- Virtual --
 -0.0051   0.0256   0.0345   0.0376   0.0443   0.0537   0.0580   0.0640
  0.0681   0.0807   0.0870   0.1010   0.1069   0.1183   0.1302   0.1348
  0.1411   0.1435   0.1511   0.1565   0.1577   0.1607   0.1646   0.1708
  0.1718   0.1781   0.1787   0.1915   0.1986   0.2026   0.2065   0.2144
  0.2196   0.2221   0.2341   0.2406   0.2448   0.2574   0.2610   0.2659
  0.2775   0.2798   0.2889   0.2924   0.3013   0.3072   0.3139   0.3188
  0.3224   0.3283   0.3327   0.3436   0.3455   0.3535   0.3562   0.3591
  0.3676   0.3727   0.3802   0.3878   0.3969   0.3983   0.4034   0.4153
  0.4190   0.4297   0.4396   0.4520   0.4572   0.4651   0.4668   0.4748
  0.5318   0.5412   0.5505   0.5818   0.5875   0.5920   0.6000   0.6077
  0.6213   0.6313   0.6344   0.6409   0.6464   0.6616   0.6681   0.6732
  0.6899   0.6952   0.6991   0.7180   0.7243   0.7275   0.7329   0.7419
  0.7464   0.7599   0.7647   0.7852   0.7945   0.7986   0.8066   0.8168
  0.8238   0.8405   0.8516   0.8674   0.8816   0.8845   0.8999   0.9156
  0.9409   0.9564   0.9704   0.9972   1.0155   1.0226   1.0418   1.0495
  1.0547   1.0639   1.0741   1.0941   1.1058   1.1176   1.1302   1.1392
  1.1477   1.1555   1.1671   1.1759   1.1828   1.2041   1.2230   1.2282
  1.2390   1.2411   1.2505   1.2621   1.2719   1.2806   1.2859   1.2930
  1.3086   1.3117   1.3285   1.3415   1.3572   1.3711   1.3867   1.3965
  1.4067   1.4187   1.4272   1.4394   1.4446   1.4569   1.4682   1.4834
  1.4857   1.4893   1.4984   1.5139   1.5328   1.5385   1.5446   1.5613
  1.5771   1.5895   1.6033   1.6241   1.6391   1.6491   1.6647   1.6836
  1.6909   1.7158   1.7443   1.7540   1.7690   1.7825   1.8055   1.8289
  1.8391   1.8613   1.9065   1.9166   1.9421   1.9774   2.0205   2.0499
  2.0562   2.0966   2.1194   2.1330   2.1730   2.1935   2.2484   2.2760
  2.3035   2.3334   2.3557   2.3630   2.3760   2.4122   2.4321   2.4815
  2.6001   2.6263   2.6350   2.6575   2.6952   2.7164   2.7344   2.7526
  2.7853   2.7921   2.8254   2.8350   2.8425   2.8564   2.8853   2.8970
  2.9034   2.9221   2.9334   2.9453   2.9626   2.9743   2.9774   3.0175
  3.0354   3.0442   3.0606   3.0779   3.1111   3.1271   3.1398   3.1606
  3.1650   3.1881   3.2178   3.2230   3.2396   3.2500   3.2662   3.2769
  3.2837   3.3029   3.3099   3.3283   3.3345   3.3745   3.3776   3.3871
  3.4027   3.4218   3.4414   3.4548   3.4814   3.4886   3.4915   3.5132
  3.5433   3.5471   3.5576   3.5674   3.5883   3.6031   3.6177   3.6474
  3.6506   3.6666   3.6889   3.7296   3.7550   3.7721   3.7849   3.7932
  3.7972   3.8275   3.8305   3.8415   3.8596   3.8663   3.8865   3.8969
  3.9235   3.9324   3.9579   3.9640   3.9893   4.0178   4.0342   4.0462
  4.0612   4.1080   4.1297   4.1758   4.1865   4.2107   4.2125   4.2396
  4.2509   4.2788   4.2946   4.3125   4.3219   4.3324   4.3537   4.3660
  4.3851   4.4020   4.4171   4.4375   4.4659   4.4875   4.5088   4.5110
  4.5366   4.5441   4.5731   4.5766   4.5947   4.6128   4.6384   4.6653
  4.6880   4.7275   4.7302   4.7474   4.7576   4.8045   4.8243   4.8391
  4.9294   4.9428   4.9682   5.0028   5.0525   5.0885   5.0967   5.1068
  5.1507   5.1815   5.1869   5.2004   5.2273   5.2532   5.2807   5.2817
  5.2914   5.2998   5.3147   5.3169   5.3321   5.3468   5.3543   5.3880
  5.4070   5.4533   5.4827   5.5157   5.5413   5.5907   5.6069   5.6498
  5.6754   5.6798   5.7058   5.7176   5.7275   5.7448   5.7991   5.8369
  5.8755   5.9225   5.9946   6.0379   6.0717   6.1929   6.4835   6.6074
  6.6226   6.6637   6.6772   6.8862   6.9729   7.0278   7.0744   7.1022
  7.1192   7.1317   7.1958   7.2738   7.3085   7.3230   7.3311   7.3516
  7.3650   7.3980   7.4277   7.5499   7.6429   7.6723   7.7755   7.8230
  8.1057   8.1246  24.2520  24.6956  24.7733  24.8168  24.9190  25.1217
 25.4277  50.5155  50.5459  50.5922  50.6253
 
 Beta MOs
 -- Occupied --
-19.4033 -19.3992 -19.3495 -19.3385 -10.4061 -10.3958 -10.3878 -10.3649
-10.3615 -10.3559 -10.3518  -1.2979  -1.1716  -1.1555  -0.9964  -0.9096
 -0.8823  -0.8730  -0.8052  -0.7439  -0.7165  -0.6611  -0.6437  -0.6205
 -0.5912  -0.5896  -0.5710  -0.5515  -0.5465  -0.5367  -0.5280  -0.5126
 -0.4890  -0.4778  -0.4547  -0.4449  -0.4388  -0.3979  -0.3877  -0.3493
 -0.3105
 -- Virtual --
 -0.0065   0.0010   0.0256   0.0346   0.0377   0.0445   0.0540   0.0580
  0.0644   0.0685   0.0810   0.0872   0.1018   0.1073   0.1187   0.1307
  0.1358   0.1414   0.1438   0.1514   0.1568   0.1579   0.1612   0.1653
  0.1710   0.1722   0.1783   0.1802   0.1916   0.1993   0.2027   0.2067
  0.2144   0.2200   0.2231   0.2365   0.2417   0.2453   0.2583   0.2641
  0.2663   0.2784   0.2809   0.2894   0.2933   0.3020   0.3092   0.3149
  0.3214   0.3254   0.3309   0.3335   0.3443   0.3455   0.3550   0.3573
  0.3593   0.3684   0.3730   0.3812   0.3899   0.3979   0.3995   0.4042
  0.4159   0.4215   0.4331   0.4404   0.4521   0.4575   0.4662   0.4670
  0.4766   0.5319   0.5412   0.5504   0.5815   0.5872   0.5916   0.5998
  0.6078   0.6213   0.6312   0.6344   0.6409   0.6464   0.6614   0.6679
  0.6731   0.6906   0.6956   0.6989   0.7180   0.7242   0.7274   0.7328
  0.7420   0.7462   0.7600   0.7645   0.7857   0.7945   0.7988   0.8074
  0.8166   0.8240   0.8401   0.8516   0.8672   0.8818   0.8850   0.8998
  0.9158   0.9411   0.9568   0.9717   0.9984   1.0165   1.0227   1.0428
  1.0503   1.0560   1.0644   1.0751   1.0966   1.1087   1.1253   1.1334
  1.1430   1.1501   1.1597   1.1687   1.1766   1.1959   1.2090   1.2256
  1.2328   1.2412   1.2436   1.2541   1.2671   1.2746   1.2879   1.2904
  1.2979   1.3097   1.3129   1.3315   1.3428   1.3615   1.3732   1.3892
  1.3967   1.4074   1.4191   1.4293   1.4408   1.4456   1.4599   1.4688
  1.4848   1.4886   1.4930   1.5048   1.5141   1.5330   1.5403   1.5464
  1.5632   1.5776   1.5904   1.6041   1.6260   1.6457   1.6527   1.6711
  1.6854   1.6995   1.7206   1.7485   1.7670   1.7696   1.7857   1.8130
  1.8302   1.8398   1.8637   1.9070   1.9246   1.9477   1.9794   2.0269
  2.0534   2.0579   2.0985   2.1214   2.1335   2.1733   2.1946   2.2521
  2.2884   2.3065   2.3532   2.3582   2.3669   2.3820   2.4172   2.4373
  2.4818   2.6003   2.6259   2.6352   2.6572   2.6988   2.7162   2.7360
  2.7526   2.7846   2.7918   2.8245   2.8346   2.8421   2.8557   2.8842
  2.8964   2.9027   2.9212   2.9326   2.9447   2.9613   2.9739   2.9766
  3.0165   3.0345   3.0433   3.0589   3.0768   3.1098   3.1268   3.1388
  3.1604   3.1640   3.1876   3.2168   3.2226   3.2383   3.2495   3.2657
  3.2760   3.2833   3.3017   3.3090   3.3273   3.3341   3.3741   3.3768
  3.3864   3.4018   3.4211   3.4408   3.4536   3.4807   3.4873   3.4902
  3.5128   3.5427   3.5466   3.5571   3.5668   3.5871   3.6020   3.6169
  3.6459   3.6498   3.6657   3.6875   3.7291   3.7546   3.7718   3.7843
  3.7927   3.7964   3.8271   3.8301   3.8413   3.8590   3.8658   3.8860
  3.8961   3.9228   3.9317   3.9574   3.9632   3.9888   4.0169   4.0331
  4.0455   4.0603   4.1073   4.1287   4.1754   4.1862   4.2099   4.2120
  4.2390   4.2499   4.2781   4.2943   4.3118   4.3216   4.3322   4.3517
  4.3648   4.3846   4.4017   4.4164   4.4368   4.4648   4.4871   4.5080
  4.5102   4.5363   4.5444   4.5773   4.5935   4.6072   4.6190   4.6393
  4.6646   4.6956   4.7290   4.7409   4.7558   4.7599   4.8111   4.8261
  4.8533   4.9291   4.9506   4.9689   5.0072   5.0594   5.1153   5.1333
  5.1625   5.1677   5.1892   5.2051   5.2230   5.2630   5.2805   5.2960
  5.3015   5.3109   5.3179   5.3198   5.3326   5.3392   5.3602   5.3669
  5.3976   5.4143   5.4572   5.4831   5.5164   5.5413   5.5910   5.6069
  5.6503   5.6761   5.7040   5.7096   5.7266   5.7363   5.7567   5.7972
  5.8362   5.8747   5.9224   5.9941   6.0378   6.0711   6.1924   6.4827
  6.6075   6.6693   6.6756   6.6884   6.9555   7.0393   7.0974   7.1021
  7.1175   7.1339   7.1746   7.2412   7.3080   7.3142   7.3261   7.3333
  7.3550   7.3651   7.4278   7.4491   7.5664   7.6429   7.6727   7.7756
  7.8233   8.1190   8.1493  24.2519  24.6954  24.7731  24.8168  24.9186
 25.1216  25.4275  50.5280  50.5583  50.5923  50.6253
 --------------------------------------------------------------
 
          Ground-State Mulliken Net Atomic Charges

     Atom                 Charge (a.u.)    Spin (a.u.)
  --------------------------------------------------------
      1 C                     0.512349       0.009400
      2 C                    -0.548812      -0.000073
      3 O                    -0.395333       0.000216
      4 C                    -0.451283      -0.020465
      5 C                    -0.440841       0.003192
      6 O                    -0.439156      -0.000518
      7 C                    -0.161384      -0.044870
      8 C                    -0.291538       0.013501
      9 C                    -0.170874      -0.031054
     10 H                     0.216895       0.000278
     11 H                     0.228300       0.000071
     12 H                     0.329481      -0.000069
     13 H                     0.286233      -0.000132
     14 H                     0.347733      -0.014736
     15 H                     0.357202      -0.000333
     16 H                     0.349511       0.002153
     17 H                     0.309273      -0.001070
     18 H                     0.282967       0.000630
     19 O                    -0.251387       0.533634
     20 O                    -0.069335       0.550244
  --------------------------------------------------------
  Sum of atomic charges =    -0.000000
  Sum of spin   charges =     1.000000

 -----------------------------------------------------------------
                    Cartesian Multipole Moments
 -----------------------------------------------------------------
    Charge (ESU x 10^10)
                -0.0000
    Dipole Moment (Debye)
         X       2.2182      Y       1.7450      Z       3.0388
       Tot       4.1472
    Quadrupole Moments (Debye-Ang)
        XX     -82.4794     XY       3.6244     YY     -53.4394
        XZ      -7.8118     YZ       3.4288     ZZ     -74.1416
    Octopole Moments (Debye-Ang^2)
       XXX      71.4751    XXY       7.4724    XYY      10.3225
       YYY       8.1929    XXZ      22.8694    XYZ       2.2645
       YYZ      13.5551    XZZ      69.1842    YZZ      -5.5118
       ZZZ      52.9964
    Hexadecapole Moments (Debye-Ang^3)
      XXXX   -1856.4614   XXXY      94.4308   XXYY    -301.5834
      XYYY      17.9642   YYYY    -356.3457   XXXZ    -266.1611
      XXYZ      -3.9011   XYYZ     -76.3876   YYYZ      -6.0852
      XXZZ    -404.2956   XYZZ      25.4330   YYZZ    -157.4753
      XZZZ    -196.1925   YZZZ     -39.5006   ZZZZ    -506.7570
 -----------------------------------------------------------------
 Total job time:  19783.98s(wall), 154159.66s(cpu) 
 Fri Apr 28 12:35:27 2023

        *************************************************************
        *                                                           *
        *  Thank you very much for using Q-Chem.  Have a nice day.  *
        *                                                           *
        *************************************************************


