
Running Job 1 of 1 Q_in.in
qchem Q_in.in_370001.0 /scratch/ari.fischer/qChem1516129.hpc-mn1/qchem370001/ 0
/usr/local/qchem-5.4.1/exe/qcprog.exe_s Q_in.in_370001.0 /scratch/ari.fischer/qChem1516129.hpc-mn1/qchem370001/
                  Welcome to Q-Chem
     A Quantum Leap Into The Future Of Chemistry


 Q-Chem 5.4, Q-Chem, Inc., Pleasanton, CA (2021)

 License issued to: Nanyang Technological University (site)

 E. Epifanovsky,  A. T. B. Gilbert,  Xintian Feng,  Joonho Lee,  Yuezhi Mao,  
 N. Mardirossian,  P. Pokhilko,  A. White,  M. Wormit,  M. P. Coons,  
 A. L. Dempwolff,  Zhengting Gan,  D. Hait,  P. R. Horn,  L. D. Jacobson,  
 I. Kaliman,  J. Kussmann,  A. W. Lange,  Ka Un Lao,  D. S. Levine,  Jie Liu,  
 S. C. McKenzie,  A. F. Morrison,  K. Nanda,  F. Plasser,  D. R. Rehn,  
 M. L. Vidal,  Zhi-Qiang You,  Ying Zhu,  B. Alam,  B. Albrecht,  
 A. Aldossary,  E. Alguire,  J. H. Andersen,  D. Barton,  K. Begam,  A. Behn,  
 Y. A. Bernard,  E. J. Berquist,  H. Burton,  A. Carreras,  K. Carter-Fenk,  
 R. Chakraborty,  A. D. Chien,  K. D. Closser,  V. Cofer-Shabica,  
 S. Dasgupta,  Jia Deng,  M. de Wergifosse,  M. Diedenhofen,  Hainam Do,  
 S. Ehlert,  Po-Tung Fang,  S. Fatehi,  Qingguo Feng,  T. Friedhoff,  
 J. Gayvert,  Qinghui Ge,  G. Gidofalvi,  M. Goldey,  J. Gomes,  
 C. Gonzalez-Espinoza,  S. Gulania,  A. Gunina,  M. W. D. Hanson-Heine,  
 P. H. P. Harbach,  A. W. Hauser,  M. F. Herbst,  M. Hernandez Vera,  
 M. Hodecker,  Z. C. Holden,  S. Houck,  Xunkun Huang,  Kerwin Hui,  
 B. C. Huynh,  M. Ivanov,  Hyunjun Ji,  Hanjie Jiang,  B. Kaduk,  S. Kaehler,  
 K. Khistyaev,  Jaehoon Kim,  P. Klunzinger,  Z. Koczor-Benda,  
 Joong Hoon Koh,  D. Kosenkov,  L. Koulias,  T. Kowalczyk,  C. M. Krauter,  
 K. Kue,  A. Kunitsa,  T. Kus,  A. Landau,  K. V. Lawler,  D. Lefrancois,  
 S. Lehtola,  Rain Li,  Yi-Pei Li,  Jiashu Liang,  M. Liebenthal,  
 Hung-Hsuan Lin,  You-Sheng Lin,  Fenglai Liu,  Kuan-Yu Liu,  
 M. Loipersberger,  A. Luenser,  A. Manjanath,  P. Manohar,  E. Mansoor,  
 S. F. Manzer,  Shan-Ping Mao,  A. V. Marenich,  T. Markovich,  S. Mason,  
 S. A. Maurer,  P. F. McLaughlin,  M. F. S. J. Menger,  J.-M. Mewes,  
 S. A. Mewes,  P. Morgante,  J. W. Mullinax,  K. J. Oosterbaan,  G. Paran,  
 Alexander C. Paul,  Suranjan K. Paul,  F. Pavosevic,  Zheng Pei,  S. Prager,  
 E. I. Proynov,  E. Ramos,  B. Rana,  A. E. Rask,  A. Rettig,  R. M. Richard,  
 F. Rob,  E. Rossomme,  T. Scheele,  M. Scheurer,  M. Schneider,  
 N. Sergueev,  S. M. Sharada,  W. Skomorowski,  D. W. Small,  C. J. Stein,  
 Yu-Chuan Su,  E. J. Sundstrom,  Zhen Tao,  J. Thirman,  T. Tsuchimochi,  
 N. M. Tubman,  S. P. Veccham,  O. Vydrov,  J. Wenzel,  J. Witte,  A. Yamada,  
 Kun Yao,  S. Yeganeh,  S. R. Yost,  A. Zech,  Igor Ying Zhang,  Xing Zhang,  
 Yu Zhang,  D. Zuev,  A. Aspuru-Guzik,  A. T. Bell,  N. A. Besley,  
 K. B. Bravaya,  B. R. Brooks,  D. Casanova,  Jeng-Da Chai,  S. Coriani,  
 C. J. Cramer,  A. E. DePrince, III,  R. A. DiStasio Jr.,  A. Dreuw,  
 B. D. Dunietz,  T. R. Furlani,  W. A. Goddard III,  S. Grimme,  
 S. Hammes-Schiffer,  T. Head-Gordon,  W. J. Hehre,  Chao-Ping Hsu,  
 T.-C. Jagau,  Yousung Jung,  A. Klamt,  Jing Kong,  D. S. Lambrecht,  
 WanZhen Liang,  N. J. Mayhall,  C. W. McCurdy,  J. B. Neaton,  
 C. Ochsenfeld,  J. A. Parkhill,  R. Peverati,  V. A. Rassolov,  Yihan Shao,  
 L. V. Slipchenko,  T. Stauch,  R. P. Steele,  J. E. Subotnik,  
 A. J. W. Thom,  A. Tkatchenko,  D. G. Truhlar,  T. Van Voorhis,  
 T. A. Wesolowski,  K. B. Whaley,  H. L. Woodcock III,  P. M. Zimmerman,  
 S. Faraji,  P. M. W. Gill,  M. Head-Gordon,  J. M. Herbert,  A. I. Krylov

 Additional authors for Version 5.4.1: 
 S. Kotaru,  Shaozhi Li,  Xiangyuan Li,  F. Matz,  A. Molle,  Haisheng Ren,  
 Yingli Su,  Hung-Yi Tsai,  C. Utku,  Fang Wang

 Contributors to earlier versions of Q-Chem not listed above: 
 R. D. Adamson,  B. Austin,  R. Baer,  J. Baker,  G. J. O. Beran,  
 K. Brandhorst,  S. T. Brown,  E. F. C. Byrd,  A. K. Chakraborty,  
 G. K. L. Chan,  Chun-Min Chang,  Yunqing Chen,  C.-L. Cheng,  
 Siu Hung Chien,  D. M. Chipman,  D. L. Crittenden,  H. Dachsel,  
 R. J. Doerksen,  A. D. Dutoi,  R. G. Edgar,  J. Fosso-Tande,  
 L. Fusti-Molnar,  D. Ghosh,  A. Ghysels,  A. Golubeva-Zadorozhnaya,  
 J. Gonthier,  M. S. Gordon,  S. R. Gwaltney,  G. Hawkins,  J. E. Herr,  
 A. Heyden,  S. Hirata,  E. G. Hohenstein,  G. Kedziora,  F. J. Keil,  
 C. Kelley,  Jihan Kim,  R. A. King,  R. Z. Khaliullin,  P. P. Korambath,  
 W. Kurlancheek,  A. Laurent,  A. M. Lee,  M. S. Lee,  S. V. Levchenko,  
 Ching Yeh Lin,  D. Liotard,  E. Livshits,  R. C. Lochan,  I. Lotan,  
 L. A. Martinez-Martinez,  P. E. Maslen,  N. Nair,  D. P. O'Neill,  
 D. Neuhauser,  E. Neuscamman,  C. M. Oana,  R. Olivares-Amaya,  R. Olson,  
 T. M. Perrine,  B. Peters,  P. A. Pieniazek,  A. Prociuk,  Y. M. Rhee,  
 J. Ritchie,  M. A. Rohrdanz,  E. Rosta,  N. J. Russ,  H. F. Schaefer III,  
 M. W. Schmidt,  N. E. Schultz,  S. Sharma,  N. Shenvi,  C. D. Sherrill,  
 A. C. Simmonett,  A. Sodt,  T. Stein,  D. Stuck,  K. S. Thanthiriwatte,  
 V. Vanovschi,  L. Vogt,  Tao Wang,  A. Warshel,  M. A. Watson,  
 C. F. Williams,  Q. Wu,  X. Xu,  Jun Yang,  W. Zhang,  Yan Zhao

 Please cite Q-Chem as follows:
 Y. Shao et al., Mol. Phys. 113, 184-215 (2015)
 DOI: 10.1080/00268976.2014.952696

 Q-Chem 5.4.1 for Intel X86 EM64T Linux

 Parts of Q-Chem use Armadillo 9.800.1 (Horizon Scraper).
 http://arma.sourceforge.net/

 Q-Chem begins on Thu Apr 20 21:35:51 2023  

 Host: 
0

     Scratch files written to /scratch/ari.fischer/qChem1516129.hpc-mn1/qchem370001//
 Aug1521 |scratch|qcdevops|jenkins|workspace|build_RNUM 8249   
 Processing $rem in /usr/local/qchem-5.4.1/config/preferences:
 Processing $rem in /home/ari.fischer/.qchemrc:
 Symmetry turned off for PCM/SM12/SMD calculation

 Checking the input file for inconsistencies... 	...done.

--------------------------------------------------------------
User input:
--------------------------------------------------------------
$molecule
0 2
C         0.8692705732    0.1189238700    0.0704893237
C         2.3268075869    0.5150432804    0.0339029653
O         3.1669749108   -0.4257485319    0.7016759849
C        -0.0933374426    1.0129612990    0.4260145739
C        -1.5553381839    0.6781501322    0.4528490940
O        -2.1263238087    0.9377793362    1.7579373690
C        -1.8323355760   -0.7531228062    0.1158348890
C        -0.8424561484   -1.6241363278   -0.2315811644
C         0.5122624349   -1.2182063355   -0.2732147487
H         2.6839878395    0.5387143642   -1.0009859481
H         2.4510997835    1.5222027887    0.4529595686
H         2.8746250973   -0.4517993380    1.6272932929
H         0.1783363048    2.0295591401    0.7076171963
H        -2.0838583721    1.3224912907   -0.2721216661
H        -2.1414558936    1.9035395437    1.8635553357
H        -2.8705998015   -1.0719435048    0.1571115313
H        -1.0926447674   -2.6532124857   -0.4774249860
H         1.2884262630   -1.9269210156   -0.5440703112
$end

$rem
BASIS = 6-311++G(2df,2p)
GUI = 2
JOB_TYPE = Optimization
METHOD = wB97M-V
SCF_ALGORITHM = DIIS_GDM
MAX_SCF_CYCLES = 400
GEOM_OPT_MAX_CYCLES = 150
SCF_CONVERGENCE = 7
THRESH = 12
Solvent_method = SMD
$end
--------------------------------------------------------------
 ----------------------------------------------------------------
             Standard Nuclear Orientation (Angstroms)
    I     Atom           X                Y                Z
 ----------------------------------------------------------------
    1      C       0.8692705732     0.1189238700     0.0704893237
    2      C       2.3268075869     0.5150432804     0.0339029653
    3      O       3.1669749108    -0.4257485319     0.7016759849
    4      C      -0.0933374426     1.0129612990     0.4260145739
    5      C      -1.5553381839     0.6781501322     0.4528490940
    6      O      -2.1263238087     0.9377793362     1.7579373690
    7      C      -1.8323355760    -0.7531228062     0.1158348890
    8      C      -0.8424561484    -1.6241363278    -0.2315811644
    9      C       0.5122624349    -1.2182063355    -0.2732147487
   10      H       2.6839878395     0.5387143642    -1.0009859481
   11      H       2.4510997835     1.5222027887     0.4529595686
   12      H       2.8746250973    -0.4517993380     1.6272932929
   13      H       0.1783363048     2.0295591401     0.7076171963
   14      H      -2.0838583721     1.3224912907    -0.2721216661
   15      H      -2.1414558936     1.9035395437     1.8635553357
   16      H      -2.8705998015    -1.0719435048     0.1571115313
   17      H      -1.0926447674    -2.6532124857    -0.4774249860
   18      H       1.2884262630    -1.9269210156    -0.5440703112
 ----------------------------------------------------------------
 Nuclear Repulsion Energy =         430.62145911 hartrees
 There are       34 alpha and       33 beta electrons
 Requested basis set is 6-311++G(2df,2p)
 There are 126 shells and 396 basis functions

 Total QAlloc Memory Limit 288000 MB
 Mega-Array Size       188 MB
 MEM_STATIC part       192 MB
 
 Citation of the SMD model:
 Marenich, A.V.; Cramer, C.J.; Truhlar, D.G.
 J. Phys. Chem. B 2009, 113, 6378-6396.
 iSolventCode=           1
 Solvent: water                                                           
 
 vradii
            1           2           3           4           5           6
    1   1.8500000   1.8500000   1.5200000   1.8500000   1.8500000   1.5200000
            7           8           9          10          11          12
    1   1.8500000   1.8500000   1.8500000   1.2000000   1.2000000   1.2000000
           13          14          15          16          17          18
    1   1.2000000   1.2000000   1.2000000   1.2000000   1.2000000   1.2000000
 Changing PCM_VDW_RADII to SMD_RADIUS
 Discretize the solute cavity surface with Lebedev spheres
	Using 110 Lebedev grid points for each H atom
	Using 194 Lebedev grid points for other atoms
	Atomic van der Waals radii will be scaled by 1.20
 Remove points where switching function is < 1.0e-08
 Keep 1341 surface tesserae and discard 1395 interior tesserae
 Molecular Surface Area = 155.664 Angst**2
 A cutoff of  1.0D-12 yielded   7170 shell pairs
 There are     71276 function pairs (     88251 Cartesian)
 Smallest overlap matrix eigenvalue = 1.05E-06

 Scale SEOQF with 1.000000e-01/1.000000e-01/1.000000e-01

 Standard Electronic Orientation quadrupole field applied
 Nucleus-field energy     =     0.0000000092 hartrees
 Guess from superposition of atomic densities
 Warning:  Energy on first SCF cycle will be non-variational
 SAD guess density has 67.000000 electrons

 -----------------------------------------------------------------------
  General SCF calculation program by
  Eric Jon Sundstrom, Paul Horn, Yuezhi Mao, Dmitri Zuev, Alec White,
  David Stuck, Shaama M.S., Shane Yost, Joonho Lee, David Small,
  Daniel Levine, Susi Lehtola, Hugh Burton, Evgeny Epifanovsky,
  Bang C. Huynh
 -----------------------------------------------------------------------
 Exchange:     0.1500 Hartree-Fock + 1.0000 wB97M-V + LR-HF
 Correlation:  1.0000 wB97M-V
 Using SG-2 standard quadrature grid
 Nonlocal Correlation:  VV10 with C = 0.0100 and b = 6.00 and scale = 1.00000
 Grid used for NLC:  SG-1 standard quadrature
 
 Citation of the SMD model:
 Marenich, A.V.; Cramer, C.J.; Truhlar, D.G.
 J. Phys. Chem. B 2009, 113, 6378-6396.
 iSolventCode=           1
 Solvent: water                                                           
 
 vradii
            1           2           3           4           5           6
    1   1.8500000   1.8500000   1.5200000   1.8500000   1.8500000   1.5200000
            7           8           9          10          11          12
    1   1.8500000   1.8500000   1.8500000   1.2000000   1.2000000   1.2000000
           13          14          15          16          17          18
    1   1.2000000   1.2000000   1.2000000   1.2000000   1.2000000   1.2000000
 using 8 threads for integral computing
 -------------------------------------------------------
 OpenMP Integral computing Module                
 Release: version 1.0, May 2013, Q-Chem Inc. Pittsburgh 
 -------------------------------------------------------
 -------------------------------------------------------
 OpenMP BLAS3 based DFT computing Module                
 Release: version 1.0, May 2013, Q-Chem Inc. Pittsburgh 
 -------------------------------------------------------
 A unrestricted SCF calculation will be
 performed using DIIS, GDM
 SCF converges when RMS gradient is below 1.0e-07
 ---------------------------------------
  Cycle       Energy         DIIS error
 ---------------------------------------
    1    -425.0264349775      1.26e-02  
    2    -422.4290138325      1.19e-03  Done DIIS. Switching to GDM
 ---------------------------------------
  Cycle       Energy        RMS Gradient
 ---------------------------------------
    1    -422.4290138325      3.37e-02   Descent step
    2    -422.5180659071      1.62e-02   Normal BFGS step
    3    -422.5300918419      9.34e-03   Normal BFGS step
    4    -422.5318554204      6.51e-03   Normal BFGS step
    5    -422.5323189793      3.70e-03   Normal BFGS step
    6    -422.5324679270      1.26e-03   Normal BFGS step
    7    -422.5324846508      4.92e-04   Normal BFGS step
    8    -422.5324894500      3.73e-04   Normal BFGS step
    9    -422.5324902878      2.01e-04   Normal BFGS step
   10    -422.5324906545      7.87e-05   Normal BFGS step
   11    -422.5324907428      2.19e-05   Normal BFGS step
   12    -422.5324907520      9.28e-06   Normal BFGS step
   13    -422.5324907537      4.01e-06   Normal BFGS step
   14    -422.5324907539      1.88e-06   Normal BFGS step
   15    -422.5324907539      1.54e-06   Normal BFGS step
   16    -422.5324907539      9.65e-07   Normal BFGS step
   17    -422.5324907539      5.20e-07   Normal BFGS step
   18    -422.5324907539      1.12e-07   Normal BFGS step
   19    -422.5324907539      7.51e-08  Convergence criterion met
 ---------------------------------------
 SCF time:   CPU 1971.71s  wall 250.00s 
<S^2> =          0.789662047
(3)  G-ENP(liq) elect-nuc-pol free energy of system     -422.532490754 a.u.
(4)  G-CDS(liq) cavity-dispersion-solvent structure 
     free energy                                                3.6504 kcal/mol
(6)  G-S(liq) free energy of system                     -422.526673453 a.u.
 SCF   energy in the final basis set =     -422.5266734528
 Total energy in the final basis set =     -422.5266734528
 
 --------------------------------------------------------------
 
                    Orbital Energies (a.u.)
 --------------------------------------------------------------
 
 Alpha MOs
 -- Occupied --
-19.3394 -19.3384 -10.4010 -10.3868 -10.3525 -10.3520 -10.3492 -10.3476
-10.3450  -1.1545  -1.1539  -0.9755  -0.8910  -0.8611  -0.7952  -0.7391
 -0.7027  -0.6335  -0.6241  -0.6043  -0.5784  -0.5683  -0.5472  -0.5245
 -0.5192  -0.4889  -0.4764  -0.4518  -0.4421  -0.4299  -0.3979  -0.3899
 -0.3585  -0.2695
 -- Virtual --
  0.0237   0.0350   0.0358   0.0448   0.0541   0.0571   0.0633   0.0649
  0.0798   0.0838   0.1031   0.1081   0.1201   0.1232   0.1366   0.1459
  0.1480   0.1521   0.1570   0.1576   0.1616   0.1657   0.1674   0.1758
  0.1806   0.1844   0.1891   0.1935   0.2018   0.2063   0.2156   0.2180
  0.2252   0.2373   0.2465   0.2533   0.2601   0.2721   0.2759   0.2799
  0.2871   0.2946   0.3028   0.3085   0.3145   0.3214   0.3297   0.3401
  0.3451   0.3460   0.3591   0.3665   0.3715   0.3733   0.3867   0.3935
  0.4048   0.4104   0.4163   0.4368   0.4548   0.4640   0.4669   0.5286
  0.5443   0.5657   0.5694   0.5785   0.5880   0.5909   0.6027   0.6105
  0.6183   0.6268   0.6354   0.6421   0.6511   0.6650   0.6687   0.6762
  0.6950   0.6998   0.7097   0.7152   0.7235   0.7282   0.7334   0.7493
  0.7518   0.7574   0.7658   0.7710   0.7801   0.8024   0.8068   0.8193
  0.8214   0.8379   0.8489   0.8548   0.8798   0.8830   0.8977   0.9018
  0.9414   0.9655   0.9813   0.9995   1.0126   1.0362   1.0559   1.0636
  1.0666   1.0914   1.1063   1.1102   1.1225   1.1256   1.1409   1.1558
  1.1627   1.1909   1.2113   1.2248   1.2427   1.2470   1.2556   1.2727
  1.2825   1.2857   1.3083   1.3210   1.3405   1.3542   1.3578   1.3784
  1.3907   1.4080   1.4128   1.4175   1.4285   1.4413   1.4511   1.4719
  1.4826   1.4951   1.4966   1.5090   1.5199   1.5265   1.5478   1.5555
  1.5735   1.5805   1.6166   1.6332   1.6397   1.6747   1.6884   1.7151
  1.7271   1.7758   1.7793   1.8013   1.8403   1.8462   1.8896   1.9268
  1.9496   2.0214   2.0519   2.0647   2.0785   2.1160   2.1369   2.1456
  2.2104   2.2746   2.3501   2.3691   2.3964   2.4436   2.5595   2.6044
  2.6275   2.6334   2.6769   2.6861   2.7097   2.7263   2.7840   2.7992
  2.8229   2.8262   2.8351   2.8433   2.8690   2.8737   2.8961   2.9034
  2.9155   2.9255   2.9325   2.9461   2.9588   2.9783   2.9892   3.0092
  3.0147   3.0368   3.0729   3.0914   3.1110   3.1210   3.1490   3.1684
  3.1871   3.2305   3.2361   3.2444   3.2591   3.2683   3.2798   3.2882
  3.3057   3.3205   3.3412   3.3455   3.3655   3.3745   3.3909   3.4173
  3.4376   3.4645   3.4751   3.4923   3.5053   3.5115   3.5213   3.5346
  3.5621   3.5743   3.5853   3.6064   3.6204   3.6398   3.6743   3.6816
  3.7132   3.7288   3.7397   3.7583   3.7854   3.7940   3.8044   3.8128
  3.8266   3.8367   3.8495   3.8628   3.8766   3.8968   3.9104   3.9640
  3.9668   3.9733   4.0109   4.0230   4.0466   4.0644   4.0813   4.1101
  4.1323   4.1503   4.1730   4.1968   4.2226   4.2259   4.2540   4.2707
  4.2832   4.2873   4.3099   4.3155   4.3362   4.3558   4.3817   4.3962
  4.4105   4.4153   4.4368   4.4872   4.5071   4.5188   4.5277   4.5561
  4.5851   4.5980   4.6207   4.6539   4.6617   4.7061   4.7177   4.7900
  4.8122   4.8888   4.9349   4.9917   5.0697   5.1294   5.1844   5.2100
  5.2615   5.2798   5.2986   5.3125   5.3168   5.3551   5.4078   5.4274
  5.4777   5.4923   5.5213   5.5626   5.5966   5.6224   5.6498   5.6710
  5.6774   5.6972   5.7440   5.8042   5.8662   5.9042   5.9373   5.9714
  6.0330   6.0808   6.3959   6.5549   6.6139   7.0987   7.1225   7.2715
  7.2802   7.3349   7.3378   7.3541   7.3931   7.6293   7.6333   7.7752
  7.8022  24.2631  24.6149  24.7687  24.7891  24.8745  25.0759  25.3615
 50.5819  50.5975
 
 Beta MOs
 -- Occupied --
-19.3385 -19.3380 -10.4017 -10.3867 -10.3545 -10.3477 -10.3447 -10.3435
-10.3427  -1.1545  -1.1509  -0.9691  -0.8876  -0.8518  -0.7905  -0.7309
 -0.6987  -0.6314  -0.6182  -0.6003  -0.5737  -0.5643  -0.5469  -0.5207
 -0.5163  -0.4832  -0.4723  -0.4448  -0.4288  -0.4220  -0.3918  -0.3855
 -0.3414
 -- Virtual --
 -0.0224   0.0235   0.0352   0.0357   0.0441   0.0539   0.0571   0.0637
  0.0757   0.0814   0.0833   0.1039   0.1074   0.1193   0.1270   0.1378
  0.1466   0.1516   0.1525   0.1563   0.1592   0.1614   0.1664   0.1693
  0.1759   0.1807   0.1851   0.1883   0.1942   0.2015   0.2109   0.2161
  0.2195   0.2238   0.2375   0.2463   0.2528   0.2599   0.2720   0.2751
  0.2800   0.2866   0.2944   0.3053   0.3111   0.3169   0.3239   0.3311
  0.3424   0.3471   0.3483   0.3610   0.3681   0.3739   0.3750   0.3876
  0.3951   0.4063   0.4122   0.4178   0.4378   0.4568   0.4666   0.4676
  0.5298   0.5453   0.5692   0.5727   0.5821   0.5914   0.5958   0.6054
  0.6158   0.6202   0.6288   0.6389   0.6483   0.6545   0.6694   0.6743
  0.6804   0.6975   0.7019   0.7136   0.7181   0.7281   0.7323   0.7357
  0.7507   0.7545   0.7611   0.7696   0.7735   0.7852   0.8034   0.8118
  0.8242   0.8267   0.8381   0.8543   0.8596   0.8837   0.8859   0.8997
  0.9064   0.9421   0.9676   0.9827   1.0016   1.0145   1.0375   1.0568
  1.0650   1.0677   1.0928   1.1069   1.1112   1.1231   1.1273   1.1419
  1.1588   1.1662   1.1934   1.2137   1.2252   1.2439   1.2482   1.2574
  1.2741   1.2840   1.2869   1.3111   1.3231   1.3433   1.3594   1.3599
  1.3809   1.3950   1.4114   1.4171   1.4188   1.4325   1.4441   1.4560
  1.4750   1.4861   1.4976   1.5000   1.5115   1.5235   1.5278   1.5511
  1.5584   1.5787   1.5822   1.6187   1.6358   1.6450   1.6774   1.6916
  1.7199   1.7310   1.7819   1.7854   1.8041   1.8484   1.8506   1.8969
  1.9299   1.9526   2.0272   2.0560   2.0678   2.0826   2.1189   2.1397
  2.1488   2.2125   2.2767   2.3513   2.3705   2.3976   2.4450   2.5693
  2.6093   2.6334   2.6424   2.6852   2.6943   2.7185   2.7355   2.7993
  2.8096   2.8275   2.8393   2.8511   2.8542   2.8772   2.8815   2.9062
  2.9187   2.9262   2.9427   2.9490   2.9602   2.9714   2.9938   3.0008
  3.0208   3.0269   3.0573   3.0863   3.0993   3.1204   3.1345   3.1537
  3.1795   3.1923   3.2384   3.2466   3.2539   3.2672   3.2805   3.2877
  3.2996   3.3195   3.3307   3.3482   3.3535   3.3728   3.3798   3.4012
  3.4258   3.4472   3.4783   3.4854   3.5015   3.5125   3.5176   3.5346
  3.5444   3.5745   3.5821   3.6001   3.6177   3.6415   3.6582   3.6844
  3.6890   3.7205   3.7353   3.7472   3.7642   3.7901   3.7970   3.8090
  3.8197   3.8378   3.8418   3.8591   3.8693   3.8891   3.9024   3.9207
  3.9733   3.9760   3.9794   4.0220   4.0303   4.0557   4.0738   4.0904
  4.1167   4.1398   4.1578   4.1774   4.1996   4.2269   4.2342   4.2649
  4.2821   4.2898   4.2914   4.3177   4.3212   4.3431   4.3658   4.3907
  4.4039   4.4180   4.4266   4.4474   4.4994   4.5156   4.5317   4.5401
  4.5653   4.5941   4.6045   4.6346   4.6658   4.6740   4.7178   4.7242
  4.7996   4.8220   4.9029   4.9488   5.0053   5.0846   5.1411   5.1952
  5.2237   5.2673   5.2811   5.3018   5.3146   5.3183   5.3580   5.4150
  5.4351   5.4801   5.4970   5.5260   5.5731   5.5971   5.6345   5.6545
  5.6765   5.6801   5.6996   5.7551   5.8185   5.8808   5.9139   5.9418
  5.9765   6.0337   6.0937   6.4065   6.5591   6.6140   7.0988   7.1248
  7.2721   7.2824   7.3354   7.3412   7.3540   7.3972   7.6300   7.6358
  7.7749   7.8071  24.2650  24.6169  24.7693  24.7892  24.8796  25.0774
 25.3639  50.5818  50.5987
 --------------------------------------------------------------
 
          Ground-State Mulliken Net Atomic Charges

     Atom                 Charge (a.u.)    Spin (a.u.)
  --------------------------------------------------------
      1 C                     0.611274      -0.136522
      2 C                    -0.466797       0.006092
      3 O                    -0.405720      -0.001409
      4 C                    -0.467867       0.322716
      5 C                    -0.763017       0.026465
      6 O                    -0.404326       0.015653
      7 C                     0.004786       0.366565
      8 C                    -0.432260      -0.124534
      9 C                    -0.137349       0.505831
     10 H                     0.186492      -0.002333
     11 H                     0.248931      -0.000699
     12 H                     0.326777       0.001092
     13 H                     0.283492      -0.008647
     14 H                     0.183282       0.043010
     15 H                     0.331022       0.003470
     16 H                     0.306516      -0.010424
     17 H                     0.298101       0.006089
     18 H                     0.296662      -0.012418
  --------------------------------------------------------
  Sum of atomic charges =    -0.000000
  Sum of spin   charges =     1.000000

 -----------------------------------------------------------------
                    Cartesian Multipole Moments
 -----------------------------------------------------------------
    Charge (ESU x 10^10)
                -0.0000
    Dipole Moment (Debye)
         X      -0.8967      Y       2.8187      Z      -0.8465
       Tot       3.0767
    Quadrupole Moments (Debye-Ang)
        XX     -63.1133     XY       0.5003     YY     -44.9021
        XZ       4.9708     YZ       3.6621     ZZ     -56.8490
    Octopole Moments (Debye-Ang^2)
       XXX     -51.2480    XXY      18.9503    XYY     -17.0623
       YYY      20.4446    XXZ     -27.0983    XYZ      -4.8170
       YYZ     -10.7430    XZZ      17.8893    YZZ       7.9869
       ZZZ     -56.6986
    Hexadecapole Moments (Debye-Ang^3)
      XXXX   -1334.3730   XXXY      51.9767   XXYY    -227.0026
      XYYY      -1.9061   YYYY    -338.6442   XXXZ      57.1296
      XXYZ     -11.1290   XYYZ      -2.9865   YYYZ     -18.7955
      XXZZ    -220.4683   XYZZ     -11.0322   YYZZ     -89.7944
      XZZZ      79.0911   YZZZ     -55.2644   ZZZZ    -243.0296
 -----------------------------------------------------------------
 Calculating analytic gradient of the SCF energy
 Gradient of CDS energy
            1           2           3           4           5           6
    1   0.0000632   0.0008729  -0.0002490   0.0001168  -0.0002440   0.0000928
    2  -0.0000406   0.0007167  -0.0001044   0.0001720   0.0001311  -0.0001557
    3   0.0000179  -0.0001344  -0.0001919   0.0000368   0.0001710  -0.0001955
            7           8           9          10          11          12
    1  -0.0003912  -0.0001571   0.0003120  -0.0000460  -0.0002367   0.0001724
    2  -0.0000792  -0.0004324  -0.0001464  -0.0002140   0.0000897  -0.0002247
    3   0.0000157  -0.0001008  -0.0001590  -0.0001790   0.0000600   0.0004463
           13          14          15          16          17          18
    1   0.0001125  -0.0001055  -0.0002116  -0.0002177  -0.0000494   0.0001657
    2   0.0001352   0.0001216   0.0003449  -0.0000197  -0.0002034  -0.0000907
    3   0.0000306  -0.0001358   0.0003150   0.0000478  -0.0000486   0.0000037
 Gradient of SCF Energy
            1           2           3           4           5           6
    1   0.0070014  -0.0002486   0.0113766  -0.0089043  -0.0009423  -0.0021515
    2  -0.0038276  -0.0119713  -0.0046568  -0.0033779  -0.0089324  -0.0252576
    3  -0.0045264   0.0067382  -0.0189030  -0.0023816   0.0103445   0.0042634
            7           8           9          10          11          12
    1   0.0025076   0.0018464  -0.0003366   0.0013391   0.0001228  -0.0082083
    2   0.0063695   0.0011025   0.0051123   0.0016217   0.0101080   0.0031072
    3  -0.0006285  -0.0000467   0.0028525  -0.0063421   0.0035744   0.0155818
           13          14          15          16          17          18
    1   0.0024899  -0.0042587   0.0016263  -0.0048136  -0.0013434   0.0028970
    2   0.0128667   0.0069689   0.0219500  -0.0011160  -0.0066751  -0.0033919
    3   0.0032764  -0.0067496  -0.0029314  -0.0007084  -0.0018688  -0.0015447
 Max gradient component =       2.526E-02
 RMS gradient           =       7.670E-03
 Computing fast CPCM-SWIG gradient
 Updating gradient with PCM contributions...
 -- total gradient after adding PCM contribution --
---------------------------------------------------
  Atom         X              Y              Z     
---------------------------------------------------
   1       0.003254      -0.000297      -0.001218
   2       0.000857      -0.003377       0.004771
   3       0.003760      -0.001670      -0.009071
   4      -0.002568       0.000786       0.000384
   5      -0.002091       0.003585       0.003730
   6      -0.000654      -0.009150       0.001212
   7      -0.001514       0.001600       0.000947
   8       0.001124      -0.002040      -0.001013
   9       0.000900      -0.000568       0.000174
  10       0.001521       0.000027      -0.002813
  11       0.000360       0.003899       0.000856
  12      -0.003799       0.001148       0.006082
  13       0.000590       0.002991       0.000856
  14      -0.001356       0.001876      -0.002802
  15       0.000675       0.007040      -0.001191
  16      -0.003072      -0.000706       0.000325
  17      -0.000605      -0.003167      -0.000780
  18       0.002618      -0.001978      -0.000448
---------------------------------------------------
 Number of fixed atoms: 0
 Gradient time:  CPU 292.35 s  wall 42.51 s
 Geometry Optimization Parameters
   NAtoms,    NIC,     NZ,  NCons,   NDum,   NFix, NCnnct, MaxDiis
       18     123       0       0       0       0       0       0


** GEOMETRY OPTIMIZATION IN DELOCALIZED INTERNAL COORDINATES **
   Searching for a Minimum

   Optimization Cycle:   1

                       Coordinates (Angstroms)
     ATOM                X               Y               Z
      1  C         0.8692705732    0.1189238700    0.0704893237
      2  C         2.3268075869    0.5150432804    0.0339029653
      3  O         3.1669749108   -0.4257485319    0.7016759849
      4  C        -0.0933374426    1.0129612990    0.4260145739
      5  C        -1.5553381839    0.6781501322    0.4528490940
      6  O        -2.1263238087    0.9377793362    1.7579373690
      7  C        -1.8323355760   -0.7531228062    0.1158348890
      8  C        -0.8424561484   -1.6241363278   -0.2315811644
      9  C         0.5122624349   -1.2182063355   -0.2732147487
     10  H         2.6839878395    0.5387143642   -1.0009859481
     11  H         2.4510997835    1.5222027887    0.4529595686
     12  H         2.8746250973   -0.4517993380    1.6272932929
     13  H         0.1783363048    2.0295591401    0.7076171963
     14  H        -2.0838583721    1.3224912907   -0.2721216661
     15  H        -2.1414558936    1.9035395437    1.8635553357
     16  H        -2.8705998015   -1.0719435048    0.1571115313
     17  H        -1.0926447674   -2.6532124857   -0.4774249860
     18  H         1.2884262630   -1.9269210156   -0.5440703112
   Point Group: c1    Number of degrees of freedom:    48


   Energy is   -422.526673453


 Attempting to generate delocalized internal coordinates
 Initial Hessian constructed with Jon Baker's OPTIMIZE code

 48 Hessian modes will be used to form the next step
  Hessian Eigenvalues:
     0.007744    0.009297    0.010797    0.012048    0.015603    0.016838
     0.017293    0.019699    0.021537    0.022531    0.024136    0.054306
     0.059699    0.068948    0.073504    0.082249    0.118001    0.141443
     0.159951    0.159996    0.159999    0.159999    0.160000    0.160000
     0.164180    0.209246    0.219976    0.220836    0.234908    0.249999
     0.312653    0.313787    0.322039    0.331809    0.339132    0.342356
     0.348935    0.351368    0.351738    0.353510    0.385089    0.402930
     0.413947    0.420451    0.494298    0.525107    0.530440    0.531655

 Minimum search - taking simple RFO step
 Searching for Lamda that Minimizes Along All modes
 Value Taken    Lamda =  -0.00114153
 Step Taken.  Stepsize is  0.123292

                             Maximum     Tolerance    Cnvgd?
         Gradient           0.007696      0.000300      NO
         Displacement       0.056181      0.001200      NO
         Energy change     *********      0.000001      NO


 New Cartesian Coordinates Obtained by Inverse Iteration

 Displacement from previous Coordinates is:  0.231810
 ----------------------------------------------------------------
             Standard Nuclear Orientation (Angstroms)
    I     Atom           X                Y                Z
 ----------------------------------------------------------------
    1      C       0.8659322660     0.1081626457     0.0695089193
    2      C       2.3177689371     0.5078102168     0.0272460560
    3      O       3.1612420037    -0.3960206398     0.7431330421
    4      C      -0.0869065583     1.0018308677     0.4262940323
    5      C      -1.5442220682     0.6718830384     0.4530006758
    6      O      -2.1127311143     0.9341755412     1.7591998852
    7      C      -1.8295934328    -0.7506645089     0.1101354798
    8      C      -0.8482321641    -1.6198797031    -0.2404726775
    9      C       0.5032754889    -1.2205701695    -0.2826544327
   10      H       2.6776883931     0.5013363881    -1.0017886159
   11      H       2.4309976922     1.5219004430     0.4155709419
   12      H       2.8844838682    -0.3961404408     1.6667366342
   13      H       0.1890922417     2.0118331656     0.7089921672
   14      H      -2.0697948728     1.3201409168    -0.2619001574
   15      H      -2.1273920096     1.8903173162     1.8873859292
   16      H      -2.8647978097    -1.0638305555     0.1470302631
   17      H      -1.1032721400    -2.6407712523    -0.4933988179
   18      H       1.2699020787    -1.9272385699    -0.5661770248
 ----------------------------------------------------------------
 Nuclear Repulsion Energy =         431.73479496 hartrees
 There are       34 alpha and       33 beta electrons
 Discretize the solute cavity surface with Lebedev spheres
	Using 110 Lebedev grid points for each H atom
	Using 194 Lebedev grid points for other atoms
	Atomic van der Waals radii will be scaled by 1.20
 Remove points where switching function is < 1.0e-08
 Keep 1339 surface tesserae and discard 1397 interior tesserae
 Molecular Surface Area = 155.249 Angst**2
 Applying Cartesian multipole field
    Component          Value
    ---------          -----
     (2,0,0)        1.00000E-11
     (0,2,0)        2.00000E-11
     (0,0,2)       -3.00000E-11
 Nucleus-field energy     =     0.0000000090 hartrees
 Requested basis set is 6-311++G(2df,2p)
 There are 126 shells and 396 basis functions
 A cutoff of  1.0D-12 yielded   7186 shell pairs
 There are     71414 function pairs (     88429 Cartesian)
 Smallest overlap matrix eigenvalue = 1.02E-06
 Guess MOs from SCF MO coefficient file

 -----------------------------------------------------------------------
  General SCF calculation program by
  Eric Jon Sundstrom, Paul Horn, Yuezhi Mao, Dmitri Zuev, Alec White,
  David Stuck, Shaama M.S., Shane Yost, Joonho Lee, David Small,
  Daniel Levine, Susi Lehtola, Hugh Burton, Evgeny Epifanovsky,
  Bang C. Huynh
 -----------------------------------------------------------------------
 Exchange:     0.1500 Hartree-Fock + 1.0000 wB97M-V + LR-HF
 Correlation:  1.0000 wB97M-V
 Using SG-2 standard quadrature grid
 Nonlocal Correlation:  VV10 with C = 0.0100 and b = 6.00 and scale = 1.00000
 Grid used for NLC:  SG-1 standard quadrature
 
 Citation of the SMD model:
 Marenich, A.V.; Cramer, C.J.; Truhlar, D.G.
 J. Phys. Chem. B 2009, 113, 6378-6396.
 iSolventCode=           1
 Solvent: water                                                           
 
 vradii
            1           2           3           4           5           6
    1   1.8500000   1.8500000   1.5200000   1.8500000   1.8500000   1.5200000
            7           8           9          10          11          12
    1   1.8500000   1.8500000   1.8500000   1.2000000   1.2000000   1.2000000
           13          14          15          16          17          18
    1   1.2000000   1.2000000   1.2000000   1.2000000   1.2000000   1.2000000
 -------------------------------------------------------
 OpenMP BLAS3 based DFT computing Module                
 Release: version 1.0, May 2013, Q-Chem Inc. Pittsburgh 
 -------------------------------------------------------
 A unrestricted SCF calculation will be
 performed using Roothaan-Hall, DIIS, GDM
 SCF converges when RMS gradient is below 1.0e-07
 ---------------------------------------
  Cycle       Energy         DIIS error
 ---------------------------------------
    1    -422.5024946484      2.21e-04  Roothaan Step
 ---------------------------------------
  Cycle       Energy         DIIS error
 ---------------------------------------
    1    -422.5272544136      2.21e-04  
    2    -422.5312647651      1.75e-04  Done DIIS. Switching to GDM
 ---------------------------------------
  Cycle       Energy        RMS Gradient
 ---------------------------------------
    1    -422.5312647651      7.04e-03   Normal BFGS step
    2    -422.5313597075      5.42e-03   Normal BFGS step
    3    -422.5330134730      9.36e-04   Normal BFGS step
    4    -422.5330301224      3.99e-04   Normal BFGS step
    5    -422.5330360059      2.17e-04   Normal BFGS step
    6    -422.5330362496      6.13e-05   Normal BFGS step
    7    -422.5330363325      6.10e-05   Normal BFGS step
    8    -422.5330363531      3.56e-05   Normal BFGS step
    9    -422.5330363581      9.94e-06   Normal BFGS step
   10    -422.5330363591      7.62e-06   Normal BFGS step
   11    -422.5330363593      4.67e-06   Normal BFGS step
   12    -422.5330363594      1.70e-06   Normal BFGS step
   13    -422.5330363594      6.38e-07   Normal BFGS step
   14    -422.5330363594      3.26e-07   Normal BFGS step
   15    -422.5330363594      2.61e-07   Normal BFGS step
   16    -422.5330363594      1.68e-07   Normal BFGS step
   17    -422.5330363594      4.31e-08  Convergence criterion met
 ---------------------------------------
 SCF time:   CPU 1898.12s  wall 241.00s 
<S^2> =          0.788100977
(3)  G-ENP(liq) elect-nuc-pol free energy of system     -422.533036359 a.u.
(4)  G-CDS(liq) cavity-dispersion-solvent structure 
     free energy                                                3.6283 kcal/mol
(6)  G-S(liq) free energy of system                     -422.527254340 a.u.
 SCF   energy in the final basis set =     -422.5272543396
 Total energy in the final basis set =     -422.5272543396
 
 --------------------------------------------------------------
 
                    Orbital Energies (a.u.)
 --------------------------------------------------------------
 
 Alpha MOs
 -- Occupied --
-19.3380 -19.3371 -10.3993 -10.3853 -10.3508 -10.3498 -10.3472 -10.3455
-10.3429  -1.1545  -1.1537  -0.9783  -0.8934  -0.8630  -0.7972  -0.7411
 -0.7038  -0.6357  -0.6254  -0.6053  -0.5795  -0.5686  -0.5492  -0.5252
 -0.5206  -0.4880  -0.4771  -0.4520  -0.4422  -0.4302  -0.3979  -0.3899
 -0.3595  -0.2693
 -- Virtual --
  0.0238   0.0351   0.0358   0.0449   0.0542   0.0573   0.0633   0.0660
  0.0798   0.0842   0.1031   0.1085   0.1198   0.1240   0.1370   0.1461
  0.1483   0.1523   0.1572   0.1581   0.1617   0.1660   0.1673   0.1764
  0.1810   0.1844   0.1897   0.1937   0.2023   0.2071   0.2161   0.2185
  0.2256   0.2377   0.2474   0.2538   0.2616   0.2721   0.2763   0.2794
  0.2877   0.2966   0.3030   0.3094   0.3151   0.3245   0.3323   0.3409
  0.3472   0.3475   0.3599   0.3662   0.3725   0.3731   0.3881   0.3945
  0.4060   0.4113   0.4183   0.4378   0.4550   0.4655   0.4677   0.5284
  0.5459   0.5671   0.5723   0.5808   0.5893   0.5931   0.6049   0.6120
  0.6190   0.6284   0.6377   0.6431   0.6501   0.6686   0.6692   0.6789
  0.6968   0.7016   0.7117   0.7161   0.7246   0.7315   0.7352   0.7517
  0.7542   0.7575   0.7679   0.7723   0.7807   0.8053   0.8102   0.8203
  0.8238   0.8384   0.8499   0.8554   0.8801   0.8853   0.8989   0.9056
  0.9453   0.9662   0.9837   1.0009   1.0135   1.0369   1.0540   1.0643
  1.0651   1.0901   1.1075   1.1148   1.1257   1.1293   1.1416   1.1611
  1.1626   1.1918   1.2135   1.2267   1.2442   1.2463   1.2556   1.2760
  1.2842   1.2903   1.3104   1.3254   1.3430   1.3566   1.3602   1.3797
  1.3947   1.4121   1.4153   1.4244   1.4297   1.4455   1.4539   1.4716
  1.4855   1.4948   1.4998   1.5156   1.5251   1.5308   1.5525   1.5587
  1.5771   1.5852   1.6209   1.6379   1.6455   1.6801   1.6876   1.7185
  1.7313   1.7827   1.7849   1.8065   1.8428   1.8482   1.8926   1.9283
  1.9515   2.0275   2.0585   2.0710   2.0844   2.1196   2.1352   2.1518
  2.2112   2.2789   2.3486   2.3690   2.3933   2.4422   2.5589   2.6005
  2.6267   2.6380   2.6798   2.6835   2.7119   2.7283   2.7867   2.8037
  2.8229   2.8290   2.8377   2.8473   2.8709   2.8772   2.8957   2.9053
  2.9186   2.9266   2.9347   2.9475   2.9595   2.9792   2.9926   3.0126
  3.0178   3.0402   3.0768   3.0949   3.1146   3.1274   3.1562   3.1707
  3.1913   3.2312   3.2379   3.2423   3.2627   3.2690   3.2789   3.2926
  3.3079   3.3231   3.3443   3.3484   3.3715   3.3766   3.3951   3.4192
  3.4399   3.4674   3.4817   3.4910   3.5103   3.5187   3.5207   3.5404
  3.5662   3.5797   3.5907   3.6093   3.6207   3.6485   3.6748   3.6894
  3.7227   3.7353   3.7430   3.7613   3.7888   3.7977   3.8131   3.8179
  3.8343   3.8417   3.8549   3.8674   3.8823   3.9062   3.9140   3.9727
  3.9754   3.9799   4.0188   4.0244   4.0524   4.0739   4.0924   4.1190
  4.1395   4.1585   4.1799   4.1988   4.2343   4.2382   4.2677   4.2790
  4.2933   4.3032   4.3229   4.3256   4.3467   4.3675   4.3948   4.4093
  4.4218   4.4277   4.4512   4.4962   4.5226   4.5312   4.5422   4.5702
  4.6010   4.6108   4.6334   4.6704   4.6794   4.7224   4.7331   4.8090
  4.8296   4.9006   4.9520   5.0112   5.0851   5.1435   5.1907   5.2254
  5.2691   5.2801   5.3026   5.3144   5.3176   5.3576   5.4232   5.4329
  5.4813   5.5017   5.5352   5.5703   5.5929   5.6380   5.6681   5.6842
  5.6954   5.7086   5.7669   5.8231   5.8871   5.9113   5.9435   5.9948
  6.0525   6.1147   6.4315   6.5576   6.6146   7.1015   7.1269   7.3048
  7.3133   7.3292   7.3356   7.3554   7.3909   7.6452   7.6497   7.7717
  7.8014  24.2705  24.6289  24.7918  24.8092  24.8987  25.1109  25.4009
 50.5882  50.6020
 
 Beta MOs
 -- Occupied --
-19.3372 -19.3365 -10.3999 -10.3852 -10.3522 -10.3455 -10.3430 -10.3416
-10.3407  -1.1541  -1.1510  -0.9719  -0.8899  -0.8537  -0.7925  -0.7328
 -0.6998  -0.6335  -0.6194  -0.6014  -0.5747  -0.5646  -0.5489  -0.5214
 -0.5176  -0.4822  -0.4728  -0.4441  -0.4298  -0.4221  -0.3920  -0.3855
 -0.3427
 -- Virtual --
 -0.0220   0.0235   0.0353   0.0357   0.0442   0.0541   0.0573   0.0637
  0.0766   0.0817   0.0836   0.1037   0.1078   0.1191   0.1278   0.1380
  0.1467   0.1517   0.1528   0.1565   0.1596   0.1615   0.1668   0.1692
  0.1766   0.1810   0.1851   0.1890   0.1943   0.2020   0.2113   0.2170
  0.2199   0.2242   0.2379   0.2471   0.2534   0.2614   0.2719   0.2755
  0.2797   0.2871   0.2962   0.3060   0.3112   0.3183   0.3265   0.3337
  0.3437   0.3484   0.3500   0.3622   0.3670   0.3746   0.3757   0.3890
  0.3961   0.4076   0.4127   0.4198   0.4387   0.4569   0.4678   0.4687
  0.5296   0.5470   0.5706   0.5758   0.5844   0.5934   0.5974   0.6076
  0.6175   0.6210   0.6305   0.6413   0.6491   0.6538   0.6739   0.6750
  0.6815   0.6992   0.7037   0.7153   0.7196   0.7290   0.7357   0.7375
  0.7529   0.7566   0.7613   0.7719   0.7749   0.7859   0.8061   0.8151
  0.8251   0.8287   0.8386   0.8554   0.8602   0.8845   0.8879   0.9009
  0.9100   0.9461   0.9683   0.9852   1.0030   1.0154   1.0382   1.0550
  1.0652   1.0665   1.0913   1.1082   1.1161   1.1265   1.1306   1.1427
  1.1634   1.1668   1.1940   1.2162   1.2273   1.2455   1.2475   1.2574
  1.2771   1.2851   1.2919   1.3132   1.3276   1.3461   1.3612   1.3628
  1.3821   1.3991   1.4154   1.4196   1.4260   1.4340   1.4480   1.4587
  1.4750   1.4889   1.4973   1.5039   1.5178   1.5284   1.5324   1.5561
  1.5610   1.5825   1.5870   1.6229   1.6404   1.6507   1.6827   1.6909
  1.7233   1.7354   1.7896   1.7910   1.8090   1.8503   1.8530   1.8998
  1.9313   1.9546   2.0328   2.0629   2.0742   2.0886   2.1224   2.1380
  2.1549   2.2134   2.2809   2.3497   2.3703   2.3946   2.4436   2.5687
  2.6055   2.6329   2.6470   2.6879   2.6922   2.7211   2.7372   2.8031
  2.8143   2.8302   2.8404   2.8521   2.8582   2.8805   2.8832   2.9069
  2.9200   2.9302   2.9426   2.9510   2.9617   2.9715   2.9948   3.0039
  3.0229   3.0311   3.0608   3.0908   3.1025   3.1248   3.1390   3.1608
  3.1815   3.1968   3.2381   3.2507   3.2521   3.2708   3.2812   3.2867
  3.3025   3.3217   3.3330   3.3502   3.3577   3.3781   3.3816   3.4057
  3.4288   3.4492   3.4811   3.4921   3.5015   3.5174   3.5268   3.5329
  3.5491   3.5789   3.5885   3.6032   3.6200   3.6461   3.6634   3.6860
  3.6961   3.7290   3.7419   3.7509   3.7670   3.7938   3.8003   3.8176
  3.8245   3.8446   3.8478   3.8640   3.8740   3.8946   3.9125   3.9244
  3.9820   3.9846   3.9857   4.0299   4.0317   4.0619   4.0830   4.1017
  4.1259   4.1470   4.1658   4.1844   4.2015   4.2404   4.2451   4.2792
  4.2903   4.3017   4.3057   4.3297   4.3323   4.3532   4.3780   4.4035
  4.4163   4.4295   4.4397   4.4617   4.5084   4.5306   4.5435   4.5550
  4.5796   4.6102   4.6168   4.6481   4.6825   4.6913   4.7340   4.7396
  4.8179   4.8401   4.9149   4.9656   5.0249   5.1000   5.1550   5.2019
  5.2382   5.2742   5.2814   5.3055   5.3169   5.3197   5.3609   5.4304
  5.4407   5.4832   5.5070   5.5400   5.5789   5.5934   5.6498   5.6747
  5.6895   5.6981   5.7107   5.7785   5.8360   5.8993   5.9225   5.9507
  5.9999   6.0532   6.1277   6.4422   6.5618   6.6147   7.1016   7.1293
  7.3052   7.3155   7.3294   7.3395   7.3554   7.3951   7.6457   7.6525
  7.7713   7.8064  24.2725  24.6308  24.7923  24.8094  24.9040  25.1124
 25.4034  50.5882  50.6032
 --------------------------------------------------------------
 
          Ground-State Mulliken Net Atomic Charges

     Atom                 Charge (a.u.)    Spin (a.u.)
  --------------------------------------------------------
      1 C                     0.605664      -0.133286
      2 C                    -0.477644       0.005847
      3 O                    -0.406667      -0.001548
      4 C                    -0.477901       0.316957
      5 C                    -0.789826       0.027728
      6 O                    -0.406623       0.016008
      7 C                     0.013437       0.363348
      8 C                    -0.418504      -0.122371
      9 C                    -0.113473       0.506934
     10 H                     0.191027      -0.002189
     11 H                     0.251033      -0.000587
     12 H                     0.327718       0.001142
     13 H                     0.284624      -0.008473
     14 H                     0.184703       0.043139
     15 H                     0.330191       0.003573
     16 H                     0.307831      -0.010223
     17 H                     0.298516       0.005974
     18 H                     0.295895      -0.011975
  --------------------------------------------------------
  Sum of atomic charges =    -0.000000
  Sum of spin   charges =     1.000000

 -----------------------------------------------------------------
                    Cartesian Multipole Moments
 -----------------------------------------------------------------
    Charge (ESU x 10^10)
                -0.0000
    Dipole Moment (Debye)
         X      -0.9054      Y       2.8359      Z      -0.9100
       Tot       3.1129
    Quadrupole Moments (Debye-Ang)
        XX     -63.1485     XY       0.6147     YY     -44.9915
        XZ       4.7425     YZ       3.9472     ZZ     -56.5023
    Octopole Moments (Debye-Ang^2)
       XXX     -51.1906    XXY      18.6955    XYY     -16.9886
       YYY      20.3796    XXZ     -27.6357    XYZ      -4.5140
       YYZ     -11.0358    XZZ      17.8813    YZZ       8.4545
       ZZZ     -55.9971
    Hexadecapole Moments (Debye-Ang^3)
      XXXX   -1325.8846   XXXY      49.4064   XXYY    -226.0238
      XYYY      -3.1731   YYYY    -335.5969   XXXZ      52.5251
      XXYZ      -9.7466   XYYZ      -4.4221   YYYZ     -19.1100
      XXZZ    -218.1551   XYZZ     -11.7305   YYZZ     -89.0326
      XZZZ      77.0245   YZZZ     -54.3642   ZZZZ    -243.2557
 -----------------------------------------------------------------
 Calculating analytic gradient of the SCF energy
 Gradient of CDS energy
            1           2           3           4           5           6
    1   0.0000632   0.0008338  -0.0002353   0.0001145  -0.0002374   0.0000936
    2  -0.0000365   0.0006913  -0.0000650   0.0001691   0.0001292  -0.0001555
    3   0.0000221  -0.0002337  -0.0001700   0.0000372   0.0001675  -0.0002023
            7           8           9          10          11          12
    1  -0.0003898  -0.0001588   0.0003211  -0.0000536  -0.0002051   0.0001596
    2  -0.0000774  -0.0004282  -0.0001464  -0.0002144   0.0000692  -0.0002195
    3   0.0000158  -0.0001002  -0.0001433  -0.0001645   0.0000988   0.0004542
           13          14          15          16          17          18
    1   0.0001134  -0.0001044  -0.0002097  -0.0002126  -0.0000493   0.0001567
    2   0.0001300   0.0001202   0.0003429  -0.0000184  -0.0001972  -0.0000933
    3   0.0000280  -0.0001297   0.0003210   0.0000462  -0.0000489   0.0000017
 Gradient of SCF Energy
            1           2           3           4           5           6
    1   0.0033635  -0.0006384   0.0074478  -0.0057767   0.0005241  -0.0012971
    2  -0.0031851  -0.0095360  -0.0029140  -0.0048986  -0.0124217  -0.0165632
    3  -0.0032946   0.0016408  -0.0098976  -0.0029420   0.0072051   0.0022949
            7           8           9          10          11          12
    1   0.0048034   0.0003195  -0.0016007  -0.0006507  -0.0002562  -0.0043708
    2   0.0043369   0.0032155   0.0062048   0.0023701   0.0061849   0.0018774
    3  -0.0021593   0.0010058   0.0029306  -0.0041759   0.0028398   0.0103032
           13          14          15          16          17          18
    1   0.0020870  -0.0026640   0.0008870  -0.0016962  -0.0007750   0.0002936
    2   0.0098713   0.0050138   0.0154867  -0.0003946  -0.0033985  -0.0012496
    3   0.0025049  -0.0039532  -0.0011617  -0.0009824  -0.0011384  -0.0010199
 Max gradient component =       1.656E-02
 RMS gradient           =       5.386E-03
 Computing fast CPCM-SWIG gradient
 Updating gradient with PCM contributions...
 -- total gradient after adding PCM contribution --
---------------------------------------------------
  Atom         X              Y              Z     
---------------------------------------------------
   1      -0.000557       0.000468       0.000293
   2       0.000512      -0.001179      -0.000551
   3       0.000018       0.000526      -0.000154
   4       0.000393      -0.000548      -0.000612
   5      -0.000525       0.000195       0.000604
   6       0.000240      -0.000468      -0.000424
   7       0.000740      -0.000629      -0.000484
   8      -0.000273       0.000296       0.000048
   9      -0.000204       0.000052       0.000305
  10      -0.000415       0.000840      -0.000497
  11       0.000058      -0.000041       0.000251
  12      -0.000071      -0.000411       0.000817
  13       0.000083      -0.000001       0.000070
  14       0.000182      -0.000078      -0.000092
  15      -0.000086       0.000656       0.000189
  16       0.000061       0.000015       0.000076
  17       0.000006       0.000131       0.000003
  18      -0.000163       0.000175       0.000158
---------------------------------------------------
 Number of fixed atoms: 0
 Gradient time:  CPU 294.83 s  wall 42.85 s
 Geometry Optimization Parameters
   NAtoms,    NIC,     NZ,  NCons,   NDum,   NFix, NCnnct, MaxDiis
       18     123       0       0       0       0       0       0

 Cartesian Hessian Update
 Hessian updated using BFGS update


** GEOMETRY OPTIMIZATION IN DELOCALIZED INTERNAL COORDINATES **
   Searching for a Minimum

   Optimization Cycle:   2

                       Coordinates (Angstroms)
     ATOM                X               Y               Z
      1  C         0.8659322660    0.1081626457    0.0695089193
      2  C         2.3177689371    0.5078102168    0.0272460560
      3  O         3.1612420037   -0.3960206398    0.7431330421
      4  C        -0.0869065583    1.0018308677    0.4262940323
      5  C        -1.5442220682    0.6718830384    0.4530006758
      6  O        -2.1127311143    0.9341755412    1.7591998852
      7  C        -1.8295934328   -0.7506645089    0.1101354798
      8  C        -0.8482321641   -1.6198797031   -0.2404726775
      9  C         0.5032754889   -1.2205701695   -0.2826544327
     10  H         2.6776883931    0.5013363881   -1.0017886159
     11  H         2.4309976922    1.5219004430    0.4155709419
     12  H         2.8844838682   -0.3961404408    1.6667366342
     13  H         0.1890922417    2.0118331656    0.7089921672
     14  H        -2.0697948728    1.3201409168   -0.2619001574
     15  H        -2.1273920096    1.8903173162    1.8873859292
     16  H        -2.8647978097   -1.0638305555    0.1470302631
     17  H        -1.1032721400   -2.6407712523   -0.4933988179
     18  H         1.2699020787   -1.9272385699   -0.5661770248
   Point Group: c1    Number of degrees of freedom:    48


   Energy is   -422.527254340

 Hessian updated using BFGS update

 47 Hessian modes will be used to form the next step
  Hessian Eigenvalues:
     0.007053    0.009295    0.010785    0.011996    0.015615    0.016871
     0.017294    0.019668    0.021537    0.022551    0.024137    0.054321
     0.061269    0.068810    0.073597    0.082244    0.118143    0.141993
     0.159570    0.159957    0.159996    0.159999    0.163859    0.168414
     0.208842    0.219888    0.221140    0.234820    0.250132    0.311810
     0.313042    0.321668    0.332218    0.338177    0.341161    0.348791
     0.351552    0.351991    0.355844    0.384970    0.406069    0.414447
     0.422496    0.494317    0.515226    0.531006    0.546935

 Minimum search - taking simple RFO step
 Searching for Lamda that Minimizes Along All modes
 Value Taken    Lamda =  -0.00008458
 Step Taken.  Stepsize is  0.091974

                             Maximum     Tolerance    Cnvgd?
         Gradient           0.000874      0.000300      NO
         Displacement       0.044869      0.001200      NO
         Energy change     -0.000581      0.000001      NO


 New Cartesian Coordinates Obtained by Inverse Iteration

 Displacement from previous Coordinates is:  0.172380
 ----------------------------------------------------------------
             Standard Nuclear Orientation (Angstroms)
    I     Atom           X                Y                Z
 ----------------------------------------------------------------
    1      C       0.8660564898     0.1054102685     0.0648617447
    2      C       2.3181899302     0.5027931737     0.0241789343
    3      O       3.1538274707    -0.3835915957     0.7700627718
    4      C      -0.0849232889     0.9993366534     0.4271331045
    5      C      -1.5420386858     0.6705101572     0.4562965954
    6      O      -2.1058665322     0.9250038261     1.7664668078
    7      C      -1.8311332906    -0.7490895786     0.1075885291
    8      C      -0.8514878751    -1.6183548084    -0.2490226976
    9      C       0.5007791958    -1.2213074447    -0.2926568045
   10      H       2.6891693988     0.4607131186    -0.9991810620
   11      H       2.4316716796     1.5271843606     0.3828569097
   12      H       2.8749813624    -0.3492224437     1.6910803690
   13      H       0.1924700486     2.0075501325     0.7134003425
   14      H      -2.0705198449     1.3237806916    -0.2514723598
   15      H      -2.1175066887     1.8790872369     1.9015787075
   16      H      -2.8666980100    -1.0603533493     0.1439754128
   17      H      -1.1087515843    -2.6374248707    -0.5064111827
   18      H       1.2652210242    -1.9277508283    -0.5828938224
 ----------------------------------------------------------------
 Nuclear Repulsion Energy =         431.80272414 hartrees
 There are       34 alpha and       33 beta electrons
 Discretize the solute cavity surface with Lebedev spheres
	Using 110 Lebedev grid points for each H atom
	Using 194 Lebedev grid points for other atoms
	Atomic van der Waals radii will be scaled by 1.20
 Remove points where switching function is < 1.0e-08
 Keep 1339 surface tesserae and discard 1397 interior tesserae
 Molecular Surface Area = 155.277 Angst**2
 Applying Cartesian multipole field
    Component          Value
    ---------          -----
     (2,0,0)        1.00000E-11
     (0,2,0)        2.00000E-11
     (0,0,2)       -3.00000E-11
 Nucleus-field energy     =     0.0000000089 hartrees
 Requested basis set is 6-311++G(2df,2p)
 There are 126 shells and 396 basis functions
 A cutoff of  1.0D-12 yielded   7185 shell pairs
 There are     71438 function pairs (     88473 Cartesian)
 Smallest overlap matrix eigenvalue = 1.02E-06
 Guess MOs from SCF MO coefficient file

 -----------------------------------------------------------------------
  General SCF calculation program by
  Eric Jon Sundstrom, Paul Horn, Yuezhi Mao, Dmitri Zuev, Alec White,
  David Stuck, Shaama M.S., Shane Yost, Joonho Lee, David Small,
  Daniel Levine, Susi Lehtola, Hugh Burton, Evgeny Epifanovsky,
  Bang C. Huynh
 -----------------------------------------------------------------------
 Exchange:     0.1500 Hartree-Fock + 1.0000 wB97M-V + LR-HF
 Correlation:  1.0000 wB97M-V
 Using SG-2 standard quadrature grid
 Nonlocal Correlation:  VV10 with C = 0.0100 and b = 6.00 and scale = 1.00000
 Grid used for NLC:  SG-1 standard quadrature
 
 Citation of the SMD model:
 Marenich, A.V.; Cramer, C.J.; Truhlar, D.G.
 J. Phys. Chem. B 2009, 113, 6378-6396.
 iSolventCode=           1
 Solvent: water                                                           
 
 vradii
            1           2           3           4           5           6
    1   1.8500000   1.8500000   1.5200000   1.8500000   1.8500000   1.5200000
            7           8           9          10          11          12
    1   1.8500000   1.8500000   1.8500000   1.2000000   1.2000000   1.2000000
           13          14          15          16          17          18
    1   1.2000000   1.2000000   1.2000000   1.2000000   1.2000000   1.2000000
 -------------------------------------------------------
 OpenMP BLAS3 based DFT computing Module                
 Release: version 1.0, May 2013, Q-Chem Inc. Pittsburgh 
 -------------------------------------------------------
 A unrestricted SCF calculation will be
 performed using Roothaan-Hall, DIIS, GDM
 SCF converges when RMS gradient is below 1.0e-07
 ---------------------------------------
  Cycle       Energy         DIIS error
 ---------------------------------------
    1    -422.5028731981      2.10e-04  Roothaan Step
 ---------------------------------------
  Cycle       Energy         DIIS error
 ---------------------------------------
    1    -422.5273131905      2.22e-04  
    2    -422.5313290074      1.75e-04  Done DIIS. Switching to GDM
 ---------------------------------------
  Cycle       Energy        RMS Gradient
 ---------------------------------------
    1    -422.5313290074      6.32e-03   Normal BFGS step
    2    -422.5314479214      5.86e-03   Normal BFGS step
    3    -422.5330759980      9.60e-04   Normal BFGS step
    4    -422.5330921846      4.43e-04   Normal BFGS step
    5    -422.5330985204      2.51e-04   Normal BFGS step
    6    -422.5330987828      8.38e-05   Normal BFGS step
    7    -422.5330988604      8.24e-05   Normal BFGS step
    8    -422.5330988789      5.14e-05   Normal BFGS step
    9    -422.5330988842      1.40e-05   Normal BFGS step
   10    -422.5330988854      1.13e-05   Normal BFGS step
   11    -422.5330988858      7.25e-06   Normal BFGS step
   12    -422.5330988860      2.15e-06   Normal BFGS step
   13    -422.5330988860      7.29e-07   Normal BFGS step
   14    -422.5330988861      2.96e-07   Normal BFGS step
   15    -422.5330988861      2.12e-07   Normal BFGS step
   16    -422.5330988860      5.89e-08  Convergence criterion met
 ---------------------------------------
 SCF time:   CPU 1854.45s  wall 237.00s 
<S^2> =          0.788142485
(3)  G-ENP(liq) elect-nuc-pol free energy of system     -422.533098886 a.u.
(4)  G-CDS(liq) cavity-dispersion-solvent structure 
     free energy                                                3.6259 kcal/mol
(6)  G-S(liq) free energy of system                     -422.527320674 a.u.
 SCF   energy in the final basis set =     -422.5273206737
 Total energy in the final basis set =     -422.5273206737
 
 --------------------------------------------------------------
 
                    Orbital Energies (a.u.)
 --------------------------------------------------------------
 
 Alpha MOs
 -- Occupied --
-19.3378 -19.3370 -10.3992 -10.3850 -10.3509 -10.3498 -10.3472 -10.3456
-10.3429  -1.1547  -1.1540  -0.9784  -0.8934  -0.8631  -0.7973  -0.7413
 -0.7039  -0.6359  -0.6254  -0.6056  -0.5796  -0.5686  -0.5490  -0.5253
 -0.5207  -0.4880  -0.4771  -0.4519  -0.4422  -0.4304  -0.3981  -0.3898
 -0.3597  -0.2694
 -- Virtual --
  0.0238   0.0351   0.0358   0.0451   0.0542   0.0574   0.0632   0.0659
  0.0797   0.0844   0.1029   0.1088   0.1199   0.1241   0.1369   0.1460
  0.1483   0.1522   0.1573   0.1581   0.1616   0.1658   0.1671   0.1766
  0.1811   0.1843   0.1901   0.1934   0.2022   0.2073   0.2162   0.2187
  0.2259   0.2371   0.2478   0.2538   0.2623   0.2720   0.2760   0.2796
  0.2878   0.2971   0.3028   0.3093   0.3151   0.3260   0.3331   0.3406
  0.3470   0.3476   0.3594   0.3657   0.3721   0.3726   0.3880   0.3946
  0.4058   0.4108   0.4189   0.4379   0.4546   0.4652   0.4680   0.5281
  0.5463   0.5681   0.5729   0.5810   0.5888   0.5930   0.6055   0.6118
  0.6189   0.6287   0.6380   0.6422   0.6489   0.6680   0.6698   0.6801
  0.6970   0.7015   0.7116   0.7156   0.7247   0.7314   0.7356   0.7517
  0.7540   0.7566   0.7684   0.7719   0.7801   0.8064   0.8104   0.8206
  0.8242   0.8385   0.8504   0.8545   0.8779   0.8866   0.8992   0.9057
  0.9463   0.9669   0.9852   1.0022   1.0127   1.0361   1.0519   1.0629
  1.0650   1.0899   1.1075   1.1166   1.1266   1.1312   1.1416   1.1622
  1.1625   1.1909   1.2127   1.2273   1.2440   1.2462   1.2560   1.2753
  1.2839   1.2921   1.3099   1.3263   1.3408   1.3553   1.3603   1.3792
  1.3947   1.4110   1.4154   1.4278   1.4286   1.4466   1.4530   1.4698
  1.4855   1.4947   1.4994   1.5177   1.5257   1.5314   1.5528   1.5596
  1.5773   1.5861   1.6213   1.6370   1.6470   1.6815   1.6856   1.7186
  1.7331   1.7827   1.7863   1.8080   1.8450   1.8479   1.8919   1.9264
  1.9516   2.0283   2.0586   2.0722   2.0872   2.1202   2.1356   2.1539
  2.2099   2.2804   2.3482   2.3672   2.3904   2.4416   2.5602   2.5987
  2.6266   2.6410   2.6798   2.6837   2.7124   2.7298   2.7880   2.8038
  2.8220   2.8284   2.8380   2.8490   2.8709   2.8773   2.8953   2.9056
  2.9196   2.9268   2.9347   2.9479   2.9600   2.9789   2.9928   3.0127
  3.0201   3.0407   3.0775   3.0968   3.1158   3.1299   3.1563   3.1699
  3.1932   3.2297   3.2376   3.2425   3.2629   3.2679   3.2765   3.2928
  3.3083   3.3235   3.3439   3.3481   3.3719   3.3763   3.3945   3.4198
  3.4369   3.4671   3.4828   3.4902   3.5104   3.5200   3.5223   3.5415
  3.5657   3.5814   3.5908   3.6074   3.6193   3.6499   3.6723   3.6902
  3.7245   3.7367   3.7424   3.7598   3.7870   3.7978   3.8130   3.8186
  3.8341   3.8429   3.8547   3.8682   3.8817   3.9075   3.9133   3.9733
  3.9745   3.9794   4.0194   4.0248   4.0535   4.0755   4.0929   4.1234
  4.1404   4.1610   4.1806   4.2007   4.2344   4.2395   4.2680   4.2787
  4.2949   4.3063   4.3231   4.3256   4.3469   4.3683   4.3942   4.4114
  4.4206   4.4289   4.4528   4.4954   4.5222   4.5297   4.5433   4.5700
  4.6021   4.6121   4.6308   4.6703   4.6799   4.7243   4.7324   4.8091
  4.8296   4.9032   4.9519   5.0125   5.0849   5.1437   5.1887   5.2251
  5.2710   5.2805   5.3031   5.3138   5.3186   5.3581   5.4236   5.4321
  5.4818   5.5022   5.5366   5.5708   5.5942   5.6386   5.6699   5.6858
  5.6973   5.7124   5.7680   5.8236   5.8886   5.9108   5.9444   5.9959
  6.0507   6.1146   6.4315   6.5571   6.6154   7.1024   7.1273   7.3107
  7.3185   7.3296   7.3368   7.3580   7.3907   7.6444   7.6498   7.7730
  7.8017  24.2715  24.6296  24.7938  24.8118  24.8990  25.1101  25.4008
 50.5901  50.6028
 
 Beta MOs
 -- Occupied --
-19.3371 -19.3363 -10.3998 -10.3849 -10.3522 -10.3456 -10.3431 -10.3416
-10.3408  -1.1545  -1.1511  -0.9720  -0.8899  -0.8539  -0.7925  -0.7330
 -0.6999  -0.6337  -0.6194  -0.6017  -0.5748  -0.5646  -0.5486  -0.5216
 -0.5177  -0.4823  -0.4728  -0.4439  -0.4300  -0.4221  -0.3923  -0.3854
 -0.3429
 -- Virtual --
 -0.0221   0.0236   0.0353   0.0356   0.0443   0.0541   0.0574   0.0636
  0.0767   0.0815   0.0838   0.1034   0.1081   0.1191   0.1282   0.1379
  0.1463   0.1516   0.1530   0.1566   0.1595   0.1615   0.1669   0.1690
  0.1768   0.1811   0.1850   0.1894   0.1941   0.2021   0.2112   0.2175
  0.2198   0.2245   0.2375   0.2475   0.2533   0.2620   0.2719   0.2751
  0.2800   0.2872   0.2968   0.3059   0.3112   0.3185   0.3279   0.3342
  0.3434   0.3483   0.3499   0.3619   0.3663   0.3743   0.3754   0.3887
  0.3963   0.4074   0.4121   0.4205   0.4388   0.4566   0.4672   0.4693
  0.5293   0.5473   0.5717   0.5764   0.5846   0.5934   0.5970   0.6083
  0.6173   0.6210   0.6306   0.6415   0.6478   0.6530   0.6737   0.6756
  0.6821   0.6994   0.7036   0.7149   0.7196   0.7290   0.7357   0.7378
  0.7526   0.7566   0.7606   0.7724   0.7745   0.7854   0.8075   0.8152
  0.8253   0.8290   0.8387   0.8558   0.8594   0.8824   0.8891   0.9013
  0.9101   0.9471   0.9689   0.9868   1.0041   1.0146   1.0374   1.0529
  1.0636   1.0665   1.0910   1.1082   1.1181   1.1272   1.1324   1.1428
  1.1643   1.1670   1.1930   1.2156   1.2281   1.2454   1.2473   1.2578
  1.2765   1.2847   1.2936   1.3127   1.3285   1.3438   1.3600   1.3629
  1.3817   1.3991   1.4143   1.4196   1.4294   1.4331   1.4492   1.4574
  1.4735   1.4886   1.4974   1.5037   1.5196   1.5290   1.5331   1.5567
  1.5615   1.5825   1.5879   1.6235   1.6398   1.6520   1.6836   1.6895
  1.7234   1.7373   1.7901   1.7922   1.8104   1.8510   1.8540   1.8990
  1.9295   1.9548   2.0338   2.0629   2.0755   2.0913   2.1227   2.1385
  2.1571   2.2121   2.2824   2.3493   2.3685   2.3917   2.4430   2.5702
  2.6037   2.6329   2.6499   2.6876   2.6925   2.7217   2.7386   2.8051
  2.8143   2.8297   2.8397   2.8525   2.8593   2.8803   2.8833   2.9069
  2.9200   2.9316   2.9427   2.9509   2.9624   2.9716   2.9943   3.0043
  3.0226   3.0333   3.0612   3.0921   3.1050   3.1258   3.1405   3.1610
  3.1811   3.1985   3.2368   3.2506   3.2520   3.2707   3.2800   3.2845
  3.3026   3.3220   3.3331   3.3497   3.3578   3.3780   3.3818   3.4050
  3.4297   3.4461   3.4805   3.4935   3.5006   3.5179   3.5296   3.5330
  3.5500   3.5778   3.5901   3.6027   3.6190   3.6458   3.6633   3.6841
  3.6970   3.7306   3.7434   3.7504   3.7655   3.7925   3.8000   3.8176
  3.8253   3.8441   3.8496   3.8627   3.8749   3.8939   3.9144   3.9235
  3.9817   3.9842   3.9857   4.0307   4.0321   4.0630   4.0847   4.1022
  4.1304   4.1477   4.1681   4.1850   4.2036   4.2412   4.2459   4.2789
  4.2905   4.3037   4.3087   4.3289   4.3331   4.3533   4.3790   4.4026
  4.4182   4.4289   4.4409   4.4630   4.5074   4.5301   4.5421   4.5563
  4.5797   4.6111   4.6175   4.6461   4.6821   4.6922   4.7358   4.7389
  4.8173   4.8406   4.9174   4.9655   5.0261   5.0998   5.1552   5.2000
  5.2377   5.2765   5.2815   5.3062   5.3163   5.3207   5.3613   5.4307
  5.4400   5.4837   5.5076   5.5414   5.5794   5.5947   5.6504   5.6765
  5.6911   5.7001   5.7145   5.7795   5.8369   5.9004   5.9224   5.9513
  6.0010   6.0513   6.1276   6.4422   6.5613   6.6155   7.1025   7.1297
  7.3111   7.3206   7.3299   7.3407   7.3579   7.3950   7.6447   7.6528
  7.7726   7.8067  24.2735  24.6315  24.7944  24.8119  24.9043  25.1116
 25.4033  50.5900  50.6041
 --------------------------------------------------------------
 
          Ground-State Mulliken Net Atomic Charges

     Atom                 Charge (a.u.)    Spin (a.u.)
  --------------------------------------------------------
      1 C                     0.599670      -0.133460
      2 C                    -0.482419       0.005855
      3 O                    -0.404063      -0.001625
      4 C                    -0.487076       0.317033
      5 C                    -0.791342       0.026928
      6 O                    -0.406268       0.016271
      7 C                     0.011439       0.364571
      8 C                    -0.407321      -0.123851
      9 C                    -0.105995       0.507898
     10 H                     0.194088      -0.002281
     11 H                     0.249416      -0.000553
     12 H                     0.327202       0.001203
     13 H                     0.285513      -0.008518
     14 H                     0.185144       0.043003
     15 H                     0.329877       0.003603
     16 H                     0.308098      -0.010189
     17 H                     0.298752       0.005942
     18 H                     0.295285      -0.011830
  --------------------------------------------------------
  Sum of atomic charges =     0.000000
  Sum of spin   charges =     1.000000

 -----------------------------------------------------------------
                    Cartesian Multipole Moments
 -----------------------------------------------------------------
    Charge (ESU x 10^10)
                 0.0000
    Dipole Moment (Debye)
         X      -0.9065      Y       2.8868      Z      -0.9470
       Tot       3.1705
    Quadrupole Moments (Debye-Ang)
        XX     -63.0743     XY       0.7323     YY     -45.0676
        XZ       4.5317     YZ       4.2334     ZZ     -56.4520
    Octopole Moments (Debye-Ang^2)
       XXX     -50.8548    XXY      18.9204    XYY     -16.9541
       YYY      20.4208    XXZ     -28.3548    XYZ      -4.0326
       YYZ     -11.2759    XZZ      17.7900    YZZ       8.8483
       ZZZ     -55.7389
    Hexadecapole Moments (Debye-Ang^3)
      XXXX   -1320.9444   XXXY      48.7859   XXYY    -225.8952
      XYYY      -3.7303   YYYY    -334.2709   XXXZ      48.8976
      XXYZ      -8.1664   XYYZ      -5.1507   YYYZ     -19.4160
      XXZZ    -218.5737   XYZZ     -11.7243   YYZZ     -89.1625
      XZZZ      76.3620   YZZZ     -53.8855   ZZZZ    -245.3007
 -----------------------------------------------------------------
 Calculating analytic gradient of the SCF energy
 Gradient of CDS energy
            1           2           3           4           5           6
    1   0.0000634   0.0008318  -0.0002272   0.0001143  -0.0002355   0.0000925
    2  -0.0000373   0.0007084  -0.0000689   0.0001702   0.0001279  -0.0001544
    3   0.0000313  -0.0002454  -0.0001801   0.0000338   0.0001678  -0.0002043
            7           8           9          10          11          12
    1  -0.0003903  -0.0001596   0.0003292  -0.0000494  -0.0002096   0.0001447
    2  -0.0000760  -0.0004278  -0.0001459  -0.0002358   0.0000712  -0.0002167
    3   0.0000168  -0.0001016  -0.0001347  -0.0001560   0.0000951   0.0004603
           13          14          15          16          17          18
    1   0.0001132  -0.0001054  -0.0002080  -0.0002124  -0.0000496   0.0001579
    2   0.0001297   0.0001212   0.0003413  -0.0000183  -0.0001966  -0.0000922
    3   0.0000273  -0.0001279   0.0003245   0.0000463  -0.0000497  -0.0000034
 Gradient of SCF Energy
            1           2           3           4           5           6
    1   0.0034953  -0.0009728   0.0071805  -0.0058813   0.0009197  -0.0014053
    2  -0.0039946  -0.0084483  -0.0034716  -0.0043846  -0.0127784  -0.0155852
    3  -0.0037476   0.0026708  -0.0095401  -0.0025215   0.0067531   0.0022298
            7           8           9          10          11          12
    1   0.0042877   0.0002959  -0.0013352  -0.0003318  -0.0002409  -0.0042220
    2   0.0047818   0.0030942   0.0062692   0.0015928   0.0061308   0.0025792
    3  -0.0017722   0.0009846   0.0028135  -0.0034927   0.0024873   0.0088273
           13          14          15          16          17          18
    1   0.0020143  -0.0027465   0.0009501  -0.0015974  -0.0007578   0.0003475
    2   0.0097323   0.0049954   0.0143747  -0.0003358  -0.0032790  -0.0012728
    3   0.0025596  -0.0037328  -0.0012162  -0.0010358  -0.0011305  -0.0011364
 Max gradient component =       1.559E-02
 RMS gradient           =       5.166E-03
 Computing fast CPCM-SWIG gradient
 Updating gradient with PCM contributions...
 -- total gradient after adding PCM contribution --
---------------------------------------------------
  Atom         X              Y              Z     
---------------------------------------------------
   1      -0.000375      -0.000121       0.000138
   2       0.000210      -0.000248       0.000304
   3      -0.000189       0.000492      -0.000030
   4       0.000198      -0.000013      -0.000394
   5      -0.000089      -0.000052       0.000164
   6       0.000165       0.000532      -0.000378
   7       0.000151      -0.000182      -0.000084
   8      -0.000190       0.000197       0.000021
   9       0.000037      -0.000026       0.000217
  10      -0.000103       0.000171       0.000233
  11       0.000041      -0.000207       0.000033
  12       0.000099      -0.000157      -0.000539
  13      -0.000026      -0.000202       0.000065
  14       0.000126      -0.000140       0.000088
  15      -0.000059      -0.000467       0.000014
  16       0.000175       0.000061       0.000029
  17       0.000031       0.000225       0.000031
  18      -0.000201       0.000136       0.000089
---------------------------------------------------
 Number of fixed atoms: 0
 Gradient time:  CPU 298.76 s  wall 43.93 s
 Geometry Optimization Parameters
   NAtoms,    NIC,     NZ,  NCons,   NDum,   NFix, NCnnct, MaxDiis
       18     123       0       0       0       0       0       0

 Cartesian Hessian Update
 Hessian updated using BFGS update


** GEOMETRY OPTIMIZATION IN DELOCALIZED INTERNAL COORDINATES **
   Searching for a Minimum

   Optimization Cycle:   3

                       Coordinates (Angstroms)
     ATOM                X               Y               Z
      1  C         0.8660564898    0.1054102685    0.0648617447
      2  C         2.3181899302    0.5027931737    0.0241789343
      3  O         3.1538274707   -0.3835915957    0.7700627718
      4  C        -0.0849232889    0.9993366534    0.4271331045
      5  C        -1.5420386858    0.6705101572    0.4562965954
      6  O        -2.1058665322    0.9250038261    1.7664668078
      7  C        -1.8311332906   -0.7490895786    0.1075885291
      8  C        -0.8514878751   -1.6183548084   -0.2490226976
      9  C         0.5007791958   -1.2213074447   -0.2926568045
     10  H         2.6891693988    0.4607131186   -0.9991810620
     11  H         2.4316716796    1.5271843606    0.3828569097
     12  H         2.8749813624   -0.3492224437    1.6910803690
     13  H         0.1924700486    2.0075501325    0.7134003425
     14  H        -2.0705198449    1.3237806916   -0.2514723598
     15  H        -2.1175066887    1.8790872369    1.9015787075
     16  H        -2.8666980100   -1.0603533493    0.1439754128
     17  H        -1.1087515843   -2.6374248707   -0.5064111827
     18  H         1.2652210242   -1.9277508283   -0.5828938224
   Point Group: c1    Number of degrees of freedom:    48


   Energy is   -422.527320674

 Hessian updated using BFGS update

 48 Hessian modes will be used to form the next step
  Hessian Eigenvalues:
     0.001912    0.009293    0.010747    0.011887    0.015578    0.016954
     0.017298    0.019660    0.021572    0.022417    0.024136    0.054278
     0.066617    0.069238    0.077220    0.082616    0.121073    0.145254
     0.159956    0.159968    0.159997    0.159999    0.160582    0.163833
     0.173831    0.209258    0.219763    0.226774    0.234967    0.253686
     0.312264    0.315493    0.323305    0.332421    0.339590    0.346559
     0.349928    0.351552    0.352915    0.355906    0.384599    0.404886
     0.420535    0.427520    0.494257    0.530847    0.535733    0.611731

 Minimum search - taking simple RFO step
 Searching for Lamda that Minimizes Along All modes
 Value Taken    Lamda =  -0.00017051
 Step Taken.  Stepsize is  0.279649

                             Maximum     Tolerance    Cnvgd?
         Gradient           0.000636      0.000300      NO
         Displacement       0.140576      0.001200      NO
         Energy change     -0.000066      0.000001      NO


 New Cartesian Coordinates Obtained by Inverse Iteration

 Displacement from previous Coordinates is:  0.547034
 ----------------------------------------------------------------
             Standard Nuclear Orientation (Angstroms)
    I     Atom           X                Y                Z
 ----------------------------------------------------------------
    1      C       0.8666439894     0.0985774328     0.0449894590
    2      C       2.3210930541     0.4839141354     0.0117522425
    3      O       3.1221487706    -0.3416243634     0.8610401433
    4      C      -0.0782303986     0.9926767822     0.4255640810
    5      C      -1.5352590626     0.6663385655     0.4679570268
    6      O      -2.0791434033     0.8954640650     1.7929509254
    7      C      -1.8344359138    -0.7453958793     0.0989532500
    8      C      -0.8605459795    -1.6143340591    -0.2775547878
    9      C       0.4933577583    -1.2226151468    -0.3264130157
   10      H       2.7249805114     0.3408964970    -0.9891442642
   11      H       2.4353163924     1.5345986757     0.2815713644
   12      H       2.8299127205    -0.2018427332     1.7668043652
   13      H       0.2046229731     1.9964233414     0.7210755972
   14      H      -2.0741009745     1.3352979478    -0.2168914691
   15      H      -2.0801542322     1.8452883083     1.9497321487
   16      H      -2.8711425330    -1.0524818596     0.1371786809
   17      H      -1.1241472408    -2.6287726209    -0.5473404449
   18      H       1.2525243682    -1.9281343890    -0.6343830026
 ----------------------------------------------------------------
 Nuclear Repulsion Energy =         431.91474308 hartrees
 There are       34 alpha and       33 beta electrons
 Discretize the solute cavity surface with Lebedev spheres
	Using 110 Lebedev grid points for each H atom
	Using 194 Lebedev grid points for other atoms
	Atomic van der Waals radii will be scaled by 1.20
 Remove points where switching function is < 1.0e-08
 Keep 1333 surface tesserae and discard 1403 interior tesserae
 Molecular Surface Area = 155.444 Angst**2
 Applying Cartesian multipole field
    Component          Value
    ---------          -----
     (2,0,0)        1.00000E-11
     (0,2,0)        2.00000E-11
     (0,0,2)       -3.00000E-11
 Nucleus-field energy     =     0.0000000084 hartrees
 Requested basis set is 6-311++G(2df,2p)
 There are 126 shells and 396 basis functions
 A cutoff of  1.0D-12 yielded   7194 shell pairs
 There are     71496 function pairs (     88543 Cartesian)
 Smallest overlap matrix eigenvalue = 1.03E-06
 Guess MOs from SCF MO coefficient file

 -----------------------------------------------------------------------
  General SCF calculation program by
  Eric Jon Sundstrom, Paul Horn, Yuezhi Mao, Dmitri Zuev, Alec White,
  David Stuck, Shaama M.S., Shane Yost, Joonho Lee, David Small,
  Daniel Levine, Susi Lehtola, Hugh Burton, Evgeny Epifanovsky,
  Bang C. Huynh
 -----------------------------------------------------------------------
 Exchange:     0.1500 Hartree-Fock + 1.0000 wB97M-V + LR-HF
 Correlation:  1.0000 wB97M-V
 Using SG-2 standard quadrature grid
 Nonlocal Correlation:  VV10 with C = 0.0100 and b = 6.00 and scale = 1.00000
 Grid used for NLC:  SG-1 standard quadrature
 
 Citation of the SMD model:
 Marenich, A.V.; Cramer, C.J.; Truhlar, D.G.
 J. Phys. Chem. B 2009, 113, 6378-6396.
 iSolventCode=           1
 Solvent: water                                                           
 
 vradii
            1           2           3           4           5           6
    1   1.8500000   1.8500000   1.5200000   1.8500000   1.8500000   1.5200000
            7           8           9          10          11          12
    1   1.8500000   1.8500000   1.8500000   1.2000000   1.2000000   1.2000000
           13          14          15          16          17          18
    1   1.2000000   1.2000000   1.2000000   1.2000000   1.2000000   1.2000000
 -------------------------------------------------------
 OpenMP BLAS3 based DFT computing Module                
 Release: version 1.0, May 2013, Q-Chem Inc. Pittsburgh 
 -------------------------------------------------------
 A unrestricted SCF calculation will be
 performed using Roothaan-Hall, DIIS, GDM
 SCF converges when RMS gradient is below 1.0e-07
 ---------------------------------------
  Cycle       Energy         DIIS error
 ---------------------------------------
    1    -422.4969134296      3.10e-04  Roothaan Step
 ---------------------------------------
  Cycle       Energy         DIIS error
[...]
     18 H                     0.292165      -0.011202
  --------------------------------------------------------
  Sum of atomic charges =     0.000000
  Sum of spin   charges =     1.000000

 -----------------------------------------------------------------
                    Cartesian Multipole Moments
 -----------------------------------------------------------------
    Charge (ESU x 10^10)
                 0.0000
    Dipole Moment (Debye)
         X      -0.9660      Y       3.0821      Z      -1.1566
       Tot       3.4308
    Quadrupole Moments (Debye-Ang)
        XX     -62.8288     XY       1.0866     YY     -45.2689
        XZ       3.1742     YZ       5.4625     ZZ     -56.4098
    Octopole Moments (Debye-Ang^2)
       XXX     -50.3285    XXY      19.3627    XYY     -16.4594
       YYY      20.2400    XXZ     -32.6828    XYZ      -2.1649
       YYZ     -12.0933    XZZ      16.3900    YZZ      10.8857
       ZZZ     -54.6078
    Hexadecapole Moments (Debye-Ang^3)
      XXXX   -1290.7217   XXXY      43.0395   XXYY    -223.0900
      XYYY      -7.3854   YYYY    -328.4138   XXXZ      26.7633
      XXYZ      -1.7736   XYYZ      -8.0471   YYYZ     -21.2127
      XXZZ    -223.1289   XYZZ     -11.6058   YYZZ     -89.9116
      XZZZ      71.5092   YZZZ     -50.7969   ZZZZ    -257.6867
 -----------------------------------------------------------------
 Calculating analytic gradient of the SCF energy
 Gradient of CDS energy
            1           2           3           4           5           6
    1   0.0000692   0.0008382  -0.0002175   0.0001160  -0.0002315   0.0000861
    2  -0.0000517   0.0007032  -0.0000833   0.0001727   0.0001241  -0.0001464
    3   0.0000970  -0.0003631  -0.0001784   0.0000062   0.0001759  -0.0002118
            7           8           9          10          11          12
    1  -0.0003908  -0.0001614   0.0003252  -0.0000468  -0.0002057   0.0001062
    2  -0.0000730  -0.0004250  -0.0001408  -0.0002908   0.0000807  -0.0001612
    3   0.0000174  -0.0001082  -0.0001286  -0.0001160   0.0001030   0.0004915
           13          14          15          16          17          18
    1   0.0001129  -0.0001100  -0.0001961  -0.0002119  -0.0000514   0.0001694
    2   0.0001323   0.0001260   0.0003306  -0.0000197  -0.0001957  -0.0000819
    3   0.0000242  -0.0001200   0.0003426   0.0000471  -0.0000532  -0.0000256
 Gradient of SCF Energy
            1           2           3           4           5           6
    1   0.0029338  -0.0013177   0.0073262  -0.0051521   0.0011277  -0.0015920
    2  -0.0044038  -0.0076523  -0.0059266  -0.0040224  -0.0131959  -0.0163748
    3  -0.0045988   0.0032373  -0.0082274  -0.0013298   0.0068057   0.0019648
            7           8           9          10          11          12
    1   0.0043266   0.0000744  -0.0014836  -0.0001242  -0.0001886  -0.0046288
    2   0.0049592   0.0029106   0.0062606   0.0010557   0.0065681   0.0044521
    3  -0.0018829   0.0009847   0.0021810  -0.0041047   0.0017946   0.0085320
           13          14          15          16          17          18
    1   0.0022317  -0.0030106   0.0011409  -0.0018852  -0.0008339   0.0010554
    2   0.0102278   0.0053567   0.0150013  -0.0003432  -0.0034451  -0.0014279
    3   0.0026627  -0.0036262  -0.0007074  -0.0010365  -0.0012590  -0.0013903
 Max gradient component =       1.637E-02
 RMS gradient           =       5.299E-03
 Computing fast CPCM-SWIG gradient
 Updating gradient with PCM contributions...
 -- total gradient after adding PCM contribution --
---------------------------------------------------
  Atom         X              Y              Z     
---------------------------------------------------
   1      -0.000033       0.000084       0.000026
   2       0.000019      -0.000077      -0.000041
   3      -0.000017      -0.000036      -0.000013
   4       0.000045      -0.000058      -0.000025
   5      -0.000096       0.000043       0.000138
   6       0.000037      -0.000044      -0.000088
   7       0.000068      -0.000046      -0.000043
   8      -0.000025       0.000009      -0.000001
   9      -0.000017      -0.000016      -0.000001
  10      -0.000005       0.000047      -0.000034
  11       0.000005       0.000007       0.000003
  12       0.000003       0.000014       0.000057
  13       0.000010       0.000008       0.000000
  14       0.000017      -0.000009      -0.000018
  15       0.000003       0.000046       0.000026
  16      -0.000007       0.000006       0.000022
  17      -0.000007       0.000012      -0.000009
  18      -0.000000       0.000012      -0.000000
---------------------------------------------------
 Number of fixed atoms: 0
 Gradient time:  CPU 300.58 s  wall 43.95 s
 Geometry Optimization Parameters
   NAtoms,    NIC,     NZ,  NCons,   NDum,   NFix, NCnnct, MaxDiis
       18     123       0       0       0       0       0       0

 Cartesian Hessian Update
 Hessian updated using BFGS update


** GEOMETRY OPTIMIZATION IN DELOCALIZED INTERNAL COORDINATES **
   Searching for a Minimum

   Optimization Cycle:   8

                       Coordinates (Angstroms)
     ATOM                X               Y               Z
      1  C         0.8665396136    0.0998288022    0.0302133654
      2  C         2.3238157108    0.4748175249    0.0049630083
      3  O         3.0988602492   -0.3210830296    0.9074558042
      4  C        -0.0759809430    0.9935917529    0.4149025771
      5  C        -1.5327016957    0.6647814744    0.4746295466
      6  O        -2.0542772418    0.8766958847    1.8112975699
      7  C        -1.8336241065   -0.7443746067    0.0932134581
      8  C        -0.8624872600   -1.6126225539   -0.2904468368
      9  C         0.4909361850   -1.2211320982   -0.3402098647
     10  H         2.7451523243    0.2916938208   -0.9826807883
     11  H         2.4411412938    1.5349825972    0.2361891199
     12  H         2.7796812843   -0.1468312813    1.7997764593
     13  H         0.2091385125    1.9991315596    0.7038354952
     14  H        -2.0825241968    1.3405927865   -0.1941756193
     15  H        -2.0519303153    1.8261493337    1.9797142623
     16  H        -2.8707273808   -1.0509346850    0.1336595970
     17  H        -1.1282295446   -2.6251123608   -0.5657823064
     18  H         1.2506583106   -1.9259002218   -0.6487125477
   Point Group: c1    Number of degrees of freedom:    48


   Energy is   -422.527463628

 Hessian updated using BFGS update

 48 Hessian modes will be used to form the next step
  Hessian Eigenvalues:
     0.001924    0.002823    0.009306    0.011141    0.015587    0.016682
     0.017341    0.019640    0.021650    0.021912    0.024263    0.054144
     0.067214    0.069801    0.077867    0.082575    0.120999    0.144741
     0.159515    0.159965    0.160016    0.160110    0.162204    0.164520
     0.175302    0.209632    0.220252    0.226267    0.235151    0.254637
     0.312149    0.315739    0.322954    0.331921    0.339118    0.346473
     0.349195    0.351633    0.352231    0.354934    0.394551    0.406056
     0.421138    0.425268    0.494281    0.530868    0.540969    0.566797

 Minimum search - taking simple RFO step
 Searching for Lamda that Minimizes Along All modes
 Value Taken    Lamda =  -0.00000034
 Step Taken.  Stepsize is  0.008985

                             Maximum     Tolerance    Cnvgd?
         Gradient           0.000088      0.000300     YES
         Displacement       0.005099      0.001200      NO
         Energy change     -0.000001      0.000001     YES

 Final energy is   -422.527463627523     


 ******************************
 **  OPTIMIZATION CONVERGED  **
 ******************************

                       Coordinates (Angstroms)
     ATOM                X               Y               Z
      1  C         0.8665396136    0.0998288022    0.0302133654
      2  C         2.3238157108    0.4748175249    0.0049630083
      3  O         3.0988602492   -0.3210830296    0.9074558042
      4  C        -0.0759809430    0.9935917529    0.4149025771
      5  C        -1.5327016957    0.6647814744    0.4746295466
      6  O        -2.0542772418    0.8766958847    1.8112975699
      7  C        -1.8336241065   -0.7443746067    0.0932134581
      8  C        -0.8624872600   -1.6126225539   -0.2904468368
      9  C         0.4909361850   -1.2211320982   -0.3402098647
     10  H         2.7451523243    0.2916938208   -0.9826807883
     11  H         2.4411412938    1.5349825972    0.2361891199
     12  H         2.7796812843   -0.1468312813    1.7997764593
     13  H         0.2091385125    1.9991315596    0.7038354952
     14  H        -2.0825241968    1.3405927865   -0.1941756193
     15  H        -2.0519303153    1.8261493337    1.9797142623
     16  H        -2.8707273808   -1.0509346850    0.1336595970
     17  H        -1.1282295446   -2.6251123608   -0.5657823064
     18  H         1.2506583106   -1.9259002218   -0.6487125477

Z-matrix Print:
$molecule
0 2
C 
C  1 1.354675
H  2 1.084383 1 120.299499
C  1 1.422403 2 120.194648 3 179.600924 0
H  4 1.081226 1 119.610334 2 179.808485 0
C  4 1.409786 1 120.145908 2 -0.909665 0
H  6 1.082388 4 119.109624 1 -179.344640 0
C  6 1.357997 4 121.262495 1 0.759575 0
H  8 1.082219 6 120.981383 4 -179.747494 0
C  8 1.490555 6 122.165301 4 0.338393 0
H  10 1.098329 8 108.954952 6 120.507726 0
O  10 1.450390 8 107.538964 6 -123.928086 0
H  12 0.964278 10 107.694921 8 -166.812404 0
C  1 1.504961 2 120.936101 3 0.481778 0
H  14 1.089265 1 110.357419 2 -124.776897 0
H  14 1.091412 1 110.033703 2 -5.332424 0
O  14 1.431309 1 112.036877 2 117.870414 0
H  17 0.963574 14 107.697125 1 -62.680948 0
$end

 
 --------------------------------------------------------------
 
                    Orbital Energies (a.u.)
 --------------------------------------------------------------
 
 Alpha MOs
 -- Occupied --
-19.3380 -19.3371 -10.3993 -10.3849 -10.3514 -10.3497 -10.3476 -10.3463
-10.3431  -1.1543  -1.1533  -0.9783  -0.8933  -0.8634  -0.7970  -0.7416
 -0.7036  -0.6352  -0.6255  -0.6053  -0.5798  -0.5687  -0.5485  -0.5248
 -0.5211  -0.4882  -0.4771  -0.4506  -0.4430  -0.4308  -0.3987  -0.3891
 -0.3607  -0.2700
 -- Virtual --
  0.0239   0.0353   0.0358   0.0453   0.0543   0.0578   0.0629   0.0654
  0.0797   0.0859   0.1015   0.1097   0.1205   0.1248   0.1371   0.1438
  0.1495   0.1522   0.1576   0.1582   0.1602   0.1653   0.1669   0.1769
  0.1796   0.1858   0.1912   0.1925   0.2009   0.2085   0.2165   0.2192
  0.2265   0.2334   0.2490   0.2535   0.2652   0.2697   0.2762   0.2805
  0.2895   0.2981   0.3002   0.3099   0.3156   0.3291   0.3344   0.3396
  0.3455   0.3503   0.3548   0.3642   0.3702   0.3726   0.3871   0.3946
  0.4071   0.4099   0.4199   0.4386   0.4539   0.4629   0.4703   0.5280
  0.5458   0.5711   0.5771   0.5805   0.5861   0.5928   0.6030   0.6122
  0.6192   0.6292   0.6378   0.6391   0.6428   0.6620   0.6723   0.6842
  0.6982   0.7015   0.7078   0.7148   0.7242   0.7304   0.7356   0.7445
  0.7529   0.7551   0.7679   0.7689   0.7793   0.8054   0.8121   0.8200
  0.8261   0.8384   0.8512   0.8564   0.8715   0.8906   0.9003   0.9056
  0.9447   0.9683   0.9898   1.0063   1.0125   1.0342   1.0425   1.0614
  1.0629   1.0882   1.1077   1.1239   1.1302   1.1415   1.1447   1.1608
  1.1655   1.1867   1.2101   1.2317   1.2420   1.2490   1.2607   1.2727
  1.2829   1.2929   1.3082   1.3295   1.3334   1.3481   1.3630   1.3784
  1.3965   1.4053   1.4152   1.4238   1.4360   1.4436   1.4515   1.4653
  1.4778   1.4941   1.4969   1.5223   1.5298   1.5346   1.5495   1.5601
  1.5776   1.5911   1.6211   1.6301   1.6511   1.6802   1.6875   1.7189
  1.7425   1.7795   1.7904   1.8147   1.8430   1.8590   1.8872   1.9188
  1.9489   2.0301   2.0506   2.0742   2.0939   2.1199   2.1405   2.1567
  2.1957   2.2867   2.3449   2.3587   2.3822   2.4395   2.5610   2.5940
  2.6198   2.6526   2.6786   2.6872   2.7148   2.7340   2.7927   2.8031
  2.8136   2.8257   2.8408   2.8525   2.8713   2.8775   2.8953   2.9082
  2.9214   2.9261   2.9346   2.9484   2.9609   2.9783   2.9937   3.0074
  3.0309   3.0443   3.0788   3.0984   3.1208   3.1402   3.1566   3.1676
  3.1953   3.2202   3.2372   3.2429   3.2617   3.2663   3.2704   3.2938
  3.3112   3.3223   3.3405   3.3449   3.3629   3.3770   3.3996   3.4231
  3.4275   3.4644   3.4829   3.4925   3.5123   3.5186   3.5275   3.5470
  3.5676   3.5803   3.5915   3.6071   3.6141   3.6552   3.6688   3.6929
  3.7260   3.7385   3.7438   3.7562   3.7794   3.8000   3.8100   3.8222
  3.8272   3.8405   3.8546   3.8729   3.8796   3.9013   3.9185   3.9704
  3.9746   3.9754   4.0204   4.0251   4.0561   4.0816   4.0937   4.1259
  4.1421   4.1699   4.1782   4.2013   4.2321   4.2464   4.2635   4.2743
  4.2943   4.3059   4.3147   4.3284   4.3527   4.3708   4.3886   4.4108
  4.4166   4.4316   4.4603   4.4902   4.5147   4.5235   4.5480   4.5676
  4.5982   4.6044   4.6296   4.6674   4.6820   4.7224   4.7287   4.8025
  4.8365   4.9082   4.9515   5.0159   5.0818   5.1426   5.1772   5.2230
  5.2763   5.2829   5.3042   5.3102   5.3202   5.3594   5.4224   5.4321
  5.4757   5.4998   5.5379   5.5698   5.5978   5.6356   5.6706   5.6836
  5.6947   5.7112   5.7657   5.8241   5.8895   5.9056   5.9379   5.9924
  6.0372   6.1104   6.4287   6.5521   6.6060   7.1024   7.1269   7.3069
  7.3159   7.3260   7.3354   7.3625   7.3880   7.6415   7.6475   7.7770
  7.8030  24.2707  24.6286  24.7916  24.8120  24.8977  25.1082  25.3992
 50.5917  50.6018
 
 Beta MOs
 -- Occupied --
-19.3372 -19.3364 -10.3999 -10.3848 -10.3521 -10.3457 -10.3436 -10.3419
-10.3415  -1.1538  -1.1506  -0.9719  -0.8898  -0.8541  -0.7922  -0.7333
 -0.6996  -0.6330  -0.6194  -0.6015  -0.5750  -0.5648  -0.5480  -0.5211
 -0.5180  -0.4825  -0.4727  -0.4432  -0.4302  -0.4221  -0.3931  -0.3850
 -0.3439
 -- Virtual --
 -0.0226   0.0237   0.0355   0.0357   0.0446   0.0541   0.0578   0.0633
  0.0777   0.0807   0.0852   0.1019   0.1089   0.1198   0.1296   0.1380
  0.1439   0.1514   0.1541   0.1567   0.1594   0.1606   0.1670   0.1684
  0.1771   0.1801   0.1858   0.1910   0.1929   0.2013   0.2108   0.2189
  0.2192   0.2252   0.2340   0.2487   0.2535   0.2647   0.2698   0.2753
  0.2807   0.2890   0.2983   0.3036   0.3120   0.3185   0.3314   0.3346
  0.3423   0.3478   0.3509   0.3582   0.3649   0.3720   0.3759   0.3877
  0.3968   0.4094   0.4105   0.4215   0.4393   0.4560   0.4647   0.4715
  0.5291   0.5469   0.5747   0.5801   0.5843   0.5916   0.5961   0.6071
  0.6158   0.6225   0.6308   0.6406   0.6430   0.6490   0.6682   0.6770
  0.6862   0.7006   0.7035   0.7102   0.7200   0.7287   0.7346   0.7382
  0.7456   0.7555   0.7592   0.7707   0.7717   0.7856   0.8081   0.8156
  0.8245   0.8308   0.8387   0.8558   0.8608   0.8766   0.8928   0.9028
  0.9098   0.9458   0.9703   0.9919   1.0081   1.0139   1.0350   1.0436
  1.0622   1.0642   1.0892   1.1088   1.1257   1.1312   1.1426   1.1455
  1.1635   1.1692   1.1883   1.2135   1.2340   1.2426   1.2501   1.2626
  1.2743   1.2834   1.2941   1.3116   1.3318   1.3360   1.3526   1.3662
  1.3813   1.4006   1.4081   1.4189   1.4279   1.4378   1.4487   1.4536
  1.4696   1.4805   1.4977   1.5009   1.5251   1.5314   1.5374   1.5529
  1.5623   1.5822   1.5927   1.6237   1.6333   1.6554   1.6827   1.6912
  1.7240   1.7474   1.7868   1.7964   1.8177   1.8471   1.8653   1.8937
  1.9227   1.9523   2.0359   2.0546   2.0777   2.0978   2.1216   2.1436
  2.1604   2.1979   2.2889   2.3459   2.3599   2.3835   2.4410   2.5715
  2.5990   2.6265   2.6611   2.6866   2.6957   2.7243   2.7423   2.8095
  2.8149   2.8217   2.8358   2.8557   2.8622   2.8793   2.8847   2.9082
  2.9220   2.9341   2.9427   2.9494   2.9639   2.9719   2.9925   3.0067
  3.0163   3.0440   3.0632   3.0955   3.1085   3.1325   3.1458   3.1617
  3.1788   3.2008   3.2282   3.2494   3.2527   3.2699   3.2740   3.2820
  3.3031   3.3231   3.3311   3.3493   3.3539   3.3706   3.3829   3.4088
  3.4345   3.4358   3.4767   3.4950   3.5016   3.5207   3.5301   3.5359
  3.5568   3.5767   3.5901   3.6018   3.6219   3.6437   3.6647   3.6802
  3.7001   3.7321   3.7463   3.7516   3.7611   3.7850   3.8015   3.8158
  3.8287   3.8336   3.8531   3.8578   3.8793   3.8916   3.9136   3.9255
  3.9776   3.9818   3.9858   4.0294   4.0344   4.0659   4.0911   4.1029
  4.1327   4.1495   4.1755   4.1826   4.2045   4.2394   4.2529   4.2716
  4.2880   4.3044   4.3094   4.3194   4.3346   4.3593   4.3820   4.3964
  4.4215   4.4226   4.4434   4.4693   4.5015   4.5224   4.5361   4.5611
  4.5789   4.6076   4.6113   4.6435   4.6789   4.6944   4.7299   4.7391
  4.8090   4.8486   4.9225   4.9651   5.0295   5.0968   5.1540   5.1886
  5.2355   5.2816   5.2842   5.3077   5.3120   5.3223   5.3626   5.4297
  5.4397   5.4777   5.5054   5.5428   5.5785   5.5983   5.6473   5.6763
  5.6897   5.6976   5.7136   5.7764   5.8382   5.9006   5.9172   5.9452
  5.9977   6.0377   6.1234   6.4394   6.5565   6.6060   7.1024   7.1294
  7.3072   7.3183   7.3262   7.3395   7.3625   7.3925   7.6415   7.6509
  7.7767   7.8081  24.2727  24.6306  24.7923  24.8121  24.9031  25.1097
 25.4016  50.5917  50.6031
 --------------------------------------------------------------
 
          Ground-State Mulliken Net Atomic Charges

     Atom                 Charge (a.u.)    Spin (a.u.)
  --------------------------------------------------------
      1 C                     0.592776      -0.135961
      2 C                    -0.513866       0.007291
      3 O                    -0.399476      -0.001983
      4 C                    -0.484661       0.320453
      5 C                    -0.789690       0.022542
      6 O                    -0.405620       0.017881
      7 C                    -0.001020       0.369960
      8 C                    -0.343891      -0.130253
      9 C                    -0.133257       0.510912
     10 H                     0.207284      -0.002504
     11 H                     0.233028      -0.000497
     12 H                     0.328153       0.001369
     13 H                     0.291084      -0.008815
     14 H                     0.189487       0.041245
     15 H                     0.329990       0.003825
     16 H                     0.307749      -0.010076
     17 H                     0.299766       0.005813
     18 H                     0.292165      -0.011202
  --------------------------------------------------------
  Sum of atomic charges =     0.000000
  Sum of spin   charges =     1.000000

 -----------------------------------------------------------------
                    Cartesian Multipole Moments
 -----------------------------------------------------------------
    Charge (ESU x 10^10)
                 0.0000
    Dipole Moment (Debye)
         X      -0.9660      Y       3.0821      Z      -1.1566
       Tot       3.4308
    Quadrupole Moments (Debye-Ang)
        XX     -62.8288     XY       1.0866     YY     -45.2689
        XZ       3.1742     YZ       5.4625     ZZ     -56.4098
    Octopole Moments (Debye-Ang^2)
       XXX     -50.3285    XXY      19.3627    XYY     -16.4594
       YYY      20.2400    XXZ     -32.6828    XYZ      -2.1649
       YYZ     -12.0933    XZZ      16.3900    YZZ      10.8857
       ZZZ     -54.6078
    Hexadecapole Moments (Debye-Ang^3)
      XXXX   -1290.7217   XXXY      43.0395   XXYY    -223.0900
      XYYY      -7.3854   YYYY    -328.4138   XXXZ      26.7633
      XXYZ      -1.7736   XYYZ      -8.0471   YYYZ     -21.2127
      XXZZ    -223.1289   XYZZ     -11.6058   YYZZ     -89.9116
      XZZZ      71.5092   YZZZ     -50.7969   ZZZZ    -257.6867
 -----------------------------------------------------------------
 Total job time:  2278.49s(wall), 17516.13s(cpu) 
 Thu Apr 20 22:13:49 2023

        *************************************************************
        *                                                           *
        *  Thank you very much for using Q-Chem.  Have a nice day.  *
        *                                                           *
        *************************************************************


