
Running Job 1 of 1 Q_in.in
qchem Q_in.in_25275.0 /scratch/ari.fischer/qChem2185636.hpc-mn1/qchem25275/ 0
/usr/local/qchem-5.4.1/exe/qcprog.exe_s Q_in.in_25275.0 /scratch/ari.fischer/qChem2185636.hpc-mn1/qchem25275/
                  Welcome to Q-Chem
     A Quantum Leap Into The Future Of Chemistry


 Q-Chem 5.4, Q-Chem, Inc., Pleasanton, CA (2021)

 License issued to: Nanyang Technological University (site)

 E. Epifanovsky,  A. T. B. Gilbert,  Xintian Feng,  Joonho Lee,  Yuezhi Mao,  
 N. Mardirossian,  P. Pokhilko,  A. White,  M. Wormit,  M. P. Coons,  
 A. L. Dempwolff,  Zhengting Gan,  D. Hait,  P. R. Horn,  L. D. Jacobson,  
 I. Kaliman,  J. Kussmann,  A. W. Lange,  Ka Un Lao,  D. S. Levine,  Jie Liu,  
 S. C. McKenzie,  A. F. Morrison,  K. Nanda,  F. Plasser,  D. R. Rehn,  
 M. L. Vidal,  Zhi-Qiang You,  Ying Zhu,  B. Alam,  B. Albrecht,  
 A. Aldossary,  E. Alguire,  J. H. Andersen,  D. Barton,  K. Begam,  A. Behn,  
 Y. A. Bernard,  E. J. Berquist,  H. Burton,  A. Carreras,  K. Carter-Fenk,  
 R. Chakraborty,  A. D. Chien,  K. D. Closser,  V. Cofer-Shabica,  
 S. Dasgupta,  Jia Deng,  M. de Wergifosse,  M. Diedenhofen,  Hainam Do,  
 S. Ehlert,  Po-Tung Fang,  S. Fatehi,  Qingguo Feng,  T. Friedhoff,  
 J. Gayvert,  Qinghui Ge,  G. Gidofalvi,  M. Goldey,  J. Gomes,  
 C. Gonzalez-Espinoza,  S. Gulania,  A. Gunina,  M. W. D. Hanson-Heine,  
 P. H. P. Harbach,  A. W. Hauser,  M. F. Herbst,  M. Hernandez Vera,  
 M. Hodecker,  Z. C. Holden,  S. Houck,  Xunkun Huang,  Kerwin Hui,  
 B. C. Huynh,  M. Ivanov,  Hyunjun Ji,  Hanjie Jiang,  B. Kaduk,  S. Kaehler,  
 K. Khistyaev,  Jaehoon Kim,  P. Klunzinger,  Z. Koczor-Benda,  
 Joong Hoon Koh,  D. Kosenkov,  L. Koulias,  T. Kowalczyk,  C. M. Krauter,  
 K. Kue,  A. Kunitsa,  T. Kus,  A. Landau,  K. V. Lawler,  D. Lefrancois,  
 S. Lehtola,  Rain Li,  Yi-Pei Li,  Jiashu Liang,  M. Liebenthal,  
 Hung-Hsuan Lin,  You-Sheng Lin,  Fenglai Liu,  Kuan-Yu Liu,  
 M. Loipersberger,  A. Luenser,  A. Manjanath,  P. Manohar,  E. Mansoor,  
 S. F. Manzer,  Shan-Ping Mao,  A. V. Marenich,  T. Markovich,  S. Mason,  
 S. A. Maurer,  P. F. McLaughlin,  M. F. S. J. Menger,  J.-M. Mewes,  
 S. A. Mewes,  P. Morgante,  J. W. Mullinax,  K. J. Oosterbaan,  G. Paran,  
 Alexander C. Paul,  Suranjan K. Paul,  F. Pavosevic,  Zheng Pei,  S. Prager,  
 E. I. Proynov,  E. Ramos,  B. Rana,  A. E. Rask,  A. Rettig,  R. M. Richard,  
 F. Rob,  E. Rossomme,  T. Scheele,  M. Scheurer,  M. Schneider,  
 N. Sergueev,  S. M. Sharada,  W. Skomorowski,  D. W. Small,  C. J. Stein,  
 Yu-Chuan Su,  E. J. Sundstrom,  Zhen Tao,  J. Thirman,  T. Tsuchimochi,  
 N. M. Tubman,  S. P. Veccham,  O. Vydrov,  J. Wenzel,  J. Witte,  A. Yamada,  
 Kun Yao,  S. Yeganeh,  S. R. Yost,  A. Zech,  Igor Ying Zhang,  Xing Zhang,  
 Yu Zhang,  D. Zuev,  A. Aspuru-Guzik,  A. T. Bell,  N. A. Besley,  
 K. B. Bravaya,  B. R. Brooks,  D. Casanova,  Jeng-Da Chai,  S. Coriani,  
 C. J. Cramer,  A. E. DePrince, III,  R. A. DiStasio Jr.,  A. Dreuw,  
 B. D. Dunietz,  T. R. Furlani,  W. A. Goddard III,  S. Grimme,  
 S. Hammes-Schiffer,  T. Head-Gordon,  W. J. Hehre,  Chao-Ping Hsu,  
 T.-C. Jagau,  Yousung Jung,  A. Klamt,  Jing Kong,  D. S. Lambrecht,  
 WanZhen Liang,  N. J. Mayhall,  C. W. McCurdy,  J. B. Neaton,  
 C. Ochsenfeld,  J. A. Parkhill,  R. Peverati,  V. A. Rassolov,  Yihan Shao,  
 L. V. Slipchenko,  T. Stauch,  R. P. Steele,  J. E. Subotnik,  
 A. J. W. Thom,  A. Tkatchenko,  D. G. Truhlar,  T. Van Voorhis,  
 T. A. Wesolowski,  K. B. Whaley,  H. L. Woodcock III,  P. M. Zimmerman,  
 S. Faraji,  P. M. W. Gill,  M. Head-Gordon,  J. M. Herbert,  A. I. Krylov

 Additional authors for Version 5.4.1: 
 S. Kotaru,  Shaozhi Li,  Xiangyuan Li,  F. Matz,  A. Molle,  Haisheng Ren,  
 Yingli Su,  Hung-Yi Tsai,  C. Utku,  Fang Wang

 Contributors to earlier versions of Q-Chem not listed above: 
 R. D. Adamson,  B. Austin,  R. Baer,  J. Baker,  G. J. O. Beran,  
 K. Brandhorst,  S. T. Brown,  E. F. C. Byrd,  A. K. Chakraborty,  
 G. K. L. Chan,  Chun-Min Chang,  Yunqing Chen,  C.-L. Cheng,  
 Siu Hung Chien,  D. M. Chipman,  D. L. Crittenden,  H. Dachsel,  
 R. J. Doerksen,  A. D. Dutoi,  R. G. Edgar,  J. Fosso-Tande,  
 L. Fusti-Molnar,  D. Ghosh,  A. Ghysels,  A. Golubeva-Zadorozhnaya,  
 J. Gonthier,  M. S. Gordon,  S. R. Gwaltney,  G. Hawkins,  J. E. Herr,  
 A. Heyden,  S. Hirata,  E. G. Hohenstein,  G. Kedziora,  F. J. Keil,  
 C. Kelley,  Jihan Kim,  R. A. King,  R. Z. Khaliullin,  P. P. Korambath,  
 W. Kurlancheek,  A. Laurent,  A. M. Lee,  M. S. Lee,  S. V. Levchenko,  
 Ching Yeh Lin,  D. Liotard,  E. Livshits,  R. C. Lochan,  I. Lotan,  
 L. A. Martinez-Martinez,  P. E. Maslen,  N. Nair,  D. P. O'Neill,  
 D. Neuhauser,  E. Neuscamman,  C. M. Oana,  R. Olivares-Amaya,  R. Olson,  
 T. M. Perrine,  B. Peters,  P. A. Pieniazek,  A. Prociuk,  Y. M. Rhee,  
 J. Ritchie,  M. A. Rohrdanz,  E. Rosta,  N. J. Russ,  H. F. Schaefer III,  
 M. W. Schmidt,  N. E. Schultz,  S. Sharma,  N. Shenvi,  C. D. Sherrill,  
 A. C. Simmonett,  A. Sodt,  T. Stein,  D. Stuck,  K. S. Thanthiriwatte,  
 V. Vanovschi,  L. Vogt,  Tao Wang,  A. Warshel,  M. A. Watson,  
 C. F. Williams,  Q. Wu,  X. Xu,  Jun Yang,  W. Zhang,  Yan Zhao

 Please cite Q-Chem as follows:
 Y. Shao et al., Mol. Phys. 113, 184-215 (2015)
 DOI: 10.1080/00268976.2014.952696

 Q-Chem 5.4.1 for Intel X86 EM64T Linux

 Parts of Q-Chem use Armadillo 9.800.1 (Horizon Scraper).
 http://arma.sourceforge.net/

 Q-Chem begins on Mon Jun 24 12:42:18 2024  

 Host: 
0

     Scratch files written to /scratch/ari.fischer/qChem2185636.hpc-mn1/qchem25275//
 Aug1521 |scratch|qcdevops|jenkins|workspace|build_RNUM 8249   
 Processing $rem in /usr/local/qchem-5.4.1/config/preferences:
 Processing $rem in /home/ari.fischer/.qchemrc:
 Symmetry turned off for PCM/SM12/SMD calculation

 Checking the input file for inconsistencies... 	...done.

--------------------------------------------------------------
User input:
--------------------------------------------------------------
$molecule
-1 2
C         2.6325275868   -1.3057115060   -0.8933791283
O         1.7348791584   -0.3981730532   -1.5163987406
C         3.3035170515   -0.5576656417    0.2896529233
O         2.6090963793   -0.7234886613    1.4163796668
C         3.7031259088    0.8779797296   -0.0617128831
C         4.7885927251    1.4769729136    0.8267323609
O         4.6360392230    1.1868612274    2.2221587838
O         3.2800663109    1.4621440158    2.6290321198
C         4.9781611198    2.9809517756    0.6153624650
O         3.7315527135    3.6316777875    0.7384856193
O         5.9143535477    3.4749506520    1.5460696497
H         3.3683862005   -1.6492772352   -1.6258233365
H         1.2941248188   -0.8912761737   -2.2287636132
H         2.7869749342    1.4701902615    0.0002981639
H         4.0585395922    0.9354045354   -1.0957990618
H         5.7552883777    1.0108911084    0.6073349706
H         2.8626608337    0.6012230822    2.3045771405
H         5.4093257475    3.1630059165   -0.3755018819
H         3.8837787663    4.5643743826    0.5128167842
H         5.6655127741    3.0690610506    2.3977846112
O         1.9648896197   -2.4223641082   -0.3758762527
H         1.7703729999   -2.1364707309    0.5494147476
O         4.6112318013   -1.3525077190    0.5235221137
O         5.4497047754   -1.2708477722   -0.4793031376
O         0.3106131409    0.6738140294    0.7005858788
H         1.0456944574    0.2001923968    1.1484813358
H         0.4967665359    0.4066385365   -0.2190306992
$end

$rem
BASIS = 6-311++G(2df,2p)
GUI = 2
JOB_TYPE = Optimization
METHOD = wB97M-V
SCF_ALGORITHM = DIIS_GDM
MAX_SCF_CYCLES = 400
GEOM_OPT_MAX_CYCLES = 150
SCF_CONVERGENCE = 7
THRESH = 12
Solvent_method = SMD
$end
--------------------------------------------------------------
 ----------------------------------------------------------------
             Standard Nuclear Orientation (Angstroms)
    I     Atom           X                Y                Z
 ----------------------------------------------------------------
    1      C       2.6325275868    -1.3057115060    -0.8933791283
    2      O       1.7348791584    -0.3981730532    -1.5163987406
    3      C       3.3035170515    -0.5576656417     0.2896529233
    4      O       2.6090963793    -0.7234886613     1.4163796668
    5      C       3.7031259088     0.8779797296    -0.0617128831
    6      C       4.7885927251     1.4769729136     0.8267323609
    7      O       4.6360392230     1.1868612274     2.2221587838
    8      O       3.2800663109     1.4621440158     2.6290321198
    9      C       4.9781611198     2.9809517756     0.6153624650
   10      O       3.7315527135     3.6316777875     0.7384856193
   11      O       5.9143535477     3.4749506520     1.5460696497
   12      H       3.3683862005    -1.6492772352    -1.6258233365
   13      H       1.2941248188    -0.8912761737    -2.2287636132
   14      H       2.7869749342     1.4701902615     0.0002981639
   15      H       4.0585395922     0.9354045354    -1.0957990618
   16      H       5.7552883777     1.0108911084     0.6073349706
   17      H       2.8626608337     0.6012230822     2.3045771405
   18      H       5.4093257475     3.1630059165    -0.3755018819
   19      H       3.8837787663     4.5643743826     0.5128167842
   20      H       5.6655127741     3.0690610506     2.3977846112
   21      O       1.9648896197    -2.4223641082    -0.3758762527
   22      H       1.7703729999    -2.1364707309     0.5494147476
   23      O       4.6112318013    -1.3525077190     0.5235221137
   24      O       5.4497047754    -1.2708477722    -0.4793031376
   25      O       0.3106131409     0.6738140294     0.7005858788
   26      H       1.0456944574     0.2001923968     1.1484813358
   27      H       0.4967665359     0.4066385365    -0.2190306992
 ----------------------------------------------------------------
 Nuclear Repulsion Energy =        1231.53987392 hartrees
 There are       62 alpha and       61 beta electrons
 Requested basis set is 6-311++G(2df,2p)
 There are 192 shells and 630 basis functions

 Total QAlloc Memory Limit 288000 MB
 Mega-Array Size       188 MB
 MEM_STATIC part       192 MB
 
 Citation of the SMD model:
 Marenich, A.V.; Cramer, C.J.; Truhlar, D.G.
 J. Phys. Chem. B 2009, 113, 6378-6396.
 iSolventCode=           1
 Solvent: water                                                           
 
 vradii
            1           2           3           4           5           6
    1   1.8500000   1.5200000   1.8500000   1.5200000   1.8500000   1.8500000
            7           8           9          10          11          12
    1   1.5200000   1.5200000   1.8500000   1.5200000   1.5200000   1.2000000
           13          14          15          16          17          18
    1   1.2000000   1.2000000   1.2000000   1.2000000   1.2000000   1.2000000
           19          20          21          22          23          24
    1   1.2000000   1.2000000   1.5200000   1.2000000   1.5200000   1.5200000
           25          26          27
    1   1.5200000   1.2000000   1.2000000
 Changing PCM_VDW_RADII to SMD_RADIUS
 Discretize the solute cavity surface with Lebedev spheres
	Using 110 Lebedev grid points for each H atom
	Using 194 Lebedev grid points for other atoms
	Atomic van der Waals radii will be scaled by 1.20
 Remove points where switching function is < 1.0e-08
 Keep 2046 surface tesserae and discard 2184 interior tesserae
 Molecular Surface Area = 220.677 Angst**2
 A cutoff of  1.0D-12 yielded  15075 shell pairs
 There are    158180 function pairs (    195305 Cartesian)
 Smallest overlap matrix eigenvalue = 1.87E-06

 Scale SEOQF with 1.000000e-02/1.000000e-01/1.000000e-01

 Standard Electronic Orientation quadrupole field applied
 Nucleus-field energy     =     0.0000000176 hartrees
 Guess from superposition of atomic densities
 Warning:  Energy on first SCF cycle will be non-variational
 SAD guess density has 122.000000 electrons

 -----------------------------------------------------------------------
  General SCF calculation program by
  Eric Jon Sundstrom, Paul Horn, Yuezhi Mao, Dmitri Zuev, Alec White,
  David Stuck, Shaama M.S., Shane Yost, Joonho Lee, David Small,
  Daniel Levine, Susi Lehtola, Hugh Burton, Evgeny Epifanovsky,
  Bang C. Huynh
 -----------------------------------------------------------------------
 Exchange:     0.1500 Hartree-Fock + 1.0000 wB97M-V + LR-HF
 Correlation:  1.0000 wB97M-V
 Using SG-2 standard quadrature grid
 Nonlocal Correlation:  VV10 with C = 0.0100 and b = 6.00 and scale = 1.00000
 Grid used for NLC:  SG-1 standard quadrature
 
 Citation of the SMD model:
 Marenich, A.V.; Cramer, C.J.; Truhlar, D.G.
 J. Phys. Chem. B 2009, 113, 6378-6396.
 iSolventCode=           1
 Solvent: water                                                           
 
 vradii
            1           2           3           4           5           6
    1   1.8500000   1.5200000   1.8500000   1.5200000   1.8500000   1.8500000
            7           8           9          10          11          12
    1   1.5200000   1.5200000   1.8500000   1.5200000   1.5200000   1.2000000
           13          14          15          16          17          18
    1   1.2000000   1.2000000   1.2000000   1.2000000   1.2000000   1.2000000
           19          20          21          22          23          24
    1   1.2000000   1.2000000   1.5200000   1.2000000   1.5200000   1.5200000
           25          26          27
    1   1.5200000   1.2000000   1.2000000
 using 16 threads for integral computing
 -------------------------------------------------------
 OpenMP Integral computing Module                
 Release: version 1.0, May 2013, Q-Chem Inc. Pittsburgh 
 -------------------------------------------------------
 -------------------------------------------------------
 OpenMP BLAS3 based DFT computing Module                
 Release: version 1.0, May 2013, Q-Chem Inc. Pittsburgh 
 -------------------------------------------------------
 A unrestricted SCF calculation will be
 performed using DIIS, GDM
 SCF converges when RMS gradient is below 1.0e-07
 ---------------------------------------
  Cycle       Energy         DIIS error
 ---------------------------------------
    1    -952.3730462880      9.56e-03  
    2    -949.7038454758      1.45e-03  Done DIIS. Switching to GDM
 ---------------------------------------
  Cycle       Energy        RMS Gradient
 ---------------------------------------
    1    -949.7038454758      1.11e-01   Descent step
    2    -949.9534662240      3.22e-02   Descent step
    3    -950.0143132961      2.82e-02   Normal BFGS step
    4    -950.0293298516      1.80e-02   Normal BFGS step
    5    -950.0307459755      8.29e-03   Normal BFGS step
    6    -950.0310066105      4.21e-03   Normal BFGS step
    7    -950.0311163466      1.32e-03   Normal BFGS step
    8    -950.0311466310      1.24e-03   Normal BFGS step
    9    -950.0311588417      1.11e-03   Normal BFGS step
   10    -950.0311639639      9.36e-04   Normal BFGS step
   11    -950.0311675570      7.17e-04   Normal BFGS step
   12    -950.0311701339      4.93e-04   Normal BFGS step
   13    -950.0311722149      3.32e-04   Normal BFGS step
   14    -950.0311726650      1.94e-04   Normal BFGS step
   15    -950.0311728716      5.86e-05   Normal BFGS step
   16    -950.0311728898      1.21e-05   Normal BFGS step
   17    -950.0311728973      3.47e-06   Normal BFGS step
   18    -950.0311728978      2.13e-06   Normal BFGS step
   19    -950.0311728980      8.63e-07   Normal BFGS step
   20    -950.0311728979      4.29e-07   Normal BFGS step
   21    -950.0311728979      2.95e-07   Normal BFGS step
   22    -950.0311728983      8.92e-08  Convergence criterion met
 ---------------------------------------
 SCF time:   CPU 8125.09s  wall 578.00s 
<S^2> =          0.754240836
(3)  G-ENP(liq) elect-nuc-pol free energy of system     -950.031172898 a.u.
(4)  G-CDS(liq) cavity-dispersion-solvent structure 
     free energy                                                3.5648 kcal/mol
(6)  G-S(liq) free energy of system                     -950.025491967 a.u.
 SCF   energy in the final basis set =     -950.0254919670
 Total energy in the final basis set =     -950.0254919670
 
 --------------------------------------------------------------
 
                    Orbital Energies (a.u.)
 --------------------------------------------------------------
 
 Alpha MOs
 -- Occupied --
-19.4416 -19.4048 -19.3947 -19.3680 -19.3459 -19.3424 -19.3418 -19.3369
-19.3108 -19.2850 -10.4478 -10.4416 -10.4392 -10.3995 -10.3403  -1.3200
 -1.2509  -1.2014  -1.1957  -1.1353  -1.1303  -1.1214  -1.1080  -1.0309
 -0.9680  -0.8987  -0.8374  -0.7911  -0.7236  -0.6908  -0.6816  -0.6715
 -0.6399  -0.6259  -0.6152  -0.6068  -0.5997  -0.5890  -0.5834  -0.5725
 -0.5642  -0.5514  -0.5451  -0.5355  -0.5318  -0.5090  -0.4967  -0.4796
 -0.4577  -0.4541  -0.4464  -0.4308  -0.4181  -0.4128  -0.4110  -0.4110
 -0.4075  -0.4016  -0.3876  -0.3721  -0.3591  -0.3546
 -- Virtual --
  0.0274   0.0368   0.0422   0.0460   0.0566   0.0620   0.0658   0.0706
  0.0801   0.0869   0.0951   0.1016   0.1091   0.1141   0.1245   0.1358
  0.1389   0.1427   0.1470   0.1490   0.1542   0.1596   0.1636   0.1693
  0.1777   0.1782   0.1853   0.1868   0.1944   0.1997   0.2036   0.2105
  0.2224   0.2234   0.2381   0.2410   0.2481   0.2551   0.2610   0.2635
  0.2677   0.2717   0.2774   0.2831   0.2889   0.2893   0.2930   0.2988
  0.3041   0.3049   0.3111   0.3165   0.3261   0.3286   0.3323   0.3336
  0.3394   0.3479   0.3494   0.3532   0.3553   0.3616   0.3640   0.3688
  0.3718   0.3763   0.3777   0.3799   0.3840   0.3879   0.3976   0.4008
  0.4055   0.4087   0.4150   0.4174   0.4246   0.4265   0.4301   0.4350
  0.4419   0.4449   0.4542   0.4587   0.4700   0.4726   0.4746   0.4881
  0.4972   0.5041   0.5164   0.5271   0.5372   0.5414   0.5501   0.5640
  0.5688   0.5881   0.6068   0.6106   0.6146   0.6333   0.6363   0.6409
  0.6543   0.6581   0.6645   0.6788   0.6905   0.6984   0.7041   0.7166
  0.7217   0.7340   0.7431   0.7499   0.7583   0.7646   0.7720   0.7886
  0.7952   0.8067   0.8099   0.8261   0.8297   0.8425   0.8580   0.8724
  0.8898   0.9167   0.9205   0.9268   0.9478   0.9515   0.9590   0.9682
  0.9903   0.9949   1.0056   1.0363   1.0386   1.0518   1.0608   1.0697
  1.0824   1.0851   1.0912   1.1071   1.1132   1.1204   1.1325   1.1477
  1.1527   1.1602   1.1662   1.1795   1.1838   1.1891   1.1999   1.2060
  1.2092   1.2131   1.2247   1.2291   1.2333   1.2414   1.2494   1.2677
  1.2725   1.2793   1.2849   1.2872   1.2900   1.2942   1.3078   1.3138
  1.3348   1.3425   1.3460   1.3543   1.3603   1.3632   1.3774   1.3820
  1.3878   1.3989   1.4095   1.4142   1.4230   1.4323   1.4397   1.4566
  1.4724   1.4862   1.4915   1.4954   1.5017   1.5127   1.5201   1.5230
  1.5381   1.5416   1.5625   1.5683   1.5744   1.5884   1.5995   1.6116
  1.6154   1.6253   1.6416   1.6450   1.6555   1.6651   1.6947   1.7008
  1.7148   1.7227   1.7253   1.7417   1.7529   1.7604   1.7704   1.7914
  1.8017   1.8129   1.8262   1.8357   1.8527   1.8585   1.8828   1.9058
  1.9145   1.9243   1.9544   1.9642   1.9848   1.9989   2.0051   2.0328
  2.0427   2.0455   2.0695   2.0811   2.0926   2.0994   2.1536   2.1795
  2.1925   2.2030   2.2227   2.2415   2.2615   2.2702   2.2885   2.3067
  2.3240   2.3598   2.3648   2.3740   2.3886   2.3955   2.4120   2.4204
  2.4239   2.4417   2.4528   2.4586   2.4792   2.4958   2.5091   2.5324
  2.5561   2.5650   2.6066   2.6158   2.6511   2.6657   2.6850   2.7345
  2.7628   2.7842   2.7994   2.8137   2.8289   2.8428   2.8665   2.8866
  2.9066   2.9155   2.9496   2.9735   2.9819   3.0179   3.0461   3.0775
  3.0967   3.1175   3.1367   3.1651   3.1765   3.1971   3.2333   3.2628
  3.2686   3.2844   3.3149   3.3329   3.3360   3.3665   3.4050   3.4091
  3.4323   3.4537   3.4668   3.4940   3.4995   3.5100   3.5325   3.5528
  3.5658   3.6002   3.6055   3.6200   3.6375   3.6591   3.6705   3.6975
  3.7061   3.7174   3.7418   3.7559   3.7723   3.7752   3.7984   3.8042
  3.8222   3.8286   3.8388   3.8587   3.8678   3.8722   3.8807   3.8931
  3.9070   3.9176   3.9225   3.9273   3.9447   3.9618   3.9675   3.9817
  4.0088   4.0140   4.0376   4.0454   4.0655   4.0838   4.1242   4.1287
  4.1454   4.1724   4.1773   4.1839   4.2028   4.2331   4.2339   4.2551
  4.2687   4.2831   4.2889   4.2956   4.3174   4.3444   4.3507   4.3594
  4.3712   4.3880   4.3907   4.4176   4.4292   4.4514   4.4759   4.4846
  4.5101   4.5133   4.5514   4.5780   4.5927   4.6111   4.6370   4.6420
  4.6826   4.7010   4.7211   4.7535   4.7718   4.7899   4.8260   4.8511
  4.9072   4.9336   4.9596   5.0075   5.0192   5.0897   5.1050   5.1241
  5.1316   5.1387   5.1746   5.1843   5.2115   5.2182   5.2345   5.2435
  5.2608   5.2675   5.2803   5.2838   5.2964   5.3038   5.3101   5.3147
  5.3281   5.3327   5.3413   5.3507   5.3613   5.3664   5.3712   5.3807
  5.3837   5.3950   5.4023   5.4176   5.4293   5.4351   5.4438   5.4498
  5.4582   5.4812   5.4875   5.4971   5.5053   5.5284   5.5411   5.5487
  5.5549   5.5684   5.5742   5.5842   5.5911   5.5993   5.6109   5.6232
  5.6297   5.6400   5.6526   5.6672   5.6843   5.6991   5.7098   5.7136
  5.7280   5.7488   5.7631   5.7887   5.7940   5.8149   5.8213   5.8289
  5.8595   5.8907   5.9315   5.9916   5.9992   6.0283   6.0507   6.0666
  6.0823   6.1434   6.1688   6.2392   6.2560   6.3954   6.4615   6.5544
  6.5676   6.5964   6.6858   6.7372   6.7553   6.8321   6.9023   6.9379
  6.9692   7.0034   7.0124   7.0611   7.0664   7.0735   7.1004   7.1049
  7.1237   7.1248   7.1410   7.1524   7.1749   7.1916   7.2081   7.2197
  7.2346   7.2485   7.2583   7.2806   7.2845   7.3083   7.3303   7.3353
  7.3534   7.3724   7.3857   7.4252   7.4445   7.4490   7.4643   7.4775
  7.4851   7.5062   7.5159   7.5395   7.5632   7.5817   7.6032   7.6231
  7.6357   7.6520   7.6746   7.6869   7.7351   7.7861   7.8020   7.8544
  7.8576   7.8793   7.9125   7.9379   7.9764   8.0011   8.0905   8.1490
  8.2409  24.6328  24.7788  24.8000  24.8132  24.8580  50.4515  50.5275
 50.5460  50.5982  50.6201  50.6272  50.6333  50.6514  50.6788  50.8030
 
 Beta MOs
 -- Occupied --
-19.4305 -19.3946 -19.3867 -19.3680 -19.3459 -19.3424 -19.3418 -19.3369
-19.3108 -19.2851 -10.4482 -10.4416 -10.4389 -10.3995 -10.3401  -1.2932
 -1.2507  -1.2009  -1.1957  -1.1348  -1.1303  -1.1210  -1.1071  -1.0306
 -0.9351  -0.8960  -0.8346  -0.7901  -0.7232  -0.6843  -0.6807  -0.6684
 -0.6381  -0.6160  -0.6077  -0.5986  -0.5913  -0.5881  -0.5760  -0.5691
 -0.5573  -0.5445  -0.5355  -0.5315  -0.5134  -0.5030  -0.4911  -0.4768
 -0.4540  -0.4522  -0.4431  -0.4307  -0.4152  -0.4125  -0.4101  -0.4074
 -0.4055  -0.3975  -0.3746  -0.3561  -0.3492
 -- Virtual --
 -0.0219   0.0274   0.0370   0.0424   0.0462   0.0569   0.0625   0.0659
  0.0709   0.0802   0.0871   0.0957   0.1020   0.1095   0.1142   0.1253
  0.1363   0.1394   0.1429   0.1472   0.1494   0.1544   0.1612   0.1641
  0.1697   0.1785   0.1787   0.1858   0.1890   0.1955   0.2006   0.2037
  0.2111   0.2235   0.2245   0.2412   0.2431   0.2488   0.2562   0.2616
  0.2645   0.2687   0.2724   0.2802   0.2838   0.2893   0.2897   0.2960
  0.3000   0.3056   0.3063   0.3119   0.3168   0.3274   0.3294   0.3333
  0.3343   0.3403   0.3482   0.3501   0.3539   0.3559   0.3621   0.3657
  0.3700   0.3724   0.3770   0.3781   0.3807   0.3844   0.3882   0.3990
  0.4020   0.4062   0.4091   0.4151   0.4178   0.4249   0.4273   0.4305
  0.4351   0.4421   0.4460   0.4552   0.4594   0.4708   0.4732   0.4749
  0.4883   0.4980   0.5046   0.5170   0.5274   0.5377   0.5416   0.5507
  0.5645   0.5690   0.5888   0.6071   0.6109   0.6153   0.6336   0.6372
  0.6411   0.6546   0.6583   0.6648   0.6789   0.6906   0.6988   0.7041
  0.7168   0.7218   0.7341   0.7438   0.7504   0.7589   0.7650   0.7727
  0.7887   0.7957   0.8071   0.8104   0.8268   0.8302   0.8427   0.8591
  0.8728   0.8905   0.9169   0.9212   0.9269   0.9479   0.9517   0.9600
  0.9687   0.9917   0.9957   1.0061   1.0367   1.0393   1.0522   1.0612
  1.0702   1.0831   1.0857   1.0915   1.1084   1.1145   1.1215   1.1330
  1.1487   1.1536   1.1617   1.1674   1.1837   1.1875   1.1902   1.2011
  1.2072   1.2141   1.2181   1.2269   1.2323   1.2381   1.2418   1.2507
  1.2689   1.2735   1.2845   1.2862   1.2907   1.2915   1.3013   1.3084
  1.3167   1.3371   1.3437   1.3479   1.3573   1.3616   1.3647   1.3787
  1.3863   1.3902   1.3997   1.4105   1.4148   1.4260   1.4345   1.4405
  1.4580   1.4800   1.4893   1.4930   1.4964   1.5036   1.5135   1.5219
  1.5250   1.5397   1.5454   1.5642   1.5687   1.5754   1.5899   1.5998
  1.6120   1.6168   1.6268   1.6430   1.6463   1.6612   1.6669   1.6957
  1.7035   1.7185   1.7260   1.7284   1.7462   1.7622   1.7635   1.7769
  1.7934   1.8047   1.8199   1.8286   1.8398   1.8551   1.8637   1.8859
  1.9100   1.9154   1.9256   1.9563   1.9651   1.9869   2.0007   2.0076
  2.0337   2.0440   2.0469   2.0703   2.0824   2.0969   2.1007   2.1565
  2.1811   2.1942   2.2055   2.2268   2.2438   2.2669   2.2778   2.2931
  2.3098   2.3266   2.3622   2.3680   2.3761   2.3899   2.3968   2.4124
  2.4212   2.4247   2.4427   2.4532   2.4631   2.4796   2.4962   2.5116
  2.5329   2.5569   2.5651   2.6075   2.6162   2.6522   2.6676   2.6856
  2.7381   2.7652   2.7853   2.7998   2.8144   2.8296   2.8433   2.8670
  2.8872   2.9072   2.9160   2.9503   2.9740   2.9823   3.0182   3.0464
  3.0778   3.0972   3.1177   3.1371   3.1656   3.1769   3.1977   3.2335
  3.2635   3.2694   3.2851   3.3156   3.3331   3.3364   3.3672   3.4052
  3.4094   3.4328   3.4537   3.4671   3.4943   3.4999   3.5103   3.5327
  3.5532   3.5663   3.6004   3.6056   3.6205   3.6379   3.6592   3.6706
  3.6978   3.7062   3.7177   3.7424   3.7562   3.7725   3.7753   3.7987
  3.8044   3.8224   3.8295   3.8387   3.8587   3.8682   3.8725   3.8809
  3.8934   3.9073   3.9176   3.9230   3.9273   3.9447   3.9620   3.9676
  3.9820   4.0099   4.0143   4.0379   4.0455   4.0657   4.0842   4.1243
  4.1291   4.1458   4.1729   4.1775   4.1842   4.2031   4.2334   4.2341
  4.2553   4.2689   4.2834   4.2891   4.2963   4.3179   4.3447   4.3510
  4.3597   4.3714   4.3882   4.3915   4.4179   4.4294   4.4518   4.4764
  4.4851   4.5110   4.5145   4.5519   4.5788   4.5946   4.6137   4.6421
  4.6628   4.6848   4.7042   4.7221   4.7540   4.7780   4.8046   4.8267
  4.8701   4.9153   4.9349   4.9641   5.0179   5.0282   5.0902   5.1221
  5.1329   5.1627   5.1799   5.1860   5.2119   5.2260   5.2349   5.2430
  5.2580   5.2714   5.2856   5.2896   5.2960   5.2996   5.3093   5.3183
  5.3243   5.3317   5.3392   5.3466   5.3583   5.3643   5.3716   5.3773
  5.3825   5.3880   5.4022   5.4057   5.4188   5.4325   5.4375   5.4495
  5.4524   5.4663   5.4829   5.4890   5.5024   5.5077   5.5305   5.5422
  5.5535   5.5628   5.5694   5.5745   5.5882   5.5934   5.6020   5.6111
  5.6240   5.6302   5.6415   5.6546   5.6681   5.6852   5.7007   5.7136
  5.7170   5.7303   5.7555   5.7670   5.7902   5.7965   5.8187   5.8243
  5.8328   5.8603   5.8934   5.9320   5.9926   6.0010   6.0290   6.0511
  6.0670   6.0859   6.1434   6.1693   6.2393   6.2567   6.4050   6.5057
  6.5548   6.5716   6.6052   6.6862   6.7372   6.7562   6.8328   6.9731
  6.9928   7.0115   7.0130   7.0477   7.0625   7.0675   7.0750   7.1059
  7.1089   7.1239   7.1412   7.1434   7.1583   7.1836   7.1971   7.2213
  7.2243   7.2395   7.2508   7.2636   7.2811   7.2907   7.3094   7.3332
  7.3396   7.3622   7.3778   7.3960   7.4300   7.4491   7.4591   7.4777
  7.4880   7.4914   7.5161   7.5243   7.5432   7.5657   7.5846   7.6051
  7.6247   7.6377   7.6525   7.6751   7.6870   7.7360   7.7884   7.8029
  7.8547   7.8596   7.8846   7.9127   7.9382   7.9793   8.0026   8.1050
  8.1649   8.2418  24.6329  24.7788  24.8001  24.8133  24.8578  50.4632
 50.5275  50.5466  50.6007  50.6202  50.6304  50.6351  50.6520  50.6810
 50.8029
 --------------------------------------------------------------
 
          Ground-State Mulliken Net Atomic Charges

     Atom                 Charge (a.u.)    Spin (a.u.)
  --------------------------------------------------------
      1 C                    -0.210922       0.003254
      2 O                    -0.445004      -0.000236
      3 C                     0.542220       0.012444
      4 O                    -0.724767      -0.003397
      5 C                    -1.355742      -0.004441
      6 C                     0.513200       0.012901
      7 O                    -0.139337       0.002532
      8 O                    -0.407568       0.000117
      9 C                    -0.375207      -0.003994
     10 O                    -0.447050       0.000075
     11 O                    -0.444370      -0.000144
     12 H                     0.280378      -0.000929
     13 H                     0.355758       0.000303
     14 H                     0.312296      -0.000822
     15 H                     0.306565       0.000747
     16 H                     0.298016      -0.002465
     17 H                     0.374453      -0.000126
     18 H                     0.258331      -0.000049
     19 H                     0.352863      -0.000080
     20 H                     0.338098       0.000019
     21 O                    -0.447396       0.001987
     22 H                     0.341484      -0.000498
     23 O                    -0.004784       0.339715
     24 O                    -0.253930       0.643336
     25 O                    -0.693154      -0.000001
     26 H                     0.335151      -0.000223
     27 H                     0.340420      -0.000025
  --------------------------------------------------------
  Sum of atomic charges =    -1.000000
  Sum of spin   charges =     1.000000

 -----------------------------------------------------------------
                    Cartesian Multipole Moments
 -----------------------------------------------------------------
    Charge (ESU x 10^10)
                -4.8032
    Dipole Moment (Debye)
         X     -14.0089      Y       0.6756      Z     -10.1029
       Tot      17.2851
    Quadrupole Moments (Debye-Ang)
        XX    -158.6345     XY       8.1879     YY    -106.8541
        XZ     -29.0054     YZ      -9.2713     ZZ    -103.0233
    Octopole Moments (Debye-Ang^2)
       XXX   -1326.9529    XXY     -29.2764    XYY    -377.4864
       YYY     -97.8459    XXZ    -164.5086    XYZ     -38.7958
       YYZ     -82.4113    XZZ    -371.5329    YZZ     -73.3918
       ZZZ    -197.3440
    Hexadecapole Moments (Debye-Ang^3)
      XXXX  -10329.2851   XXXY    -892.6583   XXYY   -2058.2181
      XYYY    -743.7530   YYYY   -1941.6362   XXXZ   -1149.1978
      XXYZ    -326.8454   XYYZ    -375.0720   YYYZ    -465.8421
      XXZZ   -1705.0557   XYZZ    -332.0151   YYZZ    -535.6360
      XZZZ    -777.2967   YZZZ    -350.7764   ZZZZ    -982.5018
 -----------------------------------------------------------------
 Calculating analytic gradient of the SCF energy
 Gradient of CDS energy
            1           2           3           4           5           6
    1  -0.0020341   0.0002857  -0.0010232   0.0011340  -0.0000785  -0.0000377
    2  -0.0036710  -0.0001340  -0.0002600   0.0002384   0.0000494   0.0000287
    3   0.0012639   0.0003140   0.0017060  -0.0017012   0.0000009   0.0000292
            7           8           9          10          11          12
    1  -0.0001017   0.0001468   0.0006130   0.0010220  -0.0014270   0.0002243
    2  -0.0000276   0.0001303   0.0013619  -0.0007236  -0.0007715   0.0000330
    3  -0.0000794  -0.0001257   0.0011490   0.0000892  -0.0014012   0.0000174
           13          14          15          16          17          18
    1  -0.0003512  -0.0000639   0.0000973   0.0001091  -0.0000864   0.0000774
    2   0.0001066   0.0000196  -0.0000601  -0.0001576  -0.0001051  -0.0000471
    3  -0.0003713   0.0000900  -0.0001318   0.0000407   0.0002686  -0.0001516
           19          20          21          22          23          24
    1  -0.0002829   0.0001908   0.0021211  -0.0001922   0.0000409   0.0000008
    2   0.0004303   0.0001109   0.0035478  -0.0003110   0.0000560  -0.0000179
    3  -0.0000535   0.0004384  -0.0016080   0.0002184  -0.0000229   0.0000215
           25          26          27
    1   0.0001051  -0.0001478  -0.0003415
    2   0.0001862  -0.0000622   0.0000496
    3   0.0000474   0.0002403  -0.0002883
 Gradient of SCF Energy
            1           2           3           4           5           6
    1   0.0137674  -0.0093519   0.0209715   0.0014559  -0.0401197   0.0485954
    2  -0.0067249   0.0096789  -0.0449734   0.0023735   0.0643322  -0.0122218
    3  -0.0225874  -0.0009009   0.0295955   0.0032980  -0.0321162   0.0123499
            7           8           9          10          11          12
    1   0.0054359  -0.0259195   0.0085577  -0.0190090   0.0080240  -0.0207073
    2  -0.0144483  -0.0095423   0.0004102  -0.0038058  -0.0001795   0.0091651
    3  -0.0014295  -0.0124403  -0.0284106   0.0056730   0.0156097   0.0128599
           13          14          15          16          17          18
    1   0.0041809   0.0232622  -0.0067563  -0.0230564   0.0089202  -0.0070340
    2  -0.0017959  -0.0202758   0.0015372   0.0122399   0.0142196  -0.0027228
    3   0.0011337  -0.0067495   0.0211599   0.0060523   0.0045370   0.0139449
           19          20          21          22          23          24
    1   0.0083467  -0.0007480  -0.0027838   0.0045839  -0.0035075  -0.0036691
    2  -0.0019254   0.0039755  -0.0082593   0.0023834   0.0061114   0.0003621
    3  -0.0025558  -0.0158433   0.0194381  -0.0227115   0.0038486  -0.0016113
           25          26          27
    1   0.0152805  -0.0103137   0.0015939
    2  -0.0100244   0.0078650   0.0022457
    3  -0.0008508  -0.0183646   0.0170713
 Max gradient component =       6.433E-02
 RMS gradient           =       1.667E-02
 Computing fast CPCM-SWIG gradient
 Updating gradient with PCM contributions...
 -- total gradient after adding PCM contribution --
---------------------------------------------------
  Atom         X              Y              Z     
---------------------------------------------------
   1      -0.004203      -0.001311       0.003727
   2       0.002748       0.007758       0.004579
   3       0.000458       0.000441      -0.002123
   4      -0.002873      -0.002429       0.002083
   5       0.000703      -0.001327       0.001141
   6      -0.002005       0.002082      -0.000403
   7       0.004266      -0.002599       0.000938
   8      -0.003038       0.007119       0.001484
   9      -0.000857       0.003233       0.004578
  10      -0.004794      -0.009267       0.002069
  11       0.005217       0.003735      -0.006330
  12       0.002247      -0.001052      -0.002184
  13      -0.002949      -0.004721      -0.004350
  14      -0.003254       0.001658       0.000555
  15       0.001022       0.000310      -0.003184
  16       0.002612      -0.001602      -0.000530
  17      -0.000004      -0.003848      -0.001383
  18       0.002008       0.000517      -0.002633
  19       0.002784       0.006252      -0.001422
  20      -0.003988      -0.004200       0.004334
  21       0.001528      -0.004488      -0.006295
  22      -0.000145       0.004331       0.005227
  23      -0.004431      -0.001106       0.008087
  24       0.004283       0.001469      -0.006980
  25      -0.004102       0.005937       0.003417
  26       0.003888      -0.003327       0.000051
  27       0.002880      -0.003566      -0.004453
---------------------------------------------------
 Number of fixed atoms: 0
 Gradient time:  CPU 992.46 s  wall 87.51 s
 Geometry Optimization Parameters
   NAtoms,    NIC,     NZ,  NCons,   NDum,   NFix, NCnnct, MaxDiis
       27     190       0       0       0       0       0       0


** GEOMETRY OPTIMIZATION IN DELOCALIZED INTERNAL COORDINATES **
   Searching for a Minimum

   Optimization Cycle:   1

                       Coordinates (Angstroms)
     ATOM                X               Y               Z
      1  C         2.6325275868   -1.3057115060   -0.8933791283
      2  O         1.7348791584   -0.3981730532   -1.5163987406
      3  C         3.3035170515   -0.5576656417    0.2896529233
      4  O         2.6090963793   -0.7234886613    1.4163796668
      5  C         3.7031259088    0.8779797296   -0.0617128831
      6  C         4.7885927251    1.4769729136    0.8267323609
      7  O         4.6360392230    1.1868612274    2.2221587838
      8  O         3.2800663109    1.4621440158    2.6290321198
      9  C         4.9781611198    2.9809517756    0.6153624650
     10  O         3.7315527135    3.6316777875    0.7384856193
     11  O         5.9143535477    3.4749506520    1.5460696497
     12  H         3.3683862005   -1.6492772352   -1.6258233365
     13  H         1.2941248188   -0.8912761737   -2.2287636132
     14  H         2.7869749342    1.4701902615    0.0002981639
     15  H         4.0585395922    0.9354045354   -1.0957990618
     16  H         5.7552883777    1.0108911084    0.6073349706
     17  H         2.8626608337    0.6012230822    2.3045771405
     18  H         5.4093257475    3.1630059165   -0.3755018819
     19  H         3.8837787663    4.5643743826    0.5128167842
     20  H         5.6655127741    3.0690610506    2.3977846112
     21  O         1.9648896197   -2.4223641082   -0.3758762527
     22  H         1.7703729999   -2.1364707309    0.5494147476
     23  O         4.6112318013   -1.3525077190    0.5235221137
     24  O         5.4497047754   -1.2708477722   -0.4793031376
     25  O         0.3106131409    0.6738140294    0.7005858788
     26  H         1.0456944574    0.2001923968    1.1484813358
     27  H         0.4967665359    0.4066385365   -0.2190306992
   Point Group: c1    Number of degrees of freedom:    75


   Energy is   -950.025491967


 Attempting to generate delocalized internal coordinates
 Initial Hessian constructed with Jon Baker's OPTIMIZE code

 75 Hessian modes will be used to form the next step
  Hessian Eigenvalues:
     0.002000    0.003522    0.004413    0.005067    0.005138    0.005840
     0.007220    0.009000    0.011226    0.014110    0.014388    0.015624
     0.018173    0.033681    0.035100    0.038185    0.046550    0.047954
     0.049397    0.051041    0.054028    0.058144    0.060627    0.060926
     0.066129    0.070993    0.076909    0.077998    0.087408    0.089971
     0.093376    0.114458    0.124736    0.126159    0.155772    0.159160
     0.160000    0.160000    0.160000    0.160000    0.166673    0.170351
     0.177324    0.185612    0.186490    0.206202    0.207309    0.219742
     0.250000    0.250000    0.268132    0.278140    0.293234    0.293732
     0.298671    0.341467    0.341977    0.342450    0.343979    0.345078
     0.392829    0.405038    0.410705    0.437497    0.440808    0.455932
     0.459242    0.496326    0.499005    0.504574    0.522193    0.529605
     0.530497    0.571208    0.645647

 Minimum search - taking simple RFO step
 Searching for Lamda that Minimizes Along All modes
 Value Taken    Lamda =  -0.00262494
 Step Taken.  Stepsize is  0.262407

                             Maximum     Tolerance    Cnvgd?
         Gradient           0.007253      0.000300      NO
         Displacement       0.089534      0.001200      NO
         Energy change     *********      0.000001      NO


 New Cartesian Coordinates Obtained by Inverse Iteration

 Displacement from previous Coordinates is:  0.522984
 ----------------------------------------------------------------
             Standard Nuclear Orientation (Angstroms)
    I     Atom           X                Y                Z
 ----------------------------------------------------------------
    1      C       2.6312709684    -1.2824552756    -0.8920035525
    2      O       1.7064718894    -0.3886569045    -1.4927158424
    3      C       3.3103242434    -0.5394646662     0.2902791883
    4      O       2.6262791659    -0.6893165980     1.4232695588
    5      C       3.7243496269     0.8869108595    -0.0640961528
    6      C       4.7873379746     1.4841108452     0.8450017501
    7      O       4.6078212334     1.1884990796     2.2350589460
    8      O       3.2347667007     1.3713355166     2.6193105310
    9      C       4.9941140856     2.9828633523     0.6166836383
   10      O       3.7620513316     3.6658903670     0.6975413931
   11      O       5.9178545109     3.4932170503     1.5522086098
   12      H       3.3593377133    -1.6018484588    -1.6355458648
   13      H       1.2774017680    -0.8626535960    -2.2157431951
   14      H       2.8166759334     1.4840537003    -0.0279165608
   15      H       4.1012088942     0.9335816155    -1.0856204366
   16      H       5.7536513198     1.0185859899     0.6474109684
   17      H       2.8433769612     0.5488885416     2.1921504619
   18      H       5.4402639283     3.1387512163    -0.3664627490
   19      H       3.9204299225     4.5834890998     0.4446773897
   20      H       5.6772805590     3.1306545058     2.4181807968
   21      O       1.9847360382    -2.4191588370    -0.3886374050
   22      H       1.7880684292    -2.1854965106     0.5439074123
   23      O       4.6091630056    -1.3495324263     0.5229777152
   24      O       5.4451304015    -1.3090517479    -0.4757460703
   25      O       0.2614920829     0.6266178898     0.7458103104
   26      H       1.0200617429     0.1884084921     1.1820279838
   27      H       0.4448566695     0.3803276994    -0.1749082246
 ----------------------------------------------------------------
 Nuclear Repulsion Energy =        1230.91978915 hartrees
 There are       62 alpha and       61 beta electrons
 Discretize the solute cavity surface with Lebedev spheres
	Using 110 Lebedev grid points for each H atom
	Using 194 Lebedev grid points for other atoms
	Atomic van der Waals radii will be scaled by 1.20
 Remove points where switching function is < 1.0e-08
 Keep 2056 surface tesserae and discard 2174 interior tesserae
 Molecular Surface Area = 221.662 Angst**2
 Applying Cartesian multipole field
    Component          Value
    ---------          -----
     (2,0,0)        1.00000E-12
     (0,2,0)        2.00000E-11
     (0,0,2)       -3.00000E-11
 Nucleus-field energy     =     0.0000000177 hartrees
 Requested basis set is 6-311++G(2df,2p)
 There are 192 shells and 630 basis functions
 A cutoff of  1.0D-12 yielded  15057 shell pairs
 There are    157897 function pairs (    194923 Cartesian)
 Smallest overlap matrix eigenvalue = 1.86E-06
 Guess MOs from SCF MO coefficient file

 -----------------------------------------------------------------------
  General SCF calculation program by
  Eric Jon Sundstrom, Paul Horn, Yuezhi Mao, Dmitri Zuev, Alec White,
  David Stuck, Shaama M.S., Shane Yost, Joonho Lee, David Small,
  Daniel Levine, Susi Lehtola, Hugh Burton, Evgeny Epifanovsky,
  Bang C. Huynh
 -----------------------------------------------------------------------
 Exchange:     0.1500 Hartree-Fock + 1.0000 wB97M-V + LR-HF
 Correlation:  1.0000 wB97M-V
 Using SG-2 standard quadrature grid
 Nonlocal Correlation:  VV10 with C = 0.0100 and b = 6.00 and scale = 1.00000
 Grid used for NLC:  SG-1 standard quadrature
 
 Citation of the SMD model:
 Marenich, A.V.; Cramer, C.J.; Truhlar, D.G.
 J. Phys. Chem. B 2009, 113, 6378-6396.
 iSolventCode=           1
 Solvent: water                                                           
 
 vradii
            1           2           3           4           5           6
    1   1.8500000   1.5200000   1.8500000   1.5200000   1.8500000   1.8500000
            7           8           9          10          11          12
    1   1.5200000   1.5200000   1.8500000   1.5200000   1.5200000   1.2000000
           13          14          15          16          17          18
    1   1.2000000   1.2000000   1.2000000   1.2000000   1.2000000   1.2000000
           19          20          21          22          23          24
    1   1.2000000   1.2000000   1.5200000   1.2000000   1.5200000   1.5200000
           25          26          27
    1   1.5200000   1.2000000   1.2000000
 -------------------------------------------------------
 OpenMP BLAS3 based DFT computing Module                
 Release: version 1.0, May 2013, Q-Chem Inc. Pittsburgh 
 -------------------------------------------------------
 A unrestricted SCF calculation will be
 performed using Roothaan-Hall, DIIS, GDM
 SCF converges when RMS gradient is below 1.0e-07
 ---------------------------------------
  Cycle       Energy         DIIS error
 ---------------------------------------
    1    -949.8917547241      2.63e-04  Roothaan Step
 ---------------------------------------
  Cycle       Energy         DIIS error
 ---------------------------------------
    1    -950.0163902921      2.12e-04  
    2    -950.0268874950      1.69e-04  Done DIIS. Switching to GDM
 ---------------------------------------
  Cycle       Energy        RMS Gradient
 ---------------------------------------
    1    -950.0268874950      1.50e-02   Normal BFGS step
    2    -950.0264557610      2.47e-02  Line search: overstep
    3    -950.0306252250      4.25e-03   Normal BFGS step
    4    -950.0309580585      2.26e-03   Normal BFGS step
    5    -950.0310421664      1.53e-03   Normal BFGS step
    6    -950.0310629895      1.86e-04   Normal BFGS step
    7    -950.0310644891      1.75e-04   Normal BFGS step
    8    -950.0310650688      1.24e-04   Normal BFGS step
    9    -950.0310651530      7.80e-05   Normal BFGS step
   10    -950.0310651951      2.90e-05   Normal BFGS step
   11    -950.0310652027      1.62e-05   Normal BFGS step
   12    -950.0310652048      1.47e-05   Normal BFGS step
   13    -950.0310652055      1.23e-05   Normal BFGS step
   14    -950.0310652059      9.00e-06   Normal BFGS step
   15    -950.0310652063      5.42e-06   Normal BFGS step
   16    -950.0310652065      2.74e-06   Normal BFGS step
   17    -950.0310652067      2.06e-06   Normal BFGS step
   18    -950.0310652067      9.31e-07   Normal BFGS step
   19    -950.0310652067      3.04e-07   Normal BFGS step
   20    -950.0310652067      1.78e-07   Normal BFGS step
   21    -950.0310652065      7.58e-08  Convergence criterion met
 ---------------------------------------
 SCF time:   CPU 8106.74s  wall 572.00s 
<S^2> =          0.754226310
(3)  G-ENP(liq) elect-nuc-pol free energy of system     -950.031065207 a.u.
(4)  G-CDS(liq) cavity-dispersion-solvent structure 
     free energy                                                3.5502 kcal/mol
(6)  G-S(liq) free energy of system                     -950.025407673 a.u.
 SCF   energy in the final basis set =     -950.0254076733
 Total energy in the final basis set =     -950.0254076733
 
 --------------------------------------------------------------
 
                    Orbital Energies (a.u.)
 --------------------------------------------------------------
 
 Alpha MOs
 -- Occupied --
-19.4422 -19.4046 -19.3913 -19.3582 -19.3454 -19.3417 -19.3412 -19.3385
-19.3114 -19.2867 -10.4494 -10.4417 -10.4402 -10.3989 -10.3401  -1.3243
 -1.2486  -1.2023  -1.1962  -1.1369  -1.1307  -1.1251  -1.1125  -1.0282
 -0.9680  -0.9006  -0.8405  -0.7943  -0.7274  -0.6925  -0.6823  -0.6731
 -0.6441  -0.6294  -0.6179  -0.6076  -0.6023  -0.5888  -0.5823  -0.5739
 -0.5678  -0.5538  -0.5438  -0.5338  -0.5311  -0.5091  -0.4976  -0.4801
 -0.4581  -0.4544  -0.4478  -0.4309  -0.4192  -0.4156  -0.4127  -0.4118
 -0.4067  -0.4017  -0.3862  -0.3662  -0.3595  -0.3550
 -- Virtual --
  0.0273   0.0367   0.0425   0.0460   0.0564   0.0622   0.0662   0.0710
  0.0804   0.0869   0.0960   0.1021   0.1097   0.1136   0.1249   0.1361
  0.1392   0.1419   0.1489   0.1503   0.1543   0.1594   0.1646   0.1693
  0.1780   0.1791   0.1859   0.1868   0.1949   0.1998   0.2034   0.2114
  0.2225   0.2241   0.2391   0.2413   0.2480   0.2569   0.2601   0.2637
  0.2676   0.2716   0.2782   0.2831   0.2884   0.2892   0.2922   0.2991
  0.3046   0.3066   0.3122   0.3176   0.3255   0.3287   0.3328   0.3346
  0.3384   0.3487   0.3507   0.3530   0.3555   0.3624   0.3646   0.3693
  0.3703   0.3777   0.3792   0.3840   0.3856   0.3878   0.3973   0.4007
  0.4075   0.4091   0.4146   0.4179   0.4236   0.4281   0.4348   0.4380
  0.4419   0.4443   0.4561   0.4603   0.4689   0.4719   0.4762   0.4854
  0.4979   0.5021   0.5177   0.5251   0.5342   0.5402   0.5537   0.5651
  0.5686   0.5935   0.6094   0.6126   0.6158   0.6341   0.6350   0.6484
  0.6569   0.6601   0.6666   0.6781   0.6923   0.6998   0.7036   0.7153
  0.7219   0.7378   0.7427   0.7503   0.7546   0.7619   0.7741   0.7902
  0.7929   0.8058   0.8096   0.8246   0.8320   0.8418   0.8597   0.8714
  0.8866   0.9099   0.9198   0.9246   0.9443   0.9527   0.9611   0.9710
  0.9895   0.9916   1.0114   1.0329   1.0421   1.0554   1.0605   1.0696
  1.0794   1.0812   1.0952   1.1088   1.1163   1.1226   1.1319   1.1455
  1.1529   1.1607   1.1638   1.1795   1.1817   1.1871   1.1988   1.2029
  1.2053   1.2153   1.2219   1.2286   1.2321   1.2397   1.2487   1.2692
  1.2715   1.2786   1.2816   1.2828   1.2905   1.2965   1.3166   1.3196
  1.3285   1.3376   1.3457   1.3474   1.3599   1.3655   1.3759   1.3790
  1.3855   1.3962   1.4101   1.4139   1.4206   1.4280   1.4481   1.4533
  1.4769   1.4860   1.4896   1.4952   1.5044   1.5151   1.5227   1.5365
  1.5406   1.5485   1.5627   1.5724   1.5777   1.5920   1.6020   1.6102
  1.6257   1.6286   1.6406   1.6513   1.6580   1.6679   1.6917   1.7034
  1.7198   1.7242   1.7281   1.7368   1.7544   1.7608   1.7779   1.7911
  1.7972   1.8131   1.8292   1.8311   1.8517   1.8599   1.8820   1.9017
  1.9177   1.9284   1.9541   1.9620   1.9875   1.9984   2.0178   2.0297
  2.0375   2.0446   2.0702   2.0950   2.0978   2.1175   2.1692   2.1844
  2.1861   2.2125   2.2241   2.2493   2.2624   2.2763   2.2898   2.3106
  2.3324   2.3597   2.3680   2.3781   2.3865   2.3994   2.4062   2.4263
  2.4310   2.4448   2.4530   2.4581   2.4782   2.4904   2.5091   2.5218
  2.5489   2.5807   2.6083   2.6163   2.6592   2.6743   2.7133   2.7429
  2.7630   2.7807   2.8006   2.8075   2.8249   2.8458   2.8632   2.8860
  2.9029   2.9138   2.9561   2.9717   2.9939   3.0171   3.0428   3.0760
  3.0968   3.1200   3.1439   3.1620   3.1714   3.2174   3.2385   3.2608
  3.2741   3.2865   3.3092   3.3291   3.3364   3.3662   3.4059   3.4134
  3.4295   3.4542   3.4702   3.4918   3.5056   3.5083   3.5391   3.5575
  3.5753   3.5956   3.6058   3.6288   3.6454   3.6623   3.6671   3.6944
  3.7033   3.7199   3.7358   3.7566   3.7691   3.7716   3.7950   3.8013
  3.8177   3.8286   3.8379   3.8585   3.8685   3.8733   3.8835   3.8912
  3.9034   3.9172   3.9203   3.9238   3.9450   3.9655   3.9699   3.9810
  4.0061   4.0205   4.0389   4.0489   4.0685   4.0905   4.1221   4.1324
  4.1564   4.1717   4.1818   4.1821   4.2033   4.2341   4.2418   4.2585
  4.2741   4.2886   4.2923   4.2994   4.3257   4.3509   4.3647   4.3682
  4.3756   4.3820   4.4032   4.4227   4.4336   4.4552   4.4835   4.4899
  4.5136   4.5168   4.5783   4.5836   4.6041   4.6122   4.6425   4.6476
  4.6819   4.7099   4.7275   4.7633   4.7722   4.7929   4.8382   4.8515
  4.9201   4.9360   4.9745   5.0153   5.0250   5.0901   5.1055   5.1212
  5.1284   5.1350   5.1721   5.1821   5.2114   5.2155   5.2288   5.2459
  5.2616   5.2669   5.2801   5.2827   5.2937   5.3071   5.3086   5.3118
  5.3239   5.3311   5.3417   5.3446   5.3575   5.3654   5.3670   5.3729
  5.3798   5.3883   5.4016   5.4181   5.4280   5.4349   5.4439   5.4527
  5.4575   5.4796   5.4944   5.5033   5.5251   5.5409   5.5503   5.5582
  5.5633   5.5714   5.5843   5.5957   5.6009   5.6102   5.6305   5.6348
  5.6427   5.6500   5.6581   5.6736   5.6882   5.7062   5.7106   5.7213
  5.7357   5.7511   5.7582   5.7961   5.7990   5.8112   5.8264   5.8372
  5.8737   5.8976   5.9486   6.0059   6.0143   6.0385   6.0693   6.0816
  6.1203   6.1412   6.1657   6.2615   6.2687   6.3947   6.4871   6.5562
  6.5740   6.6177   6.6890   6.7386   6.7570   6.8575   6.9026   6.9354
  6.9758   7.0058   7.0259   7.0611   7.0745   7.0822   7.0914   7.1024
  7.1253   7.1322   7.1401   7.1520   7.1824   7.2106   7.2154   7.2378
  7.2529   7.2635   7.2743   7.2868   7.3104   7.3263   7.3382   7.3464
  7.3596   7.3817   7.3959   7.4345   7.4424   7.4507   7.4682   7.4814
  7.5014   7.5079   7.5268   7.5449   7.5628   7.5879   7.6223   7.6367
  7.6519   7.6685   7.6840   7.6931   7.7629   7.7880   7.8138   7.8517
  7.8662   7.9080   7.9272   7.9397   7.9993   8.0126   8.0986   8.1601
  8.2419  24.6451  24.7944  24.8091  24.8194  24.8686  50.4558  50.5302
 50.5560  50.6015  50.6231  50.6272  50.6379  50.6489  50.6792  50.8199
 
 Beta MOs
 -- Occupied --
-19.4311 -19.3912 -19.3866 -19.3582 -19.3454 -19.3417 -19.3412 -19.3384
-19.3114 -19.2869 -10.4497 -10.4417 -10.4400 -10.3989 -10.3399  -1.2975
 -1.2484  -1.2019  -1.1962  -1.1364  -1.1307  -1.1247  -1.1118  -1.0277
 -0.9358  -0.8977  -0.8374  -0.7934  -0.7268  -0.6858  -0.6814  -0.6702
 -0.6426  -0.6199  -0.6096  -0.6009  -0.5906  -0.5880  -0.5760  -0.5714
 -0.5606  -0.5432  -0.5336  -0.5310  -0.5148  -0.5031  -0.4921  -0.4778
 -0.4537  -0.4528  -0.4458  -0.4307  -0.4168  -0.4148  -0.4109  -0.4086
 -0.4060  -0.3973  -0.3686  -0.3558  -0.3495
 -- Virtual --
 -0.0207   0.0273   0.0369   0.0427   0.0462   0.0567   0.0627   0.0663
  0.0712   0.0804   0.0871   0.0965   0.1024   0.1101   0.1137   0.1257
  0.1366   0.1396   0.1422   0.1491   0.1505   0.1547   0.1610   0.1651
  0.1696   0.1788   0.1797   0.1863   0.1888   0.1960   0.2006   0.2037
  0.2119   0.2237   0.2246   0.2414   0.2435   0.2489   0.2580   0.2606
  0.2646   0.2686   0.2722   0.2813   0.2838   0.2888   0.2900   0.2938
  0.3009   0.3061   0.3074   0.3135   0.3180   0.3268   0.3299   0.3339
  0.3352   0.3392   0.3494   0.3516   0.3534   0.3563   0.3632   0.3661
  0.3702   0.3715   0.3778   0.3797   0.3844   0.3861   0.3880   0.3988
  0.4020   0.4083   0.4096   0.4148   0.4181   0.4238   0.4290   0.4352
  0.4382   0.4422   0.4455   0.4570   0.4612   0.4694   0.4728   0.4765
  0.4857   0.4986   0.5026   0.5184   0.5253   0.5346   0.5405   0.5543
  0.5653   0.5691   0.5940   0.6095   0.6127   0.6167   0.6345   0.6358
  0.6485   0.6574   0.6603   0.6668   0.6782   0.6924   0.7002   0.7036
  0.7154   0.7222   0.7379   0.7433   0.7507   0.7551   0.7622   0.7751
  0.7903   0.7935   0.8060   0.8101   0.8253   0.8322   0.8423   0.8608
  0.8717   0.8873   0.9101   0.9203   0.9250   0.9444   0.9529   0.9619
  0.9715   0.9897   0.9945   1.0118   1.0334   1.0428   1.0559   1.0608
  1.0703   1.0801   1.0818   1.0954   1.1104   1.1171   1.1231   1.1331
  1.1463   1.1538   1.1628   1.1644   1.1825   1.1867   1.1878   1.2000
  1.2054   1.2139   1.2166   1.2226   1.2327   1.2355   1.2408   1.2501
  1.2700   1.2738   1.2813   1.2832   1.2849   1.2932   1.3044   1.3200
  1.3235   1.3296   1.3389   1.3467   1.3486   1.3628   1.3678   1.3769
  1.3832   1.3876   1.3975   1.4109   1.4145   1.4231   1.4298   1.4488
  1.4555   1.4807   1.4882   1.4921   1.4966   1.5084   1.5153   1.5263
  1.5414   1.5421   1.5488   1.5650   1.5730   1.5785   1.5926   1.6024
  1.6106   1.6274   1.6305   1.6411   1.6528   1.6644   1.6703   1.6929
  1.7068   1.7221   1.7274   1.7335   1.7404   1.7595   1.7674   1.7823
  1.7934   1.7996   1.8228   1.8314   1.8334   1.8587   1.8616   1.8850
  1.9059   1.9185   1.9297   1.9554   1.9636   1.9889   2.0012   2.0187
  2.0305   2.0391   2.0458   2.0708   2.0975   2.1013   2.1206   2.1706
  2.1871   2.1876   2.2134   2.2284   2.2513   2.2677   2.2837   2.2942
  2.3168   2.3338   2.3625   2.3693   2.3801   2.3882   2.4004   2.4064
  2.4269   2.4315   2.4482   2.4540   2.4608   2.4786   2.4906   2.5118
  2.5224   2.5498   2.5808   2.6092   2.6169   2.6601   2.6752   2.7173
  2.7440   2.7656   2.7822   2.8009   2.8082   2.8254   2.8464   2.8638
  2.8867   2.9035   2.9142   2.9568   2.9720   2.9944   3.0176   3.0432
  3.0762   3.0970   3.1201   3.1442   3.1626   3.1716   3.2180   3.2387
  3.2616   3.2745   3.2872   3.3097   3.3293   3.3369   3.3669   3.4060
  3.4137   3.4300   3.4543   3.4704   3.4920   3.5060   3.5087   3.5393
  3.5580   3.5757   3.5958   3.6058   3.6293   3.6457   3.6624   3.6673
  3.6947   3.7034   3.7202   3.7363   3.7568   3.7692   3.7718   3.7953
  3.8015   3.8181   3.8295   3.8378   3.8585   3.8687   3.8738   3.8837
  3.8915   3.9037   3.9173   3.9207   3.9239   3.9450   3.9657   3.9701
  3.9812   4.0073   4.0206   4.0393   4.0490   4.0687   4.0908   4.1221
  4.1330   4.1568   4.1719   4.1821   4.1826   4.2035   4.2342   4.2421
  4.2587   4.2742   4.2890   4.2925   4.3001   4.3261   4.3512   4.3652
  4.3686   4.3758   4.3828   4.4034   4.4229   4.4338   4.4555   4.4839
  4.4903   4.5144   4.5185   4.5788   4.5844   4.6049   4.6183   4.6481
  4.6662   4.6835   4.7132   4.7284   4.7656   4.7774   4.8073   4.8388
  4.8700   4.9278   4.9388   4.9794   5.0278   5.0303   5.0905   5.1210
  5.1359   5.1610   5.1729   5.1832   5.2105   5.2233   5.2321   5.2456
  5.2524   5.2657   5.2851   5.2905   5.2967   5.2977   5.3086   5.3188
  5.3228   5.3283   5.3378   5.3444   5.3550   5.3598   5.3677   5.3723
  5.3809   5.3871   5.3934   5.4041   5.4188   5.4307   5.4398   5.4467
  5.4553   5.4682   5.4801   5.4958   5.5075   5.5336   5.5435   5.5536
  5.5598   5.5646   5.5747   5.5888   5.5977   5.6026   5.6119   5.6308
  5.6353   5.6436   5.6510   5.6601   5.6747   5.6893   5.7086   5.7108
  5.7249   5.7386   5.7540   5.7644   5.7984   5.8035   5.8161   5.8275
  5.8426   5.8744   5.9006   5.9491   6.0076   6.0156   6.0389   6.0706
  6.0840   6.1205   6.1412   6.1663   6.2618   6.2693   6.4046   6.5302
  6.5564   6.5783   6.6283   6.6894   6.7387   6.7579   6.8585   6.9761
  6.9953   7.0094   7.0259   7.0510   7.0626   7.0749   7.0845   7.0965
  7.1057   7.1270   7.1407   7.1468   7.1632   7.1926   7.2150   7.2319
  7.2421   7.2593   7.2665   7.2746   7.2872   7.3199   7.3273   7.3392
  7.3493   7.3696   7.3903   7.4032   7.4373   7.4477   7.4632   7.4781
  7.4946   7.5074   7.5213   7.5286   7.5481   7.5663   7.5914   7.6245
  7.6378   7.6527   7.6691   7.6848   7.6933   7.7636   7.7915   7.8144
  7.8538   7.8667   7.9082   7.9321   7.9405   7.9995   8.0147   8.1137
  8.1760   8.2429  24.6451  24.7944  24.8093  24.8194  24.8685  50.4675
 50.5302  50.5566  50.6044  50.6234  50.6294  50.6395  50.6495  50.6818
 50.8198
 --------------------------------------------------------------
 
          Ground-State Mulliken Net Atomic Charges

     Atom                 Charge (a.u.)    Spin (a.u.)
  --------------------------------------------------------
      1 C                    -0.224766       0.003914
      2 O                    -0.440729      -0.000252
      3 C                     0.560151       0.012157
      4 O                    -0.737178      -0.003339
      5 C                    -1.279625      -0.005437
      6 C                     0.440762       0.013080
      7 O                    -0.156129       0.002876
      8 O                    -0.449423      -0.000169
      9 C                    -0.379255      -0.004063
     10 O                    -0.447024       0.000033
     11 O                    -0.447770      -0.000128
     12 H                     0.286267      -0.000940
     13 H                     0.353821       0.000281
     14 H                     0.316167      -0.000895
     15 H                     0.306222       0.000950
     16 H                     0.295840      -0.002653
     17 H                     0.423800      -0.000078
     18 H                     0.263824      -0.000076
     19 H                     0.350842      -0.000073
     20 H                     0.340334       0.000022
     21 O                    -0.446240       0.002029
     22 H                     0.344218      -0.000569
     23 O                     0.002572       0.342080
     24 O                    -0.258406       0.641509
     25 O                    -0.693934      -0.000009
     26 H                     0.336329      -0.000240
     27 H                     0.339329      -0.000011
  --------------------------------------------------------
  Sum of atomic charges =    -1.000000
  Sum of spin   charges =     1.000000

 -----------------------------------------------------------------
                    Cartesian Multipole Moments
 -----------------------------------------------------------------
    Charge (ESU x 10^10)
                -4.8032
    Dipole Moment (Debye)
         X     -13.9494      Y       0.5134      Z     -10.6200
       Tot      17.5395
    Quadrupole Moments (Debye-Ang)
        XX    -158.0692     XY       8.2971     YY    -106.0887
        XZ     -30.0941     YZ      -9.9928     ZZ    -104.3367
    Octopole Moments (Debye-Ang^2)
       XXX   -1320.4412    XXY     -25.6359    XYY    -374.8888
       YYY     -98.9469    XXZ    -167.6109    XYZ     -39.7339
       YYZ     -81.4642    XZZ    -373.6492    YZZ     -73.0730
       ZZZ    -202.8871
    Hexadecapole Moments (Debye-Ang^3)
      XXXX  -10292.0111   XXXY    -868.0414   XXYY   -2046.9086
      XYYY    -740.4895   YYYY   -1938.4284   XXXZ   -1150.7579
      XXYZ    -322.8801   XYYZ    -368.3986   YYYZ    -467.6471
      XXZZ   -1707.6131   XYZZ    -327.0742   YYZZ    -530.5318
      XZZZ    -785.4830   YZZZ    -345.0789   ZZZZ    -993.2081
 -----------------------------------------------------------------
 Calculating analytic gradient of the SCF energy
 Gradient of CDS energy
            1           2           3           4           5           6
    1  -0.0018621   0.0003004  -0.0009768   0.0010877  -0.0000745  -0.0000401
    2  -0.0034923  -0.0001497  -0.0002299   0.0002072   0.0000475   0.0000307
    3   0.0011121   0.0003220   0.0016626  -0.0016542  -0.0000060   0.0000321
            7           8           9          10          11          12
    1  -0.0001026   0.0001438   0.0003385   0.0011342  -0.0012611   0.0002231
    2  -0.0000471   0.0001514   0.0013763  -0.0008115  -0.0007135   0.0000376
    3  -0.0000784  -0.0000960   0.0009903   0.0001064  -0.0012529   0.0000212
           13          14          15          16          17          18
    1  -0.0003532  -0.0000690   0.0001056   0.0001074  -0.0000714   0.0000660
    2   0.0001084   0.0000248  -0.0000622  -0.0001547  -0.0001121  -0.0000532
    3  -0.0003708   0.0000869  -0.0001251   0.0000398   0.0002268  -0.0001494
           19          20          21          22          23          24
    1  -0.0002757   0.0001811   0.0019380  -0.0001925   0.0000412   0.0000038
    2   0.0004333   0.0001242   0.0034009  -0.0003273   0.0000529  -0.0000150
    3  -0.0000740   0.0004462  -0.0014669   0.0002161  -0.0000276   0.0000217
           25          26          27
    1   0.0000873  -0.0001377  -0.0003415
    2   0.0001831  -0.0000567   0.0000470
    3   0.0000505   0.0002551  -0.0002886
 Gradient of SCF Energy
            1           2           3           4           5           6
    1   0.0161389  -0.0124473   0.0259462   0.0037230  -0.0411718   0.0476253
    2  -0.0092181   0.0046571  -0.0421189   0.0129400   0.0635363  -0.0110712
    3  -0.0245566  -0.0055996   0.0308337   0.0099421  -0.0379401   0.0163727
            7           8           9          10          11          12
    1   0.0051943  -0.0307748   0.0099709  -0.0147405   0.0044382  -0.0226078
    2  -0.0131543  -0.0291570  -0.0035783   0.0047374  -0.0016204   0.0098696
    3  -0.0015920  -0.0196319  -0.0337277   0.0035283   0.0221179   0.0146549
           13          14          15          16          17          18
    1   0.0062090   0.0261193  -0.0081607  -0.0259573   0.0112813  -0.0095221
    2   0.0018148  -0.0222993   0.0014077   0.0133638   0.0220744  -0.0024438
    3   0.0051505  -0.0057336   0.0232734   0.0058910   0.0036151   0.0161718
           19          20          21          22          23          24
    1   0.0061557   0.0029224  -0.0044274   0.0045897  -0.0008581  -0.0063521
    2  -0.0071265   0.0070032  -0.0059980   0.0000239   0.0068031  -0.0007171
    3  -0.0009292  -0.0195088   0.0214704  -0.0244168  -0.0005123   0.0026917
           25          26          27
    1   0.0186358  -0.0127553   0.0008251
    2  -0.0115475   0.0086155   0.0032037
    3  -0.0036412  -0.0187993   0.0208756
 Max gradient component =       6.354E-02
 RMS gradient           =       1.824E-02
 Computing fast CPCM-SWIG gradient
 Updating gradient with PCM contributions...
 -- total gradient after adding PCM contribution --
---------------------------------------------------
  Atom         X              Y              Z     
---------------------------------------------------
   1       0.000325      -0.002024       0.000627
   2      -0.001202       0.001825      -0.001091
   3       0.000355       0.002032       0.001835
   4       0.000810       0.005684       0.006807
   5       0.000269      -0.000067       0.000416
   6      -0.001121       0.000016      -0.002214
   7       0.002146      -0.000708       0.000237
   8      -0.006833      -0.016385      -0.004595
   9      -0.000041      -0.000103      -0.000229
  10       0.000247       0.000534      -0.001063
  11       0.000806       0.001269      -0.000605
  12       0.000002       0.000191      -0.000266
  13      -0.000793      -0.000519      -0.000026
  14       0.000454      -0.000315       0.000407
  15       0.000005       0.000282       0.000017
  16      -0.000184      -0.000137       0.000524
  17       0.002396       0.008223      -0.001259
  18      -0.000309       0.000320      -0.000142
  19       0.000243       0.000883       0.000046
  20      -0.000179      -0.000554       0.001331
  21      -0.000167      -0.001346      -0.004605
  22      -0.000001       0.001292       0.003956
  23      -0.001480       0.000403       0.002681
  24       0.001605      -0.000114      -0.002334
  25      -0.001936       0.002876       0.000480
  26       0.002705      -0.001621      -0.000284
  27       0.001877      -0.001937      -0.000651
---------------------------------------------------
 Number of fixed atoms: 0
 Gradient time:  CPU 989.63 s  wall 87.49 s
 Geometry Optimization Parameters
   NAtoms,    NIC,     NZ,  NCons,   NDum,   NFix, NCnnct, MaxDiis
       27     190       0       0       0       0       0       0

 Cartesian Hessian Update
 Hessian updated using BFGS update


** GEOMETRY OPTIMIZATION IN DELOCALIZED INTERNAL COORDINATES **
   Searching for a Minimum

   Optimization Cycle:   2

                       Coordinates (Angstroms)
     ATOM                X               Y               Z
      1  C         2.6312709684   -1.2824552756   -0.8920035525
      2  O         1.7064718894   -0.3886569045   -1.4927158424
      3  C         3.3103242434   -0.5394646662    0.2902791883
      4  O         2.6262791659   -0.6893165980    1.4232695588
      5  C         3.7243496269    0.8869108595   -0.0640961528
      6  C         4.7873379746    1.4841108452    0.8450017501
      7  O         4.6078212334    1.1884990796    2.2350589460
      8  O         3.2347667007    1.3713355166    2.6193105310
      9  C         4.9941140856    2.9828633523    0.6166836383
     10  O         3.7620513316    3.6658903670    0.6975413931
     11  O         5.9178545109    3.4932170503    1.5522086098
     12  H         3.3593377133   -1.6018484588   -1.6355458648
     13  H         1.2774017680   -0.8626535960   -2.2157431951
     14  H         2.8166759334    1.4840537003   -0.0279165608
     15  H         4.1012088942    0.9335816155   -1.0856204366
     16  H         5.7536513198    1.0185859899    0.6474109684
     17  H         2.8433769612    0.5488885416    2.1921504619
     18  H         5.4402639283    3.1387512163   -0.3664627490
     19  H         3.9204299225    4.5834890998    0.4446773897
     20  H         5.6772805590    3.1306545058    2.4181807968
     21  O         1.9847360382   -2.4191588370   -0.3886374050
     22  H         1.7880684292   -2.1854965106    0.5439074123
     23  O         4.6091630056   -1.3495324263    0.5229777152
     24  O         5.4451304015   -1.3090517479   -0.4757460703
     25  O         0.2614920829    0.6266178898    0.7458103104
     26  H         1.0200617429    0.1884084921    1.1820279838
     27  H         0.4448566695    0.3803276994   -0.1749082246
   Point Group: c1    Number of degrees of freedom:    75


   Energy is   -950.025407673

 Hessian updated using BFGS update

 73 Hessian modes will be used to form the next step
  Hessian Eigenvalues:
     0.002000    0.003884    0.004412    0.004893    0.005150    0.005824
     0.007253    0.008545    0.012735    0.014388    0.014520    0.015623
     0.021196    0.033345    0.033951    0.039413    0.044707    0.048280
     0.049350    0.051593    0.054070    0.058162    0.060436    0.061168
     0.066312    0.070859    0.076272    0.077915    0.087403    0.092423
     0.092827    0.099244    0.119726    0.125911    0.126924    0.155828
     0.159236    0.160021    0.166766    0.169872    0.182744    0.185271
     0.200460    0.205052    0.207743    0.236100    0.248161    0.268079
     0.278120    0.281785    0.293476    0.295410    0.322297    0.341667
     0.342208    0.343381    0.344612    0.387903    0.402381    0.410443
     0.431132    0.437573    0.441741    0.455693    0.467979    0.496985
     0.502300    0.510386    0.524924    0.530082    0.567447    0.631671
     0.767927

 Minimum search - taking simple RFO step
 Searching for Lamda that Minimizes Along All modes
 Value Taken    Lamda =  -0.00931836
 Calculated Step too Large.  Step scaled by  0.599143
 Step Taken.  Stepsize is  0.300000

                             Maximum     Tolerance    Cnvgd?
         Gradient           0.034857      0.000300      NO
         Displacement       0.119075      0.001200      NO
         Energy change      0.000084      0.000001      NO


 New Cartesian Coordinates Obtained by Inverse Iteration

 Displacement from previous Coordinates is:  1.097102
 ----------------------------------------------------------------
             Standard Nuclear Orientation (Angstroms)
    I     Atom           X                Y                Z
 ----------------------------------------------------------------
    1      C       2.6418099721    -1.2424736957    -0.9324166739
    2      O       1.6888076855    -0.3591869828    -1.4982964091
    3      C       3.2955004249    -0.5379167852     0.2865719167
    4      O       2.6024164984    -0.7208807446     1.4037632725
    5      C       3.7117512825     0.8926237882    -0.0241667102
    6      C       4.7704315552     1.4835391207     0.8878180936
    7      O       4.6018145269     1.2330867107     2.2873730790
    8      O       3.2668046171     1.4630049538     2.7414587959
    9      C       5.0236830821     2.9612282306     0.5915086121
   10      O       3.8328543160     3.7152064703     0.6305912008
   11      O       5.9685144387     3.5013001510     1.4901849426
   12      H       3.3799407684    -1.5020185046    -1.6764725023
   13      H       1.2980422925    -0.7814921792    -2.2579997023
   14      H       2.8170707742     1.4928238284     0.0004876682
   15      H       4.0990529918     0.9446007650    -1.0319725716
   16      H       5.7201144721     0.9992711111     0.6995510306
   17      H       2.8223922041     0.6140667040     2.4538198451
   18      H       5.4613424934     3.0447974688    -0.3946738761
   19      H       4.0065657920     4.5980010392     0.3165703513
   20      H       5.7682473768     3.2345207882     2.3874388278
   21      O       2.0165132875    -2.4231550877    -0.5036654368
   22      H       1.7847617445    -2.3008396684     0.4291478053
   23      O       4.5913981530    -1.3553841011     0.5124149637
   24      O       5.4525098687    -1.3073785168    -0.4479954802
   25      O       0.1474371103     0.4672424195     0.7684799743
   26      H       0.9267816169     0.0717400852     1.1932791737
   27      H       0.3492177547     0.2922234313    -0.1556995906
 ----------------------------------------------------------------
 Nuclear Repulsion Energy =        1221.00262694 hartrees
 There are       62 alpha and       61 beta electrons
 Discretize the solute cavity surface with Lebedev spheres
	Using 110 Lebedev grid points for each H atom
	Using 194 Lebedev grid points for other atoms
	Atomic van der Waals radii will be scaled by 1.20
 Remove points where switching function is < 1.0e-08
 Keep 2084 surface tesserae and discard 2146 interior tesserae
 Molecular Surface Area = 224.419 Angst**2
 Applying Cartesian multipole field
    Component          Value
    ---------          -----
     (2,0,0)        1.00000E-12
     (0,2,0)        2.00000E-11
     (0,0,2)       -3.00000E-11
 Nucleus-field energy     =     0.0000000173 hartrees
 Requested basis set is 6-311++G(2df,2p)
 There are 192 shells and 630 basis functions
 A cutoff of  1.0D-12 yielded  14952 shell pairs
 There are    156692 function pairs (    193336 Cartesian)
 Smallest overlap matrix eigenvalue = 1.71E-06
 Guess MOs from SCF MO coefficient file

 -----------------------------------------------------------------------
  General SCF calculation program by
  Eric Jon Sundstrom, Paul Horn, Yuezhi Mao, Dmitri Zuev, Alec White,
  David Stuck, Shaama M.S., Shane Yost, Joonho Lee, David Small,
  Daniel Levine, Susi Lehtola, Hugh Burton, Evgeny Epifanovsky,
  Bang C. Huynh
 -----------------------------------------------------------------------
 Exchange:     0.1500 Hartree-Fock + 1.0000 wB97M-V + LR-HF
 Correlation:  1.0000 wB97M-V
 Using SG-2 standard quadrature grid
 Nonlocal Correlation:  VV10 with C = 0.0100 and b = 6.00 and scale = 1.00000
 Grid used for NLC:  SG-1 standard quadrature
 
 Citation of the SMD model:
 Marenich, A.V.; Cramer, C.J.; Truhlar, D.G.
 J. Phys. Chem. B 2009, 113, 6378-6396.
 iSolventCode=           1
 Solvent: water                                                           
 
 vradii
            1           2           3           4           5           6
    1   1.8500000   1.5200000   1.8500000   1.5200000   1.8500000   1.8500000
            7           8           9          10          11          12
    1   1.5200000   1.5200000   1.8500000   1.5200000   1.5200000   1.2000000
           13          14          15          16          17          18
    1   1.2000000   1.2000000   1.2000000   1.2000000   1.2000000   1.2000000
           19          20          21          22          23          24
    1   1.2000000   1.2000000   1.5200000   1.2000000   1.5200000   1.5200000
           25          26          27
    1   1.5200000   1.2000000   1.2000000
 -------------------------------------------------------
 OpenMP BLAS3 based DFT computing Module                
 Release: version 1.0, May 2013, Q-Chem Inc. Pittsburgh 
 -------------------------------------------------------
 A unrestricted SCF calculation will be
 performed using Roothaan-Hall, DIIS, GDM
 SCF converges when RMS gradient is below 1.0e-07
 ---------------------------------------
  Cycle       Energy         DIIS error
 ---------------------------------------
    1    -949.8770516678      3.56e-04  Roothaan Step
 ---------------------------------------
  Cycle       Energy         DIIS error
 ---------------------------------------
    1    -950.0143717844      2.19e-04  
    2    -950.0251922149      1.76e-04  Done DIIS. Switching to GDM
 ---------------------------------------
  Cycle       Energy        RMS Gradient
 ---------------------------------------
    1    -950.0251922149      1.67e-02   Normal BFGS step
    2    -950.0247729268      2.39e-02  Line search: overstep
    3    -950.0292657791      2.76e-03   Normal BFGS step
    4    -950.0296206825      2.31e-03   Normal BFGS step
    5    -950.0296913297      1.59e-03   Normal BFGS step
    6    -950.0297142592      5.93e-04   Normal BFGS step
    7    -950.0297165871      5.51e-04   Normal BFGS step
    8    -950.0297178794      5.12e-04   Normal BFGS step
    9    -950.0297186598      4.29e-04   Normal BFGS step
   10    -950.0297196098      2.54e-04   Normal BFGS step
   11    -950.0297200702      1.11e-04   Normal BFGS step
   12    -950.0297201902      6.71e-05   Normal BFGS step
   13    -950.0297202348      2.47e-05   Normal BFGS step
   14    -950.0297202429      9.39e-06   Normal BFGS step
   15    -950.0297202454      3.85e-06   Normal BFGS step
   16    -950.0297202459      2.75e-06   Normal BFGS step
   17    -950.0297202460      1.57e-06   Normal BFGS step
   18    -950.0297202460      7.66e-07   Normal BFGS step
   19    -950.0297202460      3.42e-07   Normal BFGS step
   20    -950.0297202460      1.32e-07   Normal BFGS step
  GDM::WARNING energy changes are now smaller than effective accuracy.
  GDM::        calculation will continue, but THRESH should be increased
  GDM::        or SCF_CONVERGENCE decreased. 
  GDM::        effective_thresh = 6.99e-09
   21    -950.0297202456      4.70e-08  Convergence criterion met
 ---------------------------------------
 SCF time:   CPU 8143.56s  wall 577.00s 
<S^2> =          0.754205086
(3)  G-ENP(liq) elect-nuc-pol free energy of system     -950.029720246 a.u.
(4)  G-CDS(liq) cavity-dispersion-solvent structure 
     free energy                                                3.7103 kcal/mol
(6)  G-S(liq) free energy of system                     -950.023807451 a.u.
 SCF   energy in the final basis set =     -950.0238074509
 Total energy in the final basis set =     -950.0238074509
 
 --------------------------------------------------------------
 
                    Orbital Energies (a.u.)
 --------------------------------------------------------------
 
 Alpha MOs
 -- Occupied --
-19.4397 -19.4014 -19.3939 -19.3726 -19.3429 -19.3399 -19.3395 -19.3369
-19.3104 -19.2764 -10.4442 -10.4419 -10.4381 -10.3992 -10.3365  -1.3294
 -1.2538  -1.2013  -1.1972  -1.1343  -1.1312  -1.1236  -1.1084  -1.0346
 -0.9634  -0.9029  -0.8416  -0.7970  -0.7309  -0.6947  -0.6809  -0.6751
 -0.6453  -0.6314  -0.6191  -0.6086  -0.6046  -0.5916  -0.5827  -0.5718
 -0.5692  -0.5544  -0.5482  -0.5302  -0.5295  -0.5076  -0.4985  -0.4802
 -0.4572  -0.4565  -0.4441  -0.4297  -0.4190  -0.4151  -0.4109  -0.4071
 -0.4054  -0.4013  -0.3838  -0.3715  -0.3534  -0.3469
 -- Virtual --
  0.0270   0.0367   0.0423   0.0458   0.0563   0.0627   0.0645   0.0710
  0.0813   0.0858   0.0976   0.1009   0.1088   0.1131   0.1258   0.1369
  0.1394   0.1405   0.1492   0.1499   0.1551   0.1602   0.1660   0.1684
  0.1769   0.1808   0.1859   0.1869   0.1953   0.2002   0.2039   0.2115
  0.2232   0.2261   0.2394   0.2408   0.2493   0.2567   0.2583   0.2644
  0.2691   0.2733   0.2813   0.2827   0.2859   0.2893   0.2908   0.2994
  0.3053   0.3063   0.3129   0.3174   0.3244   0.3276   0.3343   0.3349
  0.3369   0.3466   0.3486   0.3508   0.3569   0.3638   0.3652   0.3702
  0.3714   0.3744   0.3804   0.3842   0.3860   0.3874   0.3989   0.4004
  0.4071   0.4122   0.4126   0.4160   0.4220   0.4283   0.4307   0.4389
  0.4418   0.4450   0.4567   0.4598   0.4635   0.4681   0.4756   0.4798
  0.4973   0.5039   0.5181   0.5265   0.5323   0.5374   0.5566   0.5581
  0.5768   0.5877   0.6115   0.6164   0.6177   0.6349   0.6388   0.6472
  0.6616   0.6630   0.6683   0.6810   0.6846   0.7032   0.7107   0.7167
  0.7233   0.7406   0.7440   0.7515   0.7547   0.7674   0.7720   0.7846
  0.7965   0.8051   0.8142   0.8224   0.8290   0.8399   0.8591   0.8804
  0.8876   0.9001   0.9086   0.9210   0.9378   0.9529   0.9656   0.9768
  0.9780   0.9864   1.0011   1.0219   1.0416   1.0457   1.0569   1.0638
  1.0714   1.0745   1.0869   1.0988   1.1029   1.1216   1.1273   1.1418
  1.1501   1.1627   1.1642   1.1754   1.1792   1.1882   1.1913   1.1959
  1.2019   1.2115   1.2165   1.2285   1.2333   1.2413   1.2498   1.2592
  1.2615   1.2680   1.2694   1.2819   1.2853   1.2966   1.3051   1.3140
  1.3259   1.3304   1.3377   1.3533   1.3581   1.3654   1.3737   1.3758
[...]
     23  O         4.5880770320   -1.3598774839    0.5363340933
     24  O         5.4618700106   -1.3134082497   -0.4250772978
     25  O         0.0231763182    0.2671694158    0.9896023795
     26  H         0.9261407688   -0.0669772802    1.1778044567
     27  H        -0.0013615892    0.2602638494    0.0260596740
   Point Group: c1    Number of degrees of freedom:    75


   Energy is   -950.027670019

 Hessian updated using BFGS update

 75 Hessian modes will be used to form the next step
  Hessian Eigenvalues:
     0.000590    0.001294    0.002940    0.003875    0.004526    0.006608
     0.006978    0.008584    0.009057    0.010650    0.011240    0.013857
     0.015774    0.028785    0.029714    0.040058    0.047631    0.048733
     0.051230    0.053611    0.055082    0.057250    0.060307    0.063374
     0.068645    0.070315    0.072113    0.080836    0.087526    0.088555
     0.096364    0.103194    0.112621    0.123580    0.132094    0.152960
     0.157028    0.160696    0.164060    0.173758    0.181442    0.186534
     0.188691    0.208765    0.212673    0.227618    0.250256    0.259660
     0.274675    0.286638    0.292701    0.297278    0.303538    0.334057
     0.341939    0.342497    0.344282    0.345360    0.351628    0.404203
     0.411737    0.437065    0.443001    0.459290    0.463714    0.477746
     0.493197    0.502111    0.514444    0.526442    0.529944    0.533626
     0.566630    0.635002    0.809362

 Minimum search - taking simple RFO step
 Searching for Lamda that Minimizes Along All modes
 Value Taken    Lamda =  -0.00000082
 Step Taken.  Stepsize is  0.017976

                             Maximum     Tolerance    Cnvgd?
         Gradient           0.000068      0.000300     YES
         Displacement       0.009419      0.001200      NO
         Energy change     -0.000001      0.000001     YES

 Final energy is   -950.027670018941     


 ******************************
 **  OPTIMIZATION CONVERGED  **
 ******************************

                       Coordinates (Angstroms)
     ATOM                X               Y               Z
      1  C         2.6554709856   -1.2252719985   -0.9307265424
      2  O         1.6902299770   -0.3411088316   -1.4612735382
      3  C         3.3074359840   -0.5157342339    0.2768329416
      4  O         2.5896464835   -0.6611082129    1.3832556394
      5  C         3.7653398244    0.9009146026   -0.0597397582
      6  C         4.8070740918    1.4872403089    0.8815013272
      7  O         4.5485582214    1.2702422387    2.2717130568
      8  O         3.1759383164    1.5463249000    2.5764537932
      9  C         5.0772018475    2.9634942990    0.5994920711
     10  O         3.8700340325    3.6911021608    0.6548035123
     11  O         6.0176763957    3.4716311215    1.5185913596
     12  H         3.3892281440   -1.4794659031   -1.6934958405
     13  H         1.3857107157   -0.7063839222   -2.2996790603
     14  H         2.8696436223    1.5181417004   -0.0681047443
     15  H         4.1848562372    0.9321712333   -1.0656959656
     16  H         5.7621733237    0.9775553108    0.7485191115
     17  H         2.7702827103    0.6906077509    2.2384089176
     18  H         5.5333999284    3.0642183846   -0.3859715958
     19  H         4.0468773901    4.5786733554    0.3229831968
     20  H         5.7441989450    3.1787620576    2.3990720710
     21  O         2.0672266014   -2.4198437325   -0.4845122612
     22  H         1.7896707819   -2.2307820412    0.4299496030
     23  O         4.5880770320   -1.3598774839    0.5363340933
     24  O         5.4618700106   -1.3134082497   -0.4250772978
     25  O         0.0231763182    0.2671694158    0.9896023795
     26  H         0.9261407688   -0.0669772802    1.1778044567
     27  H        -0.0013615892    0.2602638494    0.0260596740

Z-matrix Print:
$molecule
-1 2
O 
C  1 1.326848
C  2 1.526385 1 116.605568
H  3 1.087801 2 106.337642 1 -54.122707 0
H  3 1.090376 2 110.209688 1 -169.828896 0
C  3 1.521487 2 115.254995 1 68.656355 0
H  6 1.090723 3 110.123501 2 69.966831 0
O  6 1.430597 3 114.770835 2 -44.270118 0
O  8 1.432890 6 110.520975 3 -45.414256 0
H  9 1.005526 8 98.684247 6 78.937728 0
C  6 1.527031 3 112.297755 2 -172.255359 0
H  11 1.090596 6 109.278336 3 -65.492719 0
O  11 1.409766 6 110.246802 3 178.305995 0
H  13 0.967372 11 107.198064 6 -46.837802 0
O  11 1.410577 6 109.879363 3 55.571496 0
H  15 0.963930 11 107.725561 6 -170.188795 0
C  2 1.544895 1 111.911545 3 -131.313313 0
H  17 1.088499 2 111.747412 1 -155.663388 0
O  17 1.404329 2 108.607877 1 -36.823830 0
H  19 0.974178 17 104.626891 2 31.341030 0
O  17 1.412415 2 107.127958 1 83.667769 0
H  21 0.963889 17 107.782691 2 170.426150 0
O  2 1.555622 1 104.287736 3 117.790241 0
O  23 1.299994 2 114.240813 1 -177.676691 0
H  1 1.778329 2 111.907019 3 74.476096 0
O  25 0.981029 1 175.527232 2 9.655053 0
H  26 0.963880 25 102.284481 1 9.255734 0
$end

 
 --------------------------------------------------------------
 
                    Orbital Energies (a.u.)
 --------------------------------------------------------------
 
 Alpha MOs
 -- Occupied --
-19.4399 -19.4025 -19.3931 -19.3670 -19.3422 -19.3414 -19.3411 -19.3371
-19.3129 -19.2826 -10.4453 -10.4410 -10.4374 -10.3981 -10.3386  -1.3236
 -1.2532  -1.2004  -1.1966  -1.1339  -1.1310  -1.1236  -1.1117  -1.0307
 -0.9647  -0.9004  -0.8395  -0.7932  -0.7264  -0.6916  -0.6818  -0.6742
 -0.6426  -0.6301  -0.6196  -0.6064  -0.6034  -0.5881  -0.5824  -0.5708
 -0.5680  -0.5527  -0.5463  -0.5334  -0.5284  -0.5069  -0.4942  -0.4799
 -0.4554  -0.4551  -0.4449  -0.4325  -0.4223  -0.4169  -0.4116  -0.4093
 -0.4060  -0.4001  -0.3848  -0.3703  -0.3566  -0.3511
 -- Virtual --
  0.0267   0.0364   0.0422   0.0459   0.0567   0.0616   0.0658   0.0710
  0.0802   0.0856   0.0969   0.0985   0.1086   0.1124   0.1276   0.1363
  0.1390   0.1425   0.1486   0.1502   0.1548   0.1595   0.1649   0.1672
  0.1757   0.1801   0.1847   0.1875   0.1955   0.2010   0.2031   0.2137
  0.2197   0.2248   0.2367   0.2394   0.2459   0.2558   0.2592   0.2664
  0.2698   0.2730   0.2759   0.2821   0.2831   0.2864   0.2884   0.2979
  0.3021   0.3055   0.3101   0.3213   0.3239   0.3280   0.3326   0.3356
  0.3373   0.3441   0.3486   0.3528   0.3568   0.3616   0.3665   0.3674
  0.3691   0.3755   0.3814   0.3819   0.3848   0.3893   0.4007   0.4024
  0.4067   0.4085   0.4133   0.4194   0.4224   0.4261   0.4295   0.4343
  0.4430   0.4458   0.4566   0.4600   0.4635   0.4693   0.4751   0.4789
  0.4982   0.5060   0.5119   0.5218   0.5318   0.5410   0.5510   0.5591
  0.5812   0.5914   0.5952   0.6064   0.6119   0.6362   0.6413   0.6459
  0.6592   0.6657   0.6706   0.6751   0.6905   0.7046   0.7051   0.7118
  0.7280   0.7366   0.7469   0.7498   0.7586   0.7687   0.7763   0.7811
  0.7954   0.8024   0.8165   0.8192   0.8255   0.8478   0.8576   0.8712
  0.8756   0.8870   0.8968   0.9092   0.9391   0.9446   0.9716   0.9751
  0.9845   0.9923   1.0018   1.0285   1.0303   1.0404   1.0533   1.0672
  1.0781   1.0823   1.0953   1.1014   1.1076   1.1172   1.1290   1.1517
  1.1531   1.1584   1.1653   1.1709   1.1784   1.1843   1.1898   1.1979
  1.1999   1.2088   1.2194   1.2273   1.2317   1.2378   1.2412   1.2526
  1.2686   1.2718   1.2769   1.2798   1.2942   1.3005   1.3031   1.3107
  1.3186   1.3350   1.3452   1.3524   1.3569   1.3671   1.3760   1.3796
  1.3868   1.3933   1.3983   1.4093   1.4204   1.4224   1.4401   1.4437
  1.4730   1.4792   1.4833   1.4901   1.5014   1.5123   1.5183   1.5302
  1.5325   1.5452   1.5571   1.5705   1.5756   1.5889   1.5991   1.6060
  1.6157   1.6280   1.6328   1.6425   1.6541   1.6551   1.6870   1.6981
  1.7015   1.7117   1.7280   1.7311   1.7418   1.7470   1.7751   1.7934
  1.8015   1.8182   1.8234   1.8293   1.8524   1.8601   1.8742   1.8923
  1.9192   1.9226   1.9303   1.9512   1.9616   1.9822   1.9951   2.0222
  2.0291   2.0455   2.0678   2.0798   2.0907   2.1024   2.1535   2.1723
  2.1873   2.2020   2.2137   2.2338   2.2602   2.2712   2.2858   2.3057
  2.3143   2.3471   2.3639   2.3757   2.3803   2.3915   2.4049   2.4129
  2.4272   2.4319   2.4402   2.4604   2.4804   2.4908   2.5100   2.5393
  2.5422   2.5642   2.5922   2.6174   2.6339   2.6685   2.6738   2.7397
  2.7531   2.7661   2.7805   2.8001   2.8208   2.8470   2.8600   2.8820
  2.8983   2.9124   2.9411   2.9549   2.9813   3.0184   3.0375   3.0698
  3.0970   3.1166   3.1439   3.1550   3.1821   3.2082   3.2483   3.2664
  3.2735   3.2977   3.3144   3.3290   3.3393   3.3657   3.4012   3.4056
  3.4305   3.4512   3.4667   3.4880   3.4993   3.5115   3.5217   3.5568
  3.5701   3.5853   3.6015   3.6385   3.6514   3.6566   3.6760   3.6908
  3.7008   3.7098   3.7236   3.7497   3.7617   3.7761   3.7835   3.7896
  3.8070   3.8245   3.8329   3.8498   3.8597   3.8746   3.8761   3.8905
  3.9039   3.9134   3.9165   3.9268   3.9493   3.9579   3.9662   3.9733
  3.9941   4.0163   4.0437   4.0503   4.0707   4.0881   4.1272   4.1341
  4.1399   4.1555   4.1826   4.1878   4.2089   4.2116   4.2318   4.2557
  4.2673   4.2864   4.2935   4.3000   4.3107   4.3318   4.3554   4.3634
  4.3748   4.3908   4.3934   4.4215   4.4415   4.4482   4.4747   4.4865
  4.4975   4.5178   4.5634   4.5933   4.6029   4.6182   4.6421   4.6437
  4.6767   4.7081   4.7243   4.7487   4.7684   4.7894   4.8236   4.8518
  4.9198   4.9396   4.9667   5.0086   5.0165   5.0853   5.1042   5.1215
  5.1244   5.1329   5.1717   5.1783   5.2084   5.2143   5.2168   5.2357
  5.2574   5.2677   5.2786   5.2846   5.2909   5.2972   5.3033   5.3046
  5.3085   5.3262   5.3398   5.3473   5.3559   5.3576   5.3641   5.3751
  5.3766   5.3845   5.3922   5.4127   5.4277   5.4349   5.4471   5.4485
  5.4616   5.4803   5.4887   5.4976   5.5139   5.5335   5.5481   5.5495
  5.5652   5.5676   5.5753   5.5804   5.5882   5.5932   5.6142   5.6294
  5.6350   5.6474   5.6689   5.6801   5.6808   5.7040   5.7107   5.7276
  5.7377   5.7506   5.7557   5.7927   5.8047   5.8288   5.8327   5.8676
  5.8869   5.9058   5.9508   6.0165   6.0343   6.0437   6.0787   6.0916
  6.0935   6.1392   6.1789   6.2707   6.2735   6.3661   6.4997   6.5590
  6.5801   6.6294   6.6948   6.7420   6.7583   6.8655   6.9059   6.9341
  6.9760   7.0138   7.0305   7.0476   7.0679   7.0764   7.0869   7.1073
  7.1224   7.1324   7.1510   7.1608   7.1916   7.1990   7.2233   7.2345
  7.2401   7.2594   7.2778   7.2870   7.3102   7.3194   7.3268   7.3420
  7.3594   7.3660   7.3820   7.4270   7.4307   7.4488   7.4577   7.4638
  7.4789   7.5048   7.5117   7.5376   7.5543   7.5859   7.6158   7.6295
  7.6552   7.6719   7.6851   7.7000   7.7408   7.7954   7.8120   7.8510
  7.8612   7.8806   7.9144   7.9347   7.9893   8.0104   8.1011   8.1590
  8.2290  24.6407  24.7905  24.8139  24.8306  24.8846  50.4617  50.5407
 50.5432  50.5945  50.6262  50.6336  50.6387  50.6513  50.6748  50.8131
 
 Beta MOs
 -- Occupied --
-19.4286 -19.3931 -19.3846 -19.3669 -19.3422 -19.3414 -19.3411 -19.3371
-19.3129 -19.2828 -10.4457 -10.4410 -10.4372 -10.3981 -10.3384  -1.2967
 -1.2530  -1.2000  -1.1966  -1.1335  -1.1310  -1.1233  -1.1107  -1.0305
 -0.9326  -0.8972  -0.8365  -0.7923  -0.7259  -0.6853  -0.6810  -0.6712
 -0.6413  -0.6231  -0.6080  -0.6018  -0.5916  -0.5858  -0.5753  -0.5699
 -0.5588  -0.5458  -0.5333  -0.5284  -0.5137  -0.5000  -0.4885  -0.4782
 -0.4536  -0.4526  -0.4425  -0.4323  -0.4211  -0.4163  -0.4093  -0.4060
 -0.4044  -0.3970  -0.3721  -0.3528  -0.3457
 -- Virtual --
 -0.0185   0.0267   0.0366   0.0423   0.0461   0.0569   0.0621   0.0659
  0.0713   0.0802   0.0858   0.0972   0.0991   0.1090   0.1127   0.1284
  0.1367   0.1396   0.1427   0.1487   0.1505   0.1555   0.1606   0.1652
  0.1675   0.1766   0.1808   0.1849   0.1894   0.1969   0.2014   0.2036
  0.2143   0.2205   0.2255   0.2376   0.2418   0.2463   0.2578   0.2605
  0.2668   0.2712   0.2734   0.2786   0.2824   0.2837   0.2875   0.2888
  0.3001   0.3046   0.3066   0.3112   0.3218   0.3249   0.3288   0.3329
  0.3366   0.3394   0.3451   0.3490   0.3530   0.3575   0.3630   0.3673
  0.3684   0.3702   0.3759   0.3816   0.3830   0.3853   0.3896   0.4024
  0.4032   0.4074   0.4087   0.4139   0.4200   0.4230   0.4262   0.4299
  0.4349   0.4432   0.4474   0.4571   0.4605   0.4640   0.4703   0.4755
  0.4794   0.4987   0.5064   0.5126   0.5224   0.5321   0.5411   0.5512
  0.5599   0.5815   0.5921   0.5956   0.6065   0.6120   0.6363   0.6423
  0.6461   0.6595   0.6659   0.6710   0.6755   0.6909   0.7046   0.7054
  0.7122   0.7283   0.7365   0.7476   0.7500   0.7589   0.7689   0.7774
  0.7816   0.7958   0.8026   0.8171   0.8197   0.8259   0.8483   0.8582
  0.8714   0.8757   0.8874   0.8976   0.9097   0.9393   0.9448   0.9723
  0.9782   0.9849   0.9930   1.0021   1.0288   1.0306   1.0408   1.0539
  1.0681   1.0785   1.0832   1.0956   1.1025   1.1088   1.1185   1.1296
  1.1524   1.1544   1.1601   1.1660   1.1745   1.1807   1.1863   1.1929
  1.1999   1.2014   1.2125   1.2209   1.2305   1.2353   1.2393   1.2427
  1.2575   1.2724   1.2753   1.2789   1.2806   1.2970   1.3011   1.3096
  1.3165   1.3202   1.3357   1.3476   1.3531   1.3589   1.3687   1.3770
  1.3848   1.3880   1.3947   1.3991   1.4115   1.4222   1.4242   1.4414
  1.4446   1.4763   1.4825   1.4847   1.4936   1.5044   1.5135   1.5191
  1.5323   1.5356   1.5482   1.5588   1.5712   1.5758   1.5896   1.6000
  1.6066   1.6164   1.6294   1.6365   1.6435   1.6559   1.6596   1.6921
  1.7014   1.7035   1.7130   1.7317   1.7353   1.7465   1.7537   1.7787
  1.7984   1.8050   1.8214   1.8296   1.8332   1.8550   1.8643   1.8790
  1.8944   1.9206   1.9229   1.9314   1.9533   1.9636   1.9844   1.9968
  2.0232   2.0317   2.0471   2.0704   2.0804   2.0922   2.1047   2.1562
  2.1755   2.1886   2.2033   2.2169   2.2376   2.2620   2.2822   2.2878
  2.3101   2.3175   2.3499   2.3659   2.3773   2.3819   2.3927   2.4053
  2.4159   2.4287   2.4322   2.4423   2.4614   2.4810   2.4915   2.5124
  2.5403   2.5428   2.5646   2.5934   2.6183   2.6351   2.6695   2.6751
  2.7453   2.7533   2.7679   2.7808   2.8009   2.8214   2.8471   2.8605
  2.8827   2.8992   2.9127   2.9419   2.9550   2.9818   3.0188   3.0379
  3.0701   3.0974   3.1168   3.1443   3.1557   3.1823   3.2088   3.2485
  3.2668   3.2741   3.2983   3.3147   3.3293   3.3400   3.3664   3.4015
  3.4058   3.4309   3.4513   3.4671   3.4881   3.4996   3.5119   3.5219
  3.5569   3.5706   3.5854   3.6017   3.6389   3.6516   3.6567   3.6766
  3.6911   3.7010   3.7102   3.7238   3.7501   3.7619   3.7762   3.7837
  3.7897   3.8074   3.8255   3.8327   3.8499   3.8599   3.8748   3.8765
  3.8908   3.9043   3.9135   3.9165   3.9269   3.9493   3.9581   3.9664
  3.9737   3.9944   4.0172   4.0440   4.0505   4.0709   4.0885   4.1272
  4.1343   4.1404   4.1559   4.1829   4.1881   4.2092   4.2116   4.2319
  4.2559   4.2675   4.2869   4.2939   4.3004   4.3108   4.3326   4.3556
  4.3638   4.3750   4.3910   4.3935   4.4216   4.4420   4.4488   4.4753
  4.4870   4.4982   4.5190   4.5639   4.5939   4.6043   4.6245   4.6433
  4.6647   4.6804   4.7110   4.7257   4.7493   4.7764   4.8027   4.8246
  4.8697   4.9274   4.9418   4.9713   5.0146   5.0285   5.0858   5.1191
  5.1304   5.1593   5.1738   5.1800   5.2089   5.2132   5.2284   5.2342
  5.2494   5.2618   5.2807   5.2870   5.2940   5.2964   5.3028   5.3071
  5.3219   5.3271   5.3306   5.3472   5.3495   5.3590   5.3614   5.3684
  5.3769   5.3781   5.3952   5.4014   5.4174   5.4305   5.4410   5.4485
  5.4499   5.4701   5.4807   5.4915   5.5025   5.5164   5.5355   5.5497
  5.5580   5.5671   5.5688   5.5759   5.5842   5.5912   5.5948   5.6144
  5.6298   5.6359   5.6481   5.6705   5.6804   5.6863   5.7054   5.7109
  5.7279   5.7390   5.7540   5.7658   5.7976   5.8146   5.8302   5.8348
  5.8681   5.8872   5.9084   5.9515   6.0166   6.0379   6.0440   6.0792
  6.0929   6.0946   6.1392   6.1799   6.2712   6.2737   6.3753   6.5419
  6.5594   6.5855   6.6403   6.6953   6.7421   6.7592   6.8666   6.9787
  6.9951   7.0080   7.0290   7.0485   7.0596   7.0700   7.0783   7.0886
  7.1132   7.1306   7.1461   7.1556   7.1659   7.1997   7.2087   7.2263
  7.2364   7.2503   7.2675   7.2787   7.2883   7.3137   7.3232   7.3331
  7.3439   7.3651   7.3757   7.3883   7.4331   7.4411   7.4498   7.4654
  7.4692   7.5027   7.5131   7.5162   7.5425   7.5555   7.5906   7.6175
  7.6312   7.6561   7.6728   7.6854   7.7002   7.7419   7.7987   7.8129
  7.8520   7.8637   7.8839   7.9146   7.9351   7.9908   8.0121   8.1150
  8.1761   8.2302  24.6407  24.7905  24.8140  24.8306  24.8845  50.4734
 50.5408  50.5433  50.5973  50.6268  50.6367  50.6395  50.6513  50.6780
 50.8131
 --------------------------------------------------------------
 
          Ground-State Mulliken Net Atomic Charges

     Atom                 Charge (a.u.)    Spin (a.u.)
  --------------------------------------------------------
      1 C                    -0.194045       0.001979
      2 O                    -0.424107      -0.000372
      3 C                     0.340287       0.016679
      4 O                    -0.725853      -0.003460
      5 C                    -1.208915      -0.008668
      6 C                     0.479243       0.012415
      7 O                    -0.156852       0.002125
      8 O                    -0.389376      -0.000104
      9 C                    -0.360155      -0.003643
     10 O                    -0.449157      -0.000014
     11 O                    -0.446711      -0.000086
     12 H                     0.284522      -0.000853
     13 H                     0.342762       0.000307
     14 H                     0.332657      -0.000901
     15 H                     0.306889       0.001200
     16 H                     0.295495      -0.002669
     17 H                     0.372918      -0.000090
     18 H                     0.263863      -0.000083
     19 H                     0.347387      -0.000057
     20 H                     0.342236       0.000005
     21 O                    -0.447376       0.002311
     22 H                     0.337270      -0.000541
     23 O                     0.006554       0.347695
     24 O                    -0.251227       0.637181
     25 O                    -0.736508      -0.000031
     26 H                     0.407403      -0.000324
     27 H                     0.330796      -0.000002
  --------------------------------------------------------
  Sum of atomic charges =    -1.000000
  Sum of spin   charges =     1.000000

 -----------------------------------------------------------------
                    Cartesian Multipole Moments
 -----------------------------------------------------------------
    Charge (ESU x 10^10)
                -4.8032
    Dipole Moment (Debye)
         X     -13.7659      Y       1.6053      Z     -11.1443
       Tot      17.7841
    Quadrupole Moments (Debye-Ang)
        XX    -157.5842     XY       9.1624     YY    -106.5461
        XZ     -28.9916     YZ     -10.8001     ZZ    -103.6394
    Octopole Moments (Debye-Ang^2)
       XXX   -1321.4447    XXY     -21.8465    XYY    -378.6671
       YYY     -99.1487    XXZ    -165.7480    XYZ     -41.9230
       YYZ     -81.8646    XZZ    -363.3219    YZZ     -70.8427
       ZZZ    -206.0216
    Hexadecapole Moments (Debye-Ang^3)
      XXXX  -10432.8863   XXXY    -892.9846   XXYY   -2073.7185
      XYYY    -760.8654   YYYY   -1952.6479   XXXZ   -1127.3765
      XXYZ    -328.8783   XYYZ    -367.8870   YYYZ    -489.6242
      XXZZ   -1688.3073   XYZZ    -330.7157   YYZZ    -536.3556
      XZZZ    -763.4750   YZZZ    -348.2168   ZZZZ    -976.6567
 -----------------------------------------------------------------
 Total job time:  20096.53s(wall), 275370.51s(cpu) 
 Mon Jun 24 18:17:15 2024

        *************************************************************
        *                                                           *
        *  Thank you very much for using Q-Chem.  Have a nice day.  *
        *                                                           *
        *************************************************************


