
Running Job 1 of 2 Q_in.in
qchem Q_in.in_3069874.0 /scratch/ari.fischer/qChem2156221.hpc-mn1/qchem3069874/ 0
/usr/local/qchem-5.4.1/exe/qcprog.exe_s Q_in.in_3069874.0 /scratch/ari.fischer/qChem2156221.hpc-mn1/qchem3069874/
                  Welcome to Q-Chem
     A Quantum Leap Into The Future Of Chemistry


 Q-Chem 5.4, Q-Chem, Inc., Pleasanton, CA (2021)

 License issued to: Nanyang Technological University (site)

 E. Epifanovsky,  A. T. B. Gilbert,  Xintian Feng,  Joonho Lee,  Yuezhi Mao,  
 N. Mardirossian,  P. Pokhilko,  A. White,  M. Wormit,  M. P. Coons,  
 A. L. Dempwolff,  Zhengting Gan,  D. Hait,  P. R. Horn,  L. D. Jacobson,  
 I. Kaliman,  J. Kussmann,  A. W. Lange,  Ka Un Lao,  D. S. Levine,  Jie Liu,  
 S. C. McKenzie,  A. F. Morrison,  K. Nanda,  F. Plasser,  D. R. Rehn,  
 M. L. Vidal,  Zhi-Qiang You,  Ying Zhu,  B. Alam,  B. Albrecht,  
 A. Aldossary,  E. Alguire,  J. H. Andersen,  D. Barton,  K. Begam,  A. Behn,  
 Y. A. Bernard,  E. J. Berquist,  H. Burton,  A. Carreras,  K. Carter-Fenk,  
 Romit Chakraborty,  A. D. Chien,  K. D. Closser,  V. Cofer-Shabica,  
 S. Dasgupta,  Jia Deng,  M. de Wergifosse,  M. Diedenhofen,  Hainam Do,  
 S. Ehlert,  Po-Tung Fang,  S. Fatehi,  Qingguo Feng,  T. Friedhoff,  
 J. Gayvert,  Qinghui Ge,  G. Gidofalvi,  M. Goldey,  J. Gomes,  
 C. Gonzalez-Espinoza,  S. Gulania,  A. Gunina,  M. W. D. Hanson-Heine,  
 P. H. P. Harbach,  A. W. Hauser,  M. F. Herbst,  M. Hernandez Vera,  
 M. Hodecker,  Z. C. Holden,  S. Houck,  Xunkun Huang,  Kerwin Hui,  
 B. C. Huynh,  M. Ivanov,  Hyunjun Ji,  Hanjie Jiang,  B. Kaduk,  S. Kaehler,  
 K. Khistyaev,  Jaehoon Kim,  P. Klunzinger,  Z. Koczor-Benda,  
 Joong Hoon Koh,  D. Kosenkov,  L. Koulias,  T. Kowalczyk,  C. M. Krauter,  
 K. Kue,  A. Kunitsa,  T. Kus,  A. Landau,  K. V. Lawler,  D. Lefrancois,  
 S. Lehtola,  Rain Li,  Yi-Pei Li,  Jiashu Liang,  M. Liebenthal,  
 Hung-Hsuan Lin,  You-Sheng Lin,  Fenglai Liu,  Kuan-Yu Liu,  
 M. Loipersberger,  A. Luenser,  A. Manjanath,  P. Manohar,  E. Mansoor,  
 S. F. Manzer,  Shan-Ping Mao,  A. V. Marenich,  T. Markovich,  S. Mason,  
 S. A. Maurer,  P. F. McLaughlin,  M. F. S. J. Menger,  J.-M. Mewes,  
 S. A. Mewes,  P. Morgante,  J. W. Mullinax,  K. J. Oosterbaan,  G. Paran,  
 Alexander C. Paul,  Suranjan K. Paul,  F. Pavosevic,  Zheng Pei,  S. Prager,  
 E. I. Proynov,  E. Ramos,  B. Rana,  A. E. Rask,  A. Rettig,  R. M. Richard,  
 F. Rob,  E. Rossomme,  T. Scheele,  M. Scheurer,  M. Schneider,  
 N. Sergueev,  S. M. Sharada,  W. Skomorowski,  D. W. Small,  C. J. Stein,  
 Yu-Chuan Su,  E. J. Sundstrom,  Zhen Tao,  J. Thirman,  T. Tsuchimochi,  
 N. M. Tubman,  S. P. Veccham,  O. Vydrov,  J. Wenzel,  J. Witte,  A. Yamada,  
 Kun Yao,  S. Yeganeh,  S. R. Yost,  A. Zech,  Igor Ying Zhang,  Xing Zhang,  
 Yu Zhang,  D. Zuev,  A. Aspuru-Guzik,  A. T. Bell,  N. A. Besley,  
 K. B. Bravaya,  B. R. Brooks,  D. Casanova,  Jeng-Da Chai,  S. Coriani,  
 C. J. Cramer,  A. E. DePrince, III,  R. A. DiStasio Jr.,  A. Dreuw,  
 B. D. Dunietz,  T. R. Furlani,  W. A. Goddard III,  S. Grimme,  
 S. Hammes-Schiffer,  T. Head-Gordon,  W. J. Hehre,  Chao-Ping Hsu,  
 T.-C. Jagau,  Yousung Jung,  A. Klamt,  Jing Kong,  D. S. Lambrecht,  
 WanZhen Liang,  N. J. Mayhall,  C. W. McCurdy,  J. B. Neaton,  T. Neudecker,  
 C. Ochsenfeld,  J. A. Parkhill,  R. Peverati,  V. A. Rassolov,  Yihan Shao,  
 L. V. Slipchenko,  R. P. Steele,  J. E. Subotnik,  A. J. W. Thom,  
 A. Tkatchenko,  D. G. Truhlar,  T. Van Voorhis,  T. A. Wesolowski,  
 K. B. Whaley,  H. L. Woodcock III,  P. M. Zimmerman,  S. Faraji,  
 P. M. W. Gill,  M. Head-Gordon,  J. M. Herbert,  A. I. Krylov

 Additional authors since Version 5.4.0: 
 Chandrima Chakravarty,  L. Cunha,  R. Kang,  Yongbin Kim,  S. Kotaru,  
 Shaozhi Li,  Xiangyuan Li,  F. Matz,  A. Molle,  V. Parravicini,  
 Haisheng Ren,  Hengyuan Shen,  Yingli Su,  Hung-Yi Tsai,  C. Utku,  
 Fang Wang,  Jeff Yang,  F. Zeller

 Contributors to earlier versions of Q-Chem not listed above: 
 R. D. Adamson,  B. Austin,  R. Baer,  J. Baker,  G. J. O. Beran,  
 K. Brandhorst,  S. T. Brown,  E. F. C. Byrd,  Arup K. Chakraborty,  
 G. K. L. Chan,  Chun-Min Chang,  Yunqing Chen,  C.-L. Cheng,  
 Siu Hung Chien,  D. M. Chipman,  D. L. Crittenden,  H. Dachsel,  
 R. J. Doerksen,  A. D. Dutoi,  R. G. Edgar,  J. Fosso-Tande,  
 L. Fusti-Molnar,  D. Ghosh,  A. Ghysels,  A. Golubeva-Zadorozhnaya,  
 J. Gonthier,  M. S. Gordon,  S. R. Gwaltney,  G. Hawkins,  J. E. Herr,  
 A. Heyden,  S. Hirata,  E. G. Hohenstein,  G. Kedziora,  F. J. Keil,  
 C. Kelley,  Jihan Kim,  R. A. King,  R. Z. Khaliullin,  P. P. Korambath,  
 W. Kurlancheek,  A. Laurent,  A. M. Lee,  M. S. Lee,  S. V. Levchenko,  
 Ching Yeh Lin,  D. Liotard,  E. Livshits,  R. C. Lochan,  I. Lotan,  
 L. A. Martinez-Martinez,  P. E. Maslen,  N. Nair,  D. P. O'Neill,  
 D. Neuhauser,  E. Neuscamman,  C. M. Oana,  R. Olivares-Amaya,  R. Olson,  
 T. M. Perrine,  B. Peters,  P. A. Pieniazek,  A. Prociuk,  Y. M. Rhee,  
 J. Ritchie,  M. A. Rohrdanz,  E. Rosta,  N. J. Russ,  H. F. Schaefer III,  
 M. W. Schmidt,  N. E. Schultz,  S. Sharma,  N. Shenvi,  C. D. Sherrill,  
 A. C. Simmonett,  A. Sodt,  T. Stein,  D. Stuck,  K. S. Thanthiriwatte,  
 V. Vanovschi,  L. Vogt,  Tao Wang,  A. Warshel,  M. A. Watson,  
 C. F. Williams,  Q. Wu,  X. Xu,  Jun Yang,  W. Zhang,  Yan Zhao

   Please cite Q-Chem as follows:
  "Software for the frontiers of quantum chemistry:
   An overview of developments in the Q-Chem 5 package"
   J. Chem. Phys. 155, 084801 (2021)
   https://doi.org/10.1063/5.0055522 (open access)

 Q-Chem 5.4.2 for Intel X86 EM64T Linux

 Parts of Q-Chem use Armadillo 9.900.5 (Nocturnal Misbehaviour).
 http://arma.sourceforge.net/

 Q-Chem begins on Tue Jun  4 21:57:15 2024  

 Host: 
0

     Scratch files written to /scratch/ari.fischer/qChem2156221.hpc-mn1/qchem3069874//
 Dec1321 |scratch|qcdevops|jenkins|workspace|build_RNUM 8249   
 Processing $rem in /usr/local/qchem-5.4.1/config/preferences:
 Processing $rem in /home/ari.fischer/.qchemrc:
 Symmetry turned off for PCM/SM12/SMD calculation


!!********************************************.
!!******************Warning*******************.
!!Desired Analytical derivatives not available.
!!Finite difference job might take a long time.
!!********************************************.
!!********************************************.


 2-order derivative to be evaluated numerically with 1-order analytical derivatives

 Checking the input file for inconsistencies... 	...done.

--------------------------------------------------------------
User input:
--------------------------------------------------------------
$molecule
-1 2
O    3.3450422   -0.9650367   -0.6945158
C    2.3838751   -0.1809398    0.0029845
C    2.9120325    0.9021432    0.9386442
O    1.9644674    1.5430125    1.5350600
C    4.2649943    1.0836242    1.0309622
C    5.0102391    2.0830974    1.8263405
C    4.2265776    2.9925214    2.7640843
O    3.7445838    2.2395467    3.8421753
O    5.0640992    4.0012885    3.3116245
H    3.8717386   -1.4398888   -0.0431345
H    1.7234766   -0.8220042    0.5936893
H    1.7719028    0.3032342   -0.7581468
H    4.8898043    0.4886159    0.3782084
H    5.6603664    2.7116962    1.2170238
H    3.4136817    3.4536603    2.2040032
H    3.0296756    2.7352792    4.2564426
H    5.2260101    4.6639401    2.6299719
O    6.1519556    1.1863123    3.0439462
O    7.3375225    1.7256890    3.0713350
$end

$rem
BASIS = 6-311++G(2df,2p)
GUI = 2
JOB_TYPE = Frequency
METHOD = wB97M-V
SCF_ALGORITHM = DIIS_GDM
MAX_SCF_CYCLES = 400
SCF_CONVERGENCE = 6
THRESH = 11
solvent_method = SMD
$end

--------------------------------------------------------------
 ----------------------------------------------------------------
             Standard Nuclear Orientation (Angstroms)
    I     Atom           X                Y                Z
 ----------------------------------------------------------------
    1      O       3.3450422000    -0.9650367000    -0.6945158000
    2      C       2.3838751000    -0.1809398000     0.0029845000
    3      C       2.9120325000     0.9021432000     0.9386442000
    4      O       1.9644674000     1.5430125000     1.5350600000
    5      C       4.2649943000     1.0836242000     1.0309622000
    6      C       5.0102391000     2.0830974000     1.8263405000
    7      C       4.2265776000     2.9925214000     2.7640843000
    8      O       3.7445838000     2.2395467000     3.8421753000
    9      O       5.0640992000     4.0012885000     3.3116245000
   10      H       3.8717386000    -1.4398888000    -0.0431345000
   11      H       1.7234766000    -0.8220042000     0.5936893000
   12      H       1.7719028000     0.3032342000    -0.7581468000
   13      H       4.8898043000     0.4886159000     0.3782084000
   14      H       5.6603664000     2.7116962000     1.2170238000
   15      H       3.4136817000     3.4536603000     2.2040032000
   16      H       3.0296756000     2.7352792000     4.2564426000
   17      H       5.2260101000     4.6639401000     2.6299719000
   18      O       6.1519556000     1.1863123000     3.0439462000
   19      O       7.3375225000     1.7256890000     3.0713350000
 ----------------------------------------------------------------
 Nuclear Repulsion Energy =         637.97151315 hartrees
 There are       44 alpha and       43 beta electrons
 Requested basis set is 6-311++G(2df,2p)
 There are 136 shells and 454 basis functions

 Total QAlloc Memory Limit 288000 MB
 Mega-Array Size       188 MB
 MEM_STATIC part       192 MB
 
 Citation of the SMD model:
 Marenich, A.V.; Cramer, C.J.; Truhlar, D.G.
 J. Phys. Chem. B 2009, 113, 6378-6396.
 iSolventCode=           1
 Solvent: water                                                           
 
 vradii
            1           2           3           4           5           6
    1   1.5200000   1.8500000   1.8500000   1.5200000   1.8500000   1.8500000
            7           8           9          10          11          12
    1   1.8500000   1.5200000   1.5200000   1.2000000   1.2000000   1.2000000
           13          14          15          16          17          18
    1   1.2000000   1.2000000   1.2000000   1.2000000   1.2000000   1.5200000
           19
    1   1.5200000
 Changing PCM_VDW_RADII to SMD_RADIUS
 Discretize the solute cavity surface with Lebedev spheres
	Using 110 Lebedev grid points for each H atom
	Using 194 Lebedev grid points for other atoms
	Atomic van der Waals radii will be scaled by 1.20
 Remove points where switching function is < 1.0e-08
 Keep 1592 surface tesserae and discard 1422 interior tesserae
 Molecular Surface Area = 180.728 Angst**2
 A cutoff of  1.0D-11 yielded   7617 shell pairs
 There are     83674 function pairs (    103998 Cartesian)
 Smallest overlap matrix eigenvalue = 3.14E-06

 Q-Chem warning in module stvman/mkSTV.C, line 305:

 Overlap eigenvalue is smaller than square root of threshold
 Use THRESH >= 12 to get rid of this warning

 Guess from superposition of atomic densities
 Warning:  Energy on first SCF cycle will be non-variational
 SAD guess density has 86.000000 electrons

 -----------------------------------------------------------------------
  General SCF calculation program by
  Eric Jon Sundstrom, Paul Horn, Yuezhi Mao, Dmitri Zuev, Alec White,
  David Stuck, Shaama M.S., Shane Yost, Joonho Lee, David Small,
  Daniel Levine, Susi Lehtola, Hugh Burton, Evgeny Epifanovsky,
  Bang C. Huynh
 -----------------------------------------------------------------------
 Exchange:     0.1500 Hartree-Fock + 1.0000 wB97M-V + LR-HF
 Correlation:  1.0000 wB97M-V
 Using SG-2 standard quadrature grid
 Nonlocal Correlation:  VV10 with C = 0.0100 and b = 6.00 and scale = 1.00000
 Grid used for NLC:  SG-1 standard quadrature
 using 16 threads for integral computing
 -------------------------------------------------------
 OpenMP Integral computing Module                
 Release: version 1.0, May 2013, Q-Chem Inc. Pittsburgh 
 -------------------------------------------------------
 
 Citation of the SMD model:
 Marenich, A.V.; Cramer, C.J.; Truhlar, D.G.
 J. Phys. Chem. B 2009, 113, 6378-6396.
 iSolventCode=           1
 Solvent: water                                                           
 
 vradii
            1           2           3           4           5           6
    1   1.5200000   1.8500000   1.8500000   1.5200000   1.8500000   1.8500000
            7           8           9          10          11          12
    1   1.8500000   1.5200000   1.5200000   1.2000000   1.2000000   1.2000000
           13          14          15          16          17          18
    1   1.2000000   1.2000000   1.2000000   1.2000000   1.2000000   1.5200000
           19
    1   1.5200000
 -------------------------------------------------------
 OpenMP BLAS3 based DFT computing Module                
 Release: version 1.0, May 2013, Q-Chem Inc. Pittsburgh 
 -------------------------------------------------------
 A unrestricted SCF calculation will be
 performed using DIIS, GDM
 SCF converges when RMS gradient is below 1.0e-06
 ---------------------------------------
  Cycle       Energy         DIIS error
 ---------------------------------------
    1    -648.3134323207      1.12e-02  
    2    -646.4555011657      1.66e-03  Done DIIS. Switching to GDM
 ---------------------------------------
  Cycle       Energy        RMS Gradient
 ---------------------------------------
    1    -646.4555011657      1.02e-01   Descent step
    2    -646.6500454979      2.49e-02   Normal BFGS step
    3    -646.6840137714      3.94e-02   Normal BFGS step
    4    -646.6872414643      3.01e-02   Normal BFGS step
    5    -646.6897149669      7.25e-03   Normal BFGS step
    6    -646.6898790628      3.93e-03   Normal BFGS step
    7    -646.6900141704      2.55e-03   Normal BFGS step
    8    -646.6900411983      1.29e-03   Normal BFGS step
    9    -646.6900571589      1.35e-03   Normal BFGS step
   10    -646.6900652979      1.17e-03   Normal BFGS step
   11    -646.6900697398      7.67e-04   Normal BFGS step
   12    -646.6900735996      5.10e-04   Normal BFGS step
   13    -646.6900761038      4.41e-04   Normal BFGS step
   14    -646.6900773350      2.50e-04   Normal BFGS step
   15    -646.6900778090      1.26e-04   Normal BFGS step
   16    -646.6900779603      1.00e-04   Normal BFGS step
   17    -646.6900780130      3.80e-05   Normal BFGS step
   18    -646.6900780304      2.04e-05   Normal BFGS step
   19    -646.6900780361      1.10e-05   Normal BFGS step
   20    -646.6900780373      3.94e-06   Normal BFGS step
   21    -646.6900780379      1.68e-06   Normal BFGS step
   22    -646.6900780379      5.34e-07  Convergence criterion met
 ---------------------------------------
 SCF time:   CPU 2500.65s  wall 171.00s 
<S^2> =          0.758406885
(3)  G-ENP(liq) elect-nuc-pol free energy of system     -646.690078038 a.u.
(4)  G-CDS(liq) cavity-dispersion-solvent structure 
     free energy                                                4.0308 kcal/mol
(6)  G-S(liq) free energy of system                     -646.683654548 a.u.
 SCF   energy in the final basis set =     -646.6836545478
 Total energy in the final basis set =     -646.6836545478
 
 --------------------------------------------------------------
 
                    Orbital Energies (a.u.)
 --------------------------------------------------------------
 
 Alpha MOs
 -- Occupied --
-19.4210 -19.3858 -19.3441 -19.3385 -19.3344 -19.2745 -10.4474 -10.4078
-10.3969 -10.3765 -10.3086  -1.2878  -1.1987  -1.1531  -1.1311  -1.1049
 -0.9354  -0.8887  -0.8384  -0.7899  -0.7260  -0.6576  -0.6400  -0.6384
 -0.6077  -0.5811  -0.5777  -0.5682  -0.5588  -0.5534  -0.5266  -0.5068
 -0.4980  -0.4809  -0.4667  -0.4595  -0.4384  -0.4198  -0.4014  -0.3939
 -0.3695  -0.3587  -0.3300  -0.2898
 -- Virtual --
  0.0266   0.0341   0.0384   0.0461   0.0547   0.0593   0.0671   0.0753
  0.0921   0.1009   0.1057   0.1106   0.1216   0.1264   0.1316   0.1453
  0.1470   0.1557   0.1582   0.1688   0.1713   0.1747   0.1780   0.1877
  0.1921   0.1959   0.2052   0.2154   0.2220   0.2335   0.2378   0.2509
  0.2618   0.2673   0.2746   0.2768   0.2844   0.2875   0.2966   0.3007
  0.3044   0.3099   0.3171   0.3180   0.3363   0.3390   0.3443   0.3499
  0.3557   0.3614   0.3646   0.3704   0.3769   0.3811   0.3854   0.3880
  0.3961   0.3971   0.4065   0.4139   0.4185   0.4285   0.4394   0.4436
  0.4523   0.4698   0.4779   0.4825   0.5211   0.5240   0.5602   0.5839
  0.5922   0.6030   0.6125   0.6227   0.6283   0.6346   0.6492   0.6592
  0.6746   0.6776   0.6810   0.6926   0.6996   0.7093   0.7259   0.7300
  0.7326   0.7424   0.7451   0.7635   0.7898   0.7943   0.8025   0.8375
  0.8426   0.8655   0.8856   0.8987   0.9120   0.9205   0.9320   0.9599
  0.9687   0.9879   0.9985   1.0243   1.0272   1.0490   1.0757   1.0767
  1.0814   1.1028   1.1084   1.1330   1.1373   1.1543   1.1624   1.1696
  1.1822   1.1910   1.2028   1.2103   1.2191   1.2317   1.2390   1.2516
  1.2585   1.2657   1.2713   1.2757   1.2865   1.3015   1.3088   1.3109
  1.3402   1.3505   1.3688   1.3782   1.3805   1.3949   1.4057   1.4140
  1.4197   1.4405   1.4470   1.4645   1.4720   1.4902   1.5051   1.5113
  1.5254   1.5421   1.5555   1.5678   1.5749   1.5971   1.6060   1.6183
  1.6224   1.6308   1.6483   1.6596   1.6622   1.6947   1.7075   1.7195
  1.7310   1.7778   1.7930   1.8174   1.8437   1.8587   1.8887   1.9093
  1.9181   1.9511   1.9763   1.9868   2.0461   2.0560   2.0735   2.0889
  2.1467   2.1564   2.2311   2.2692   2.2746   2.3020   2.3165   2.3385
  2.3477   2.3718   2.3867   2.3910   2.4265   2.4682   2.5099   2.5191
  2.5760   2.5848   2.6852   2.7177   2.7297   2.7418   2.7794   2.8360
  2.8432   2.8667   2.8782   2.8916   2.9113   2.9299   2.9401   2.9567
  2.9754   3.0063   3.0230   3.0487   3.0565   3.0963   3.1178   3.1281
  3.1625   3.1812   3.1972   3.2120   3.2517   3.2669   3.2933   3.3052
  3.3419   3.3625   3.3779   3.3911   3.3974   3.4374   3.4435   3.4633
  3.4895   3.5026   3.5112   3.5364   3.5822   3.6017   3.6120   3.6178
  3.6324   3.6637   3.6742   3.7031   3.7062   3.7155   3.7317   3.7553
  3.7738   3.8032   3.8232   3.8369   3.8556   3.8687   3.8817   3.9017
  3.9089   3.9273   3.9385   3.9706   4.0029   4.0343   4.0590   4.0693
  4.0982   4.1364   4.1513   4.1818   4.2097   4.2254   4.2381   4.2520
  4.2665   4.3123   4.3216   4.3278   4.3446   4.3752   4.3844   4.4204
  4.4549   4.4736   4.4963   4.5191   4.5358   4.5791   4.5826   4.6232
  4.6291   4.6958   4.7089   4.7327   4.7513   4.7751   4.7990   4.8127
  4.8622   4.9009   5.0447   5.0782   5.0946   5.1099   5.1562   5.1732
  5.2064   5.2256   5.2333   5.2405   5.2480   5.2481   5.2580   5.2632
  5.2746   5.2867   5.3056   5.3074   5.3176   5.3282   5.3451   5.3541
  5.3661   5.3887   5.4145   5.4549   5.4649   5.4728   5.5068   5.5387
  5.5554   5.5731   5.5912   5.5987   5.6239   5.6420   5.6468   5.6751
  5.6837   5.6944   5.7003   5.7429   5.7607   5.8099   5.9110   5.9372
  6.0012   6.0106   6.0513   6.0598   6.0897   6.2336   6.4957   6.5409
  6.5630   6.5866   6.7009   6.7632   6.8283   6.8717   6.9462   7.0334
  7.0401   7.0532   7.0829   7.1010   7.1083   7.1316   7.1574   7.2250
  7.2691   7.2889   7.3051   7.3248   7.3280   7.3307   7.3545   7.3874
  7.4089   7.4206   7.4309   7.4539   7.5891   7.6415   7.6644   7.6718
  7.7543   7.7831   7.8099   7.8415   7.9083   7.9841   8.0745  24.5396
 24.6873  24.7587  24.8137  25.2099  50.4438  50.5274  50.5863  50.6266
 50.6422  50.7716
 
 Beta MOs
 -- Occupied --
-19.4074 -19.3687 -19.3440 -19.3386 -19.3344 -19.2746 -10.4473 -10.4083
-10.3970 -10.3765 -10.3086  -1.2577  -1.1986  -1.1531  -1.1311  -1.1052
 -0.9175  -0.8653  -0.8367  -0.7899  -0.7255  -0.6558  -0.6398  -0.6381
 -0.6055  -0.5694  -0.5608  -0.5572  -0.5452  -0.5254  -0.5084  -0.4972
 -0.4875  -0.4805  -0.4666  -0.4589  -0.4377  -0.4189  -0.4005  -0.3931
 -0.3497  -0.3279  -0.2841
 -- Virtual --
  0.0009   0.0270   0.0357   0.0392   0.0465   0.0559   0.0597   0.0675
  0.0754   0.0924   0.1016   0.1066   0.1112   0.1224   0.1270   0.1324
  0.1459   0.1472   0.1560   0.1587   0.1692   0.1717   0.1749   0.1792
  0.1881   0.1930   0.1969   0.2056   0.2161   0.2232   0.2350   0.2387
  0.2512   0.2630   0.2686   0.2760   0.2794   0.2847   0.2881   0.2995
  0.3035   0.3092   0.3116   0.3181   0.3190   0.3373   0.3401   0.3451
  0.3508   0.3564   0.3624   0.3660   0.3705   0.3777   0.3836   0.3857
  0.3900   0.3964   0.3980   0.4079   0.4143   0.4185   0.4309   0.4406
  0.4445   0.4531   0.4705   0.4783   0.4841   0.5210   0.5245   0.5604
  0.5840   0.5923   0.6033   0.6125   0.6227   0.6282   0.6346   0.6494
  0.6593   0.6746   0.6781   0.6810   0.6927   0.6996   0.7094   0.7261
  0.7301   0.7329   0.7425   0.7451   0.7639   0.7897   0.7945   0.8031
  0.8380   0.8433   0.8658   0.8860   0.8990   0.9132   0.9213   0.9326
  0.9602   0.9698   0.9881   0.9992   1.0256   1.0279   1.0497   1.0762
  1.0774   1.0831   1.1055   1.1098   1.1335   1.1493   1.1606   1.1641
  1.1713   1.1923   1.1996   1.2034   1.2139   1.2201   1.2322   1.2418
  1.2532   1.2593   1.2660   1.2734   1.2860   1.2904   1.3030   1.3111
  1.3186   1.3425   1.3522   1.3704   1.3797   1.3814   1.3966   1.4085
  1.4177   1.4202   1.4450   1.4490   1.4649   1.4739   1.4908   1.5109
  1.5152   1.5273   1.5449   1.5578   1.5729   1.5777   1.5995   1.6074
  1.6205   1.6313   1.6319   1.6498   1.6626   1.6705   1.7026   1.7144
  1.7248   1.7500   1.7837   1.7952   1.8236   1.8444   1.8626   1.8921
  1.9128   1.9218   1.9520   1.9778   1.9872   2.0463   2.0604   2.0761
  2.0893   2.1484   2.1587   2.2411   2.2727   2.2807   2.3168   2.3242
  2.3391   2.3484   2.3740   2.3899   2.3922   2.4285   2.4688   2.5109
  2.5195   2.5758   2.5847   2.6912   2.7192   2.7309   2.7425   2.7793
  2.8360   2.8432   2.8666   2.8778   2.8911   2.9109   2.9291   2.9395
  2.9563   2.9750   3.0056   3.0225   3.0483   3.0558   3.0959   3.1172
  3.1280   3.1622   3.1809   3.1968   3.2117   3.2512   3.2664   3.2932
  3.3051   3.3417   3.3624   3.3778   3.3908   3.3971   3.4371   3.4432
  3.4629   3.4892   3.5021   3.5109   3.5357   3.5819   3.6017   3.6117
  3.6176   3.6323   3.6636   3.6737   3.7023   3.7059   3.7146   3.7310
  3.7548   3.7730   3.8024   3.8230   3.8367   3.8550   3.8683   3.8812
  3.9013   3.9089   3.9272   3.9383   3.9704   4.0023   4.0340   4.0589
  4.0690   4.0976   4.1362   4.1510   4.1811   4.2096   4.2247   4.2378
  4.2517   4.2662   4.3120   4.3216   4.3278   4.3444   4.3749   4.3841
  4.4202   4.4548   4.4736   4.4961   4.5191   4.5373   4.5825   4.5946
  4.6263   4.6463   4.7034   4.7115   4.7361   4.7551   4.7861   4.8039
  4.8340   4.8682   4.9132   5.0472   5.1202   5.1376   5.1620   5.1904
  5.1987   5.2116   5.2339   5.2389   5.2500   5.2665   5.2710   5.2795
  5.2807   5.2875   5.2945   5.3110   5.3173   5.3219   5.3411   5.3456
  5.3595   5.3851   5.3899   5.4175   5.4572   5.4668   5.4829   5.5065
  5.5390   5.5555   5.5738   5.5922   5.5991   5.6233   5.6520   5.6711
  5.6758   5.6853   5.6952   5.7164   5.7432   5.7616   5.8100   5.9111
  5.9370   6.0012   6.0106   6.0513   6.0597   6.0897   6.2331   6.5411
  6.5490   6.5714   6.5868   6.7010   6.7655   6.9020   6.9477   7.0085
  7.0346   7.0636   7.0821   7.1082   7.1085   7.1143   7.1603   7.1740
  7.2272   7.2696   7.2913   7.3215   7.3271   7.3299   7.3393   7.3559
  7.3887   7.4212   7.4281   7.4542   7.4631   7.6042   7.6415   7.6645
  7.6731   7.7546   7.7831   7.8106   7.8413   7.9093   8.0017   8.0933
 24.5393  24.6871  24.7587  24.8137  25.2098  50.4560  50.5379  50.5863
 50.6274  50.6424  50.7715
 --------------------------------------------------------------
 
          Ground-State Mulliken Net Atomic Charges

     Atom                 Charge (a.u.)    Spin (a.u.)
  --------------------------------------------------------
      1 O                    -0.453158      -0.000032
      2 C                    -0.386928       0.000300
      3 C                     0.149588      -0.007415
      4 O                    -0.733590      -0.005383
      5 C                    -0.235529      -0.002727
      6 C                    -0.091235      -0.025104
      7 C                    -0.123505       0.002629
      8 O                    -0.411445       0.002814
      9 O                    -0.486127      -0.001311
     10 H                     0.331532       0.000054
     11 H                     0.200855      -0.000368
     12 H                     0.195234      -0.000231
     13 H                     0.253361      -0.000907
     14 H                     0.268080      -0.000061
     15 H                     0.265151      -0.001036
     16 H                     0.335876       0.001036
     17 H                     0.329284      -0.000029
     18 O                    -0.112614       0.431554
     19 O                    -0.294830       0.606215
  --------------------------------------------------------
  Sum of atomic charges =    -1.000000
  Sum of spin   charges =     1.000000

 -----------------------------------------------------------------
                    Cartesian Multipole Moments
 -----------------------------------------------------------------
    Charge (ESU x 10^10)
                -4.8032
    Dipole Moment (Debye)
         X     -21.3429      Y      -4.6052      Z     -12.1132
       Tot      24.9691
    Quadrupole Moments (Debye-Ang)
        XX    -193.4863     XY     -22.6928     YY     -61.7098
        XZ     -70.1057     YZ     -20.3831     ZZ    -114.2249
    Octopole Moments (Debye-Ang^2)
       XXX   -1685.0761    XXY    -260.9928    XYY    -261.7105
       YYY    -243.5360    XXZ    -581.9467    XYZ    -123.8311
       YYZ    -137.6394    XZZ    -567.0383    YZZ    -168.6932
       ZZZ    -516.3222
    Hexadecapole Moments (Debye-Ang^3)
      XXXX  -14004.6482   XXXY   -2617.5559   XXYY   -1643.1551
      XYYY   -1169.2030   YYYY   -1365.0112   XXXZ   -4900.6641
      XXYZ   -1096.4523   XYYZ    -770.0311   YYYZ    -853.2646
      XXZZ   -3512.3906   XYZZ    -971.2341   YYZZ    -808.0359
      XZZZ   -2780.0844   YZZZ   -1133.7571   ZZZZ   -2724.3470
 -----------------------------------------------------------------
 Calculating analytic gradient of the SCF energy
 Gradient of CDS energy
            1           2           3           4           5           6
    1   0.0000942  -0.0005624  -0.0023243   0.0018827   0.0002191   0.0001558
    2   0.0002409  -0.0006636   0.0016812  -0.0013314  -0.0000855  -0.0000010
    3   0.0001249  -0.0006433   0.0015532  -0.0012730  -0.0001077   0.0000826
            7           8           9          10          11          12
    1  -0.0010922   0.0012218   0.0000610   0.0002646  -0.0000192   0.0000398
    2  -0.0011974   0.0016314  -0.0003974  -0.0004576   0.0000400   0.0001658
    3   0.0023350  -0.0024480  -0.0000040  -0.0000871   0.0002062  -0.0000949
           13          14          15          16          17          18
    1  -0.0000014   0.0001624  -0.0000781  -0.0002573   0.0001886   0.0000388
    2  -0.0000640   0.0000620  -0.0001388  -0.0000351   0.0004909   0.0000670
    3  -0.0001053  -0.0000238  -0.0000794   0.0004631  -0.0000041   0.0000752
           19
    1   0.0000063
    2  -0.0000074
    3   0.0000303
 Gradient of SCF Energy
            1           2           3           4           5           6
    1   0.0182759  -0.0472908   0.0483353  -0.0152162  -0.0341792   0.0452800
    2  -0.0158330   0.0060020   0.0045791  -0.0012235   0.0030001  -0.0269548
    3  -0.0045065   0.0045679   0.0062365   0.0022891  -0.0114553  -0.0507621
            7           8           9          10          11          12
    1  -0.0386337  -0.0146065   0.0128606  -0.0100645   0.0182710   0.0176746
    2   0.0385823  -0.0039712   0.0057118   0.0067585   0.0118522  -0.0112775
    3  -0.0301367   0.0174617   0.0094713  -0.0071814  -0.0137462   0.0167203
           13          14          15          16          17          18
    1  -0.0171175  -0.0331586   0.0271271   0.0173246  -0.0067940   0.0053545
    2   0.0148081  -0.0048829  -0.0079389  -0.0023642  -0.0076603  -0.0157342
    3   0.0178786   0.0104095   0.0179468  -0.0112807   0.0014679   0.0246759
           19
    1   0.0065574
    2   0.0065464
    3  -0.0000567
 Max gradient component =       5.076E-02
 RMS gradient           =       2.017E-02
 Computing fast CPCM-SWIG gradient
 Updating gradient with PCM contributions...
 -- total gradient after adding PCM contribution --
---------------------------------------------------
  Atom         X              Y              Z     
---------------------------------------------------
   1       0.000336      -0.001002      -0.001114
   2      -0.000562      -0.000114       0.002591
   3       0.025121      -0.001107      -0.009539
   4      -0.012355       0.005868       0.005950
   5      -0.036823      -0.015324      -0.019815
   6       0.030088       0.014219       0.005349
   7      -0.010968       0.009268      -0.004968
   8       0.001731      -0.001010       0.000472
   9       0.000670      -0.000947       0.000740
  10      -0.000047       0.000496       0.000170
  11      -0.000497      -0.000677      -0.000390
  12      -0.000074      -0.000069      -0.000316
  13       0.001144      -0.001629       0.002241
  14      -0.017216       0.011393      -0.010112
  15       0.000861       0.000112       0.001861
  16       0.000380      -0.000093      -0.000050
  17       0.000063      -0.000189      -0.000203
  18       0.008951      -0.024131       0.027393
  19       0.009196       0.004934      -0.000258
---------------------------------------------------
 Number of fixed atoms: 0
 Gradient time:  CPU 295.16 s  wall 27.41 s
 ######################################################
 ######################################################
 # Starting finite difference calculation for IDERIV  #
 Finite diff step size:  1.88973e-03 a.u.
 ----------------------------------------------------------------
             Standard Nuclear Orientation (Angstroms)
    I     Atom           X                Y                Z
 ----------------------------------------------------------------
    1      O       3.3460422000    -0.9650367000    -0.6945158000
    2      C       2.3838751000    -0.1809398000     0.0029845000
    3      C       2.9120325000     0.9021432000     0.9386442000
    4      O       1.9644674000     1.5430125000     1.5350600000
    5      C       4.2649943000     1.0836242000     1.0309622000
    6      C       5.0102391000     2.0830974000     1.8263405000
    7      C       4.2265776000     2.9925214000     2.7640843000
    8      O       3.7445838000     2.2395467000     3.8421753000
    9      O       5.0640992000     4.0012885000     3.3116245000
   10      H       3.8717386000    -1.4398888000    -0.0431345000
   11      H       1.7234766000    -0.8220042000     0.5936893000
   12      H       1.7719028000     0.3032342000    -0.7581468000
   13      H       4.8898043000     0.4886159000     0.3782084000
   14      H       5.6603664000     2.7116962000     1.2170238000
   15      H       3.4136817000     3.4536603000     2.2040032000
   16      H       3.0296756000     2.7352792000     4.2564426000
   17      H       5.2260101000     4.6639401000     2.6299719000
   18      O       6.1519556000     1.1863123000     3.0439462000
   19      O       7.3375225000     1.7256890000     3.0713350000
 ----------------------------------------------------------------
 Nuclear Repulsion Energy =         637.96618040 hartrees
 There are       44 alpha and       43 beta electrons
 Discretize the solute cavity surface with Lebedev spheres
	Using 110 Lebedev grid points for each H atom
	Using 194 Lebedev grid points for other atoms
	Atomic van der Waals radii will be scaled by 1.20
 Remove points where switching function is < 1.0e-08
 Keep 1591 surface tesserae and discard 1423 interior tesserae
 Molecular Surface Area = 180.728 Angst**2
 Requested basis set is 6-311++G(2df,2p)
 There are 136 shells and 454 basis functions
 A cutoff of  1.0D-11 yielded   7617 shell pairs
 There are     83674 function pairs (    103998 Cartesian)
 Smallest overlap matrix eigenvalue = 3.14E-06

 Q-Chem warning in module stvman/mkSTV.C, line 305:

 Overlap eigenvalue is smaller than square root of threshold
 Use THRESH >= 12 to get rid of this warning

 Guess MOs from SCF MO coefficient file

 -----------------------------------------------------------------------
  General SCF calculation program by
  Eric Jon Sundstrom, Paul Horn, Yuezhi Mao, Dmitri Zuev, Alec White,
  David Stuck, Shaama M.S., Shane Yost, Joonho Lee, David Small,
  Daniel Levine, Susi Lehtola, Hugh Burton, Evgeny Epifanovsky,
  Bang C. Huynh
 -----------------------------------------------------------------------
 Exchange:     0.1500 Hartree-Fock + 1.0000 wB97M-V + LR-HF
 Correlation:  1.0000 wB97M-V
 Using SG-2 standard quadrature grid
 Nonlocal Correlation:  VV10 with C = 0.0100 and b = 6.00 and scale = 1.00000
 Grid used for NLC:  SG-1 standard quadrature
 
 Citation of the SMD model:
 Marenich, A.V.; Cramer, C.J.; Truhlar, D.G.
 J. Phys. Chem. B 2009, 113, 6378-6396.
 iSolventCode=           1
 Solvent: water                                                           
 
 vradii
            1           2           3           4           5           6
    1   1.5200000   1.8500000   1.8500000   1.5200000   1.8500000   1.8500000
            7           8           9          10          11          12
    1   1.8500000   1.5200000   1.5200000   1.2000000   1.2000000   1.2000000
           13          14          15          16          17          18
    1   1.2000000   1.2000000   1.2000000   1.2000000   1.2000000   1.5200000
           19
    1   1.5200000
 -------------------------------------------------------
 OpenMP BLAS3 based DFT computing Module                
 Release: version 1.0, May 2013, Q-Chem Inc. Pittsburgh 
 -------------------------------------------------------
 A unrestricted SCF calculation will be
 performed using Roothaan-Hall, DIIS, GDM
 SCF converges when RMS gradient is below 1.0e-06
 ---------------------------------------
  Cycle       Energy         DIIS error
 ---------------------------------------
    1    -646.5509089838      2.80e-04  Roothaan Step
 ---------------------------------------
  Cycle       Energy         DIIS error
 ---------------------------------------
    1    -646.6723661419      3.32e-04  
    2    -646.6827395518      3.23e-04  Done DIIS. Switching to GDM
 ---------------------------------------
  Cycle       Energy        RMS Gradient
 ---------------------------------------
    1    -646.6827395518      1.88e-02   Normal BFGS step
    2    -646.6799485996      2.85e-02  Line search: overstep
    3    -646.6895557983      3.72e-03   Normal BFGS step
    4    -646.6899279732      5.70e-03   Normal BFGS step
    5    -646.6900502448      2.42e-03   Normal BFGS step
    6    -646.6900686793      1.14e-03   Normal BFGS step
    7    -646.6900759239      1.79e-04   Normal BFGS step
    8    -646.6900765629      1.06e-04   Normal BFGS step
    9    -646.6900768860      6.80e-05   Normal BFGS step
   10    -646.6900769386      4.90e-05   Normal BFGS step
   11    -646.6900769612      1.60e-05   Normal BFGS step
   12    -646.6900769669      9.27e-06   Normal BFGS step
   13    -646.6900769687      9.21e-06   Normal BFGS step
   14    -646.6900769693      5.33e-06   Normal BFGS step
   15    -646.6900769694      2.39e-06   Normal BFGS step
   16    -646.6900769696      1.17e-06   Normal BFGS step
   17    -646.6900769699      3.26e-07  Convergence criterion met
 ---------------------------------------
 SCF time:   CPU 2089.69s  wall 143.00s 
<S^2> =          0.758406853
(3)  G-ENP(liq) elect-nuc-pol free energy of system     -646.690076970 a.u.
(4)  G-CDS(liq) cavity-dispersion-solvent structure 
     free energy                                                4.0309 kcal/mol
(6)  G-S(liq) free energy of system                     -646.683653301 a.u.
 SCF   energy in the final basis set =     -646.6836533006
 Total energy in the final basis set =     -646.6836533006
 
 --------------------------------------------------------------
 
                    Orbital Energies (a.u.)
 --------------------------------------------------------------
 
 Alpha MOs
 -- Occupied --
-19.4210 -19.3858 -19.3441 -19.3385 -19.3343 -19.2745 -10.4474 -10.4078
-10.3969 -10.3766 -10.3086  -1.2878  -1.1987  -1.1530  -1.1311  -1.1050
 -0.9354  -0.8887  -0.8384  -0.7899  -0.7260  -0.6576  -0.6399  -0.6384
 -0.6077  -0.5811  -0.5777  -0.5682  -0.5587  -0.5533  -0.5266  -0.5068
 -0.4980  -0.4809  -0.4667  -0.4595  -0.4384  -0.4198  -0.4014  -0.3939
 -0.3695  -0.3587  -0.3301  -0.2898
 -- Virtual --
  0.0266   0.0341   0.0384   0.0461   0.0547   0.0593   0.0671   0.0753
  0.0921   0.1009   0.1057   0.1106   0.1216   0.1264   0.1316   0.1453
  0.1470   0.1557   0.1582   0.1688   0.1713   0.1747   0.1780   0.1877
  0.1921   0.1959   0.2052   0.2154   0.2220   0.2335   0.2378   0.2509
  0.2618   0.2673   0.2746   0.2768   0.2844   0.2875   0.2965   0.3007
  0.3044   0.3099   0.3171   0.3180   0.3363   0.3390   0.3443   0.3498
  0.3557   0.3614   0.3646   0.3704   0.3769   0.3811   0.3854   0.3880
  0.3961   0.3971   0.4065   0.4139   0.4185   0.4285   0.4394   0.4436
  0.4524   0.4698   0.4779   0.4825   0.5211   0.5240   0.5602   0.5839
  0.5922   0.6030   0.6124   0.6227   0.6283   0.6347   0.6492   0.6592
  0.6747   0.6776   0.6810   0.6926   0.6995   0.7093   0.7258   0.7300
  0.7326   0.7424   0.7451   0.7635   0.7899   0.7943   0.8026   0.8375
  0.8426   0.8655   0.8856   0.8987   0.9120   0.9205   0.9320   0.9599
  0.9687   0.9879   0.9985   1.0242   1.0272   1.0490   1.0756   1.0767
  1.0814   1.1028   1.1084   1.1330   1.1373   1.1543   1.1623   1.1696
  1.1822   1.1910   1.2028   1.2103   1.2191   1.2317   1.2390   1.2516
  1.2585   1.2656   1.2714   1.2757   1.2865   1.3014   1.3088   1.3109
  1.3402   1.3505   1.3688   1.3782   1.3805   1.3949   1.4057   1.4140
  1.4197   1.4405   1.4469   1.4645   1.4720   1.4902   1.5052   1.5113
  1.5254   1.5421   1.5554   1.5678   1.5749   1.5971   1.6061   1.6182
  1.6225   1.6308   1.6484   1.6596   1.6622   1.6947   1.7076   1.7196
  1.7310   1.7778   1.7930   1.8174   1.8436   1.8586   1.8887   1.9093
  1.9181   1.9511   1.9763   1.9868   2.0462   2.0560   2.0735   2.0887
  2.1467   2.1564   2.2311   2.2692   2.2745   2.3020   2.3164   2.3382
  2.3476   2.3716   2.3867   2.3909   2.4264   2.4682   2.5099   2.5191
  2.5759   2.5850   2.6852   2.7177   2.7297   2.7418   2.7794   2.8360
  2.8432   2.8667   2.8782   2.8916   2.9113   2.9298   2.9401   2.9567
  2.9754   3.0063   3.0230   3.0487   3.0565   3.0963   3.1178   3.1281
  3.1625   3.1812   3.1971   3.2120   3.2517   3.2668   3.2932   3.3051
  3.3417   3.3625   3.3779   3.3911   3.3974   3.4374   3.4435   3.4633
  3.4895   3.5026   3.5111   3.5364   3.5822   3.6017   3.6119   3.6178
  3.6323   3.6637   3.6741   3.7030   3.7063   3.7155   3.7317   3.7553
  3.7737   3.8032   3.8233   3.8368   3.8556   3.8687   3.8817   3.9017
  3.9089   3.9274   3.9386   3.9707   4.0029   4.0343   4.0590   4.0692
  4.0982   4.1364   4.1512   4.1818   4.2098   4.2254   4.2381   4.2521
  4.2665   4.3126   4.3217   4.3281   4.3446   4.3753   4.3843   4.4205
  4.4549   4.4736   4.4963   4.5191   4.5358   4.5791   4.5825   4.6232
  4.6291   4.6958   4.7089   4.7327   4.7513   4.7751   4.7990   4.8127
  4.8622   4.9009   5.0447   5.0782   5.0946   5.1099   5.1562   5.1732
  5.2064   5.2256   5.2333   5.2405   5.2480   5.2481   5.2580   5.2633
  5.2745   5.2866   5.3056   5.3075   5.3176   5.3282   5.3451   5.3541
  5.3661   5.3887   5.4145   5.4549   5.4648   5.4728   5.5068   5.5387
  5.5554   5.5731   5.5911   5.5986   5.6239   5.6420   5.6468   5.6756
  5.6838   5.6949   5.7003   5.7428   5.7606   5.8099   5.9110   5.9369
  6.0005   6.0105   6.0505   6.0596   6.0897   6.2335   6.4957   6.5409
  6.5629   6.5852   6.7002   6.7632   6.8283   6.8717   6.9462   7.0334
  7.0401   7.0532   7.0829   7.1009   7.1084   7.1316   7.1574   7.2249
  7.2691   7.2889   7.3051   7.3266   7.3280   7.3313   7.3545   7.3871
  7.4089   7.4206   7.4309   7.4539   7.5891   7.6410   7.6643   7.6717
  7.7543   7.7829   7.8099   7.8415   7.9083   7.9841   8.0745  24.5396
 24.6872  24.7577  24.8137  25.2099  50.4438  50.5274  50.5864  50.6266
 50.6422  50.7716
 
 Beta MOs
 -- Occupied --
-19.4074 -19.3687 -19.3440 -19.3386 -19.3343 -19.2746 -10.4473 -10.4083
-10.3970 -10.3766 -10.3086  -1.2577  -1.1986  -1.1530  -1.1311  -1.1052
 -0.9175  -0.8653  -0.8368  -0.7899  -0.7255  -0.6558  -0.6397  -0.6380
 -0.6055  -0.5694  -0.5608  -0.5572  -0.5452  -0.5254  -0.5084  -0.4972
 -0.4875  -0.4805  -0.4666  -0.4589  -0.4377  -0.4189  -0.4005  -0.3931
 -0.3497  -0.3279  -0.2841
 -- Virtual --
  0.0009   0.0270   0.0357   0.0392   0.0465   0.0559   0.0597   0.0675
  0.0754   0.0924   0.1016   0.1066   0.1112   0.1224   0.1270   0.1324
  0.1459   0.1472   0.1560   0.1587   0.1692   0.1717   0.1749   0.1792
  0.1881   0.1930   0.1969   0.2056   0.2161   0.2232   0.2350   0.2386
  0.2512   0.2630   0.2687   0.2760   0.2794   0.2847   0.2881   0.2995
  0.3035   0.3092   0.3116   0.3181   0.3190   0.3373   0.3401   0.3450
  0.3508   0.3564   0.3624   0.3660   0.3706   0.3776   0.3836   0.3857
  0.3900   0.3964   0.3980   0.4079   0.4142   0.4185   0.4309   0.4406
  0.4445   0.4532   0.4705   0.4783   0.4841   0.5210   0.5245   0.5603
  0.5840   0.5923   0.6033   0.6125   0.6227   0.6282   0.6347   0.6494
  0.6592   0.6747   0.6781   0.6810   0.6927   0.6995   0.7094   0.7260
  0.7301   0.7329   0.7425   0.7451   0.7639   0.7897   0.7945   0.8031
  0.8380   0.8433   0.8658   0.8860   0.8990   0.9132   0.9213   0.9326
  0.9602   0.9698   0.9881   0.9992   1.0256   1.0279   1.0497   1.0761
  1.0775   1.0831   1.1055   1.1097   1.1335   1.1493   1.1606   1.1641
  1.1712   1.1923   1.1996   1.2034   1.2139   1.2200   1.2323   1.2418
  1.2532   1.2593   1.2660   1.2734   1.2860   1.2904   1.3030   1.3110
  1.3186   1.3426   1.3522   1.3704   1.3797   1.3814   1.3966   1.4085
  1.4177   1.4202   1.4450   1.4490   1.4648   1.4739   1.4909   1.5109
  1.5152   1.5273   1.5449   1.5577   1.5729   1.5777   1.5995   1.6074
  1.6205   1.6314   1.6319   1.6498   1.6626   1.6705   1.7026   1.7144
  1.7249   1.7500   1.7837   1.7952   1.8236   1.8443   1.8626   1.8921
  1.9128   1.9218   1.9520   1.9778   1.9873   2.0464   2.0604   2.0761
  2.0891   2.1484   2.1587   2.2410   2.2727   2.2806   2.3167   2.3242
  2.3388   2.3483   2.3738   2.3899   2.3921   2.4285   2.4688   2.5109
  2.5195   2.5757   2.5849   2.6912   2.7192   2.7310   2.7425   2.7793
  2.8359   2.8432   2.8666   2.8778   2.8911   2.9109   2.9291   2.9395
  2.9563   2.9750   3.0055   3.0224   3.0483   3.0558   3.0959   3.1171
  3.1280   3.1623   3.1808   3.1967   3.2117   3.2511   3.2663   3.2931
  3.3050   3.3415   3.3624   3.3777   3.3908   3.3971   3.4371   3.4432
  3.4629   3.4891   3.5021   3.5108   3.5357   3.5819   3.6017   3.6116
  3.6176   3.6323   3.6636   3.6736   3.7023   3.7059   3.7146   3.7310
  3.7548   3.7729   3.8024   3.8230   3.8366   3.8550   3.8683   3.8812
  3.9013   3.9088   3.9272   3.9383   3.9705   4.0023   4.0340   4.0589
  4.0689   4.0976   4.1362   4.1510   4.1811   4.2096   4.2247   4.2378
  4.2518   4.2663   4.3124   4.3217   4.3281   4.3445   4.3749   4.3841
  4.4203   4.4548   4.4736   4.4961   4.5191   4.5373   4.5824   4.5946
  4.6263   4.6463   4.7034   4.7115   4.7361   4.7551   4.7861   4.8039
  4.8340   4.8683   4.9132   5.0472   5.1202   5.1376   5.1620   5.1904
  5.1987   5.2116   5.2339   5.2388   5.2500   5.2665   5.2710   5.2795
  5.2807   5.2875   5.2944   5.3110   5.3173   5.3219   5.3411   5.3456
  5.3595   5.3850   5.3899   5.4175   5.4572   5.4667   5.4829   5.5065
  5.5390   5.5555   5.5738   5.5921   5.5990   5.6233   5.6520   5.6712
  5.6762   5.6854   5.6957   5.7164   5.7432   5.7616   5.8099   5.9110
  5.9367   6.0006   6.0105   6.0505   6.0594   6.0897   6.2331   6.5411
  6.5490   6.5713   6.5855   6.7003   6.7654   6.9020   6.9477   7.0085
  7.0345   7.0636   7.0821   7.1082   7.1085   7.1143   7.1603   7.1740
  7.2271   7.2696   7.2913   7.3226   7.3276   7.3310   7.3393   7.3559
  7.3884   7.4212   7.4281   7.4542   7.4631   7.6042   7.6410   7.6645
  7.6731   7.7546   7.7829   7.8106   7.8413   7.9093   8.0017   8.0932
 24.5393  24.6870  24.7577  24.8137  25.2098  50.4560  50.5379  50.5864
 50.6274  50.6424  50.7715
 --------------------------------------------------------------
 
          Ground-State Mulliken Net Atomic Charges

     Atom                 Charge (a.u.)    Spin (a.u.)
  --------------------------------------------------------
      1 O                    -0.453326      -0.000032
      2 C                    -0.386798       0.000300
      3 C                     0.149461      -0.007416
      4 O                    -0.733555      -0.005384
      5 C                    -0.235578      -0.002726
      6 C                    -0.091164      -0.025103
      7 C                    -0.123508       0.002630
      8 O                    -0.411446       0.002814
      9 O                    -0.486127      -0.001311
     10 H                     0.331396       0.000054
     11 H                     0.200963      -0.000368
     12 H                     0.195324      -0.000231
     13 H                     0.253410      -0.000908
     14 H                     0.268075      -0.000061
     15 H                     0.265155      -0.001035
     16 H                     0.335876       0.001036
     17 H                     0.329284      -0.000029
     18 O                    -0.112615       0.431554
     19 O                    -0.294830       0.606215
  --------------------------------------------------------
  Sum of atomic charges =    -1.000000
  Sum of spin   charges =     1.000000

 -----------------------------------------------------------------
                    Cartesian Multipole Moments
 -----------------------------------------------------------------
    Charge (ESU x 10^10)
                -4.8032
    Dipole Moment (Debye)
         X     -21.3473      Y      -4.6041      Z     -12.1118
       Tot      24.9720
    Quadrupole Moments (Debye-Ang)
        XX    -193.5125     XY     -22.6866     YY     -61.7102
        XZ     -70.1003     YZ     -20.3843     ZZ    -114.2245
    Octopole Moments (Debye-Ang^2)
       XXX   -1685.2154    XXY    -260.9635    XYY    -261.7220
       YYY    -243.5339    XXZ    -581.9220    XYZ    -123.8366
       YYZ    -137.6371    XZZ    -567.0457    YZZ    -168.6919
       ZZZ    -516.3191
    Hexadecapole Moments (Debye-Ang^3)
      XXXX  -14005.3966   XXXY   -2617.4105   XXYY   -1643.2233
      XYYY   -1169.1779   YYYY   -1365.0111   XXXZ   -4900.5385
      XXYZ   -1096.4773   XYYZ    -770.0187   YYYZ    -853.2685
      XXZZ   -3512.4405   XYZZ    -971.2233   YYZZ    -808.0367
      XZZZ   -2780.0621   YZZZ   -1133.7595   ZZZZ   -2724.3443
 -----------------------------------------------------------------
 Calculating analytic gradient of the SCF energy
 Gradient of CDS energy
            1           2           3           4           5           6
    1   0.0000953  -0.0005631  -0.0023243   0.0018827   0.0002191   0.0001558
    2   0.0002412  -0.0006650   0.0016813  -0.0013314  -0.0000855  -0.0000010
    3   0.0001243  -0.0006433   0.0015532  -0.0012730  -0.0001077   0.0000826
            7           8           9          10          11          12
    1  -0.0010922   0.0012218   0.0000610   0.0002647  -0.0000197   0.0000396
    2  -0.0011974   0.0016314  -0.0003974  -0.0004577   0.0000411   0.0001660
    3   0.0023350  -0.0024480  -0.0000040  -0.0000870   0.0002065  -0.0000946
           13          14          15          16          17          18
    1  -0.0000015   0.0001624  -0.0000781  -0.0002573   0.0001886   0.0000388
    2  -0.0000641   0.0000620  -0.0001388  -0.0000351   0.0004909   0.0000670
    3  -0.0001054  -0.0000238  -0.0000794   0.0004631  -0.0000041   0.0000752
           19
    1   0.0000063
    2  -0.0000074
    3   0.0000303
 Gradient of SCF Energy
            1           2           3           4           5           6
    1   0.0188632  -0.0475370   0.0483460  -0.0152122  -0.0341746   0.0452748
    2  -0.0162627   0.0061203   0.0045767  -0.0012189   0.0029887  -0.0269519
    3  -0.0042879   0.0046761   0.0062381   0.0022935  -0.0114683  -0.0507625
            7           8           9          10          11          12
    1  -0.0386323  -0.0146037   0.0128613  -0.0103557   0.0182348   0.0176487
    2   0.0385819  -0.0039717   0.0057114   0.0070299   0.0118743  -0.0112561
    3  -0.0301354   0.0174610   0.0094709  -0.0075506  -0.0137195   0.0167354
           13          14          15          16          17          18
    1  -0.0171203  -0.0331598   0.0271255   0.0173229  -0.0067944   0.0053554
    2   0.0148113  -0.0048834  -0.0079382  -0.0023637  -0.0076603  -0.0157338
    3   0.0178838   0.0104118   0.0179464  -0.0112801   0.0014681   0.0246760
           19
    1   0.0065573
    2   0.0065462
    3  -0.0000567
 Max gradient component =       5.076E-02
 RMS gradient           =       2.020E-02
 Computing fast CPCM-SWIG gradient
 Updating gradient with PCM contributions...
 -- total gradient after adding PCM contribution --
---------------------------------------------------
  Atom         X              Y              Z     
---------------------------------------------------
   1       0.000984      -0.001456      -0.000926
   2      -0.000833       0.000005       0.002712
   3       0.025123      -0.001106      -0.009542
   4      -0.012353       0.005871       0.005953
   5      -0.036827      -0.015326      -0.019814
   6       0.030092       0.014217       0.005347
   7      -0.010969       0.009268      -0.004968
   8       0.001732      -0.001010       0.000472
   9       0.000670      -0.000947       0.000740
  10      -0.000348       0.000764      -0.000196
  11      -0.000540      -0.000639      -0.000354
  12      -0.000112      -0.000035      -0.000288
  13       0.001146      -0.001634       0.002235
  14      -0.017216       0.011393      -0.010112
  15       0.000861       0.000112       0.001861
  16       0.000380      -0.000093      -0.000051
  17       0.000063      -0.000189      -0.000203
  18       0.008952      -0.024131       0.027393
  19       0.009196       0.004934      -0.000258
---------------------------------------------------
 Number of fixed atoms: 0
 Gradient time:  CPU 293.54 s  wall 27.85 s
 ----------------------------------------------------------------
             Standard Nuclear Orientation (Angstroms)
    I     Atom           X                Y                Z
 ----------------------------------------------------------------
    1      O       3.3440422000    -0.9650367000    -0.6945158000
    2      C       2.3838751000    -0.1809398000     0.0029845000
    3      C       2.9120325000     0.9021432000     0.9386442000
    4      O       1.9644674000     1.5430125000     1.5350600000
    5      C       4.2649943000     1.0836242000     1.0309622000
    6      C       5.0102391000     2.0830974000     1.8263405000
    7      C       4.2265776000     2.9925214000     2.7640843000
    8      O       3.7445838000     2.2395467000     3.8421753000
    9      O       5.0640992000     4.0012885000     3.3116245000
   10      H       3.8717386000    -1.4398888000    -0.0431345000
   11      H       1.7234766000    -0.8220042000     0.5936893000
   12      H       1.7719028000     0.3032342000    -0.7581468000
   13      H       4.8898043000     0.4886159000     0.3782084000
   14      H       5.6603664000     2.7116962000     1.2170238000
   15      H       3.4136817000     3.4536603000     2.2040032000
   16      H       3.0296756000     2.7352792000     4.2564426000
   17      H       5.2260101000     4.6639401000     2.6299719000
   18      O       6.1519556000     1.1863123000     3.0439462000
   19      O       7.3375225000     1.7256890000     3.0713350000
 ----------------------------------------------------------------
 Nuclear Repulsion Energy =         637.97684628 hartrees
 There are       44 alpha and       43 beta electrons
 Discretize the solute cavity surface with Lebedev spheres
	Using 110 Lebedev grid points for each H atom
	Using 194 Lebedev grid points for other atoms
	Atomic van der Waals radii will be scaled by 1.20
 Remove points where switching function is < 1.0e-08
 Keep 1592 surface tesserae and discard 1422 interior tesserae
 Molecular Surface Area = 180.727 Angst**2
 Requested basis set is 6-311++G(2df,2p)
 There are 136 shells and 454 basis functions
 A cutoff of  1.0D-11 yielded   7617 shell pairs
 There are     83674 function pairs (    103998 Cartesian)
 Smallest overlap matrix eigenvalue = 3.14E-06

 Q-Chem warning in module stvman/mkSTV.C, line 305:

 Overlap eigenvalue is smaller than square root of threshold
 Use THRESH >= 12 to get rid of this warning

 Guess MOs from SCF MO coefficient file

 -----------------------------------------------------------------------
  General SCF calculation program by
  Eric Jon Sundstrom, Paul Horn, Yuezhi Mao, Dmitri Zuev, Alec White,
  David Stuck, Shaama M.S., Shane Yost, Joonho Lee, David Small,
  Daniel Levine, Susi Lehtola, Hugh Burton, Evgeny Epifanovsky,
  Bang C. Huynh
 -----------------------------------------------------------------------
 Exchange:     0.1500 Hartree-Fock + 1.0000 wB97M-V + LR-HF
 Correlation:  1.0000 wB97M-V
 Using SG-2 standard quadrature grid
 Nonlocal Correlation:  VV10 with C = 0.0100 and b = 6.00 and scale = 1.00000
 Grid used for NLC:  SG-1 standard quadrature
 
 Citation of the SMD model:
 Marenich, A.V.; Cramer, C.J.; Truhlar, D.G.
 J. Phys. Chem. B 2009, 113, 6378-6396.
 iSolventCode=           1
 Solvent: water                                                           
 
 vradii
            1           2           3           4           5           6
    1   1.5200000   1.8500000   1.8500000   1.5200000   1.8500000   1.8500000
            7           8           9          10          11          12
    1   1.8500000   1.5200000   1.5200000   1.2000000   1.2000000   1.2000000
           13          14          15          16          17          18
    1   1.2000000   1.2000000   1.2000000   1.2000000   1.2000000   1.5200000
           19
    1   1.5200000
 -------------------------------------------------------
 OpenMP BLAS3 based DFT computing Module                
 Release: version 1.0, May 2013, Q-Chem Inc. Pittsburgh 
 -------------------------------------------------------
 A unrestricted SCF calculation will be
 performed using Roothaan-Hall, DIIS, GDM
 SCF converges when RMS gradient is below 1.0e-06
 ---------------------------------------
  Cycle       Energy         DIIS error
 ---------------------------------------
    1    -646.5508970712      2.79e-04  Roothaan Step
 ---------------------------------------
  Cycle       Energy         DIIS error
 ---------------------------------------
    1    -646.6723660923      3.32e-04  
    2    -646.6827361624      3.23e-04  Done DIIS. Switching to GDM
 ---------------------------------------
  Cycle       Energy        RMS Gradient
 ---------------------------------------
    1    -646.6827361624      1.89e-02   Normal BFGS step
    2    -646.6799437839      2.87e-02  Line search: overstep
    3    -646.6895567785      3.72e-03   Normal BFGS step
    4    -646.6899288564      5.71e-03   Normal BFGS step
    5    -646.6900511593      2.42e-03   Normal BFGS step
    6    -646.6900695946      1.14e-03   Normal BFGS step
    7    -646.6900768378      1.79e-04   Normal BFGS step
    8    -646.6900774770      1.06e-04   Normal BFGS step
    9    -646.6900778003      6.80e-05   Normal BFGS step
   10    -646.6900778528      4.90e-05   Normal BFGS step
   11    -646.6900778755      1.60e-05   Normal BFGS step
   12    -646.6900778812      9.26e-06   Normal BFGS step
   13    -646.6900778829      9.22e-06   Normal BFGS step
   14    -646.6900778836      5.32e-06   Normal BFGS step
   15    -646.6900778837      2.39e-06   Normal BFGS step
   16    -646.6900778838      1.17e-06   Normal BFGS step
   17    -646.6900778842      3.20e-07  Convergence criterion met
 ---------------------------------------
 SCF time:   CPU 2083.18s  wall 143.00s 
<S^2> =          0.758406656
(3)  G-ENP(liq) elect-nuc-pol free energy of system     -646.690077884 a.u.
(4)  G-CDS(liq) cavity-dispersion-solvent structure 
     free energy                                                4.0307 kcal/mol
(6)  G-S(liq) free energy of system                     -646.683654570 a.u.
 SCF   energy in the final basis set =     -646.6836545704
 Total energy in the final basis set =     -646.6836545704
 
 --------------------------------------------------------------
 
                    Orbital Energies (a.u.)
 --------------------------------------------------------------
 
 Alpha MOs
 -- Occupied --
-19.4210 -19.3858 -19.3441 -19.3385 -19.3344 -19.2745 -10.4474 -10.4078
-10.3969 -10.3764 -10.3086  -1.2878  -1.1987  -1.1532  -1.1311  -1.1049
 -0.9354  -0.8887  -0.8384  -0.7899  -0.7260  -0.6576  -0.6400  -0.6384
 -0.6077  -0.5811  -0.5777  -0.5682  -0.5588  -0.5534  -0.5266  -0.5068
 -0.4980  -0.4809  -0.4667  -0.4596  -0.4383  -0.4198  -0.4013  -0.3938
 -0.3695  -0.3587  -0.3300  -0.2898
 -- Virtual --
  0.0266   0.0341   0.0384   0.0461   0.0547   0.0593   0.0671   0.0753
  0.0921   0.1009   0.1057   0.1106   0.1216   0.1264   0.1316   0.1453
  0.1470   0.1557   0.1582   0.1688   0.1713   0.1747   0.1780   0.1877
  0.1921   0.1959   0.2052   0.2154   0.2220   0.2336   0.2378   0.2509
  0.2618   0.2673   0.2746   0.2768   0.2844   0.2875   0.2966   0.3007
  0.3044   0.3098   0.3171   0.3179   0.3363   0.3390   0.3444   0.3499
  0.3557   0.3614   0.3646   0.3703   0.3770   0.3811   0.3854   0.3880
  0.3961   0.3971   0.4065   0.4140   0.4185   0.4284   0.4394   0.4436
  0.4523   0.4698   0.4780   0.4825   0.5211   0.5240   0.5602   0.5839
  0.5922   0.6030   0.6125   0.6227   0.6282   0.6345   0.6492   0.6592
  0.6746   0.6775   0.6810   0.6926   0.6996   0.7093   0.7259   0.7301
  0.7326   0.7424   0.7452   0.7635   0.7898   0.7942   0.8025   0.8375
  0.8426   0.8655   0.8856   0.8987   0.9120   0.9205   0.9320   0.9599
  0.9687   0.9879   0.9985   1.0243   1.0272   1.0491   1.0758   1.0767
  1.0815   1.1028   1.1085   1.1330   1.1373   1.1543   1.1624   1.1697
  1.1822   1.1909   1.2028   1.2103   1.2191   1.2317   1.2390   1.2516
  1.2585   1.2657   1.2713   1.2757   1.2865   1.3015   1.3088   1.3110
  1.3402   1.3504   1.3688   1.3782   1.3805   1.3948   1.4056   1.4141
  1.4197   1.4406   1.4470   1.4645   1.4720   1.4901   1.5051   1.5113
  1.5254   1.5421   1.5555   1.5678   1.5749   1.5971   1.6060   1.6183
  1.6223   1.6308   1.6483   1.6597   1.6622   1.6947   1.7075   1.7195
  1.7310   1.7778   1.7931   1.8174   1.8438   1.8587   1.8888   1.9093
  1.9181   1.9511   1.9763   1.9867   2.0460   2.0561   2.0736   2.0891
  2.1468   2.1564   2.2311   2.2693   2.2747   2.3020   2.3167   2.3389
  2.3477   2.3719   2.3868   2.3911   2.4265   2.4682   2.5099   2.5191
  2.5761   2.5847   2.6852   2.7177   2.7297   2.7417   2.7794   2.8361
  2.8432   2.8667   2.8782   2.8916   2.9113   2.9299   2.9401   2.9567
  2.9754   3.0064   3.0230   3.0487   3.0565   3.0963   3.1179   3.1281
  3.1624   3.1812   3.1973   3.2120   3.2517   3.2669   3.2934   3.3054
  3.3421   3.3625   3.3780   3.3912   3.3975   3.4374   3.4436   3.4633
  3.4896   3.5026   3.5112   3.5364   3.5822   3.6017   3.6120   3.6178
  3.6324   3.6636   3.6742   3.7031   3.7062   3.7155   3.7317   3.7552
  3.7739   3.8032   3.8232   3.8370   3.8556   3.8687   3.8817   3.9017
  3.9090   3.9273   3.9385   3.9705   4.0029   4.0342   4.0591   4.0694
  4.0982   4.1364   4.1514   4.1818   4.2097   4.2254   4.2382   4.2519
  4.2665   4.3119   4.3216   4.3275   4.3445   4.3752   4.3844   4.4203
  4.4549   4.4736   4.4962   4.5191   4.5358   4.5791   4.5827   4.6233
  4.6291   4.6958   4.7089   4.7327   4.7513   4.7751   4.7991   4.8127
  4.8621   4.9009   5.0447   5.0782   5.0946   5.1099   5.1562   5.1732
  5.2064   5.2256   5.2333   5.2405   5.2480   5.2481   5.2580   5.2632
  5.2746   5.2867   5.3056   5.3074   5.3177   5.3283   5.3451   5.3541
  5.3661   5.3888   5.4145   5.4549   5.4651   5.4729   5.5068   5.5387
  5.5554   5.5731   5.5913   5.5988   5.6239   5.6420   5.6468   5.6746
  5.6836   5.6940   5.7003   5.7430   5.7607   5.8099   5.9111   5.9375
  6.0017   6.0109   6.0520   6.0601   6.0897   6.2336   6.4957   6.5410
  6.5631   6.5879   6.7015   6.7632   6.8283   6.8717   6.9462   7.0334
  7.0401   7.0532   7.0829   7.1010   7.1082   7.1316   7.1574   7.2250
  7.2691   7.2889   7.3050   7.3226   7.3281   7.3304   7.3545   7.3876
  7.4089   7.4206   7.4309   7.4539   7.5891   7.6419   7.6644   7.6718
  7.7543   7.7833   7.8099   7.8415   7.9083   7.9841   8.0745  24.5397
 24.6873  24.7597  24.8137  25.2099  50.4438  50.5274  50.5861  50.6266
 50.6422  50.7716
 
 Beta MOs
 -- Occupied --
-19.4074 -19.3687 -19.3440 -19.3386 -19.3344 -19.2746 -10.4473 -10.4083
-10.3970 -10.3764 -10.3086  -1.2577  -1.1986  -1.1532  -1.1311  -1.1052
 -0.9175  -0.8653  -0.8367  -0.7899  -0.7255  -0.6558  -0.6398  -0.6381
 -0.6055  -0.5694  -0.5608  -0.5572  -0.5452  -0.5254  -0.5084  -0.4972
 -0.4875  -0.4805  -0.4666  -0.4589  -0.4377  -0.4189  -0.4004  -0.3931
 -0.3497  -0.3279  -0.2841
 -- Virtual --
  0.0009   0.0270   0.0357   0.0392   0.0465   0.0559   0.0597   0.0675
  0.0754   0.0924   0.1016   0.1066   0.1112   0.1224   0.1270   0.1324
  0.1459   0.1472   0.1560   0.1587   0.1692   0.1717   0.1749   0.1792
  0.1881   0.1930   0.1969   0.2056   0.2161   0.2232   0.2350   0.2387
  0.2512   0.2630   0.2686   0.2760   0.2794   0.2847   0.2881   0.2995
  0.3035   0.3092   0.3116   0.3181   0.3190   0.3373   0.3401   0.3452
  0.3509   0.3564   0.3624   0.3660   0.3705   0.3777   0.3836   0.3857
  0.3900   0.3964   0.3980   0.4079   0.4143   0.4185   0.4309   0.4406
  0.4445   0.4531   0.4705   0.4784   0.4841   0.5210   0.5245   0.5604
  0.5840   0.5923   0.6033   0.6125   0.6227   0.6282   0.6346   0.6494
  0.6593   0.6746   0.6780   0.6810   0.6927   0.6996   0.7094   0.7261
  0.7301   0.7329   0.7425   0.7452   0.7639   0.7897   0.7945   0.8031
  0.8380   0.8432   0.8658   0.8860   0.8990   0.9131   0.9213   0.9326
  0.9602   0.9698   0.9881   0.9992   1.0256   1.0279   1.0497   1.0763
  1.0774   1.0832   1.1055   1.1098   1.1335   1.1493   1.1606   1.1642
  1.1713   1.1922   1.1996   1.2034   1.2139   1.2201   1.2322   1.2418
  1.2532   1.2593   1.2660   1.2734   1.2861   1.2904   1.3030   1.3111
  1.3186   1.3425   1.3522   1.3704   1.3798   1.3814   1.3965   1.4085
  1.4177   1.4202   1.4450   1.4490   1.4649   1.4739   1.4908   1.5108
  1.5152   1.5273   1.5449   1.5578   1.5729   1.5777   1.5995   1.6073
  1.6206   1.6313   1.6318   1.6498   1.6626   1.6705   1.7026   1.7144
  1.7247   1.7500   1.7837   1.7953   1.8236   1.8445   1.8627   1.8921
  1.9128   1.9218   1.9520   1.9777   1.9872   2.0462   2.0604   2.0762
  2.0894   2.1484   2.1587   2.2411   2.2727   2.2808   2.3169   2.3243
  2.3395   2.3484   2.3741   2.3899   2.3922   2.4285   2.4688   2.5109
  2.5195   2.5759   2.5845   2.6912   2.7192   2.7309   2.7425   2.7792
  2.8361   2.8432   2.8667   2.8778   2.8911   2.9109   2.9291   2.9395
  2.9563   2.9750   3.0056   3.0225   3.0483   3.0558   3.0959   3.1172
  3.1280   3.1622   3.1809   3.1969   3.2117   3.2512   3.2664   3.2933
  3.3052   3.3419   3.3624   3.3778   3.3909   3.3972   3.4371   3.4432
  3.4629   3.4893   3.5021   3.5109   3.5357   3.5819   3.6017   3.6118
  3.6176   3.6323   3.6635   3.6737   3.7023   3.7058   3.7146   3.7310
  3.7548   3.7731   3.8025   3.8230   3.8368   3.8550   3.8683   3.8812
  3.9013   3.9089   3.9271   3.9383   3.9703   4.0024   4.0339   4.0589
  4.0691   4.0976   4.1362   4.1511   4.1812   4.2095   4.2247   4.2378
  4.2516   4.2662   4.3116   4.3215   4.3276   4.3444   4.3748   4.3842
  4.4201   4.4548   4.4735   4.4961   4.5191   4.5373   4.5826   4.5946
  4.6263   4.6463   4.7034   4.7115   4.7361   4.7551   4.7861   4.8040
  4.8340   4.8682   4.9132   5.0472   5.1202   5.1376   5.1620   5.1904
  5.1987   5.2116   5.2340   5.2389   5.2500   5.2665   5.2710   5.2795
  5.2807   5.2875   5.2945   5.3109   5.3173   5.3219   5.3411   5.3456
  5.3595   5.3851   5.3900   5.4175   5.4573   5.4670   5.4830   5.5066
  5.5390   5.5556   5.5738   5.5923   5.5992   5.6233   5.6520   5.6710
  5.6753   5.6852   5.6947   5.7164   5.7433   5.7617   5.8100   5.9111
  5.9373   6.0018   6.0108   6.0520   6.0600   6.0897   6.2331   6.5412
  6.5491   6.5715   6.5881   6.7017   6.7655   6.9020   6.9477   7.0085
  7.0346   7.0636   7.0821   7.1081   7.1085   7.1143   7.1603   7.1740
  7.2273   7.2696   7.2913   7.3201   7.3266   7.3294   7.3393   7.3559
  7.3889   7.4212   7.4281   7.4542   7.4631   7.6042   7.6419   7.6645
  7.6731   7.7546   7.7833   7.8106   7.8413   7.9093   8.0017   8.0933
 24.5394  24.6872  24.7597  24.8137  25.2098  50.4560  50.5379  50.5861
 50.6274  50.6424  50.7715
 --------------------------------------------------------------
 
          Ground-State Mulliken Net Atomic Charges

     Atom                 Charge (a.u.)    Spin (a.u.)
  --------------------------------------------------------
      1 O                    -0.452988      -0.000032
      2 C                    -0.387058       0.000300
      3 C                     0.149713      -0.007414
      4 O                    -0.733626      -0.005383
      5 C                    -0.235476      -0.002725
      6 C                    -0.091307      -0.025104
      7 C                    -0.123502       0.002629
      8 O                    -0.411444       0.002814
      9 O                    -0.486128      -0.001311
     10 H                     0.331667       0.000053
     11 H                     0.200747      -0.000368
     12 H                     0.195143      -0.000231
     13 H                     0.253312      -0.000907
     14 H                     0.268084      -0.000061
     15 H                     0.265146      -0.001035
     16 H                     0.335875       0.001036
     17 H                     0.329285      -0.000029
     18 O                    -0.112614       0.431554
     19 O                    -0.294831       0.606213
  --------------------------------------------------------
  Sum of atomic charges =    -1.000000
  Sum of spin   charges =     1.000000

 -----------------------------------------------------------------
                    Cartesian Multipole Moments
 -----------------------------------------------------------------
    Charge (ESU x 10^10)
                -4.8032
    Dipole Moment (Debye)
         X     -21.3384      Y      -4.6064      Z     -12.1145
       Tot      24.9661
    Quadrupole Moments (Debye-Ang)
        XX    -193.4605     XY     -22.6991     YY     -61.7094
        XZ     -70.1113     YZ     -20.3819     ZZ    -114.2254
    Octopole Moments (Debye-Ang^2)
       XXX   -1684.9391    XXY    -261.0225    XYY    -261.6992
       YYY    -243.5380    XXZ    -581.9727    XYZ    -123.8258
       YYZ    -137.6418    XZZ    -567.0315    YZZ    -168.6946
       ZZZ    -516.3255
    Hexadecapole Moments (Debye-Ang^3)
      XXXX  -14003.9172   XXXY   -2617.7041   XXYY   -1643.0878
      XYYY   -1169.2280   YYYY   -1365.0109   XXXZ   -4900.7984
      XXYZ   -1096.4293   XYYZ    -770.0443   YYYZ    -853.2609
      XXZZ   -3512.3449   XYZZ    -971.2461   YYZZ    -808.0355
      XZZZ   -2780.1085   YZZZ   -1133.7551   ZZZZ   -2724.3502
 -----------------------------------------------------------------
 Calculating analytic gradient of the SCF energy
 Gradient of CDS energy
            1           2           3           4           5           6
    1   0.0000921  -0.0005608  -0.0023243   0.0018827   0.0002191   0.0001558
    2   0.0002415  -0.0006630   0.0016811  -0.0013314  -0.0000855  -0.0000010
    3   0.0001263  -0.0006440   0.0015531  -0.0012730  -0.0001077   0.0000826
            7           8           9          10          11          12
    1  -0.0010922   0.0012218   0.0000610   0.0002646  -0.0000188   0.0000399
    2  -0.0011974   0.0016314  -0.0003974  -0.0004574   0.0000389   0.0001656
    3   0.0023350  -0.0024480  -0.0000040  -0.0000872   0.0002059  -0.0000952
           13          14          15          16          17          18
    1  -0.0000014   0.0001624  -0.0000781  -0.0002573   0.0001886   0.0000388
    2  -0.0000640   0.0000620  -0.0001388  -0.0000351   0.0004909   0.0000670
    3  -0.0001053  -0.0000238  -0.0000794   0.0004631  -0.0000041   0.0000752
           19
    1   0.0000063
    2  -0.0000074
    3   0.0000303
 Gradient of SCF Energy
            1           2           3           4           5           6
    1   0.0176869  -0.0470429   0.0483246  -0.0152200  -0.0341847   0.0452858
    2  -0.0154026   0.0058821   0.0045816  -0.0012283   0.0030116  -0.0269581
    3  -0.0047224   0.0044586   0.0062351   0.0022845  -0.0114424  -0.0507616
            7           8           9          10          11          12
    1  -0.0386352  -0.0146092   0.0128598  -0.0097732   0.0183072   0.0177005
    2   0.0385834  -0.0039707   0.0057120   0.0064881   0.0118300  -0.0112989
    3  -0.0301376   0.0174623   0.0094716  -0.0068135  -0.0137729   0.0167051
           13          14          15          16          17          18
    1  -0.0171146  -0.0331574   0.0271287   0.0173263  -0.0067937   0.0053539
    2   0.0148048  -0.0048823  -0.0079396  -0.0023648  -0.0076604  -0.0157344
    3   0.0178733   0.0104072   0.0179471  -0.0112813   0.0014677   0.0246757
           19
    1   0.0065572
    2   0.0065465
    3  -0.0000566
 Max gradient component =       5.076E-02
 RMS gradient           =       2.014E-02
 Computing fast CPCM-SWIG gradient
 Updating gradient with PCM contributions...
 -- total gradient after adding PCM contribution --
---------------------------------------------------
  Atom         X              Y              Z     
---------------------------------------------------
   1      -0.000313      -0.000547      -0.001300
   2      -0.000289      -0.000234       0.002469
   3       0.025119      -0.001107      -0.009536
   4      -0.012357       0.005864       0.005946
   5      -0.036819      -0.015323      -0.019817
   6       0.030085       0.014221       0.005352
   7      -0.010966       0.009268      -0.004968
   8       0.001731      -0.001010       0.000472
   9       0.000669      -0.000946       0.000741
  10       0.000254       0.000230       0.000534
  11      -0.000454      -0.000716      -0.000425
  12      -0.000036      -0.000104      -0.000343
  13       0.001141      -0.001624       0.002247
  14      -0.017217       0.011393      -0.010112
  15       0.000861       0.000112       0.001861
  16       0.000380      -0.000093      -0.000050
  17       0.000063      -0.000189      -0.000203
  18       0.008951      -0.024131       0.027392
  19       0.009195       0.004934      -0.000259
---------------------------------------------------
 Number of fixed atoms: 0
 Gradient time:  CPU 290.24 s  wall 27.06 s
 ----------------------------------------------------------------
             Standard Nuclear Orientation (Angstroms)
    I     Atom           X                Y                Z
 ----------------------------------------------------------------
    1      O       3.3450422000    -0.9640367000    -0.6945158000
    2      C       2.3838751000    -0.1809398000     0.0029845000
    3      C       2.9120325000     0.9021432000     0.9386442000
    4      O       1.9644674000     1.5430125000     1.5350600000
    5      C       4.2649943000     1.0836242000     1.0309622000
    6      C       5.0102391000     2.0830974000     1.8263405000
    7      C       4.2265776000     2.9925214000     2.7640843000
    8      O       3.7445838000     2.2395467000     3.8421753000
    9      O       5.0640992000     4.0012885000     3.3116245000
   10      H       3.8717386000    -1.4398888000    -0.0431345000
   11      H       1.7234766000    -0.8220042000     0.5936893000
   12      H       1.7719028000     0.3032342000    -0.7581468000
   13      H       4.8898043000     0.4886159000     0.3782084000
   14      H       5.6603664000     2.7116962000     1.2170238000
   15      H       3.4136817000     3.4536603000     2.2040032000
   16      H       3.0296756000     2.7352792000     4.2564426000
   17      H       5.2260101000     4.6639401000     2.6299719000
   18      O       6.1519556000     1.1863123000     3.0439462000
   19      O       7.3375225000     1.7256890000     3.0713350000
 ----------------------------------------------------------------
 Nuclear Repulsion Energy =         637.98858925 hartrees
 There are       44 alpha and       43 beta electrons
 Discretize the solute cavity surface with Lebedev spheres
	Using 110 Lebedev grid points for each H atom
	Using 194 Lebedev grid points for other atoms
	Atomic van der Waals radii will be scaled by 1.20
 Remove points where switching function is < 1.0e-08
 Keep 1591 surface tesserae and discard 1423 interior tesserae
 Molecular Surface Area = 180.725 Angst**2
 Requested basis set is 6-311++G(2df,2p)
 There are 136 shells and 454 basis functions
 A cutoff of  1.0D-11 yielded   7617 shell pairs
 There are     83674 function pairs (    103998 Cartesian)
 Smallest overlap matrix eigenvalue = 3.14E-06

 Q-Chem warning in module stvman/mkSTV.C, line 305:

 Overlap eigenvalue is smaller than square root of threshold
 Use THRESH >= 12 to get rid of this warning

 Guess MOs from SCF MO coefficient file

 -----------------------------------------------------------------------
  General SCF calculation program by
  Eric Jon Sundstrom, Paul Horn, Yuezhi Mao, Dmitri Zuev, Alec White,
  David Stuck, Shaama M.S., Shane Yost, Joonho Lee, David Small,
  Daniel Levine, Susi Lehtola, Hugh Burton, Evgeny Epifanovsky,
  Bang C. Huynh
 -----------------------------------------------------------------------
 Exchange:     0.1500 Hartree-Fock + 1.0000 wB97M-V + LR-HF
 Correlation:  1.0000 wB97M-V
 Using SG-2 standard quadrature grid
 Nonlocal Correlation:  VV10 with C = 0.0100 and b = 6.00 and scale = 1.00000
 Grid used for NLC:  SG-1 standard quadrature
 
 Citation of the SMD model:
 Marenich, A.V.; Cramer, C.J.; Truhlar, D.G.
 J. Phys. Chem. B 2009, 113, 6378-6396.
 iSolventCode=           1
 Solvent: water                                                           
 
 vradii
            1           2           3           4           5           6
    1   1.5200000   1.8500000   1.8500000   1.5200000   1.8500000   1.8500000
            7           8           9          10          11          12
    1   1.8500000   1.5200000   1.5200000   1.2000000   1.2000000   1.2000000
           13          14          15          16          17          18
    1   1.2000000   1.2000000   1.2000000   1.2000000   1.2000000   1.5200000
           19
    1   1.5200000
 -------------------------------------------------------
 OpenMP BLAS3 based DFT computing Module                
 Release: version 1.0, May 2013, Q-Chem Inc. Pittsburgh 
 -------------------------------------------------------
 A unrestricted SCF calculation will be
 performed using Roothaan-Hall, DIIS, GDM
 SCF converges when RMS gradient is below 1.0e-06
 ---------------------------------------
  Cycle       Energy         DIIS error
 ---------------------------------------
    1    -646.5508931994      2.79e-04  Roothaan Step
 ---------------------------------------
  Cycle       Energy         DIIS error
 ---------------------------------------
    1    -646.6723644293      3.32e-04  
    2    -646.6827407604      3.23e-04  Done DIIS. Switching to GDM
 ---------------------------------------
  Cycle       Energy        RMS Gradient
 ---------------------------------------
    1    -646.6827407604      1.89e-02   Normal BFGS step
    2    -646.6799505518      2.87e-02  Line search: overstep
    3    -646.6895586450      3.72e-03   Normal BFGS step
    4    -646.6899308971      5.70e-03   Normal BFGS step
    5    -646.6900531884      2.42e-03   Normal BFGS step
    6    -646.6900716278      1.14e-03   Normal BFGS step
    7    -646.6900788740      1.79e-04   Normal BFGS step
    8    -646.6900795131      1.06e-04   Normal BFGS step
    9    -646.6900798363      6.80e-05   Normal BFGS step
   10    -646.6900798889      4.90e-05   Normal BFGS step
   11    -646.6900799116      1.60e-05   Normal BFGS step
   12    -646.6900799172      9.27e-06   Normal BFGS step
   13    -646.6900799190      9.21e-06   Normal BFGS step
   14    -646.6900799196      5.32e-06   Normal BFGS step
   15    -646.6900799197      2.39e-06   Normal BFGS step
   16    -646.6900799199      1.17e-06   Normal BFGS step
   17    -646.6900799202      3.20e-07  Convergence criterion met
 ---------------------------------------
 SCF time:   CPU 2101.45s  wall 144.00s 
<S^2> =          0.758406382
(3)  G-ENP(liq) elect-nuc-pol free energy of system     -646.690079920 a.u.
(4)  G-CDS(liq) cavity-dispersion-solvent structure 
     free energy                                                4.0311 kcal/mol
(6)  G-S(liq) free energy of system                     -646.683655973 a.u.
 SCF   energy in the final basis set =     -646.6836559732
 Total energy in the final basis set =     -646.6836559732
 
 --------------------------------------------------------------
 
                    Orbital Energies (a.u.)
 --------------------------------------------------------------
 
 Alpha MOs
 -- Occupied --
-19.4210 -19.3858 -19.3441 -19.3385 -19.3344 -19.2745 -10.4474 -10.4078
-10.3969 -10.3765 -10.3086  -1.2878  -1.1987  -1.1532  -1.1311  -1.1049
 -0.9353  -0.8886  -0.8384  -0.7899  -0.7260  -0.6576  -0.6400  -0.6384
 -0.6078  -0.5811  -0.5777  -0.5682  -0.5588  -0.5534  -0.5266  -0.5068
 -0.4980  -0.4808  -0.4667  -0.4595  -0.4383  -0.4198  -0.4014  -0.3939
 -0.3695  -0.3586  -0.3300  -0.2898
 -- Virtual --
  0.0266   0.0341   0.0384   0.0461   0.0547   0.0593   0.0671   0.0753
  0.0921   0.1009   0.1057   0.1106   0.1216   0.1264   0.1316   0.1453
  0.1470   0.1557   0.1582   0.1688   0.1713   0.1747   0.1780   0.1877
  0.1921   0.1959   0.2052   0.2154   0.2220   0.2336   0.2378   0.2509
  0.2618   0.2673   0.2746   0.2768   0.2844   0.2875   0.2965   0.3007
  0.3044   0.3099   0.3171   0.3180   0.3363   0.3390   0.3444   0.3499
  0.3557   0.3614   0.3646   0.3704   0.3769   0.3811   0.3854   0.3880
  0.3962   0.3971   0.4065   0.4139   0.4185   0.4284   0.4394   0.4436
  0.4524   0.4698   0.4779   0.4825   0.5211   0.5240   0.5602   0.5839
  0.5922   0.6030   0.6125   0.6227   0.6283   0.6345   0.6492   0.6592
  0.6746   0.6775   0.6809   0.6926   0.6996   0.7093   0.7259   0.7301
  0.7326   0.7424   0.7451   0.7635   0.7899   0.7943   0.8026   0.8375
  0.8426   0.8655   0.8856   0.8987   0.9120   0.9205   0.9320   0.9599
  0.9686   0.9879   0.9985   1.0243   1.0272   1.0491   1.0757   1.0767
  1.0814   1.1028   1.1085   1.1330   1.1373   1.1543   1.1624   1.1696
  1.1823   1.1910   1.2028   1.2103   1.2191   1.2317   1.2390   1.2516
  1.2585   1.2657   1.2713   1.2758   1.2865   1.3015   1.3088   1.3110
  1.3402   1.3505   1.3689   1.3783   1.3805   1.3949   1.4056   1.4141
  1.4197   1.4405   1.4470   1.4645   1.4720   1.4902   1.5051   1.5113
  1.5255   1.5421   1.5555   1.5678   1.5749   1.5971   1.6060   1.6183
  1.6223   1.6308   1.6483   1.6596   1.6622   1.6947   1.7076   1.7196
[...]
    1  -0.0009870   0.0011252   0.0000547   0.0002712   0.0000031   0.0000302
    2  -0.0010164   0.0014162  -0.0003867  -0.0004490   0.0000299   0.0001719
    3   0.0023409  -0.0024540   0.0000112  -0.0001293   0.0002139  -0.0000868
           13          14          15          16          17          18
    1   0.0000198   0.0001710  -0.0000861  -0.0002383   0.0001884   0.0000438
    2  -0.0000576   0.0000029  -0.0001060   0.0000115   0.0004966   0.0000590
    3  -0.0001191   0.0000461  -0.0000702   0.0004701  -0.0000276   0.0000552
           19
    1   0.0000051
    2  -0.0000084
    3   0.0000272
 Gradient of SCF Energy
            1           2           3           4           5           6
    1   0.0157858  -0.0389237   0.0042461   0.0049237   0.0143427   0.0328859
    2  -0.0122686   0.0040578   0.0015097  -0.0101584   0.0475839  -0.0638654
    3  -0.0050305   0.0060857   0.0037192  -0.0070326   0.0245536  -0.0547403
            7           8           9          10          11          12
    1  -0.0324042  -0.0125055   0.0131096  -0.0094317   0.0145787   0.0161258
    2   0.0272928  -0.0012747   0.0059841   0.0061294   0.0123740  -0.0091671
    3  -0.0344716   0.0184287   0.0073922  -0.0051043  -0.0113902   0.0128715
           13          14          15          16          17          18
    1  -0.0170410  -0.0373389   0.0231174   0.0155578  -0.0071658  -0.0065873
    2   0.0143026  -0.0079047  -0.0082052  -0.0021212  -0.0084688   0.0003461
    3   0.0214841   0.0090647   0.0148096  -0.0121926   0.0032883   0.0101244
           19
    1   0.0067247
    2   0.0038538
    3  -0.0018600
 Max gradient component =       6.387E-02
 RMS gradient           =       1.982E-02
 Computing fast CPCM-SWIG gradient
 Updating gradient with PCM contributions...
 -- total gradient after adding PCM contribution --
---------------------------------------------------
  Atom         X              Y              Z     
---------------------------------------------------
   1       0.000008       0.000001       0.000004
   2       0.000006      -0.000013       0.000009
   3      -0.000000      -0.000002       0.000001
   4       0.000000      -0.000012       0.000010
   5      -0.000007       0.000017      -0.000014
   6      -0.000022       0.000018      -0.000037
   7      -0.000000      -0.000005       0.000005
   8       0.000019       0.000009       0.000019
   9      -0.000009       0.000004      -0.000007
  10       0.000003      -0.000005      -0.000004
  11       0.000006      -0.000010       0.000005
  12      -0.000000      -0.000007       0.000007
  13      -0.000003       0.000017      -0.000014
  14       0.000016      -0.000005       0.000039
  15      -0.000016      -0.000012       0.000011
  16      -0.000005      -0.000013      -0.000001
  17      -0.000008       0.000004      -0.000002
  18      -0.000002      -0.000001      -0.000040
  19       0.000015       0.000015       0.000008
---------------------------------------------------
 Number of fixed atoms: 0
 Gradient time:  CPU 338.49 s  wall 30.53 s
 Geometry Optimization Parameters
   NAtoms,    NIC,     NZ,  NCons,   NDum,   NFix, NCnnct, MaxDiis
       19     121       0       0       0       0       0       0

 Cartesian Hessian Update
 Hessian updated using Powell/Murtagh-Sargent update
  Mixing factors:     0.997960 Powell                      0.002040 Murtagh-Sargent


** GEOMETRY OPTIMIZATION IN DELOCALIZED INTERNAL COORDINATES **
   Searching for a Transition State

   Optimization Cycle:  29

                       Coordinates (Angstroms)
     ATOM                X               Y               Z
      1  O         3.3780930633   -0.8670542535   -0.7584593823
      2  C         2.4045667832   -0.2057638793    0.0330770363
      3  C         2.9114190252    0.8494975940    1.0079559612
      4  O         2.0288218302    1.3632576435    1.7290128718
      5  C         4.2881066016    1.1866759569    0.9867380984
      6  C         4.9211938580    2.1123836838    1.7978508365
      7  C         4.1994887908    3.0442233952    2.7445228529
      8  O         3.7377313744    2.3542684929    3.8730306547
      9  O         5.0710388159    4.0644577710    3.2134958243
     10  H         3.9308318609   -1.4003518067   -0.1777375444
     11  H         1.8204739362   -0.9220890511    0.6159888146
     12  H         1.7212814531    0.2904804043   -0.6559550670
     13  H         4.8931488162    0.6963009446    0.2377052893
     14  H         5.8660112054    2.5124937361    1.4489571326
     15  H         3.3644959550    3.5049850922    2.2109743091
     16  H         2.9741633571    2.8303273225    4.2172704656
     17  H         5.2096280591    4.6970643217    2.4991943373
     18  O         6.0057294575    1.1553311875    3.1444801112
     19  O         7.2658211568    1.4393030445    2.9825961980
   Point Group: c1    Number of degrees of freedom:    51


   Energy is   -646.696711534

 Hessian updated using Powell/Murtagh-Sargent update
  Mixing factors:     0.932218 Powell                      0.067782 Murtagh-Sargent

 51 Hessian modes will be used to form the next step
  Hessian Eigenvalues:
    -0.034675    0.001152    0.001515    0.002193    0.002620    0.006493
     0.007661    0.012482    0.014833    0.029733    0.038749    0.047741
     0.054783    0.057559    0.060552    0.062943    0.070638    0.074029
     0.093658    0.104352    0.113482    0.133467    0.135955    0.162291
     0.166273    0.171328    0.173362    0.177088    0.202954    0.205810
     0.213796    0.237319    0.242141    0.274833    0.292526    0.312950
     0.327390    0.335037    0.337571    0.344917    0.353115    0.361592
     0.373334    0.406250    0.472508    0.480730    0.489935    0.526261
     0.527412    0.528933    0.588779

 Transition state search - taking P-RFO step
 Searching for Lamda that Maximizes Along the Lowest mode
 Value Taken    Lamda =   0.00000000
 Searching for Lamda that Minimizes Along All other modes
 Value Taken    Lamda =  -0.00000054
 Step Taken.  Stepsize is  0.016157

                             Maximum     Tolerance    Cnvgd?
         Gradient           0.000037      0.000300     YES
         Displacement       0.007768      0.001200      NO
         Energy change     -0.000001      0.000001     YES

 Final energy is   -646.696711534258     


 ******************************
 **  OPTIMIZATION CONVERGED  **
 ******************************

                       Coordinates (Angstroms)
     ATOM                X               Y               Z
      1  O         3.3780930633   -0.8670542535   -0.7584593823
      2  C         2.4045667832   -0.2057638793    0.0330770363
      3  C         2.9114190252    0.8494975940    1.0079559612
      4  O         2.0288218302    1.3632576435    1.7290128718
      5  C         4.2881066016    1.1866759569    0.9867380984
      6  C         4.9211938580    2.1123836838    1.7978508365
      7  C         4.1994887908    3.0442233952    2.7445228529
      8  O         3.7377313744    2.3542684929    3.8730306547
      9  O         5.0710388159    4.0644577710    3.2134958243
     10  H         3.9308318609   -1.4003518067   -0.1777375444
     11  H         1.8204739362   -0.9220890511    0.6159888146
     12  H         1.7212814531    0.2904804043   -0.6559550670
     13  H         4.8931488162    0.6963009446    0.2377052893
     14  H         5.8660112054    2.5124937361    1.4489571326
     15  H         3.3644959550    3.5049850922    2.2109743091
     16  H         2.9741633571    2.8303273225    4.2172704656
     17  H         5.2096280591    4.6970643217    2.4991943373
     18  O         6.0057294575    1.1553311875    3.1444801112
     19  O         7.2658211568    1.4393030445    2.9825961980

Z-matrix Print:
$molecule
-1 2
O 
O  1 1.301798
C  1 1.976253 2 109.927294
H  3 1.083741 1 85.395560 2 -0.132787 0
C  3 1.384066 1 109.053352 2 117.078958 0
H  5 1.080553 3 116.977700 1 -76.068812 0
C  5 1.417536 3 126.480443 1 106.314180 0
O  7 1.250140 5 126.622152 3 2.690709 0
C  3 1.511744 1 97.688820 2 -112.725141 0
H  9 1.092789 3 108.598264 1 -166.559674 0
O  9 1.400995 3 110.989795 1 -44.985291 0
H  11 0.963415 9 107.799648 3 -153.740188 0
O  9 1.421412 3 110.874126 1 73.603244 0
H  13 0.964170 9 108.338963 3 74.284567 0
C  7 1.523439 5 118.574462 3 -179.737689 0
H  15 1.089909 7 107.322262 5 -114.576171 0
H  15 1.092736 7 106.891152 5 130.349687 0
O  15 1.418305 7 116.854716 5 5.303086 0
H  18 0.962894 15 108.401471 7 66.623809 0
$end

 
 --------------------------------------------------------------
 
                    Orbital Energies (a.u.)
 --------------------------------------------------------------
 
 Alpha MOs
 -- Occupied --
-19.3814 -19.3628 -19.3430 -19.3375 -19.3370 -19.2955 -10.4461 -10.4133
-10.3833 -10.3804 -10.3091  -1.2634  -1.1971  -1.1586  -1.1386  -1.1299
 -0.9238  -0.8821  -0.8397  -0.7931  -0.7245  -0.6581  -0.6439  -0.6374
 -0.6104  -0.5791  -0.5676  -0.5620  -0.5536  -0.5432  -0.5279  -0.5147
 -0.4951  -0.4873  -0.4695  -0.4603  -0.4470  -0.4213  -0.4065  -0.3972
 -0.3613  -0.3419  -0.3360  -0.2893
 -- Virtual --
  0.0273   0.0323   0.0378   0.0448   0.0548   0.0592   0.0661   0.0765
  0.0945   0.0992   0.1060   0.1103   0.1247   0.1270   0.1316   0.1436
  0.1497   0.1549   0.1619   0.1681   0.1738   0.1783   0.1801   0.1901
  0.1937   0.1991   0.2020   0.2139   0.2188   0.2306   0.2416   0.2499
  0.2632   0.2686   0.2764   0.2805   0.2870   0.2891   0.2979   0.3024
  0.3056   0.3117   0.3166   0.3236   0.3390   0.3414   0.3502   0.3535
  0.3588   0.3607   0.3653   0.3731   0.3770   0.3842   0.3933   0.3951
  0.3971   0.4034   0.4107   0.4168   0.4233   0.4308   0.4354   0.4495
  0.4590   0.4701   0.4796   0.4960   0.5230   0.5369   0.5567   0.5842
  0.5942   0.6055   0.6146   0.6232   0.6342   0.6415   0.6542   0.6673
  0.6724   0.6777   0.6832   0.6991   0.7024   0.7171   0.7202   0.7328
  0.7379   0.7453   0.7581   0.7628   0.7908   0.8011   0.8229   0.8315
  0.8511   0.8706   0.8852   0.8920   0.9083   0.9196   0.9299   0.9465
  0.9605   0.9902   1.0122   1.0218   1.0397   1.0613   1.0664   1.0796
  1.0864   1.0998   1.1187   1.1298   1.1391   1.1404   1.1532   1.1705
  1.1859   1.2008   1.2082   1.2117   1.2262   1.2365   1.2403   1.2514
  1.2616   1.2721   1.2747   1.2838   1.2858   1.2965   1.3283   1.3405
  1.3430   1.3556   1.3673   1.3751   1.3819   1.3879   1.4166   1.4200
  1.4338   1.4426   1.4607   1.4609   1.4833   1.5100   1.5104   1.5255
  1.5295   1.5547   1.5568   1.5805   1.5865   1.6011   1.6064   1.6188
  1.6238   1.6296   1.6391   1.6454   1.6946   1.7192   1.7377   1.7519
  1.7574   1.7685   1.7899   1.8304   1.8427   1.8575   1.8953   1.8978
  1.9491   1.9793   1.9830   2.0136   2.0734   2.0785   2.0829   2.1047
  2.1579   2.1853   2.2546   2.2719   2.2913   2.3062   2.3175   2.3474
  2.3586   2.3754   2.3899   2.4056   2.4239   2.4812   2.5162   2.5279
  2.5924   2.6088   2.6930   2.7189   2.7370   2.7621   2.7986   2.8126
  2.8270   2.8812   2.8920   2.9023   2.9185   2.9424   2.9548   2.9613
  2.9694   3.0098   3.0351   3.0592   3.0628   3.0810   3.1288   3.1483
  3.1654   3.1947   3.2018   3.2336   3.2538   3.2702   3.2976   3.3167
  3.3373   3.3455   3.3701   3.3943   3.4064   3.4375   3.4425   3.4616
  3.4733   3.5076   3.5285   3.5524   3.5663   3.5947   3.6050   3.6228
  3.6348   3.6499   3.6624   3.6905   3.7026   3.7144   3.7327   3.7428
  3.7797   3.8176   3.8323   3.8463   3.8494   3.8716   3.8816   3.9014
  3.9198   3.9251   3.9364   3.9628   3.9787   4.0411   4.0453   4.0812
  4.1096   4.1493   4.1564   4.1795   4.1898   4.2290   4.2361   4.2440
  4.3020   4.3200   4.3378   4.3570   4.3782   4.3837   4.4060   4.4317
  4.4465   4.4609   4.4859   4.5122   4.5459   4.5701   4.5974   4.6106
  4.6656   4.7014   4.7228   4.7554   4.7851   4.8068   4.8248   4.8714
  4.9259   4.9329   5.0334   5.1040   5.1140   5.1296   5.1893   5.2146
  5.2209   5.2236   5.2341   5.2409   5.2570   5.2585   5.2670   5.2727
  5.2855   5.2947   5.3023   5.3097   5.3175   5.3430   5.3532   5.3673
  5.3728   5.3974   5.4199   5.4612   5.4692   5.4730   5.5190   5.5589
  5.5719   5.5832   5.6132   5.6377   5.6514   5.6634   5.6693   5.6733
  5.6833   5.6938   5.7146   5.7348   5.7783   5.8669   5.9225   5.9632
  6.0020   6.0527   6.0614   6.0849   6.1142   6.3181   6.5241   6.5635
  6.5853   6.6132   6.7545   6.8086   6.8577   6.8834   6.9800   7.0172
  7.0600   7.0696   7.1043   7.1087   7.1136   7.1441   7.1685   7.2444
  7.2699   7.2886   7.3092   7.3225   7.3297   7.3442   7.3609   7.4024
  7.4176   7.4275   7.4348   7.4642   7.5842   7.6487   7.6681   7.6770
  7.7627   7.7813   7.7884   7.8327   7.9147   8.0098   8.0922  24.5035
 24.7620  24.8133  24.9516  25.2249  50.4698  50.5540  50.5868  50.6248
 50.6440  50.7949
 
 Beta MOs
 -- Occupied --
-19.3669 -19.3472 -19.3429 -19.3375 -19.3370 -19.2956 -10.4461 -10.4133
-10.3835 -10.3804 -10.3091  -1.2338  -1.1969  -1.1586  -1.1388  -1.1299
 -0.9175  -0.8510  -0.8348  -0.7930  -0.7240  -0.6569  -0.6439  -0.6369
 -0.6097  -0.5787  -0.5660  -0.5451  -0.5355  -0.5220  -0.5146  -0.4937
 -0.4847  -0.4741  -0.4653  -0.4596  -0.4460  -0.4204  -0.4065  -0.3963
 -0.3502  -0.3363  -0.2757
 -- Virtual --
  0.0173   0.0275   0.0344   0.0384   0.0452   0.0557   0.0598   0.0667
  0.0767   0.0947   0.1000   0.1068   0.1110   0.1251   0.1274   0.1329
  0.1444   0.1501   0.1552   0.1622   0.1685   0.1745   0.1789   0.1810
  0.1919   0.1943   0.2001   0.2025   0.2147   0.2197   0.2318   0.2427
  0.2504   0.2635   0.2704   0.2783   0.2811   0.2883   0.2897   0.3001
  0.3036   0.3081   0.3128   0.3175   0.3294   0.3412   0.3421   0.3516
  0.3537   0.3596   0.3613   0.3667   0.3732   0.3792   0.3871   0.3935
  0.3960   0.3986   0.4056   0.4113   0.4187   0.4238   0.4316   0.4371
  0.4504   0.4613   0.4707   0.4799   0.4974   0.5236   0.5371   0.5568
  0.5844   0.5943   0.6057   0.6147   0.6233   0.6343   0.6415   0.6546
  0.6674   0.6724   0.6780   0.6833   0.6991   0.7024   0.7172   0.7206
  0.7330   0.7384   0.7454   0.7583   0.7635   0.7912   0.8010   0.8236
  0.8328   0.8517   0.8707   0.8855   0.8925   0.9100   0.9204   0.9301
  0.9478   0.9609   0.9905   1.0129   1.0222   1.0409   1.0629   1.0668
  1.0815   1.0870   1.1005   1.1217   1.1305   1.1410   1.1487   1.1692
  1.1710   1.1880   1.2027   1.2100   1.2133   1.2278   1.2407   1.2430
  1.2520   1.2622   1.2736   1.2848   1.2855   1.2907   1.3000   1.3369
  1.3429   1.3489   1.3566   1.3690   1.3766   1.3841   1.3908   1.4177
  1.4206   1.4351   1.4437   1.4613   1.4670   1.4854   1.5108   1.5156
  1.5276   1.5314   1.5562   1.5625   1.5843   1.5883   1.6031   1.6085
  1.6204   1.6266   1.6336   1.6457   1.6536   1.6976   1.7304   1.7465
  1.7548   1.7700   1.7743   1.7926   1.8401   1.8486   1.8596   1.8981
  1.9016   1.9497   1.9802   1.9840   2.0169   2.0742   2.0803   2.0864
  2.1053   2.1598   2.1892   2.2653   2.2788   2.2948   2.3126   2.3266
  2.3478   2.3635   2.3780   2.3902   2.4087   2.4258   2.4823   2.5178
  2.5294   2.5925   2.6090   2.6970   2.7205   2.7402   2.7622   2.7986
  2.8127   2.8272   2.8811   2.8919   2.9021   2.9185   2.9421   2.9546
  2.9612   2.9691   3.0096   3.0346   3.0590   3.0626   3.0808   3.1287
  3.1483   3.1652   3.1947   3.2016   3.2336   3.2537   3.2704   3.2974
  3.3164   3.3374   3.3455   3.3699   3.3942   3.4061   3.4373   3.4423
  3.4615   3.4729   3.5074   3.5283   3.5523   3.5663   3.5946   3.6049
  3.6225   3.6347   3.6498   3.6623   3.6904   3.7022   3.7144   3.7327
  3.7425   3.7795   3.8174   3.8322   3.8463   3.8492   3.8715   3.8814
  3.9014   3.9198   3.9250   3.9364   3.9629   3.9785   4.0410   4.0452
  4.0811   4.1097   4.1493   4.1562   4.1794   4.1896   4.2289   4.2359
  4.2441   4.3020   4.3199   4.3380   4.3567   4.3783   4.3836   4.4059
  4.4316   4.4464   4.4610   4.4858   4.5130   4.5459   4.5709   4.5982
  4.6358   4.6774   4.7081   4.7273   4.7619   4.7882   4.8223   4.8466
  4.8751   4.9340   4.9367   5.0350   5.1452   5.1521   5.2008   5.2124
  5.2174   5.2213   5.2298   5.2403   5.2554   5.2698   5.2824   5.2878
  5.2915   5.2957   5.2973   5.3077   5.3183   5.3354   5.3541   5.3634
  5.3782   5.3930   5.4007   5.4228   5.4628   5.4738   5.4794   5.5200
  5.5601   5.5728   5.5835   5.6133   5.6400   5.6607   5.6664   5.6731
  5.6807   5.6908   5.7096   5.7206   5.7350   5.7796   5.8666   5.9227
  5.9632   6.0020   6.0527   6.0615   6.0848   6.1142   6.3177   6.5708
  6.5716   6.5912   6.6133   6.7553   6.8120   6.9259   6.9535   7.0157
  7.0434   7.0726   7.0970   7.1116   7.1246   7.1397   7.1610   7.2008
  7.2456   7.2704   7.2918   7.3220   7.3271   7.3390   7.3506   7.3624
  7.4062   7.4189   7.4297   7.4581   7.4875   7.5990   7.6489   7.6685
  7.6777   7.7630   7.7814   7.7890   7.8325   7.9155   8.0282   8.1103
 24.5034  24.7620  24.8133  24.9515  25.2248  50.4814  50.5642  50.5868
 50.6260  50.6442  50.7948
 --------------------------------------------------------------
 
          Ground-State Mulliken Net Atomic Charges

     Atom                 Charge (a.u.)    Spin (a.u.)
  --------------------------------------------------------
      1 O                    -0.443809       0.000008
      2 C                    -0.361827       0.001048
      3 C                     0.156516      -0.007688
      4 O                    -0.615582      -0.005155
      5 C                    -0.300968      -0.009815
      6 C                    -0.034146      -0.000512
      7 C                    -0.132109       0.001264
      8 O                    -0.409190       0.002624
      9 O                    -0.480267      -0.000997
     10 H                     0.331416      -0.000040
     11 H                     0.199825      -0.000139
     12 H                     0.203887      -0.000236
     13 H                     0.257364      -0.000108
     14 H                     0.282859      -0.001857
     15 H                     0.260529      -0.000614
     16 H                     0.334344       0.001425
     17 H                     0.323600       0.000139
     18 O                    -0.172748       0.470776
     19 O                    -0.399694       0.549876
  --------------------------------------------------------
  Sum of atomic charges =    -1.000000
  Sum of spin   charges =     1.000000

 -----------------------------------------------------------------
                    Cartesian Multipole Moments
 -----------------------------------------------------------------
    Charge (ESU x 10^10)
                -4.8032
    Dipole Moment (Debye)
         X     -25.1169      Y      -4.8139      Z     -14.2090
       Tot      29.2563
    Quadrupole Moments (Debye-Ang)
        XX    -224.3276     XY     -28.8357     YY     -60.9227
        XZ     -85.4220     YZ     -21.7835     ZZ    -122.8466
    Octopole Moments (Debye-Ang^2)
       XXX   -1899.2053    XXY    -298.9795    XYY    -271.3060
       YYY    -246.2687    XXZ    -681.4370    XYZ    -137.3048
       YYZ    -143.3110    XZZ    -617.9858    YZZ    -177.0097
       ZZZ    -549.8509
    Hexadecapole Moments (Debye-Ang^3)
      XXXX  -15405.7340   XXXY   -2801.8059   XXYY   -1700.9367
      XYYY   -1202.3732   YYYY   -1386.6746   XXXZ   -5518.4371
      XXYZ   -1168.2134   XYYZ    -805.8088   YYYZ    -868.6152
      XXZZ   -3809.2218   XYZZ   -1014.2765   YYZZ    -830.3933
      XZZZ   -2942.1561   YZZZ   -1160.5134   ZZZZ   -2862.8937
 -----------------------------------------------------------------
 Total job time:  7060.79s(wall), 98266.19s(cpu) 
 Wed Jun  5 05:31:55 2024

        *************************************************************
        *                                                           *
        *  Thank you very much for using Q-Chem.  Have a nice day.  *
        *                                                           *
        *************************************************************


