
Running Job 1 of 1 Q_in.in
qchem Q_in.in_91112.0 /scratch/ari.fischer/qChem1383781.hpc-mn1/qchem91112/ 0
/usr/local/qchem-5.4.1/exe/qcprog.exe_s Q_in.in_91112.0 /scratch/ari.fischer/qChem1383781.hpc-mn1/qchem91112/
                  Welcome to Q-Chem
     A Quantum Leap Into The Future Of Chemistry


 Q-Chem 5.4, Q-Chem, Inc., Pleasanton, CA (2021)

 License issued to: Nanyang Technological University (site)

 E. Epifanovsky,  A. T. B. Gilbert,  Xintian Feng,  Joonho Lee,  Yuezhi Mao,  
 N. Mardirossian,  P. Pokhilko,  A. White,  M. Wormit,  M. P. Coons,  
 A. L. Dempwolff,  Zhengting Gan,  D. Hait,  P. R. Horn,  L. D. Jacobson,  
 I. Kaliman,  J. Kussmann,  A. W. Lange,  Ka Un Lao,  D. S. Levine,  Jie Liu,  
 S. C. McKenzie,  A. F. Morrison,  K. Nanda,  F. Plasser,  D. R. Rehn,  
 M. L. Vidal,  Zhi-Qiang You,  Ying Zhu,  B. Alam,  B. Albrecht,  
 A. Aldossary,  E. Alguire,  J. H. Andersen,  D. Barton,  K. Begam,  A. Behn,  
 Y. A. Bernard,  E. J. Berquist,  H. Burton,  A. Carreras,  K. Carter-Fenk,  
 R. Chakraborty,  A. D. Chien,  K. D. Closser,  V. Cofer-Shabica,  
 S. Dasgupta,  Jia Deng,  M. de Wergifosse,  M. Diedenhofen,  Hainam Do,  
 S. Ehlert,  Po-Tung Fang,  S. Fatehi,  Qingguo Feng,  T. Friedhoff,  
 J. Gayvert,  Qinghui Ge,  G. Gidofalvi,  M. Goldey,  J. Gomes,  
 C. Gonzalez-Espinoza,  S. Gulania,  A. Gunina,  M. W. D. Hanson-Heine,  
 P. H. P. Harbach,  A. W. Hauser,  M. F. Herbst,  M. Hernandez Vera,  
 M. Hodecker,  Z. C. Holden,  S. Houck,  Xunkun Huang,  Kerwin Hui,  
 B. C. Huynh,  M. Ivanov,  Hyunjun Ji,  Hanjie Jiang,  B. Kaduk,  S. Kaehler,  
 K. Khistyaev,  Jaehoon Kim,  P. Klunzinger,  Z. Koczor-Benda,  
 Joong Hoon Koh,  D. Kosenkov,  L. Koulias,  T. Kowalczyk,  C. M. Krauter,  
 K. Kue,  A. Kunitsa,  T. Kus,  A. Landau,  K. V. Lawler,  D. Lefrancois,  
 S. Lehtola,  Rain Li,  Yi-Pei Li,  Jiashu Liang,  M. Liebenthal,  
 Hung-Hsuan Lin,  You-Sheng Lin,  Fenglai Liu,  Kuan-Yu Liu,  
 M. Loipersberger,  A. Luenser,  A. Manjanath,  P. Manohar,  E. Mansoor,  
 S. F. Manzer,  Shan-Ping Mao,  A. V. Marenich,  T. Markovich,  S. Mason,  
 S. A. Maurer,  P. F. McLaughlin,  M. F. S. J. Menger,  J.-M. Mewes,  
 S. A. Mewes,  P. Morgante,  J. W. Mullinax,  K. J. Oosterbaan,  G. Paran,  
 Alexander C. Paul,  Suranjan K. Paul,  F. Pavosevic,  Zheng Pei,  S. Prager,  
 E. I. Proynov,  E. Ramos,  B. Rana,  A. E. Rask,  A. Rettig,  R. M. Richard,  
 F. Rob,  E. Rossomme,  T. Scheele,  M. Scheurer,  M. Schneider,  
 N. Sergueev,  S. M. Sharada,  W. Skomorowski,  D. W. Small,  C. J. Stein,  
 Yu-Chuan Su,  E. J. Sundstrom,  Zhen Tao,  J. Thirman,  T. Tsuchimochi,  
 N. M. Tubman,  S. P. Veccham,  O. Vydrov,  J. Wenzel,  J. Witte,  A. Yamada,  
 Kun Yao,  S. Yeganeh,  S. R. Yost,  A. Zech,  Igor Ying Zhang,  Xing Zhang,  
 Yu Zhang,  D. Zuev,  A. Aspuru-Guzik,  A. T. Bell,  N. A. Besley,  
 K. B. Bravaya,  B. R. Brooks,  D. Casanova,  Jeng-Da Chai,  S. Coriani,  
 C. J. Cramer,  A. E. DePrince, III,  R. A. DiStasio Jr.,  A. Dreuw,  
 B. D. Dunietz,  T. R. Furlani,  W. A. Goddard III,  S. Grimme,  
 S. Hammes-Schiffer,  T. Head-Gordon,  W. J. Hehre,  Chao-Ping Hsu,  
 T.-C. Jagau,  Yousung Jung,  A. Klamt,  Jing Kong,  D. S. Lambrecht,  
 WanZhen Liang,  N. J. Mayhall,  C. W. McCurdy,  J. B. Neaton,  
 C. Ochsenfeld,  J. A. Parkhill,  R. Peverati,  V. A. Rassolov,  Yihan Shao,  
 L. V. Slipchenko,  T. Stauch,  R. P. Steele,  J. E. Subotnik,  
 A. J. W. Thom,  A. Tkatchenko,  D. G. Truhlar,  T. Van Voorhis,  
 T. A. Wesolowski,  K. B. Whaley,  H. L. Woodcock III,  P. M. Zimmerman,  
 S. Faraji,  P. M. W. Gill,  M. Head-Gordon,  J. M. Herbert,  A. I. Krylov

 Additional authors for Version 5.4.1: 
 S. Kotaru,  Shaozhi Li,  Xiangyuan Li,  F. Matz,  A. Molle,  Haisheng Ren,  
 Yingli Su,  Hung-Yi Tsai,  C. Utku,  Fang Wang

 Contributors to earlier versions of Q-Chem not listed above: 
 R. D. Adamson,  B. Austin,  R. Baer,  J. Baker,  G. J. O. Beran,  
 K. Brandhorst,  S. T. Brown,  E. F. C. Byrd,  A. K. Chakraborty,  
 G. K. L. Chan,  Chun-Min Chang,  Yunqing Chen,  C.-L. Cheng,  
 Siu Hung Chien,  D. M. Chipman,  D. L. Crittenden,  H. Dachsel,  
 R. J. Doerksen,  A. D. Dutoi,  R. G. Edgar,  J. Fosso-Tande,  
 L. Fusti-Molnar,  D. Ghosh,  A. Ghysels,  A. Golubeva-Zadorozhnaya,  
 J. Gonthier,  M. S. Gordon,  S. R. Gwaltney,  G. Hawkins,  J. E. Herr,  
 A. Heyden,  S. Hirata,  E. G. Hohenstein,  G. Kedziora,  F. J. Keil,  
 C. Kelley,  Jihan Kim,  R. A. King,  R. Z. Khaliullin,  P. P. Korambath,  
 W. Kurlancheek,  A. Laurent,  A. M. Lee,  M. S. Lee,  S. V. Levchenko,  
 Ching Yeh Lin,  D. Liotard,  E. Livshits,  R. C. Lochan,  I. Lotan,  
 L. A. Martinez-Martinez,  P. E. Maslen,  N. Nair,  D. P. O'Neill,  
 D. Neuhauser,  E. Neuscamman,  C. M. Oana,  R. Olivares-Amaya,  R. Olson,  
 T. M. Perrine,  B. Peters,  P. A. Pieniazek,  A. Prociuk,  Y. M. Rhee,  
 J. Ritchie,  M. A. Rohrdanz,  E. Rosta,  N. J. Russ,  H. F. Schaefer III,  
 M. W. Schmidt,  N. E. Schultz,  S. Sharma,  N. Shenvi,  C. D. Sherrill,  
 A. C. Simmonett,  A. Sodt,  T. Stein,  D. Stuck,  K. S. Thanthiriwatte,  
 V. Vanovschi,  L. Vogt,  Tao Wang,  A. Warshel,  M. A. Watson,  
 C. F. Williams,  Q. Wu,  X. Xu,  Jun Yang,  W. Zhang,  Yan Zhao

 Please cite Q-Chem as follows:
 Y. Shao et al., Mol. Phys. 113, 184-215 (2015)
 DOI: 10.1080/00268976.2014.952696

 Q-Chem 5.4.1 for Intel X86 EM64T Linux

 Parts of Q-Chem use Armadillo 9.800.1 (Horizon Scraper).
 http://arma.sourceforge.net/

 Q-Chem begins on Tue Dec 27 20:07:31 2022  

 Host: 
0

     Scratch files written to /scratch/ari.fischer/qChem1383781.hpc-mn1/qchem91112//
 Aug1521 |scratch|qcdevops|jenkins|workspace|build_RNUM 8249   
 Processing $rem in /usr/local/qchem-5.4.1/config/preferences:
 Processing $rem in /home/ari.fischer/.qchemrc:
 Symmetry turned off for PCM/SM12/SMD calculation

 Checking the input file for inconsistencies... 	...done.

--------------------------------------------------------------
User input:
--------------------------------------------------------------
$molecule
0 2
C        -0.2340398416   -0.1818054642    0.8635088093
C        -0.7682120374   -1.3487046194    1.6347479278
C        -1.8676640910   -2.0463403675    1.2404622020
C        -2.5768203955   -1.6903122477    0.0634403212
C        -2.1445566434   -0.5868414899   -0.7110140692
C        -1.0566073077    0.1573520187   -0.3543720067
C        -0.6397392189    1.3716605453   -1.1315864399
H        -0.2135956359    0.7071516507    1.5210011879
H        -0.2157307167   -1.6329939013    2.5267865356
H        -2.2105049494   -2.8936011884    1.8287442726
H        -3.4457964608   -2.2623515396   -0.2440846881
H        -2.7029098861   -0.3158427573   -1.6052279722
H        -1.3070074043    1.5300866941   -1.9866884558
O         0.7313764607    1.3053544212   -1.5721231050
H        -0.6840883084    2.2614902181   -0.4929216929
H         0.7821829382    0.5717253234   -2.2083368264
O         1.1346778040   -0.4926674290    0.5042640578
H         1.3848492941    0.1999439327   -0.1394138577
$end

$rem
BASIS = 6-311++G(2df,2p)
GUI = 2
JOB_TYPE = Optimization
METHOD = wB97M-V
SCF_ALGORITHM = DIIS_GDM
MAX_SCF_CYCLES = 400
GEOM_OPT_MAX_CYCLES = 150
SCF_CONVERGENCE = 7
THRESH = 12
UNRESTRICTED = 1
Solvent_method = SMD
$end
--------------------------------------------------------------
 ----------------------------------------------------------------
             Standard Nuclear Orientation (Angstroms)
    I     Atom           X                Y                Z
 ----------------------------------------------------------------
    1      C      -0.2340398416    -0.1818054642     0.8635088093
    2      C      -0.7682120374    -1.3487046194     1.6347479278
    3      C      -1.8676640910    -2.0463403675     1.2404622020
    4      C      -2.5768203955    -1.6903122477     0.0634403212
    5      C      -2.1445566434    -0.5868414899    -0.7110140692
    6      C      -1.0566073077     0.1573520187    -0.3543720067
    7      C      -0.6397392189     1.3716605453    -1.1315864399
    8      H      -0.2135956359     0.7071516507     1.5210011879
    9      H      -0.2157307167    -1.6329939013     2.5267865356
   10      H      -2.2105049494    -2.8936011884     1.8287442726
   11      H      -3.4457964608    -2.2623515396    -0.2440846881
   12      H      -2.7029098861    -0.3158427573    -1.6052279722
   13      H      -1.3070074043     1.5300866941    -1.9866884558
   14      O       0.7313764607     1.3053544212    -1.5721231050
   15      H      -0.6840883084     2.2614902181    -0.4929216929
   16      H       0.7821829382     0.5717253234    -2.2083368264
   17      O       1.1346778040    -0.4926674290     0.5042640578
   18      H       1.3848492941     0.1999439327    -0.1394138577
 ----------------------------------------------------------------
 Nuclear Repulsion Energy =         442.09962447 hartrees
 There are       34 alpha and       33 beta electrons
 Requested basis set is 6-311++G(2df,2p)
 There are 126 shells and 396 basis functions

 Total QAlloc Memory Limit 288000 MB
 Mega-Array Size       188 MB
 MEM_STATIC part       192 MB
 
 Citation of the SMD model:
 Marenich, A.V.; Cramer, C.J.; Truhlar, D.G.
 J. Phys. Chem. B 2009, 113, 6378-6396.
 iSolventCode=           1
 Solvent: water                                                           
 
 vradii
            1           2           3           4           5           6
    1   1.8500000   1.8500000   1.8500000   1.8500000   1.8500000   1.8500000
            7           8           9          10          11          12
    1   1.8500000   1.2000000   1.2000000   1.2000000   1.2000000   1.2000000
           13          14          15          16          17          18
    1   1.2000000   1.5200000   1.2000000   1.2000000   1.5200000   1.2000000
 Changing PCM_VDW_RADII to SMD_RADIUS
 Discretize the solute cavity surface with Lebedev spheres
	Using 110 Lebedev grid points for each H atom
	Using 194 Lebedev grid points for other atoms
	Atomic van der Waals radii will be scaled by 1.20
 Remove points where switching function is < 1.0e-08
 Keep 1300 surface tesserae and discard 1436 interior tesserae
 Molecular Surface Area = 151.127 Angst**2
 A cutoff of  1.0D-12 yielded   7275 shell pairs
 There are     72765 function pairs (     90333 Cartesian)
 Smallest overlap matrix eigenvalue = 1.27E-06

 Scale SEOQF with 1.000000e-01/1.000000e-01/1.000000e-01

 Standard Electronic Orientation quadrupole field applied
 Nucleus-field energy     =     0.0000000035 hartrees
 Guess from superposition of atomic densities
 Warning:  Energy on first SCF cycle will be non-variational
 SAD guess density has 67.000000 electrons

 -----------------------------------------------------------------------
  General SCF calculation program by
  Eric Jon Sundstrom, Paul Horn, Yuezhi Mao, Dmitri Zuev, Alec White,
  David Stuck, Shaama M.S., Shane Yost, Joonho Lee, David Small,
  Daniel Levine, Susi Lehtola, Hugh Burton, Evgeny Epifanovsky,
  Bang C. Huynh
 -----------------------------------------------------------------------
 Exchange:     0.1500 Hartree-Fock + 1.0000 wB97M-V + LR-HF
 Correlation:  1.0000 wB97M-V
 Using SG-2 standard quadrature grid
 Nonlocal Correlation:  VV10 with C = 0.0100 and b = 6.00 and scale = 1.00000
 Grid used for NLC:  SG-1 standard quadrature
 
 Citation of the SMD model:
 Marenich, A.V.; Cramer, C.J.; Truhlar, D.G.
 J. Phys. Chem. B 2009, 113, 6378-6396.
 iSolventCode=           1
 Solvent: water                                                           
 
 vradii
            1           2           3           4           5           6
    1   1.8500000   1.8500000   1.8500000   1.8500000   1.8500000   1.8500000
            7           8           9          10          11          12
    1   1.8500000   1.2000000   1.2000000   1.2000000   1.2000000   1.2000000
           13          14          15          16          17          18
    1   1.2000000   1.5200000   1.2000000   1.2000000   1.5200000   1.2000000
 using 8 threads for integral computing
 -------------------------------------------------------
 OpenMP Integral computing Module                
 Release: version 1.0, May 2013, Q-Chem Inc. Pittsburgh 
 -------------------------------------------------------
 -------------------------------------------------------
 OpenMP BLAS3 based DFT computing Module                
 Release: version 1.0, May 2013, Q-Chem Inc. Pittsburgh 
 -------------------------------------------------------
 A unrestricted SCF calculation will be
 performed using DIIS, GDM
 SCF converges when RMS gradient is below 1.0e-07
 ---------------------------------------
  Cycle       Energy         DIIS error
 ---------------------------------------
    1    -425.0563747214      1.26e-02  
    2    -422.4331880993      1.18e-03  Done DIIS. Switching to GDM
 ---------------------------------------
  Cycle       Energy        RMS Gradient
 ---------------------------------------
    1    -422.4331880993      3.81e-02   Descent step
    2    -422.5204967802      1.76e-02   Normal BFGS step
    3    -422.5325719247      9.52e-03   Normal BFGS step
    4    -422.5343066128      6.69e-03   Normal BFGS step
    5    -422.5347720143      4.35e-03   Normal BFGS step
    6    -422.5349221340      1.28e-03   Normal BFGS step
    7    -422.5349389554      5.38e-04   Normal BFGS step
    8    -422.5349445625      4.61e-04   Normal BFGS step
    9    -422.5349455127      3.46e-04   Normal BFGS step
   10    -422.5349459291      1.12e-04   Normal BFGS step
   11    -422.5349460340      3.46e-05   Normal BFGS step
   12    -422.5349460465      3.27e-05   Normal BFGS step
   13    -422.5349460502      1.47e-05   Normal BFGS step
   14    -422.5349460510      9.34e-06   Normal BFGS step
   15    -422.5349460515      3.06e-06   Normal BFGS step
   16    -422.5349460516      1.42e-06   Normal BFGS step
   17    -422.5349460517      3.98e-07   Normal BFGS step
   18    -422.5349460517      1.73e-07   Normal BFGS step
   19    -422.5349460517      5.07e-08  Convergence criterion met
 ---------------------------------------
 SCF time:   CPU 2037.77s  wall 257.00s 
<S^2> =          0.790444468
(3)  G-ENP(liq) elect-nuc-pol free energy of system     -422.534946052 a.u.
(4)  G-CDS(liq) cavity-dispersion-solvent structure 
     free energy                                                3.3700 kcal/mol
(6)  G-S(liq) free energy of system                     -422.529575606 a.u.
 SCF   energy in the final basis set =     -422.5295756060
 Total energy in the final basis set =     -422.5295756060
 
 --------------------------------------------------------------
 
                    Orbital Energies (a.u.)
 --------------------------------------------------------------
 
 Alpha MOs
 -- Occupied --
-19.3459 -19.3318 -10.3999 -10.3899 -10.3568 -10.3540 -10.3494 -10.3460
-10.3446  -1.1647  -1.1437  -0.9749  -0.8946  -0.8632  -0.7960  -0.7349
 -0.7078  -0.6376  -0.6214  -0.6009  -0.5859  -0.5602  -0.5442  -0.5264
 -0.5211  -0.4996  -0.4795  -0.4518  -0.4431  -0.4400  -0.3939  -0.3817
 -0.3639  -0.2693
 -- Virtual --
  0.0239   0.0356   0.0374   0.0456   0.0562   0.0566   0.0634   0.0725
  0.0800   0.0859   0.0962   0.1055   0.1196   0.1310   0.1381   0.1389
  0.1421   0.1525   0.1589   0.1603   0.1612   0.1672   0.1726   0.1767
  0.1788   0.1848   0.1990   0.2013   0.2058   0.2081   0.2154   0.2171
  0.2248   0.2353   0.2414   0.2576   0.2611   0.2694   0.2726   0.2801
  0.2883   0.2943   0.3005   0.3140   0.3177   0.3243   0.3283   0.3350
  0.3504   0.3601   0.3650   0.3709   0.3760   0.3796   0.3860   0.3983
  0.3993   0.4052   0.4291   0.4461   0.4496   0.4631   0.5010   0.5306
  0.5519   0.5630   0.5733   0.5804   0.5884   0.6027   0.6084   0.6117
  0.6159   0.6211   0.6268   0.6393   0.6645   0.6657   0.6726   0.6776
  0.6840   0.6986   0.7041   0.7168   0.7247   0.7288   0.7359   0.7455
  0.7549   0.7626   0.7627   0.7792   0.7910   0.8066   0.8166   0.8249
  0.8326   0.8386   0.8404   0.8455   0.8698   0.8842   0.9021   0.9099
  0.9438   0.9471   0.9707   1.0134   1.0353   1.0523   1.0588   1.0637
  1.0825   1.0924   1.1153   1.1174   1.1423   1.1539   1.1607   1.1712
  1.1972   1.2206   1.2260   1.2322   1.2563   1.2576   1.2667   1.2858
  1.2863   1.3004   1.3095   1.3293   1.3445   1.3467   1.3679   1.3893
  1.3912   1.3976   1.4165   1.4250   1.4279   1.4486   1.4530   1.4710
  1.4779   1.4979   1.5055   1.5142   1.5240   1.5315   1.5530   1.5640
  1.5861   1.5942   1.6151   1.6229   1.6433   1.6764   1.6951   1.7173
  1.7593   1.7839   1.7933   1.8173   1.8790   1.8859   1.9033   1.9622
  2.0043   2.0565   2.0652   2.0696   2.1072   2.1266   2.1540   2.1961
  2.2781   2.2885   2.3405   2.3793   2.4152   2.4729   2.5700   2.6010
  2.6054   2.6494   2.6761   2.7110   2.7424   2.7587   2.7906   2.8032
  2.8200   2.8272   2.8345   2.8565   2.8650   2.8819   2.8969   2.9092
  2.9200   2.9238   2.9390   2.9602   2.9636   2.9840   2.9949   3.0039
  3.0268   3.0635   3.0784   3.0898   3.1048   3.1142   3.1665   3.1956
  3.2085   3.2151   3.2301   3.2483   3.2681   3.2715   3.2937   3.2967
  3.3072   3.3353   3.3379   3.3646   3.3708   3.3878   3.4042   3.4183
  3.4465   3.4532   3.4727   3.4789   3.4967   3.5000   3.5270   3.5280
  3.5509   3.5678   3.5975   3.6075   3.6362   3.6576   3.6681   3.6989
  3.7197   3.7412   3.7642   3.7764   3.7964   3.7989   3.8294   3.8322
  3.8432   3.8558   3.8664   3.8880   3.8931   3.9190   3.9297   3.9516
  3.9667   3.9811   4.0012   4.0195   4.0380   4.0541   4.0723   4.1035
  4.1390   4.1504   4.1603   4.1928   4.2019   4.2376   4.2562   4.2621
  4.2933   4.3059   4.3337   4.3466   4.3719   4.3799   4.3994   4.4149
  4.4174   4.4446   4.4529   4.4717   4.4881   4.5280   4.5391   4.5591
  4.5965   4.6002   4.6241   4.6547   4.6715   4.6964   4.7667   4.7848
  4.8321   4.8716   4.9618   5.0213   5.1258   5.1377   5.1744   5.1972
  5.2368   5.2790   5.3043   5.3148   5.3309   5.3696   5.3814   5.4077
  5.4876   5.5223   5.5409   5.5488   5.5987   5.6120   5.6654   5.6910
  5.7098   5.7169   5.7546   5.8072   5.8549   5.9029   5.9189   5.9722
  6.0014   6.1193   6.3968   6.5655   6.6005   7.0868   7.1599   7.2511
  7.2852   7.3661   7.3763   7.3898   7.4434   7.6453   7.6602   7.7788
  7.8487  24.2418  24.6051  24.7538  24.7934  24.8530  25.0666  25.3622
 50.6142  50.6357
 
 Beta MOs
 -- Occupied --
-19.3453 -19.3302 -10.4006 -10.3903 -10.3515 -10.3486 -10.3472 -10.3464
-10.3440  -1.1628  -1.1407  -0.9682  -0.8887  -0.8539  -0.7953  -0.7257
 -0.7030  -0.6349  -0.6167  -0.5988  -0.5786  -0.5554  -0.5403  -0.5231
 -0.5185  -0.4951  -0.4761  -0.4400  -0.4386  -0.4240  -0.3903  -0.3781
 -0.3460
 -- Virtual --
 -0.0259   0.0238   0.0355   0.0375   0.0454   0.0559   0.0568   0.0718
  0.0769   0.0827   0.0856   0.0955   0.1055   0.1191   0.1333   0.1384
  0.1405   0.1444   0.1535   0.1592   0.1600   0.1617   0.1668   0.1736
  0.1768   0.1797   0.1850   0.1990   0.2015   0.2053   0.2080   0.2169
  0.2205   0.2291   0.2361   0.2425   0.2567   0.2615   0.2696   0.2730
  0.2798   0.2881   0.2953   0.3021   0.3146   0.3195   0.3262   0.3293
  0.3366   0.3511   0.3616   0.3689   0.3730   0.3768   0.3814   0.3877
  0.4000   0.4030   0.4073   0.4294   0.4491   0.4513   0.4661   0.5014
  0.5323   0.5535   0.5667   0.5766   0.5837   0.5917   0.6079   0.6111
  0.6158   0.6208   0.6224   0.6279   0.6427   0.6662   0.6671   0.6763
  0.6832   0.6863   0.7022   0.7080   0.7195   0.7281   0.7338   0.7389
  0.7484   0.7563   0.7649   0.7655   0.7813   0.7954   0.8109   0.8209
  0.8287   0.8358   0.8395   0.8461   0.8499   0.8725   0.8864   0.9048
  0.9117   0.9470   0.9492   0.9727   1.0161   1.0367   1.0543   1.0611
  1.0658   1.0841   1.0931   1.1174   1.1186   1.1450   1.1553   1.1634
  1.1723   1.1998   1.2227   1.2270   1.2335   1.2569   1.2600   1.2681
  1.2871   1.2883   1.3015   1.3132   1.3330   1.3473   1.3502   1.3699
  1.3921   1.3938   1.4017   1.4208   1.4286   1.4322   1.4532   1.4559
  1.4745   1.4802   1.4999   1.5110   1.5174   1.5274   1.5339   1.5567
  1.5686   1.5903   1.5957   1.6184   1.6248   1.6454   1.6790   1.6982
  1.7220   1.7615   1.7885   1.7994   1.8273   1.8815   1.8894   1.9082
  1.9652   2.0094   2.0615   2.0706   2.0746   2.1100   2.1296   2.1572
  2.1980   2.2810   2.2913   2.3428   2.3813   2.4166   2.4748   2.5792
  2.6073   2.6157   2.6544   2.6828   2.7149   2.7496   2.7657   2.7996
  2.8206   2.8346   2.8365   2.8406   2.8677   2.8742   2.8929   2.9034
  2.9204   2.9286   2.9431   2.9563   2.9683   2.9776   3.0010   3.0109
  3.0208   3.0372   3.0774   3.0904   3.0994   3.1161   3.1267   3.1732
  3.2032   3.2166   3.2255   3.2344   3.2579   3.2732   3.2824   3.3044
  3.3089   3.3168   3.3414   3.3437   3.3722   3.3827   3.3936   3.4089
  3.4263   3.4535   3.4603   3.4820   3.4859   3.5056   3.5108   3.5330
  3.5376   3.5657   3.5767   3.6138   3.6244   3.6422   3.6674   3.6756
  3.7064   3.7284   3.7484   3.7732   3.7842   3.8045   3.8068   3.8341
  3.8358   3.8529   3.8689   3.8787   3.8965   3.9023   3.9282   3.9365
  3.9596   3.9744   3.9895   4.0091   4.0244   4.0450   4.0605   4.0755
  4.1089   4.1493   4.1577   4.1692   4.1979   4.2085   4.2453   4.2650
  4.2707   4.2967   4.3141   4.3406   4.3535   4.3764   4.3871   4.4078
  4.4208   4.4281   4.4538   4.4606   4.4810   4.4997   4.5387   4.5483
  4.5686   4.6067   4.6107   4.6384   4.6684   4.6830   4.7050   4.7757
  4.7939   4.8424   4.8811   4.9774   5.0342   5.1391   5.1498   5.1870
  5.2066   5.2472   5.2816   5.3065   5.3185   5.3339   5.3738   5.3845
  5.4115   5.4916   5.5265   5.5460   5.5555   5.6105   5.6168   5.6684
  5.6927   5.7127   5.7227   5.7559   5.8246   5.8588   5.9096   5.9272
  5.9769   6.0040   6.1301   6.4067   6.5697   6.6029   7.0884   7.1618
  7.2530   7.2873   7.3684   7.3804   7.3932   7.4464   7.6468   7.6638
  7.7810   7.8536  24.2435  24.6067  24.7542  24.7954  24.8566  25.0680
 25.3647  50.6149  50.6369
 --------------------------------------------------------------
 
          Ground-State Mulliken Net Atomic Charges

     Atom                 Charge (a.u.)    Spin (a.u.)
  --------------------------------------------------------
      1 C                    -0.764869       0.022160
      2 C                     0.179821       0.344352
      3 C                    -0.546573      -0.129967
      4 C                    -0.270686       0.496663
      5 C                    -0.845849      -0.127197
      6 C                     0.969268       0.326810
      7 C                    -0.400821      -0.008552
      8 H                     0.210249       0.038875
      9 H                     0.310840      -0.010103
     10 H                     0.290734       0.005586
     11 H                     0.309850      -0.012120
     12 H                     0.268862       0.006775
     13 H                     0.243073       0.000217
     14 O                    -0.397099       0.004271
     15 H                     0.209652       0.014958
     16 H                     0.335786       0.000452
     17 O                    -0.440478       0.022400
     18 H                     0.338240       0.004419
  --------------------------------------------------------
  Sum of atomic charges =    -0.000000
  Sum of spin   charges =     1.000000

 -----------------------------------------------------------------
                    Cartesian Multipole Moments
 -----------------------------------------------------------------
    Charge (ESU x 10^10)
                 0.0000
    Dipole Moment (Debye)
         X      -3.4518      Y       0.6480      Z      -1.6759
       Tot       3.8915
    Quadrupole Moments (Debye-Ang)
        XX     -53.5866     XY       2.3657     YY     -55.1578
        XZ       1.2702     YZ       0.4166     ZZ     -48.1786
    Octopole Moments (Debye-Ang^2)
       XXX     120.1039    XXY       8.7939    XYY      26.4485
       YYY      54.9988    XXZ     -15.1441    XYZ       8.3544
       YYZ       9.9821    XZZ      41.4876    YZZ      13.1643
       ZZZ     -16.3950
    Hexadecapole Moments (Debye-Ang^3)
      XXXX    -748.6732   XXXY    -137.0913   XXYY    -198.4584
      XYYY    -163.2710   YYYY    -575.9750   XXXZ      50.0133
      XXYZ      56.4544   XYYZ       5.1382   YYYZ     155.0428
      XXZZ    -203.0409   XYZZ     -65.4738   YYZZ    -170.6343
      XZZZ      33.2978   YZZZ     153.1295   ZZZZ    -420.2677
 -----------------------------------------------------------------
 Calculating analytic gradient of the SCF energy
 Gradient of CDS energy
            1           2           3           4           5           6
    1   0.0001907   0.0002061  -0.0000930  -0.0004595  -0.0000345   0.0002458
    2   0.0000665  -0.0000544  -0.0003655  -0.0002922   0.0002075  -0.0000324
    3  -0.0000334   0.0003235   0.0003196  -0.0001710  -0.0003089   0.0001132
            7           8           9          10          11          12
    1  -0.0002538  -0.0000063   0.0001574  -0.0000676  -0.0001657  -0.0000611
    2   0.0009530   0.0002068  -0.0000337  -0.0001671  -0.0001091   0.0000963
    3  -0.0004575   0.0000898   0.0001549   0.0001160  -0.0000587  -0.0001669
           13          14          15          16          17          18
    1  -0.0001128  -0.0001648   0.0001543   0.0002720  -0.0002431   0.0004359
    2  -0.0002043  -0.0001996  -0.0000146  -0.0000963  -0.0000716   0.0001106
    3  -0.0000712   0.0002144   0.0002762  -0.0004160   0.0000626   0.0000134
 Gradient of SCF Energy
            1           2           3           4           5           6
    1   0.0084005  -0.0050008   0.0027911   0.0042191  -0.0015716   0.0030300
    2  -0.0016247   0.0046381   0.0018795  -0.0001883  -0.0096846   0.0096485
    3  -0.0103115  -0.0008034  -0.0004851   0.0040305   0.0051983   0.0064346
            7           8           9          10          11          12
    1   0.0150120  -0.0017340   0.0010399  -0.0029234  -0.0083638  -0.0064100
    2  -0.0124627   0.0059841  -0.0006580  -0.0060140  -0.0052086   0.0034116
    3   0.0011379   0.0032979   0.0034521   0.0039440  -0.0030064  -0.0107683
           13          14          15          16          17          18
    1  -0.0080824   0.0021739  -0.0019384  -0.0020909   0.0038916  -0.0024429
    2   0.0015634   0.0208701   0.0080306  -0.0164205  -0.0125734   0.0088087
    3  -0.0099089   0.0144225   0.0056503  -0.0121507   0.0065653  -0.0066990
 Max gradient component =       2.087E-02
 RMS gradient           =       7.454E-03
 Computing fast CPCM-SWIG gradient
 Updating gradient with PCM contributions...
 -- total gradient after adding PCM contribution --
---------------------------------------------------
  Atom         X              Y              Z     
---------------------------------------------------
   1       0.005656       0.001059      -0.002015
   2       0.001904       0.001496       0.000634
   3      -0.001969      -0.001890      -0.000241
   4      -0.000819      -0.000673      -0.000272
   5      -0.001975      -0.000921      -0.001293
   6       0.000947       0.001624       0.001063
   7       0.003213      -0.002929      -0.001272
   8      -0.000640       0.002910       0.002178
   9       0.001826      -0.000773       0.002401
  10      -0.001119      -0.002652       0.001678
  11      -0.002674      -0.001688      -0.000914
  12      -0.001803       0.000582      -0.002699
  13      -0.002299       0.000997      -0.002761
  14       0.002054       0.006932       0.006133
  15       0.000329       0.002796       0.001438
  16      -0.001278      -0.006116      -0.003947
  17      -0.000687      -0.006822       0.004275
  18      -0.000665       0.006069      -0.004386
---------------------------------------------------
 Number of fixed atoms: 0
 Gradient time:  CPU 307.76 s  wall 44.84 s
 Geometry Optimization Parameters
   NAtoms,    NIC,     NZ,  NCons,   NDum,   NFix, NCnnct, MaxDiis
       18     123       0       0       0       0       0       0


** GEOMETRY OPTIMIZATION IN DELOCALIZED INTERNAL COORDINATES **
   Searching for a Minimum

   Optimization Cycle:   1

                       Coordinates (Angstroms)
     ATOM                X               Y               Z
      1  C        -0.2340398416   -0.1818054642    0.8635088093
      2  C        -0.7682120374   -1.3487046194    1.6347479278
      3  C        -1.8676640910   -2.0463403675    1.2404622020
      4  C        -2.5768203955   -1.6903122477    0.0634403212
      5  C        -2.1445566434   -0.5868414899   -0.7110140692
      6  C        -1.0566073077    0.1573520187   -0.3543720067
      7  C        -0.6397392189    1.3716605453   -1.1315864399
      8  H        -0.2135956359    0.7071516507    1.5210011879
      9  H        -0.2157307167   -1.6329939013    2.5267865356
     10  H        -2.2105049494   -2.8936011884    1.8287442726
     11  H        -3.4457964608   -2.2623515396   -0.2440846881
     12  H        -2.7029098861   -0.3158427573   -1.6052279722
     13  H        -1.3070074043    1.5300866941   -1.9866884558
     14  O         0.7313764607    1.3053544212   -1.5721231050
     15  H        -0.6840883084    2.2614902181   -0.4929216929
     16  H         0.7821829382    0.5717253234   -2.2083368264
     17  O         1.1346778040   -0.4926674290    0.5042640578
     18  H         1.3848492941    0.1999439327   -0.1394138577
   Point Group: c1    Number of degrees of freedom:    48


   Energy is   -422.529575606


 Attempting to generate delocalized internal coordinates
 Initial Hessian constructed with Jon Baker's OPTIMIZE code

 48 Hessian modes will be used to form the next step
  Hessian Eigenvalues:
     0.009074    0.009187    0.010133    0.010227    0.013611    0.016705
     0.020072    0.020373    0.022098    0.023849    0.024351    0.053899
     0.059921    0.068722    0.073494    0.082211    0.118076    0.141352
     0.159906    0.159980    0.159998    0.160000    0.160000    0.160000
     0.165102    0.211692    0.220001    0.221017    0.230933    0.249902
     0.307844    0.319475    0.322940    0.330407    0.341058    0.341115
     0.349874    0.351498    0.351672    0.354135    0.383999    0.393566
     0.410031    0.420790    0.492704    0.517618    0.524163    0.528897

 Minimum search - taking simple RFO step
 Searching for Lamda that Minimizes Along All modes
 Value Taken    Lamda =  -0.00148402
 Step Taken.  Stepsize is  0.174058

                             Maximum     Tolerance    Cnvgd?
         Gradient           0.006989      0.000300      NO
         Displacement       0.061026      0.001200      NO
         Energy change     *********      0.000001      NO


 New Cartesian Coordinates Obtained by Inverse Iteration

 Displacement from previous Coordinates is:  0.394771
 ----------------------------------------------------------------
             Standard Nuclear Orientation (Angstroms)
    I     Atom           X                Y                Z
 ----------------------------------------------------------------
    1      C      -0.2316433801    -0.1927310900     0.8670438325
    2      C      -0.7837236030    -1.3396095738     1.6453348667
    3      C      -1.8744508239    -2.0339392257     1.2442805681
    4      C      -2.5598818527    -1.6909795645     0.0557713667
    5      C      -2.1169446397    -0.5987455166    -0.7191360303
    6      C      -1.0339057422     0.1404965247    -0.3620996148
    7      C      -0.6486813441     1.3703508242    -1.1243977670
    8      H      -0.2109693336     0.6988747740     1.5111054147
    9      H      -0.2523051811    -1.6120525948     2.5481404996
   10      H      -2.2299240137    -2.8666472303     1.8366363166
   11      H      -3.4244356875    -2.2585524103    -0.2552648938
   12      H      -2.6677446085    -0.3268846834    -1.6117680836
   13      H      -1.3450162446     1.5381397081    -1.9465796238
   14      O       0.7011884591     1.3272843421    -1.6286621790
   15      H      -0.6810733479     2.2399717264    -0.4656325991
   16      H       0.7407442583     0.6384718135    -2.3037177774
   17      O       1.1436662937    -0.5216532581     0.5449867500
   18      H       1.4409143913     0.1415092343    -0.0988548459
 ----------------------------------------------------------------
 Nuclear Repulsion Energy =         441.92548686 hartrees
 There are       34 alpha and       33 beta electrons
 Discretize the solute cavity surface with Lebedev spheres
	Using 110 Lebedev grid points for each H atom
	Using 194 Lebedev grid points for other atoms
	Atomic van der Waals radii will be scaled by 1.20
 Remove points where switching function is < 1.0e-08
 Keep 1299 surface tesserae and discard 1437 interior tesserae
 Molecular Surface Area = 151.318 Angst**2
 Applying Cartesian multipole field
    Component          Value
    ---------          -----
     (2,0,0)        1.00000E-11
     (0,2,0)        2.00000E-11
     (0,0,2)       -3.00000E-11
 Nucleus-field energy     =     0.0000000032 hartrees
 Requested basis set is 6-311++G(2df,2p)
 There are 126 shells and 396 basis functions
 A cutoff of  1.0D-12 yielded   7275 shell pairs
 There are     72804 function pairs (     90405 Cartesian)
 Smallest overlap matrix eigenvalue = 1.24E-06
 Guess MOs from SCF MO coefficient file

 -----------------------------------------------------------------------
  General SCF calculation program by
  Eric Jon Sundstrom, Paul Horn, Yuezhi Mao, Dmitri Zuev, Alec White,
  David Stuck, Shaama M.S., Shane Yost, Joonho Lee, David Small,
  Daniel Levine, Susi Lehtola, Hugh Burton, Evgeny Epifanovsky,
  Bang C. Huynh
 -----------------------------------------------------------------------
 Exchange:     0.1500 Hartree-Fock + 1.0000 wB97M-V + LR-HF
 Correlation:  1.0000 wB97M-V
 Using SG-2 standard quadrature grid
 Nonlocal Correlation:  VV10 with C = 0.0100 and b = 6.00 and scale = 1.00000
 Grid used for NLC:  SG-1 standard quadrature
 
 Citation of the SMD model:
 Marenich, A.V.; Cramer, C.J.; Truhlar, D.G.
 J. Phys. Chem. B 2009, 113, 6378-6396.
 iSolventCode=           1
 Solvent: water                                                           
 
 vradii
            1           2           3           4           5           6
    1   1.8500000   1.8500000   1.8500000   1.8500000   1.8500000   1.8500000
            7           8           9          10          11          12
    1   1.8500000   1.2000000   1.2000000   1.2000000   1.2000000   1.2000000
           13          14          15          16          17          18
    1   1.2000000   1.5200000   1.2000000   1.2000000   1.5200000   1.2000000
 -------------------------------------------------------
 OpenMP BLAS3 based DFT computing Module                
 Release: version 1.0, May 2013, Q-Chem Inc. Pittsburgh 
 -------------------------------------------------------
 A unrestricted SCF calculation will be
 performed using Roothaan-Hall, DIIS, GDM
 SCF converges when RMS gradient is below 1.0e-07
 ---------------------------------------
  Cycle       Energy         DIIS error
 ---------------------------------------
    1    -422.5066791088      2.46e-04  Roothaan Step
 ---------------------------------------
  Cycle       Energy         DIIS error
 ---------------------------------------
    1    -422.5309061977      1.92e-04  
    2    -422.5341160694      1.51e-04  Done DIIS. Switching to GDM
 ---------------------------------------
  Cycle       Energy        RMS Gradient
 ---------------------------------------
    1    -422.5341160694      5.47e-03   Normal BFGS step
    2    -422.5342605310      6.57e-03   Normal BFGS step
    3    -422.5354938235      1.12e-03   Normal BFGS step
    4    -422.5355082005      3.60e-04   Normal BFGS step
    5    -422.5355143408      2.74e-04   Normal BFGS step
    6    -422.5355146519      1.25e-04   Normal BFGS step
    7    -422.5355147578      9.00e-05   Normal BFGS step
    8    -422.5355147864      4.66e-05   Normal BFGS step
    9    -422.5355147933      2.36e-05   Normal BFGS step
   10    -422.5355147957      1.65e-05   Normal BFGS step
   11    -422.5355147965      7.54e-06   Normal BFGS step
   12    -422.5355147967      2.80e-06   Normal BFGS step
   13    -422.5355147968      1.04e-06   Normal BFGS step
   14    -422.5355147968      6.61e-07   Normal BFGS step
   15    -422.5355147968      3.87e-07   Normal BFGS step
   16    -422.5355147968      1.80e-07   Normal BFGS step
   17    -422.5355147968      5.95e-08  Convergence criterion met
 ---------------------------------------
 SCF time:   CPU 1929.09s  wall 246.00s 
<S^2> =          0.788941709
(3)  G-ENP(liq) elect-nuc-pol free energy of system     -422.535514797 a.u.
(4)  G-CDS(liq) cavity-dispersion-solvent structure 
     free energy                                                3.3957 kcal/mol
(6)  G-S(liq) free energy of system                     -422.530103424 a.u.
 SCF   energy in the final basis set =     -422.5301034243
 Total energy in the final basis set =     -422.5301034243
 
 --------------------------------------------------------------
 
                    Orbital Energies (a.u.)
 --------------------------------------------------------------
 
 Alpha MOs
 -- Occupied --
-19.3421 -19.3336 -10.3990 -10.3876 -10.3548 -10.3521 -10.3475 -10.3436
-10.3424  -1.1612  -1.1456  -0.9777  -0.8966  -0.8652  -0.7977  -0.7367
 -0.7080  -0.6392  -0.6218  -0.6019  -0.5861  -0.5606  -0.5456  -0.5281
 -0.5220  -0.4978  -0.4786  -0.4532  -0.4416  -0.4389  -0.3944  -0.3826
 -0.3649  -0.2694
 -- Virtual --
  0.0239   0.0355   0.0374   0.0455   0.0562   0.0568   0.0648   0.0725
  0.0801   0.0862   0.0954   0.1054   0.1196   0.1315   0.1383   0.1391
  0.1421   0.1528   0.1592   0.1605   0.1610   0.1674   0.1729   0.1772
  0.1793   0.1853   0.1994   0.2007   0.2070   0.2083   0.2165   0.2173
  0.2257   0.2349   0.2412   0.2575   0.2626   0.2675   0.2716   0.2802
  0.2881   0.2946   0.3020   0.3157   0.3186   0.3275   0.3294   0.3350
  0.3514   0.3613   0.3672   0.3723   0.3754   0.3801   0.3878   0.3980
  0.4012   0.4074   0.4293   0.4457   0.4508   0.4647   0.5019   0.5317
  0.5522   0.5619   0.5736   0.5836   0.5908   0.6039   0.6098   0.6131
  0.6167   0.6219   0.6276   0.6389   0.6630   0.6659   0.6732   0.6777
  0.6862   0.7028   0.7076   0.7211   0.7272   0.7299   0.7381   0.7449
  0.7576   0.7641   0.7662   0.7783   0.7927   0.8124   0.8193   0.8275
  0.8309   0.8381   0.8398   0.8532   0.8716   0.8797   0.8971   0.9149
  0.9443   0.9464   0.9716   1.0152   1.0376   1.0504   1.0584   1.0635
  1.0813   1.0877   1.1135   1.1198   1.1443   1.1513   1.1592   1.1675
  1.1952   1.2180   1.2249   1.2336   1.2556   1.2569   1.2640   1.2803
  1.2937   1.3056   1.3107   1.3316   1.3418   1.3497   1.3699   1.3895
  1.3970   1.4017   1.4176   1.4312   1.4319   1.4526   1.4573   1.4740
  1.4861   1.5005   1.5071   1.5181   1.5270   1.5352   1.5570   1.5688
  1.5903   1.6081   1.6195   1.6275   1.6430   1.6781   1.6903   1.7132
  1.7615   1.7845   1.7983   1.8180   1.8662   1.8848   1.9050   1.9534
  2.0064   2.0434   2.0709   2.0761   2.1085   2.1246   2.1559   2.1930
  2.2481   2.2798   2.3365   2.3686   2.4234   2.4577   2.5676   2.5991
  2.6016   2.6458   2.6767   2.7075   2.7404   2.7591   2.7902   2.8042
  2.8209   2.8305   2.8370   2.8566   2.8663   2.8849   2.8974   2.9097
  2.9215   2.9252   2.9378   2.9565   2.9616   2.9862   2.9949   3.0052
  3.0259   3.0638   3.0858   3.0968   3.1029   3.1198   3.1733   3.1976
  3.2062   3.2143   3.2347   3.2484   3.2695   3.2706   3.2950   3.2978
  3.3106   3.3346   3.3394   3.3623   3.3770   3.3872   3.4104   3.4202
  3.4453   3.4543   3.4731   3.4783   3.4937   3.5006   3.5254   3.5335
  3.5533   3.5774   3.5983   3.6110   3.6425   3.6619   3.6739   3.7027
  3.7225   3.7504   3.7703   3.7867   3.7958   3.8071   3.8311   3.8373
  3.8427   3.8634   3.8680   3.8941   3.8984   3.9255   3.9328   3.9600
  3.9664   3.9780   4.0059   4.0143   4.0453   4.0593   4.0826   4.1046
  4.1495   4.1582   4.1661   4.1962   4.2093   4.2404   4.2649   4.2703
  4.3055   4.3118   4.3377   4.3551   4.3799   4.3935   4.4084   4.4147
  4.4275   4.4510   4.4654   4.4915   4.4981   4.5393   4.5520   4.5707
  4.6072   4.6112   4.6384   4.6734   4.6862   4.7128   4.7828   4.7993
  4.8510   4.8818   4.9796   5.0314   5.1398   5.1503   5.1815   5.2103
  5.2500   5.2786   5.3045   5.3209   5.3419   5.3673   5.3795   5.4104
  5.4948   5.5260   5.5512   5.5613   5.6114   5.6157   5.6703   5.6977
  5.7183   5.7307   5.7771   5.8217   5.8673   5.9111   5.9296   5.9986
  6.0190   6.1537   6.4311   6.5600   6.5937   7.0934   7.1445   7.2764
  7.3030   7.3612   7.3709   7.3838   7.4266   7.6407   7.6856   7.7721
  7.8384  24.2468  24.6199  24.7722  24.8135  24.8740  25.1015  25.4023
 50.6034  50.6364
 
 Beta MOs
 -- Occupied --
-19.3415 -19.3319 -10.3997 -10.3879 -10.3495 -10.3462 -10.3450 -10.3444
-10.3422  -1.1591  -1.1427  -0.9710  -0.8908  -0.8558  -0.7970  -0.7275
 -0.7031  -0.6365  -0.6169  -0.5997  -0.5789  -0.5557  -0.5417  -0.5249
 -0.5193  -0.4933  -0.4750  -0.4388  -0.4372  -0.4254  -0.3907  -0.3791
 -0.3470
 -- Virtual --
 -0.0261   0.0238   0.0354   0.0375   0.0453   0.0559   0.0569   0.0719
  0.0773   0.0837   0.0860   0.0946   0.1053   0.1190   0.1337   0.1390
  0.1407   0.1438   0.1537   0.1594   0.1603   0.1617   0.1670   0.1740
  0.1774   0.1799   0.1856   0.1988   0.2015   0.2065   0.2084   0.2170
  0.2209   0.2304   0.2359   0.2421   0.2564   0.2627   0.2675   0.2727
  0.2798   0.2877   0.2958   0.3035   0.3159   0.3207   0.3292   0.3304
  0.3364   0.3524   0.3631   0.3706   0.3740   0.3765   0.3816   0.3903
  0.3997   0.4047   0.4095   0.4296   0.4483   0.4532   0.4674   0.5024
  0.5333   0.5538   0.5656   0.5771   0.5872   0.5938   0.6087   0.6123
  0.6180   0.6217   0.6232   0.6287   0.6417   0.6651   0.6673   0.6762
  0.6836   0.6889   0.7065   0.7117   0.7238   0.7309   0.7346   0.7411
  0.7475   0.7591   0.7668   0.7687   0.7804   0.7973   0.8168   0.8247
  0.8309   0.8346   0.8380   0.8458   0.8562   0.8744   0.8820   0.9001
  0.9166   0.9466   0.9494   0.9736   1.0179   1.0391   1.0523   1.0607
  1.0652   1.0827   1.0886   1.1153   1.1212   1.1454   1.1539   1.1615
  1.1700   1.1972   1.2198   1.2262   1.2347   1.2571   1.2588   1.2651
  1.2817   1.2958   1.3073   1.3138   1.3355   1.3446   1.3527   1.3718
  1.3924   1.3997   1.4061   1.4219   1.4348   1.4359   1.4572   1.4605
  1.4783   1.4881   1.5022   1.5129   1.5206   1.5304   1.5378   1.5604
  1.5735   1.5945   1.6100   1.6214   1.6304   1.6451   1.6805   1.6933
  1.7178   1.7635   1.7890   1.8045   1.8276   1.8693   1.8887   1.9097
  1.9564   2.0110   2.0477   2.0756   2.0823   2.1115   2.1276   2.1593
  2.1949   2.2514   2.2828   2.3384   2.3709   2.4248   2.4595   2.5766
  2.6055   2.6115   2.6513   2.6831   2.7117   2.7476   2.7662   2.7991
  2.8226   2.8339   2.8378   2.8452   2.8698   2.8754   2.8954   2.9033
  2.9205   2.9300   2.9428   2.9539   2.9652   2.9786   3.0029   3.0104
  3.0216   3.0365   3.0783   3.0984   3.1056   3.1186   3.1284   3.1787
  3.2046   3.2154   3.2247   3.2399   3.2572   3.2767   3.2808   3.3038
  3.3093   3.3215   3.3410   3.3443   3.3675   3.3898   3.3944   3.4156
  3.4286   3.4527   3.4600   3.4828   3.4853   3.5042   3.5123   3.5306
  3.5425   3.5667   3.5869   3.6146   3.6280   3.6477   3.6728   3.6817
  3.7094   3.7306   3.7586   3.7792   3.7932   3.8049   3.8139   3.8347
  3.8404   3.8537   3.8771   3.8794   3.9008   3.9074   3.9344   3.9402
  3.9660   3.9762   3.9861   4.0123   4.0232   4.0525   4.0660   4.0872
  4.1094   4.1593   4.1660   4.1746   4.2014   4.2153   4.2482   4.2735
  4.2796   4.3083   4.3209   4.3445   4.3606   4.3846   4.4005   4.4170
  4.4204   4.4382   4.4607   4.4733   4.5007   4.5101   4.5488   4.5622
  4.5797   4.6180   4.6212   4.6537   4.6869   4.6980   4.7212   4.7915
  4.8088   4.8614   4.8909   4.9950   5.0445   5.1530   5.1618   5.1935
  5.2202   5.2601   5.2812   5.3069   5.3248   5.3452   5.3717   5.3823
  5.4146   5.4980   5.5303   5.5559   5.5678   5.6201   5.6234   5.6730
  5.6990   5.7261   5.7333   5.7791   5.8370   5.8716   5.9186   5.9389
  6.0037   6.0213   6.1647   6.4410   6.5640   6.5966   7.0950   7.1466
  7.2785   7.3047   7.3633   7.3747   7.3881   7.4298   7.6429   7.6883
  7.7744   7.8434  24.2484  24.6216  24.7725  24.8151  24.8780  25.1029
 25.4048  50.6040  50.6376
 --------------------------------------------------------------
 
          Ground-State Mulliken Net Atomic Charges

     Atom                 Charge (a.u.)    Spin (a.u.)
  --------------------------------------------------------
      1 C                    -0.754483       0.028355
      2 C                     0.204772       0.340814
      3 C                    -0.558563      -0.126237
      4 C                    -0.274976       0.495610
      5 C                    -0.893164      -0.123054
      6 C                     0.984387       0.316908
      7 C                    -0.387910      -0.008323
      8 H                     0.209274       0.038798
      9 H                     0.311505      -0.009819
     10 H                     0.290270       0.005502
     11 H                     0.310018      -0.011755
     12 H                     0.267669       0.006830
     13 H                     0.243971       0.000151
     14 O                    -0.402477       0.005102
     15 H                     0.210163       0.014129
     16 H                     0.332643       0.000487
     17 O                    -0.430479       0.022020
     18 H                     0.337380       0.004481
  --------------------------------------------------------
  Sum of atomic charges =     0.000000
  Sum of spin   charges =     1.000000

 -----------------------------------------------------------------
                    Cartesian Multipole Moments
 -----------------------------------------------------------------
    Charge (ESU x 10^10)
                 0.0000
    Dipole Moment (Debye)
         X      -3.4439      Y       0.6080      Z      -1.6015
       Tot       3.8464
    Quadrupole Moments (Debye-Ang)
        XX     -53.1960     XY       2.4353     YY     -55.5304
        XZ       1.1525     YZ       0.6701     ZZ     -48.0008
    Octopole Moments (Debye-Ang^2)
       XXX     120.2739    XXY       9.1354    XYY      26.1367
       YYY      54.8712    XXZ     -14.7065    XYZ       8.5907
       YYZ      10.3858    XZZ      40.8359    YZZ      13.1412
       ZZZ     -17.0819
    Hexadecapole Moments (Debye-Ang^3)
      XXXX    -739.5558   XXXY    -136.1759   XXYY    -197.3169
      XYYY    -162.4538   YYYY    -578.8424   XXXZ      48.3433
      XXYZ      56.8829   XYYZ       4.9822   YYYZ     159.3957
      XXZZ    -203.4316   XYZZ     -63.9188   YYZZ    -173.6181
      XZZZ      30.8356   YZZZ     153.9742   ZZZZ    -423.3041
 -----------------------------------------------------------------
 Calculating analytic gradient of the SCF energy
 Gradient of CDS energy
            1           2           3           4           5           6
    1   0.0001838   0.0001967  -0.0000980  -0.0004512  -0.0000237   0.0002410
    2   0.0000611  -0.0000491  -0.0003577  -0.0002926   0.0001934  -0.0000298
    3  -0.0000322   0.0003258   0.0003201  -0.0001759  -0.0003119   0.0001094
            7           8           9          10          11          12
    1  -0.0002757  -0.0000020   0.0001524  -0.0000685  -0.0001610  -0.0000572
    2   0.0009788   0.0002007  -0.0000309  -0.0001605  -0.0001057   0.0000974
    3  -0.0003748   0.0000830   0.0001537   0.0001142  -0.0000579  -0.0001608
           13          14          15          16          17          18
    1  -0.0000877  -0.0001738   0.0001541   0.0002734  -0.0002519   0.0004490
    2  -0.0002162  -0.0001961  -0.0000299  -0.0000804  -0.0000654   0.0000828
    3  -0.0000893   0.0002014   0.0002648  -0.0004332   0.0000746  -0.0000108
 Gradient of SCF Energy
            1           2           3           4           5           6
    1   0.0044487  -0.0076232   0.0049864   0.0053407   0.0015635   0.0004281
    2  -0.0034306   0.0033198   0.0039826   0.0005363  -0.0078425   0.0068566
    3  -0.0082920  -0.0014091  -0.0005812   0.0045910   0.0065852   0.0045199
            7           8           9          10          11          12
    1   0.0103234  -0.0015455  -0.0007423  -0.0017919  -0.0056880  -0.0044418
    2  -0.0084261   0.0031482  -0.0000139  -0.0033693  -0.0033690   0.0028191
    3   0.0028594   0.0015005   0.0010619   0.0022351  -0.0020313  -0.0079850
           13          14          15          16          17          18
    1  -0.0053933   0.0010215  -0.0028856  -0.0007934   0.0034729  -0.0006802
    2   0.0006363   0.0142988   0.0050652  -0.0104820  -0.0082533   0.0045238
    3  -0.0069962   0.0074075   0.0044365  -0.0098214   0.0051914  -0.0032722
 Max gradient component =       1.430E-02
 RMS gradient           =       5.334E-03
 Computing fast CPCM-SWIG gradient
 Updating gradient with PCM contributions...
 -- total gradient after adding PCM contribution --
---------------------------------------------------
  Atom         X              Y              Z     
---------------------------------------------------
   1       0.002262      -0.000393       0.000097
   2      -0.000936       0.000011      -0.000014
   3       0.000298       0.000249      -0.000136
   4       0.000403       0.000266       0.000285
   5       0.000374       0.000611       0.000196
   6      -0.001752      -0.001229      -0.001173
   7      -0.000833       0.000406       0.001241
   8      -0.000483      -0.000050       0.000339
   9      -0.000012      -0.000135      -0.000112
  10       0.000093       0.000020      -0.000121
  11       0.000042       0.000155       0.000085
  12       0.000110      -0.000035       0.000069
  13       0.000404       0.000116      -0.000215
  14       0.000397       0.001166      -0.001084
  15      -0.000591       0.000197       0.000039
  16       0.000280      -0.000658      -0.001141
  17      -0.000837      -0.002383       0.003020
  18       0.000781       0.001687      -0.001374
---------------------------------------------------
 Number of fixed atoms: 0
 Gradient time:  CPU 306.68 s  wall 44.26 s
 Geometry Optimization Parameters
   NAtoms,    NIC,     NZ,  NCons,   NDum,   NFix, NCnnct, MaxDiis
       18     123       0       0       0       0       0       0

 Cartesian Hessian Update
 Hessian updated using BFGS update


** GEOMETRY OPTIMIZATION IN DELOCALIZED INTERNAL COORDINATES **
   Searching for a Minimum

   Optimization Cycle:   2

                       Coordinates (Angstroms)
     ATOM                X               Y               Z
      1  C        -0.2316433801   -0.1927310900    0.8670438325
      2  C        -0.7837236030   -1.3396095738    1.6453348667
      3  C        -1.8744508239   -2.0339392257    1.2442805681
      4  C        -2.5598818527   -1.6909795645    0.0557713667
      5  C        -2.1169446397   -0.5987455166   -0.7191360303
      6  C        -1.0339057422    0.1404965247   -0.3620996148
      7  C        -0.6486813441    1.3703508242   -1.1243977670
      8  H        -0.2109693336    0.6988747740    1.5111054147
      9  H        -0.2523051811   -1.6120525948    2.5481404996
     10  H        -2.2299240137   -2.8666472303    1.8366363166
     11  H        -3.4244356875   -2.2585524103   -0.2552648938
     12  H        -2.6677446085   -0.3268846834   -1.6117680836
     13  H        -1.3450162446    1.5381397081   -1.9465796238
     14  O         0.7011884591    1.3272843421   -1.6286621790
     15  H        -0.6810733479    2.2399717264   -0.4656325991
     16  H         0.7407442583    0.6384718135   -2.3037177774
     17  O         1.1436662937   -0.5216532581    0.5449867500
     18  H         1.4409143913    0.1415092343   -0.0988548459
   Point Group: c1    Number of degrees of freedom:    48


   Energy is   -422.530103424

 Hessian updated using BFGS update

 47 Hessian modes will be used to form the next step
  Hessian Eigenvalues:
     0.009172    0.009501    0.010186    0.010381    0.015665    0.016709
     0.020060    0.020376    0.022123    0.023852    0.024351    0.054560
     0.061234    0.068252    0.074146    0.082970    0.117535    0.141868
     0.150743    0.159931    0.159980    0.159998    0.160128    0.173615
     0.211400    0.219977    0.226909    0.231461    0.269843    0.287748
     0.319393    0.321240    0.331562    0.340882    0.342360    0.350295
     0.351554    0.352648    0.355483    0.383544    0.393297    0.414161
     0.420838    0.484805    0.493122    0.525516    0.538813

 Minimum search - taking simple RFO step
 Searching for Lamda that Minimizes Along All modes
 Value Taken    Lamda =  -0.00029700
 Step Taken.  Stepsize is  0.077981

                             Maximum     Tolerance    Cnvgd?
         Gradient           0.006167      0.000300      NO
         Displacement       0.038928      0.001200      NO
         Energy change     -0.000528      0.000001      NO


 New Cartesian Coordinates Obtained by Inverse Iteration

 Displacement from previous Coordinates is:  0.190878
 ----------------------------------------------------------------
             Standard Nuclear Orientation (Angstroms)
    I     Atom           X                Y                Z
 ----------------------------------------------------------------
    1      C      -0.2385446639    -0.1872076852     0.8619547106
    2      C      -0.7793099312    -1.3389223509     1.6391586174
    3      C      -1.8707252188    -2.0340908418     1.2426238233
    4      C      -2.5623166163    -1.6906179835     0.0579436304
    5      C      -2.1266050308    -0.5943418774    -0.7147420550
    6      C      -1.0467361605     0.1486903098    -0.3569574045
    7      C      -0.6491400362     1.3694702527    -1.1225308325
    8      H      -0.2081076712     0.7023377081     1.5065616553
    9      H      -0.2421798717    -1.6114486474     2.5377373765
   10      H      -2.2204082596    -2.8690804338     1.8339938706
   11      H      -3.4233556843    -2.2623760644    -0.2530432397
   12      H      -2.6785124568    -0.3239505929    -1.6063539838
   13      H      -1.3298517188     1.5316223666    -1.9577168011
   14      O       0.7117236952     1.3142044324    -1.5903988537
   15      H      -0.6877767908     2.2431229375    -0.4711258684
   16      H       0.7668812392     0.6160907201    -2.2515225809
   17      O       1.1329278360    -0.5094992455     0.5154455661
   18      H       1.4178509404     0.1493007955    -0.1338414303
 ----------------------------------------------------------------
 Nuclear Repulsion Energy =         443.10334975 hartrees
 There are       34 alpha and       33 beta electrons
 Discretize the solute cavity surface with Lebedev spheres
	Using 110 Lebedev grid points for each H atom
	Using 194 Lebedev grid points for other atoms
	Atomic van der Waals radii will be scaled by 1.20
 Remove points where switching function is < 1.0e-08
 Keep 1296 surface tesserae and discard 1440 interior tesserae
 Molecular Surface Area = 150.698 Angst**2
 Applying Cartesian multipole field
    Component          Value
    ---------          -----
     (2,0,0)        1.00000E-11
     (0,2,0)        2.00000E-11
     (0,0,2)       -3.00000E-11
 Nucleus-field energy     =     0.0000000034 hartrees
 Requested basis set is 6-311++G(2df,2p)
 There are 126 shells and 396 basis functions
 A cutoff of  1.0D-12 yielded   7281 shell pairs
 There are     72853 function pairs (     90459 Cartesian)
 Smallest overlap matrix eigenvalue = 1.23E-06
 Guess MOs from SCF MO coefficient file

 -----------------------------------------------------------------------
  General SCF calculation program by
  Eric Jon Sundstrom, Paul Horn, Yuezhi Mao, Dmitri Zuev, Alec White,
  David Stuck, Shaama M.S., Shane Yost, Joonho Lee, David Small,
  Daniel Levine, Susi Lehtola, Hugh Burton, Evgeny Epifanovsky,
  Bang C. Huynh
 -----------------------------------------------------------------------
 Exchange:     0.1500 Hartree-Fock + 1.0000 wB97M-V + LR-HF
 Correlation:  1.0000 wB97M-V
 Using SG-2 standard quadrature grid
 Nonlocal Correlation:  VV10 with C = 0.0100 and b = 6.00 and scale = 1.00000
 Grid used for NLC:  SG-1 standard quadrature
 
 Citation of the SMD model:
 Marenich, A.V.; Cramer, C.J.; Truhlar, D.G.
 J. Phys. Chem. B 2009, 113, 6378-6396.
 iSolventCode=           1
 Solvent: water                                                           
 
 vradii
            1           2           3           4           5           6
    1   1.8500000   1.8500000   1.8500000   1.8500000   1.8500000   1.8500000
            7           8           9          10          11          12
    1   1.8500000   1.2000000   1.2000000   1.2000000   1.2000000   1.2000000
           13          14          15          16          17          18
    1   1.2000000   1.5200000   1.2000000   1.2000000   1.5200000   1.2000000
 -------------------------------------------------------
 OpenMP BLAS3 based DFT computing Module                
 Release: version 1.0, May 2013, Q-Chem Inc. Pittsburgh 
 -------------------------------------------------------
 A unrestricted SCF calculation will be
 performed using Roothaan-Hall, DIIS, GDM
 SCF converges when RMS gradient is below 1.0e-07
 ---------------------------------------
  Cycle       Energy         DIIS error
 ---------------------------------------
    1    -422.5094144481      1.88e-04  Roothaan Step
 ---------------------------------------
  Cycle       Energy         DIIS error
 ---------------------------------------
    1    -422.5310443302      1.94e-04  
    2    -422.5340995912      1.57e-04  Done DIIS. Switching to GDM
 ---------------------------------------
  Cycle       Energy        RMS Gradient
 ---------------------------------------
    1    -422.5340995912      5.66e-03   Normal BFGS step
    2    -422.5342176839      6.81e-03   Normal BFGS step
    3    -422.5355509890      1.22e-03   Normal BFGS step
    4    -422.5355650150      3.85e-04   Normal BFGS step
    5    -422.5355712607      3.25e-04   Normal BFGS step
    6    -422.5355716095      1.46e-04   Normal BFGS step
    7    -422.5355717271      1.03e-04   Normal BFGS step
    8    -422.5355717574      6.02e-05   Normal BFGS step
    9    -422.5355717659      2.57e-05   Normal BFGS step
   10    -422.5355717685      1.84e-05   Normal BFGS step
   11    -422.5355717696      8.38e-06   Normal BFGS step
   12    -422.5355717698      2.92e-06   Normal BFGS step
   13    -422.5355717699      9.16e-07   Normal BFGS step
   14    -422.5355717700      4.37e-07   Normal BFGS step
   15    -422.5355717699      2.81e-07   Normal BFGS step
   16    -422.5355717699      9.33e-08  Convergence criterion met
 ---------------------------------------
 SCF time:   CPU 1863.29s  wall 235.00s 
<S^2> =          0.788837226
(3)  G-ENP(liq) elect-nuc-pol free energy of system     -422.535571770 a.u.
(4)  G-CDS(liq) cavity-dispersion-solvent structure 
     free energy                                                3.3682 kcal/mol
(6)  G-S(liq) free energy of system                     -422.530204172 a.u.
 SCF   energy in the final basis set =     -422.5302041721
 Total energy in the final basis set =     -422.5302041721
 
 --------------------------------------------------------------
 
                    Orbital Energies (a.u.)
 --------------------------------------------------------------
 
 Alpha MOs
 -- Occupied --
-19.3429 -19.3314 -10.3981 -10.3875 -10.3542 -10.3519 -10.3472 -10.3433
-10.3422  -1.1637  -1.1449  -0.9781  -0.8970  -0.8655  -0.7982  -0.7371
 -0.7086  -0.6399  -0.6227  -0.6028  -0.5865  -0.5608  -0.5458  -0.5280
 -0.5223  -0.4978  -0.4792  -0.4530  -0.4419  -0.4399  -0.3939  -0.3825
 -0.3647  -0.2692
 -- Virtual --
  0.0239   0.0356   0.0374   0.0456   0.0563   0.0568   0.0649   0.0728
  0.0800   0.0862   0.0958   0.1055   0.1197   0.1316   0.1384   0.1391
  0.1423   0.1529   0.1593   0.1606   0.1612   0.1672   0.1730   0.1771
  0.1793   0.1852   0.1997   0.2011   0.2066   0.2085   0.2164   0.2174
  0.2256   0.2354   0.2419   0.2582   0.2622   0.2688   0.2729   0.2804
  0.2885   0.2950   0.3026   0.3159   0.3187   0.3280   0.3302   0.3363
  0.3520   0.3615   0.3673   0.3729   0.3769   0.3810   0.3878   0.3992
  0.4017   0.4071   0.4310   0.4468   0.4503   0.4648   0.5029   0.5312
  0.5525   0.5628   0.5757   0.5844   0.5908   0.6044   0.6100   0.6134
  0.6173   0.6221   0.6287   0.6400   0.6640   0.6671   0.6758   0.6783
  0.6868   0.7009   0.7073   0.7199   0.7275   0.7302   0.7384   0.7468
  0.7580   0.7648   0.7657   0.7800   0.7930   0.8120   0.8190   0.8278
  0.8333   0.8382   0.8398   0.8504   0.8723   0.8855   0.9013   0.9136
  0.9460   0.9472   0.9714   1.0151   1.0372   1.0537   1.0600   1.0641
  1.0834   1.0903   1.1143   1.1202   1.1483   1.1528   1.1594   1.1687
  1.2001   1.2204   1.2272   1.2353   1.2570   1.2594   1.2673   1.2836
  1.2920   1.3047   1.3131   1.3329   1.3470   1.3499   1.3714   1.3908
  1.3955   1.4023   1.4195   1.4299   1.4330   1.4528   1.4582   1.4753
  1.4852   1.5016   1.5084   1.5183   1.5264   1.5361   1.5570   1.5690
  1.5919   1.6043   1.6216   1.6288   1.6459   1.6792   1.6953   1.7184
  1.7640   1.7874   1.7994   1.8182   1.8783   1.8866   1.9058   1.9633
  2.0099   2.0542   2.0721   2.0761   2.1097   2.1266   2.1571   2.1946
  2.2691   2.2838   2.3389   2.3741   2.4193   2.4623   2.5691   2.5990
  2.6046   2.6488   2.6765   2.7084   2.7440   2.7596   2.7929   2.8043
  2.8233   2.8306   2.8377   2.8578   2.8667   2.8853   2.8980   2.9104
  2.9222   2.9273   2.9390   2.9591   2.9648   2.9862   2.9975   3.0061
  3.0290   3.0661   3.0855   3.0990   3.1068   3.1202   3.1738   3.1986
  3.2089   3.2158   3.2354   3.2491   3.2698   3.2728   3.2972   3.2990
  3.3129   3.3370   3.3384   3.3658   3.3778   3.3896   3.4133   3.4227
  3.4475   3.4553   3.4754   3.4813   3.4963   3.5028   3.5272   3.5346
  3.5524   3.5772   3.5995   3.6146   3.6428   3.6632   3.6773   3.7062
  3.7249   3.7504   3.7685   3.7845   3.7992   3.8067   3.8306   3.8354
  3.8480   3.8631   3.8723   3.8971   3.8991   3.9271   3.9383   3.9650
  3.9713   3.9807   4.0087   4.0195   4.0488   4.0629   4.0834   4.1087
  4.1515   4.1596   4.1688   4.2017   4.2148   4.2448   4.2669   4.2706
  4.3096   4.3172   4.3456   4.3579   4.3818   4.3958   4.4118   4.4254
  4.4319   4.4545   4.4712   4.4929   4.5004   4.5425   4.5546   4.5738
  4.6125   4.6143   4.6402   4.6769   4.6902   4.7172   4.7860   4.8029
  4.8550   4.8828   4.9839   5.0367   5.1411   5.1536   5.1856   5.2139
  5.2532   5.2807   5.3067   5.3216   5.3408   5.3714   5.3807   5.4149
  5.5003   5.5283   5.5560   5.5655   5.6172   5.6223   5.6792   5.7058
  5.7216   5.7349   5.7834   5.8240   5.8732   5.9134   5.9348   6.0045
  6.0249   6.1586   6.4371   6.5634   6.6035   7.0930   7.1544   7.2871
  7.3114   7.3680   7.3763   7.3846   7.4511   7.6514   7.6903   7.7739
  7.8430  24.2498  24.6232  24.7813  24.8234  24.8775  25.1046  25.4070
 50.6133  50.6407
 
 Beta MOs
 -- Occupied --
-19.3423 -19.3298 -10.3988 -10.3878 -10.3489 -10.3458 -10.3448 -10.3442
-10.3419  -1.1617  -1.1419  -0.9713  -0.8911  -0.8562  -0.7975  -0.7278
 -0.7038  -0.6372  -0.6178  -0.6005  -0.5793  -0.5559  -0.5420  -0.5248
 -0.5196  -0.4932  -0.4757  -0.4390  -0.4382  -0.4251  -0.3902  -0.3790
 -0.3469
 -- Virtual --
 -0.0259   0.0238   0.0354   0.0375   0.0455   0.0560   0.0569   0.0721
  0.0774   0.0837   0.0861   0.0950   0.1055   0.1191   0.1337   0.1389
  0.1406   0.1443   0.1537   0.1595   0.1603   0.1619   0.1668   0.1739
  0.1772   0.1800   0.1854   0.1996   0.2015   0.2062   0.2084   0.2172
  0.2207   0.2303   0.2363   0.2431   0.2571   0.2624   0.2689   0.2736
  0.2800   0.2881   0.2961   0.3042   0.3164   0.3206   0.3298   0.3312
  0.3377   0.3529   0.3630   0.3710   0.3750   0.3778   0.3823   0.3903
  0.4010   0.4051   0.4092   0.4313   0.4490   0.4527   0.4677   0.5033
  0.5329   0.5542   0.5665   0.5792   0.5880   0.5941   0.6093   0.6125
  0.6183   0.6221   0.6232   0.6298   0.6431   0.6670   0.6680   0.6786
  0.6841   0.6894   0.7045   0.7113   0.7225   0.7311   0.7349   0.7415
  0.7497   0.7595   0.7673   0.7682   0.7822   0.7975   0.8164   0.8241
  0.8312   0.8355   0.8395   0.8459   0.8542   0.8752   0.8876   0.9042
  0.9153   0.9491   0.9494   0.9733   1.0178   1.0387   1.0556   1.0623
  1.0658   1.0849   1.0909   1.1163   1.1217   1.1510   1.1539   1.1616
  1.1709   1.2024   1.2223   1.2285   1.2365   1.2577   1.2617   1.2686
  1.2850   1.2941   1.3060   1.3167   1.3366   1.3500   1.3530   1.3733
  1.3931   1.3986   1.4067   1.4237   1.4335   1.4372   1.4574   1.4613
  1.4793   1.4873   1.5034   1.5141   1.5212   1.5299   1.5384   1.5605
  1.5737   1.5960   1.6061   1.6240   1.6313   1.6482   1.6817   1.6984
  1.7231   1.7660   1.7919   1.8056   1.8284   1.8808   1.8904   1.9106
  1.9663   2.0148   2.0587   2.0769   2.0822   2.1125   2.1297   2.1605
  2.1964   2.2721   2.2869   2.3410   2.3763   2.4206   2.4642   2.5781
  2.6055   2.6147   2.6543   2.6829   2.7127   2.7514   2.7665   2.8019
  2.8234   2.8358   2.8383   2.8459   2.8711   2.8757   2.8956   2.9040
  2.9215   2.9321   2.9446   2.9552   2.9678   2.9800   3.0042   3.0118
  3.0227   3.0395   3.0806   3.0972   3.1086   3.1206   3.1302   3.1797
  3.2057   3.2175   3.2262   3.2406   3.2584   3.2768   3.2835   3.3058
  3.3107   3.3235   3.3427   3.3439   3.3718   3.3899   3.3973   3.4186
  3.4308   3.4550   3.4610   3.4859   3.4875   3.5059   3.5144   3.5330
  3.5434   3.5664   3.5863   3.6178   3.6295   3.6476   3.6737   3.6857
  3.7131   3.7331   3.7581   3.7773   3.7918   3.8090   3.8126   3.8331
  3.8403   3.8587   3.8768   3.8835   3.9053   3.9083   3.9362   3.9450
  3.9718   3.9795   3.9894   4.0159   4.0270   4.0558   4.0696   4.0875
  4.1137   4.1615   4.1674   4.1773   4.2068   4.2209   4.2521   4.2760
  4.2796   4.3134   4.3256   4.3520   4.3642   4.3863   4.4028   4.4209
  4.4308   4.4426   4.4643   4.4787   4.5021   4.5123   4.5524   4.5647
  4.5830   4.6225   4.6248   4.6553   4.6904   4.7018   4.7258   4.7946
  4.8123   4.8650   4.8924   4.9994   5.0497   5.1543   5.1654   5.1976
  5.2236   5.2632   5.2831   5.3090   5.3256   5.3440   5.3761   5.3835
  5.4191   5.5038   5.5328   5.5603   5.5726   5.6257   5.6298   5.6822
  5.7072   5.7288   5.7377   5.7852   5.8395   5.8771   5.9218   5.9437
  6.0092   6.0276   6.1697   6.4470   6.5679   6.6060   7.0946   7.1564
  7.2893   7.3131   7.3710   7.3794   7.3890   7.4542   7.6535   7.6934
  7.7763   7.8480  24.2515  24.6249  24.7816  24.8252  24.8814  25.1061
 25.4095  50.6140  50.6420
 --------------------------------------------------------------
 
          Ground-State Mulliken Net Atomic Charges

     Atom                 Charge (a.u.)    Spin (a.u.)
  --------------------------------------------------------
      1 C                    -0.763590       0.026344
      2 C                     0.203032       0.339518
      3 C                    -0.562107      -0.125851
      4 C                    -0.266478       0.494886
      5 C                    -0.884398      -0.122540
      6 C                     0.984443       0.319220
      7 C                    -0.389352      -0.008320
      8 H                     0.210185       0.038710
      9 H                     0.312349      -0.009805
     10 H                     0.290276       0.005526
     11 H                     0.310144      -0.011761
     12 H                     0.267783       0.006781
     13 H                     0.243884       0.000168
     14 O                    -0.401240       0.004651
     15 H                     0.211789       0.014471
     16 H                     0.333185       0.000473
     17 O                    -0.437033       0.022997
     18 H                     0.337127       0.004531
  --------------------------------------------------------
  Sum of atomic charges =    -0.000000
  Sum of spin   charges =     1.000000

 -----------------------------------------------------------------
                    Cartesian Multipole Moments
 -----------------------------------------------------------------
    Charge (ESU x 10^10)
                -0.0000
    Dipole Moment (Debye)
         X      -3.4325      Y       0.6263      Z      -1.6635
       Tot       3.8655
    Quadrupole Moments (Debye-Ang)
        XX     -53.2808     XY       2.3760     YY     -55.3605
        XZ       1.0900     YZ       0.5113     ZZ     -47.9522
    Octopole Moments (Debye-Ang^2)
       XXX     120.6540    XXY       9.0417    XYY      26.2998
       YYY      54.8561    XXZ     -14.9559    XYZ       8.3860
       YYZ      10.0086    XZZ      41.3400    YZZ      13.2988
       ZZZ     -16.7849
    Hexadecapole Moments (Debye-Ang^3)
      XXXX    -742.0411   XXXY    -136.5249   XXYY    -197.2499
      XYYY    -162.2877   YYYY    -575.4978   XXXZ      48.7520
      XXYZ      56.1690   XYYZ       5.1456   YYYZ     156.5325
      XXZZ    -201.8926   XYZZ     -64.0141   YYZZ    -171.1221
      XZZZ      31.6290   YZZZ     151.9224   ZZZZ    -418.3590
 -----------------------------------------------------------------
 Calculating analytic gradient of the SCF energy
 Gradient of CDS energy
            1           2           3           4           5           6
    1   0.0001796   0.0002014  -0.0000964  -0.0004519  -0.0000278   0.0002446
    2   0.0000655  -0.0000510  -0.0003585  -0.0002942   0.0001990  -0.0000326
    3  -0.0000322   0.0003244   0.0003209  -0.0001751  -0.0003095   0.0001112
            7           8           9          10          11          12
    1  -0.0002655   0.0000004   0.0001515  -0.0000672  -0.0001598  -0.0000571
    2   0.0009736   0.0002005  -0.0000309  -0.0001604  -0.0001061   0.0000965
    3  -0.0004352   0.0000829   0.0001529   0.0001136  -0.0000577  -0.0001612
           13          14          15          16          17          18
    1  -0.0001057  -0.0001659   0.0001554   0.0002730  -0.0002529   0.0004441
    2  -0.0002126  -0.0002074  -0.0000302  -0.0000781  -0.0000666   0.0000934
    3  -0.0000649   0.0002136   0.0002709  -0.0004274   0.0000721   0.0000005
 Gradient of SCF Energy
            1           2           3           4           5           6
    1   0.0027127  -0.0077089   0.0050541   0.0051199   0.0013955   0.0018080
    2  -0.0030767   0.0028377   0.0041295   0.0003983  -0.0084044   0.0080105
    3  -0.0082366  -0.0016302  -0.0002276   0.0043755   0.0067109   0.0055040
            7           8           9          10          11          12
    1   0.0108796  -0.0012894  -0.0009832  -0.0016174  -0.0052413  -0.0042142
    2  -0.0090739   0.0027451   0.0001932  -0.0029365  -0.0032119   0.0027498
    3   0.0019422   0.0006216   0.0006304   0.0019792  -0.0019649  -0.0075703
           13          14          15          16          17          18
    1  -0.0056456   0.0000696  -0.0023173  -0.0005606   0.0036825  -0.0011441
    2   0.0004110   0.0123822   0.0044349  -0.0092948  -0.0040230   0.0017288
    3  -0.0064385   0.0083865   0.0041465  -0.0076735   0.0012018  -0.0017570
 Max gradient component =       1.238E-02
 RMS gradient           =       4.975E-03
 Computing fast CPCM-SWIG gradient
 Updating gradient with PCM contributions...
 -- total gradient after adding PCM contribution --
---------------------------------------------------
  Atom         X              Y              Z     
---------------------------------------------------
   1       0.000151      -0.000448       0.000280
   2      -0.000789      -0.000457      -0.000287
   3       0.000243       0.000372       0.000109
   4       0.000271       0.000049       0.000074
   5       0.000424       0.000292       0.000271
   6      -0.000156      -0.000093      -0.000096
   7      -0.000620       0.000063      -0.000052
   8      -0.000188      -0.000324      -0.000464
   9      -0.000206       0.000064      -0.000471
  10       0.000227       0.000417      -0.000339
  11       0.000431       0.000321       0.000145
  12       0.000335      -0.000092       0.000472
  13       0.000176      -0.000117       0.000536
  14      -0.000047      -0.001212      -0.000310
  15      -0.000004      -0.000529      -0.000177
  16       0.000135       0.000799       0.000906
  17      -0.000833       0.001804      -0.001059
  18       0.000451      -0.000910       0.000462
---------------------------------------------------
 Number of fixed atoms: 0
 Gradient time:  CPU 309.43 s  wall 44.69 s
 Geometry Optimization Parameters
   NAtoms,    NIC,     NZ,  NCons,   NDum,   NFix, NCnnct, MaxDiis
       18     123       0       0       0       0       0       0

 Cartesian Hessian Update
 Hessian updated using BFGS update


** GEOMETRY OPTIMIZATION IN DELOCALIZED INTERNAL COORDINATES **
   Searching for a Minimum

   Optimization Cycle:   3

                       Coordinates (Angstroms)
     ATOM                X               Y               Z
      1  C        -0.2385446639   -0.1872076852    0.8619547106
      2  C        -0.7793099312   -1.3389223509    1.6391586174
      3  C        -1.8707252188   -2.0340908418    1.2426238233
      4  C        -2.5623166163   -1.6906179835    0.0579436304
      5  C        -2.1266050308   -0.5943418774   -0.7147420550
      6  C        -1.0467361605    0.1486903098   -0.3569574045
      7  C        -0.6491400362    1.3694702527   -1.1225308325
      8  H        -0.2081076712    0.7023377081    1.5065616553
      9  H        -0.2421798717   -1.6114486474    2.5377373765
     10  H        -2.2204082596   -2.8690804338    1.8339938706
     11  H        -3.4233556843   -2.2623760644   -0.2530432397
     12  H        -2.6785124568   -0.3239505929   -1.6063539838
     13  H        -1.3298517188    1.5316223666   -1.9577168011
     14  O         0.7117236952    1.3142044324   -1.5903988537
     15  H        -0.6877767908    2.2431229375   -0.4711258684
     16  H         0.7668812392    0.6160907201   -2.2515225809
     17  O         1.1329278360   -0.5094992455    0.5154455661
     18  H         1.4178509404    0.1493007955   -0.1338414303
   Point Group: c1    Number of degrees of freedom:    48


   Energy is   -422.530204172

 Hessian updated using BFGS update

 48 Hessian modes will be used to form the next step
  Hessian Eigenvalues:
     0.009169    0.009648    0.010131    0.010535    0.016026    0.016738
     0.020036    0.020376    0.022136    0.023856    0.024351    0.053722
     0.061761    0.068343    0.074367    0.084047    0.118309    0.142147
     0.158120    0.159893    0.159980    0.159998    0.159999    0.160271
     0.174262    0.210607    0.219894    0.229551    0.233555    0.271838
     0.314043    0.319446    0.328352    0.338553    0.340978    0.348524
     0.350710    0.351578    0.353751    0.365614    0.384971    0.399179
     0.407845    0.420654    0.492269    0.498998    0.520841    0.527143

 Minimum search - taking simple RFO step
 Searching for Lamda that Minimizes Along All modes
 Value Taken    Lamda =  -0.00006009
 Step Taken.  Stepsize is  0.026598

                             Maximum     Tolerance    Cnvgd?
         Gradient           0.001786      0.000300      NO
         Displacement       0.012117      0.001200      NO
         Energy change     -0.000101      0.000001      NO


 New Cartesian Coordinates Obtained by Inverse Iteration

 Displacement from previous Coordinates is:  0.053944
 ----------------------------------------------------------------
             Standard Nuclear Orientation (Angstroms)
    I     Atom           X                Y                Z
 ----------------------------------------------------------------
    1      C      -0.2374877743    -0.1875706955     0.8645954929
    2      C      -0.7806401318    -1.3383436911     1.6427952371
    3      C      -1.8715234988    -2.0352458517     1.2436645515
    4      C      -2.5612308747    -1.6928928672     0.0563840353
    5      C      -2.1246802916    -0.5956652659    -0.7161740303
    6      C      -1.0446513579     0.1488169689    -0.3566326222
    7      C      -0.6471754790     1.3715069290    -1.1224943382
    8      H      -0.2048975382     0.7025711186     1.5098048579
    9      H      -0.2454930451    -1.6094890935     2.5439202339
   10      H      -2.2229290538    -2.8702415421     1.8356365046
   11      H      -3.4216384273    -2.2661934821    -0.2565025923
   12      H      -2.6759537268    -0.3259359221    -1.6094710183
   13      H      -1.3320339547     1.5368542582    -1.9548164237
   14      O       0.7103052271     1.3164072903    -1.6000347265
   15      H      -0.6806732695     2.2453590041    -0.4696804866
   16      H       0.7571531216     0.6208822839    -2.2661443021
   17      O       1.1337405514    -0.5148667443     0.5203321707
   18      H       1.4156231231     0.1473511023    -0.1279963434
 ----------------------------------------------------------------
 Nuclear Repulsion Energy =         442.67396412 hartrees
 There are       34 alpha and       33 beta electrons
 Discretize the solute cavity surface with Lebedev spheres
	Using 110 Lebedev grid points for each H atom
	Using 194 Lebedev grid points for other atoms
	Atomic van der Waals radii will be scaled by 1.20
 Remove points where switching function is < 1.0e-08
 Keep 1297 surface tesserae and discard 1439 interior tesserae
 Molecular Surface Area = 150.897 Angst**2
 Applying Cartesian multipole field
    Component          Value
    ---------          -----
     (2,0,0)        1.00000E-11
     (0,2,0)        2.00000E-11
     (0,0,2)       -3.00000E-11
 Nucleus-field energy     =     0.0000000033 hartrees
 Requested basis set is 6-311++G(2df,2p)
 There are 126 shells and 396 basis functions
 A cutoff of  1.0D-12 yielded   7275 shell pairs
 There are     72806 function pairs (     90402 Cartesian)
 Smallest overlap matrix eigenvalue = 1.24E-06
 Guess MOs from SCF MO coefficient file

 -----------------------------------------------------------------------
  General SCF calculation program by
  Eric Jon Sundstrom, Paul Horn, Yuezhi Mao, Dmitri Zuev, Alec White,
  David Stuck, Shaama M.S., Shane Yost, Joonho Lee, David Small,
  Daniel Levine, Susi Lehtola, Hugh Burton, Evgeny Epifanovsky,
  Bang C. Huynh
 -----------------------------------------------------------------------
 Exchange:     0.1500 Hartree-Fock + 1.0000 wB97M-V + LR-HF
 Correlation:  1.0000 wB97M-V
 Using SG-2 standard quadrature grid
 Nonlocal Correlation:  VV10 with C = 0.0100 and b = 6.00 and scale = 1.00000
 Grid used for NLC:  SG-1 standard quadrature
 
 Citation of the SMD model:
 Marenich, A.V.; Cramer, C.J.; Truhlar, D.G.
 J. Phys. Chem. B 2009, 113, 6378-6396.
 iSolventCode=           1
 Solvent: water                                                           
 
 vradii
            1           2           3           4           5           6
    1   1.8500000   1.8500000   1.8500000   1.8500000   1.8500000   1.8500000
            7           8           9          10          11          12
    1   1.8500000   1.2000000   1.2000000   1.2000000   1.2000000   1.2000000
           13          14          15          16          17          18
    1   1.2000000   1.5200000   1.2000000   1.2000000   1.5200000   1.2000000
 -------------------------------------------------------
 OpenMP BLAS3 based DFT computing Module                
 Release: version 1.0, May 2013, Q-Chem Inc. Pittsburgh 
 -------------------------------------------------------
 A unrestricted SCF calculation will be
 performed using Roothaan-Hall, DIIS, GDM
 SCF converges when RMS gradient is below 1.0e-07
 ---------------------------------------
  Cycle       Energy         DIIS error
 ---------------------------------------
    1    -422.5098676161      1.74e-04  Roothaan Step
 ---------------------------------------
  Cycle       Energy         DIIS error
[...]
     18 H                     0.337341       0.004606
  --------------------------------------------------------
  Sum of atomic charges =     0.000000
  Sum of spin   charges =     1.000000

 -----------------------------------------------------------------
                    Cartesian Multipole Moments
 -----------------------------------------------------------------
    Charge (ESU x 10^10)
                 0.0000
    Dipole Moment (Debye)
         X      -3.4506      Y       0.6489      Z      -1.6552
       Tot       3.8817
    Quadrupole Moments (Debye-Ang)
        XX     -53.3366     XY       2.4752     YY     -55.4083
        XZ       1.1701     YZ       0.5471     ZZ     -47.8015
    Octopole Moments (Debye-Ang^2)
       XXX     120.8167    XXY       8.9647    XYY      26.0614
       YYY      55.0158    XXZ     -14.9083    XYZ       8.4194
       YYZ       9.9216    XZZ      41.2160    YZZ      13.3619
       ZZZ     -16.9254
    Hexadecapole Moments (Debye-Ang^3)
      XXXX    -740.6633   XXXY    -136.2119   XXYY    -196.8062
      XYYY    -161.3827   YYYY    -577.6352   XXXZ      49.2188
      XXYZ      56.4601   XYYZ       5.2898   YYYZ     157.2768
      XXZZ    -201.8842   XYZZ     -63.5711   YYZZ    -171.9831
      XZZZ      31.8121   YZZZ     151.7092   ZZZZ    -418.7323
 -----------------------------------------------------------------
 Calculating analytic gradient of the SCF energy
 Gradient of CDS energy
            1           2           3           4           5           6
    1   0.0001763   0.0001976  -0.0000969  -0.0004475  -0.0000279   0.0002482
    2   0.0000652  -0.0000452  -0.0003582  -0.0002987   0.0001998  -0.0000374
    3  -0.0000313   0.0003289   0.0003217  -0.0001797  -0.0003096   0.0001071
            7           8           9          10          11          12
    1  -0.0002713   0.0000056   0.0001487  -0.0000682  -0.0001594  -0.0000578
    2   0.0009805   0.0001995  -0.0000306  -0.0001606  -0.0001077   0.0000966
    3  -0.0004022   0.0000833   0.0001559   0.0001144  -0.0000591  -0.0001620
           13          14          15          16          17          18
    1  -0.0000966  -0.0001696   0.0001576   0.0002689  -0.0002520   0.0004443
    2  -0.0002154  -0.0002048  -0.0000306  -0.0000752  -0.0000628   0.0000857
    3  -0.0000792   0.0002070   0.0002696  -0.0004324   0.0000743  -0.0000068
 Gradient of SCF Energy
            1           2           3           4           5           6
    1   0.0021535  -0.0068092   0.0047241   0.0048885   0.0010097   0.0020863
    2  -0.0028164   0.0033936   0.0037349   0.0004191  -0.0086453   0.0080832
    3  -0.0087085  -0.0013110  -0.0004298   0.0043768   0.0062476   0.0060405
            7           8           9          10          11          12
    1   0.0114086  -0.0010562  -0.0007261  -0.0018665  -0.0056437  -0.0045320
    2  -0.0090942   0.0030988   0.0001317  -0.0033639  -0.0035906   0.0028248
    3   0.0018987   0.0011483   0.0011467   0.0022920  -0.0021794  -0.0080880
           13          14          15          16          17          18
    1  -0.0058323   0.0003845  -0.0022896  -0.0009024   0.0045668  -0.0015640
    2   0.0005789   0.0134432   0.0049482  -0.0099726  -0.0058500   0.0026766
    3  -0.0069378   0.0088544   0.0043657  -0.0087400   0.0021616  -0.0021377
 Max gradient component =       1.344E-02
 RMS gradient           =       5.242E-03
 Computing fast CPCM-SWIG gradient
 Updating gradient with PCM contributions...
 -- total gradient after adding PCM contribution --
---------------------------------------------------
  Atom         X              Y              Z     
---------------------------------------------------
   1      -0.000161       0.000000       0.000008
   2      -0.000021      -0.000013      -0.000017
   3       0.000015      -0.000006      -0.000004
   4       0.000014       0.000016      -0.000031
   5       0.000003      -0.000019       0.000003
   6       0.000011      -0.000012       0.000028
   7       0.000044       0.000048      -0.000013
   8      -0.000008      -0.000016       0.000027
   9      -0.000005      -0.000018      -0.000014
  10       0.000001      -0.000017      -0.000028
  11       0.000013      -0.000007      -0.000023
  12       0.000008       0.000007      -0.000004
  13      -0.000009       0.000005       0.000019
  14      -0.000033      -0.000004       0.000035
  15      -0.000017       0.000002       0.000021
  16       0.000018       0.000022       0.000001
  17       0.000109      -0.000005       0.000030
  18       0.000019       0.000017      -0.000038
---------------------------------------------------
 Number of fixed atoms: 0
 Gradient time:  CPU 310.63 s  wall 45.10 s
 Geometry Optimization Parameters
   NAtoms,    NIC,     NZ,  NCons,   NDum,   NFix, NCnnct, MaxDiis
       18     123       0       0       0       0       0       0

 Cartesian Hessian Update
 Hessian updated using BFGS update


** GEOMETRY OPTIMIZATION IN DELOCALIZED INTERNAL COORDINATES **
   Searching for a Minimum

   Optimization Cycle:   7

                       Coordinates (Angstroms)
     ATOM                X               Y               Z
      1  C        -0.2376835175   -0.1868766794    0.8651685676
      2  C        -0.7859464092   -1.3313663487    1.6487257746
      3  C        -1.8715903710   -2.0334137723    1.2448649973
      4  C        -2.5546564403   -1.6972803595    0.0520717087
      5  C        -2.1208376217   -0.5979102812   -0.7185345119
      6  C        -1.0463006672    0.1517500152   -0.3538826039
      7  C        -0.6494284434    1.3756747990   -1.1179176645
      8  H        -0.1902444714    0.7039134205    1.5074795184
      9  H        -0.2573304035   -1.5961632032    2.5554423417
     10  H        -2.2252944928   -2.8664960001    1.8380369604
     11  H        -3.4101126729   -2.2755806696   -0.2649303589
     12  H        -2.6706277007   -0.3299508003   -1.6131804668
     13  H        -1.3360621313    1.5433431336   -1.9482411011
     14  O         0.7069303359    1.3180693122   -1.5985080721
     15  H        -0.6803695300    2.2480689068   -0.4632102700
     16  H         0.7501081228    0.6271633679   -2.2696827350
     17  O         1.1301526345   -0.5295022048    0.5118449510
     18  H         1.4151073799    0.1298611642   -0.1383608353
   Point Group: c1    Number of degrees of freedom:    48


   Energy is   -422.530240381

 Hessian updated using BFGS update

 48 Hessian modes will be used to form the next step
  Hessian Eigenvalues:
     0.002202    0.008610    0.009760    0.010578    0.016029    0.016863
     0.019994    0.020312    0.022148    0.023858    0.024345    0.053300
     0.062237    0.068413    0.074774    0.083626    0.119536    0.142368
     0.159382    0.159791    0.159978    0.159998    0.160088    0.173900
     0.187004    0.209881    0.220222    0.229551    0.239776    0.273414
     0.314013    0.320313    0.327336    0.338932    0.340977    0.348949
     0.350882    0.351605    0.353955    0.365857    0.380140    0.405893
     0.412508    0.421757    0.493360    0.499844    0.527196    0.544681

 Minimum search - taking simple RFO step
 Searching for Lamda that Minimizes Along All modes
 Value Taken    Lamda =  -0.00000034
 Step Taken.  Stepsize is  0.009126

                             Maximum     Tolerance    Cnvgd?
         Gradient           0.000054      0.000300     YES
         Displacement       0.003409      0.001200      NO
         Energy change     -0.000001      0.000001     YES

 Final energy is   -422.530240381229     


 ******************************
 **  OPTIMIZATION CONVERGED  **
 ******************************

                       Coordinates (Angstroms)
     ATOM                X               Y               Z
      1  C        -0.2376835175   -0.1868766794    0.8651685676
      2  C        -0.7859464092   -1.3313663487    1.6487257746
      3  C        -1.8715903710   -2.0334137723    1.2448649973
      4  C        -2.5546564403   -1.6972803595    0.0520717087
      5  C        -2.1208376217   -0.5979102812   -0.7185345119
      6  C        -1.0463006672    0.1517500152   -0.3538826039
      7  C        -0.6494284434    1.3756747990   -1.1179176645
      8  H        -0.1902444714    0.7039134205    1.5074795184
      9  H        -0.2573304035   -1.5961632032    2.5554423417
     10  H        -2.2252944928   -2.8664960001    1.8380369604
     11  H        -3.4101126729   -2.2755806696   -0.2649303589
     12  H        -2.6706277007   -0.3299508003   -1.6131804668
     13  H        -1.3360621313    1.5433431336   -1.9482411011
     14  O         0.7069303359    1.3180693122   -1.5985080721
     15  H        -0.6803695300    2.2480689068   -0.4632102700
     16  H         0.7501081228    0.6271633679   -2.2696827350
     17  O         1.1301526345   -0.5295022048    0.5118449510
     18  H         1.4151073799    0.1298611642   -0.1383608353

Z-matrix Print:
$molecule
0 2
O 
H  1 0.968879
C  1 1.453687 2 106.227350
H  3 1.099236 1 107.002554 2 -73.956066 0
C  3 1.491446 1 107.021058 2 168.959544 0
H  5 1.082445 3 116.633152 1 58.641746 0
C  5 1.354473 3 122.393962 1 -119.920713 0
H  7 1.082121 5 119.839859 3 179.056213 0
C  7 1.415034 5 121.006017 3 -0.800301 0
H  9 1.080151 7 120.166340 5 179.083124 0
C  9 1.410903 7 119.806142 5 -1.351376 0
H  11 1.083726 9 119.180414 7 -178.043561 0
C  11 1.359997 9 121.735736 7 0.606335 0
C  13 1.496412 11 121.567049 9 -175.462079 0
H  14 1.090420 13 110.337551 11 0.539178 0
H  14 1.091179 13 109.879702 11 120.043991 0
O  14 1.440137 13 112.796346 11 -123.172487 0
H  17 0.964205 14 107.645795 13 67.496614 0
$end

 
 --------------------------------------------------------------
 
                    Orbital Energies (a.u.)
 --------------------------------------------------------------
 
 Alpha MOs
 -- Occupied --
-19.3429 -19.3320 -10.3983 -10.3877 -10.3547 -10.3524 -10.3476 -10.3438
-10.3426  -1.1630  -1.1447  -0.9776  -0.8966  -0.8653  -0.7979  -0.7368
 -0.7083  -0.6393  -0.6227  -0.6025  -0.5858  -0.5606  -0.5457  -0.5279
 -0.5222  -0.4981  -0.4787  -0.4529  -0.4418  -0.4399  -0.3942  -0.3826
 -0.3646  -0.2698
 -- Virtual --
  0.0239   0.0356   0.0374   0.0457   0.0562   0.0568   0.0648   0.0730
  0.0800   0.0864   0.0957   0.1053   0.1197   0.1313   0.1380   0.1392
  0.1423   0.1529   0.1593   0.1607   0.1611   0.1668   0.1727   0.1770
  0.1792   0.1853   0.1995   0.2006   0.2067   0.2083   0.2162   0.2170
  0.2253   0.2354   0.2410   0.2579   0.2617   0.2689   0.2723   0.2801
  0.2882   0.2952   0.3029   0.3159   0.3186   0.3279   0.3298   0.3362
  0.3518   0.3616   0.3663   0.3719   0.3768   0.3805   0.3874   0.3986
  0.4013   0.4066   0.4303   0.4466   0.4498   0.4638   0.5028   0.5310
  0.5522   0.5619   0.5752   0.5835   0.5907   0.6042   0.6095   0.6133
  0.6175   0.6225   0.6287   0.6387   0.6630   0.6670   0.6758   0.6782
  0.6868   0.7007   0.7076   0.7186   0.7268   0.7299   0.7380   0.7463
  0.7568   0.7645   0.7652   0.7802   0.7935   0.8120   0.8184   0.8277
  0.8320   0.8381   0.8399   0.8520   0.8717   0.8844   0.8998   0.9137
  0.9445   0.9459   0.9707   1.0147   1.0363   1.0546   1.0583   1.0648
  1.0837   1.0885   1.1151   1.1204   1.1487   1.1508   1.1587   1.1693
  1.1989   1.2191   1.2273   1.2334   1.2566   1.2581   1.2677   1.2819
  1.2916   1.3045   1.3105   1.3319   1.3466   1.3487   1.3702   1.3901
  1.3963   1.4019   1.4179   1.4300   1.4350   1.4516   1.4580   1.4736
  1.4857   1.5001   1.5067   1.5176   1.5248   1.5354   1.5571   1.5686
  1.5912   1.6057   1.6210   1.6280   1.6453   1.6789   1.6945   1.7188
  1.7610   1.7851   1.7978   1.8175   1.8755   1.8857   1.9058   1.9609
  2.0089   2.0506   2.0691   2.0748   2.1094   2.1242   2.1564   2.1935
  2.2644   2.2799   2.3360   2.3711   2.4202   2.4616   2.5691   2.5993
  2.6045   2.6488   2.6759   2.7081   2.7431   2.7594   2.7921   2.8036
  2.8222   2.8302   2.8372   2.8570   2.8664   2.8849   2.8978   2.9095
  2.9223   2.9262   2.9385   2.9593   2.9621   2.9858   2.9962   3.0060
  3.0293   3.0649   3.0834   3.0960   3.1056   3.1209   3.1734   3.1985
  3.2078   3.2159   3.2335   3.2481   3.2686   3.2723   3.2970   3.3007
  3.3135   3.3356   3.3388   3.3668   3.3757   3.3895   3.4115   3.4226
  3.4449   3.4548   3.4747   3.4792   3.4961   3.5027   3.5273   3.5336
  3.5532   3.5760   3.5995   3.6130   3.6426   3.6625   3.6750   3.7040
  3.7243   3.7497   3.7687   3.7827   3.7967   3.8044   3.8311   3.8345
  3.8470   3.8627   3.8695   3.8956   3.8986   3.9260   3.9357   3.9628
  3.9685   3.9786   4.0056   4.0157   4.0491   4.0594   4.0820   4.1099
  4.1501   4.1579   4.1663   4.2022   4.2132   4.2433   4.2670   4.2683
  4.3076   4.3126   4.3431   4.3563   4.3790   4.3937   4.4091   4.4208
  4.4298   4.4507   4.4679   4.4898   4.4977   4.5406   4.5520   4.5705
  4.6094   4.6122   4.6353   4.6735   4.6871   4.7148   4.7831   4.8010
  4.8522   4.8821   4.9793   5.0337   5.1382   5.1504   5.1833   5.2123
  5.2517   5.2803   5.3058   5.3211   5.3398   5.3691   5.3816   5.4134
  5.4972   5.5251   5.5533   5.5623   5.6147   5.6184   5.6765   5.7026
  5.7205   5.7319   5.7789   5.8213   5.8692   5.9108   5.9315   5.9940
  6.0215   6.1515   6.4299   6.5556   6.5990   7.0927   7.1517   7.2824
  7.3072   7.3672   7.3730   7.3830   7.4449   7.6467   7.6832   7.7733
  7.8420  24.2482  24.6205  24.7765  24.8175  24.8718  25.0983  25.4000
 50.6102  50.6380
 
 Beta MOs
 -- Occupied --
-19.3423 -19.3303 -10.3990 -10.3881 -10.3494 -10.3463 -10.3453 -10.3448
-10.3423  -1.1610  -1.1416  -0.9709  -0.8907  -0.8560  -0.7972  -0.7276
 -0.7034  -0.6366  -0.6178  -0.6001  -0.5786  -0.5557  -0.5419  -0.5247
 -0.5194  -0.4933  -0.4753  -0.4390  -0.4382  -0.4249  -0.3905  -0.3792
 -0.3468
 -- Virtual --
 -0.0265   0.0238   0.0354   0.0375   0.0455   0.0559   0.0569   0.0723
  0.0773   0.0837   0.0863   0.0949   0.1055   0.1192   0.1336   0.1390
  0.1404   0.1441   0.1537   0.1596   0.1604   0.1619   0.1665   0.1737
  0.1772   0.1799   0.1855   0.1991   0.2012   0.2063   0.2083   0.2169
  0.2204   0.2301   0.2359   0.2424   0.2568   0.2619   0.2691   0.2730
  0.2797   0.2880   0.2962   0.3045   0.3164   0.3206   0.3298   0.3308
  0.3376   0.3527   0.3633   0.3698   0.3740   0.3777   0.3817   0.3901
  0.4005   0.4045   0.4086   0.4306   0.4488   0.4522   0.4667   0.5033
  0.5326   0.5538   0.5657   0.5788   0.5869   0.5942   0.6087   0.6120
  0.6183   0.6224   0.6236   0.6297   0.6418   0.6656   0.6681   0.6793
  0.6839   0.6892   0.7042   0.7117   0.7212   0.7304   0.7344   0.7410
  0.7492   0.7583   0.7673   0.7676   0.7823   0.7980   0.8164   0.8236
  0.8311   0.8348   0.8386   0.8460   0.8555   0.8747   0.8866   0.9029
  0.9153   0.9477   0.9480   0.9726   1.0174   1.0378   1.0566   1.0606
  1.0663   1.0852   1.0891   1.1170   1.1220   1.1509   1.1525   1.1609
  1.1715   1.2012   1.2208   1.2287   1.2346   1.2575   1.2604   1.2690
  1.2833   1.2937   1.3058   1.3141   1.3356   1.3496   1.3517   1.3722
  1.3930   1.3988   1.4065   1.4221   1.4337   1.4393   1.4562   1.4610
  1.4780   1.4876   1.5019   1.5125   1.5201   1.5282   1.5378   1.5605
  1.5734   1.5953   1.6074   1.6232   1.6306   1.6475   1.6814   1.6976
  1.7235   1.7631   1.7896   1.8040   1.8273   1.8780   1.8895   1.9107
  1.9640   2.0138   2.0550   2.0740   2.0807   2.1124   2.1272   2.1598
  2.1954   2.2675   2.2829   2.3381   2.3733   2.4216   2.4635   2.5780
  2.6057   2.6145   2.6542   2.6826   2.7121   2.7505   2.7665   2.8010
  2.8224   2.8348   2.8381   2.8452   2.8702   2.8752   2.8954   2.9040
  2.9204   2.9318   2.9436   2.9546   2.9674   2.9777   3.0030   3.0116
  3.0228   3.0395   3.0796   3.0947   3.1057   3.1206   3.1301   3.1793
  3.2057   3.2165   3.2262   3.2387   3.2571   3.2765   3.2824   3.3069
  3.3100   3.3249   3.3413   3.3437   3.3731   3.3881   3.3969   3.4163
  3.4311   3.4525   3.4607   3.4840   3.4869   3.5059   3.5140   3.5328
  3.5427   3.5672   3.5850   3.6164   3.6288   3.6476   3.6728   3.6838
  3.7110   3.7323   3.7573   3.7776   3.7904   3.8061   3.8107   3.8335
  3.8392   3.8578   3.8764   3.8801   3.9040   3.9076   3.9350   3.9425
  3.9696   3.9768   3.9872   4.0126   4.0236   4.0560   4.0663   4.0862
  4.1149   4.1603   4.1655   4.1747   4.2071   4.2193   4.2511   4.2754
  4.2774   4.3113   4.3210   4.3496   4.3625   4.3836   4.4002   4.4183
  4.4264   4.4406   4.4605   4.4750   4.4988   4.5094   4.5511   4.5617
  4.5798   4.6195   4.6229   4.6502   4.6867   4.6990   4.7234   4.7913
  4.8105   4.8621   4.8917   4.9947   5.0468   5.1514   5.1624   5.1954
  5.2220   5.2617   5.2827   5.3081   5.3250   5.3430   5.3738   5.3844
  5.4176   5.5007   5.5296   5.5578   5.5692   5.6224   5.6269   5.6794
  5.7040   5.7275   5.7348   5.7806   5.8370   5.8730   5.9197   5.9398
  5.9992   6.0239   6.1626   6.4397   6.5603   6.6014   7.0943   7.1538
  7.2847   7.3090   7.3699   7.3769   7.3872   7.4481   7.6490   7.6863
  7.7758   7.8472  24.2499  24.6221  24.7769  24.8192  24.8758  25.0998
 25.4026  50.6108  50.6393
 --------------------------------------------------------------
 
          Ground-State Mulliken Net Atomic Charges

     Atom                 Charge (a.u.)    Spin (a.u.)
  --------------------------------------------------------
      1 C                    -0.750897       0.023641
      2 C                     0.187110       0.341859
      3 C                    -0.554652      -0.127570
      4 C                    -0.263531       0.495662
      5 C                    -0.882607      -0.123536
      6 C                     0.972275       0.321769
      7 C                    -0.387352      -0.008857
      8 H                     0.213524       0.037245
      9 H                     0.311998      -0.009669
     10 H                     0.290205       0.005496
     11 H                     0.310252      -0.011709
     12 H                     0.267991       0.006808
     13 H                     0.241738       0.000124
     14 O                    -0.402272       0.005082
     15 H                     0.213128       0.014085
     16 H                     0.332960       0.000456
     17 O                    -0.437209       0.024507
     18 H                     0.337341       0.004606
  --------------------------------------------------------
  Sum of atomic charges =     0.000000
  Sum of spin   charges =     1.000000

 -----------------------------------------------------------------
                    Cartesian Multipole Moments
 -----------------------------------------------------------------
    Charge (ESU x 10^10)
                 0.0000
    Dipole Moment (Debye)
         X      -3.4506      Y       0.6489      Z      -1.6552
       Tot       3.8817
    Quadrupole Moments (Debye-Ang)
        XX     -53.3366     XY       2.4752     YY     -55.4083
        XZ       1.1701     YZ       0.5471     ZZ     -47.8015
    Octopole Moments (Debye-Ang^2)
       XXX     120.8167    XXY       8.9647    XYY      26.0614
       YYY      55.0158    XXZ     -14.9083    XYZ       8.4194
       YYZ       9.9216    XZZ      41.2160    YZZ      13.3619
       ZZZ     -16.9254
    Hexadecapole Moments (Debye-Ang^3)
      XXXX    -740.6633   XXXY    -136.2119   XXYY    -196.8062
      XYYY    -161.3827   YYYY    -577.6352   XXXZ      49.2188
      XXYZ      56.4601   XYYZ       5.2898   YYYZ     157.2768
      XXZZ    -201.8842   XYZZ     -63.5711   YYZZ    -171.9831
      XZZZ      31.8121   YZZZ     151.7092   ZZZZ    -418.7323
 -----------------------------------------------------------------
 Total job time:  2003.20s(wall), 15499.96s(cpu) 
 Tue Dec 27 20:40:55 2022

        *************************************************************
        *                                                           *
        *  Thank you very much for using Q-Chem.  Have a nice day.  *
        *                                                           *
        *************************************************************


