
Running Job 1 of 1 Q_in.in
qchem Q_in.in_26617.0 /scratch/ari.fischer/qChem1423039.hpc-mn1/qchem26617/ 0
/usr/local/qchem-5.4.1/exe/qcprog.exe_s Q_in.in_26617.0 /scratch/ari.fischer/qChem1423039.hpc-mn1/qchem26617/
                  Welcome to Q-Chem
     A Quantum Leap Into The Future Of Chemistry


 Q-Chem 5.4, Q-Chem, Inc., Pleasanton, CA (2021)

 License issued to: Nanyang Technological University (site)

 E. Epifanovsky,  A. T. B. Gilbert,  Xintian Feng,  Joonho Lee,  Yuezhi Mao,  
 N. Mardirossian,  P. Pokhilko,  A. White,  M. Wormit,  M. P. Coons,  
 A. L. Dempwolff,  Zhengting Gan,  D. Hait,  P. R. Horn,  L. D. Jacobson,  
 I. Kaliman,  J. Kussmann,  A. W. Lange,  Ka Un Lao,  D. S. Levine,  Jie Liu,  
 S. C. McKenzie,  A. F. Morrison,  K. Nanda,  F. Plasser,  D. R. Rehn,  
 M. L. Vidal,  Zhi-Qiang You,  Ying Zhu,  B. Alam,  B. Albrecht,  
 A. Aldossary,  E. Alguire,  J. H. Andersen,  D. Barton,  K. Begam,  A. Behn,  
 Y. A. Bernard,  E. J. Berquist,  H. Burton,  A. Carreras,  K. Carter-Fenk,  
 R. Chakraborty,  A. D. Chien,  K. D. Closser,  V. Cofer-Shabica,  
 S. Dasgupta,  Jia Deng,  M. de Wergifosse,  M. Diedenhofen,  Hainam Do,  
 S. Ehlert,  Po-Tung Fang,  S. Fatehi,  Qingguo Feng,  T. Friedhoff,  
 J. Gayvert,  Qinghui Ge,  G. Gidofalvi,  M. Goldey,  J. Gomes,  
 C. Gonzalez-Espinoza,  S. Gulania,  A. Gunina,  M. W. D. Hanson-Heine,  
 P. H. P. Harbach,  A. W. Hauser,  M. F. Herbst,  M. Hernandez Vera,  
 M. Hodecker,  Z. C. Holden,  S. Houck,  Xunkun Huang,  Kerwin Hui,  
 B. C. Huynh,  M. Ivanov,  Hyunjun Ji,  Hanjie Jiang,  B. Kaduk,  S. Kaehler,  
 K. Khistyaev,  Jaehoon Kim,  P. Klunzinger,  Z. Koczor-Benda,  
 Joong Hoon Koh,  D. Kosenkov,  L. Koulias,  T. Kowalczyk,  C. M. Krauter,  
 K. Kue,  A. Kunitsa,  T. Kus,  A. Landau,  K. V. Lawler,  D. Lefrancois,  
 S. Lehtola,  Rain Li,  Yi-Pei Li,  Jiashu Liang,  M. Liebenthal,  
 Hung-Hsuan Lin,  You-Sheng Lin,  Fenglai Liu,  Kuan-Yu Liu,  
 M. Loipersberger,  A. Luenser,  A. Manjanath,  P. Manohar,  E. Mansoor,  
 S. F. Manzer,  Shan-Ping Mao,  A. V. Marenich,  T. Markovich,  S. Mason,  
 S. A. Maurer,  P. F. McLaughlin,  M. F. S. J. Menger,  J.-M. Mewes,  
 S. A. Mewes,  P. Morgante,  J. W. Mullinax,  K. J. Oosterbaan,  G. Paran,  
 Alexander C. Paul,  Suranjan K. Paul,  F. Pavosevic,  Zheng Pei,  S. Prager,  
 E. I. Proynov,  E. Ramos,  B. Rana,  A. E. Rask,  A. Rettig,  R. M. Richard,  
 F. Rob,  E. Rossomme,  T. Scheele,  M. Scheurer,  M. Schneider,  
 N. Sergueev,  S. M. Sharada,  W. Skomorowski,  D. W. Small,  C. J. Stein,  
 Yu-Chuan Su,  E. J. Sundstrom,  Zhen Tao,  J. Thirman,  T. Tsuchimochi,  
 N. M. Tubman,  S. P. Veccham,  O. Vydrov,  J. Wenzel,  J. Witte,  A. Yamada,  
 Kun Yao,  S. Yeganeh,  S. R. Yost,  A. Zech,  Igor Ying Zhang,  Xing Zhang,  
 Yu Zhang,  D. Zuev,  A. Aspuru-Guzik,  A. T. Bell,  N. A. Besley,  
 K. B. Bravaya,  B. R. Brooks,  D. Casanova,  Jeng-Da Chai,  S. Coriani,  
 C. J. Cramer,  A. E. DePrince, III,  R. A. DiStasio Jr.,  A. Dreuw,  
 B. D. Dunietz,  T. R. Furlani,  W. A. Goddard III,  S. Grimme,  
 S. Hammes-Schiffer,  T. Head-Gordon,  W. J. Hehre,  Chao-Ping Hsu,  
 T.-C. Jagau,  Yousung Jung,  A. Klamt,  Jing Kong,  D. S. Lambrecht,  
 WanZhen Liang,  N. J. Mayhall,  C. W. McCurdy,  J. B. Neaton,  
 C. Ochsenfeld,  J. A. Parkhill,  R. Peverati,  V. A. Rassolov,  Yihan Shao,  
 L. V. Slipchenko,  T. Stauch,  R. P. Steele,  J. E. Subotnik,  
 A. J. W. Thom,  A. Tkatchenko,  D. G. Truhlar,  T. Van Voorhis,  
 T. A. Wesolowski,  K. B. Whaley,  H. L. Woodcock III,  P. M. Zimmerman,  
 S. Faraji,  P. M. W. Gill,  M. Head-Gordon,  J. M. Herbert,  A. I. Krylov

 Additional authors for Version 5.4.1: 
 S. Kotaru,  Shaozhi Li,  Xiangyuan Li,  F. Matz,  A. Molle,  Haisheng Ren,  
 Yingli Su,  Hung-Yi Tsai,  C. Utku,  Fang Wang

 Contributors to earlier versions of Q-Chem not listed above: 
 R. D. Adamson,  B. Austin,  R. Baer,  J. Baker,  G. J. O. Beran,  
 K. Brandhorst,  S. T. Brown,  E. F. C. Byrd,  A. K. Chakraborty,  
 G. K. L. Chan,  Chun-Min Chang,  Yunqing Chen,  C.-L. Cheng,  
 Siu Hung Chien,  D. M. Chipman,  D. L. Crittenden,  H. Dachsel,  
 R. J. Doerksen,  A. D. Dutoi,  R. G. Edgar,  J. Fosso-Tande,  
 L. Fusti-Molnar,  D. Ghosh,  A. Ghysels,  A. Golubeva-Zadorozhnaya,  
 J. Gonthier,  M. S. Gordon,  S. R. Gwaltney,  G. Hawkins,  J. E. Herr,  
 A. Heyden,  S. Hirata,  E. G. Hohenstein,  G. Kedziora,  F. J. Keil,  
 C. Kelley,  Jihan Kim,  R. A. King,  R. Z. Khaliullin,  P. P. Korambath,  
 W. Kurlancheek,  A. Laurent,  A. M. Lee,  M. S. Lee,  S. V. Levchenko,  
 Ching Yeh Lin,  D. Liotard,  E. Livshits,  R. C. Lochan,  I. Lotan,  
 L. A. Martinez-Martinez,  P. E. Maslen,  N. Nair,  D. P. O'Neill,  
 D. Neuhauser,  E. Neuscamman,  C. M. Oana,  R. Olivares-Amaya,  R. Olson,  
 T. M. Perrine,  B. Peters,  P. A. Pieniazek,  A. Prociuk,  Y. M. Rhee,  
 J. Ritchie,  M. A. Rohrdanz,  E. Rosta,  N. J. Russ,  H. F. Schaefer III,  
 M. W. Schmidt,  N. E. Schultz,  S. Sharma,  N. Shenvi,  C. D. Sherrill,  
 A. C. Simmonett,  A. Sodt,  T. Stein,  D. Stuck,  K. S. Thanthiriwatte,  
 V. Vanovschi,  L. Vogt,  Tao Wang,  A. Warshel,  M. A. Watson,  
 C. F. Williams,  Q. Wu,  X. Xu,  Jun Yang,  W. Zhang,  Yan Zhao

 Please cite Q-Chem as follows:
 Y. Shao et al., Mol. Phys. 113, 184-215 (2015)
 DOI: 10.1080/00268976.2014.952696

 Q-Chem 5.4.1 for Intel X86 EM64T Linux

 Parts of Q-Chem use Armadillo 9.800.1 (Horizon Scraper).
 http://arma.sourceforge.net/

 Q-Chem begins on Fri Jan 27 14:02:39 2023  

 Host: 
0

     Scratch files written to /scratch/ari.fischer/qChem1423039.hpc-mn1/qchem26617//
 Aug1521 |scratch|qcdevops|jenkins|workspace|build_RNUM 8249   
 Processing $rem in /usr/local/qchem-5.4.1/config/preferences:
 Processing $rem in /home/ari.fischer/.qchemrc:
 Symmetry turned off for PCM/SM12/SMD calculation


!!********************************************.
!!******************Warning*******************.
!!Desired Analytical derivatives not available.
!!Finite difference job might take a long time.
!!********************************************.
!!********************************************.


 2-order derivative to be evaluated numerically with 1-order analytical derivatives

 Checking the input file for inconsistencies... 	...done.

--------------------------------------------------------------
User input:
--------------------------------------------------------------
$molecule
0 2
C         0.8362394702   -0.6681514020   -0.6306477225
H         1.7651329885   -0.3798744668   -0.1368918618
H         0.6872968823    0.0495609770   -1.4752566625
O        -0.2685539262   -0.5777826738    0.2514970380
O         0.7696445387    1.3301087145   -2.6484583248
H         1.4672087822    1.7881300037   -2.1474608362
H        -0.2802905847    0.3092399403    0.6261923335
C         0.9399723577   -2.0497663924   -1.2004410987
C        -0.2020097447   -2.7699551489   -1.5426473336
H        -1.1798318164   -2.3396848699   -1.3722310521
C        -0.0898355621   -4.0356243578   -2.0997697725
H        -0.9821700168   -4.5896770512   -2.3586557269
C         1.1637147179   -4.5904522962   -2.3286019170
H         1.2493165954   -5.5765014705   -2.7650174289
C         2.3050060161   -3.8739787154   -1.9949876305
H         3.2836812244   -4.3016584249   -2.1667677019
C         2.1921867287   -2.6108387719   -1.4293305320
H         3.0819979489   -2.0557486938   -1.1594536697
$end

$rem
BASIS = 6-311++G(2df,2p)
GUI = 2
JOB_TYPE = Frequency
METHOD = wB97M-V
SOLVENT_METHOD = SMD
SCF_ALGORITHM = DIIS_GDM
MAX_SCF_CYCLES = 400
SCF_CONVERGENCE = 7
THRESH = 12
UNRESTRICTED = 1
SYMMETRY_IGNORE = 1
$end
--------------------------------------------------------------
 ----------------------------------------------------------------
             Standard Nuclear Orientation (Angstroms)
    I     Atom           X                Y                Z
 ----------------------------------------------------------------
    1      C       0.8362394702    -0.6681514020    -0.6306477225
    2      H       1.7651329885    -0.3798744668    -0.1368918618
    3      H       0.6872968823     0.0495609770    -1.4752566625
    4      O      -0.2685539262    -0.5777826738     0.2514970380
    5      O       0.7696445387     1.3301087145    -2.6484583248
    6      H       1.4672087822     1.7881300037    -2.1474608362
    7      H      -0.2802905847     0.3092399403     0.6261923335
    8      C       0.9399723577    -2.0497663924    -1.2004410987
    9      C      -0.2020097447    -2.7699551489    -1.5426473336
   10      H      -1.1798318164    -2.3396848699    -1.3722310521
   11      C      -0.0898355621    -4.0356243578    -2.0997697725
   12      H      -0.9821700168    -4.5896770512    -2.3586557269
   13      C       1.1637147179    -4.5904522962    -2.3286019170
   14      H       1.2493165954    -5.5765014705    -2.7650174289
   15      C       2.3050060161    -3.8739787154    -1.9949876305
   16      H       3.2836812244    -4.3016584249    -2.1667677019
   17      C       2.1921867287    -2.6108387719    -1.4293305320
   18      H       3.0819979489    -2.0557486938    -1.1594536697
 ----------------------------------------------------------------
 Nuclear Repulsion Energy =         412.54779951 hartrees
 There are       34 alpha and       33 beta electrons
 Requested basis set is 6-311++G(2df,2p)
 There are 126 shells and 396 basis functions

 Total QAlloc Memory Limit 288000 MB
 Mega-Array Size       188 MB
 MEM_STATIC part       192 MB
 
 Citation of the SMD model:
 Marenich, A.V.; Cramer, C.J.; Truhlar, D.G.
 J. Phys. Chem. B 2009, 113, 6378-6396.
 iSolventCode=           1
 Solvent: water                                                           
 
 vradii
            1           2           3           4           5           6
    1   1.8500000   1.2000000   1.2000000   1.5200000   1.5200000   1.2000000
            7           8           9          10          11          12
    1   1.2000000   1.8500000   1.8500000   1.2000000   1.8500000   1.2000000
           13          14          15          16          17          18
    1   1.8500000   1.2000000   1.8500000   1.2000000   1.8500000   1.2000000
 Changing PCM_VDW_RADII to SMD_RADIUS
 Discretize the solute cavity surface with Lebedev spheres
	Using 110 Lebedev grid points for each H atom
	Using 194 Lebedev grid points for other atoms
	Atomic van der Waals radii will be scaled by 1.20
 Remove points where switching function is < 1.0e-08
 Keep 1389 surface tesserae and discard 1347 interior tesserae
 Molecular Surface Area = 166.044 Angst**2
 A cutoff of  1.0D-12 yielded   6980 shell pairs
 There are     68917 function pairs (     85073 Cartesian)
 Smallest overlap matrix eigenvalue = 8.27E-07
 Linear dependence detected in AO basis
 Tighter screening thresholds may be required for diffuse basis sets
 Use S2THRESH > 14 and THRESH = 14 in case of SCF convergence issues
 Number of orthogonalized atomic orbitals = 395
 Maximum deviation from orthogonality = 8.884E-11
 Guess from superposition of atomic densities
 Warning:  Energy on first SCF cycle will be non-variational
 SAD guess density has 67.000000 electrons

 -----------------------------------------------------------------------
  General SCF calculation program by
  Eric Jon Sundstrom, Paul Horn, Yuezhi Mao, Dmitri Zuev, Alec White,
  David Stuck, Shaama M.S., Shane Yost, Joonho Lee, David Small,
  Daniel Levine, Susi Lehtola, Hugh Burton, Evgeny Epifanovsky,
  Bang C. Huynh
 -----------------------------------------------------------------------
 Exchange:     0.1500 Hartree-Fock + 1.0000 wB97M-V + LR-HF
 Correlation:  1.0000 wB97M-V
 Using SG-2 standard quadrature grid
 Nonlocal Correlation:  VV10 with C = 0.0100 and b = 6.00 and scale = 1.00000
 Grid used for NLC:  SG-1 standard quadrature
 using 8 threads for integral computing
 -------------------------------------------------------
 OpenMP Integral computing Module                
 Release: version 1.0, May 2013, Q-Chem Inc. Pittsburgh 
 -------------------------------------------------------
 
 Citation of the SMD model:
 Marenich, A.V.; Cramer, C.J.; Truhlar, D.G.
 J. Phys. Chem. B 2009, 113, 6378-6396.
 iSolventCode=           1
 Solvent: water                                                           
 
 vradii
            1           2           3           4           5           6
    1   1.8500000   1.2000000   1.2000000   1.5200000   1.5200000   1.2000000
            7           8           9          10          11          12
    1   1.2000000   1.8500000   1.8500000   1.2000000   1.8500000   1.2000000
           13          14          15          16          17          18
    1   1.8500000   1.2000000   1.8500000   1.2000000   1.8500000   1.2000000
 -------------------------------------------------------
 OpenMP BLAS3 based DFT computing Module                
 Release: version 1.0, May 2013, Q-Chem Inc. Pittsburgh 
 -------------------------------------------------------
 A unrestricted SCF calculation will be
 performed using DIIS, GDM
 SCF converges when RMS gradient is below 1.0e-07
 ---------------------------------------
  Cycle       Energy         DIIS error
 ---------------------------------------
    1    -424.8567791091      1.26e-02  
    2    -422.3071227700      1.56e-03  Done DIIS. Switching to GDM
 ---------------------------------------
  Cycle       Energy        RMS Gradient
 ---------------------------------------
    1    -422.3071227700      3.81e-01   Descent step
    2    -422.4581005054      2.78e-02   Normal BFGS step
    3    -422.4806129930      7.71e-02   Normal BFGS step
    4    -422.4906282391      4.80e-02   Normal BFGS step
    5    -422.4968604892      2.23e-02   Normal BFGS step
    6    -422.4990015290      4.46e-02   Normal BFGS step
    7    -422.5022621574      1.11e-02   Normal BFGS step
    8    -422.5029142522      7.04e-03   Normal BFGS step
    9    -422.5031708333      1.60e-03   Normal BFGS step
   10    -422.5032016670      8.65e-04   Normal BFGS step
   11    -422.5032120166      7.95e-04   Normal BFGS step
   12    -422.5032165058      7.16e-04   Normal BFGS step
   13    -422.5032185334      6.46e-04   Normal BFGS step
   14    -422.5032201484      5.55e-04   Normal BFGS step
   15    -422.5032211412      4.79e-04   Normal BFGS step
   16    -422.5032223785      3.60e-04   Normal BFGS step
   17    -422.5032237200      3.26e-04   Normal BFGS step
   18    -422.5032244174      1.93e-04   Normal BFGS step
   19    -422.5032246534      1.57e-04   Normal BFGS step
   20    -422.5032247192      8.82e-05   Normal BFGS step
   21    -422.5032247382      3.43e-05   Normal BFGS step
   22    -422.5032247432      1.02e-05   Normal BFGS step
   23    -422.5032247440      3.23e-06   Normal BFGS step
   24    -422.5032247441      1.11e-06   Normal BFGS step
   25    -422.5032247441      5.69e-07   Normal BFGS step
   26    -422.5032247441      3.05e-07   Normal BFGS step
   27    -422.5032247442      8.36e-08  Convergence criterion met
 ---------------------------------------
 SCF time:   CPU 2688.02s  wall 341.00s 
<S^2> =          0.755483005
(3)  G-ENP(liq) elect-nuc-pol free energy of system     -422.503224744 a.u.
(4)  G-CDS(liq) cavity-dispersion-solvent structure 
     free energy                                                3.8920 kcal/mol
(6)  G-S(liq) free energy of system                     -422.497022372 a.u.
 SCF   energy in the final basis set =     -422.4970223715
 Total energy in the final basis set =     -422.4970223715
 
 --------------------------------------------------------------
 
                    Orbital Energies (a.u.)
 --------------------------------------------------------------
 
 Alpha MOs
 -- Occupied --
-19.3905 -19.3443 -10.3964 -10.3542 -10.3439 -10.3435 -10.3432 -10.3427
-10.3423  -1.1643  -1.1342  -0.9887  -0.8948  -0.8704  -0.7992  -0.7242
 -0.6983  -0.6369  -0.6234  -0.5933  -0.5776  -0.5601  -0.5427  -0.5284
 -0.5200  -0.5073  -0.4813  -0.4647  -0.4567  -0.4396  -0.4311  -0.3908
 -0.3479  -0.3354
 -- Virtual --
  0.0229   0.0327   0.0370   0.0507   0.0520   0.0540   0.0583   0.0641
  0.0790   0.0842   0.0916   0.0957   0.1106   0.1231   0.1312   0.1368
  0.1481   0.1539   0.1583   0.1600   0.1626   0.1685   0.1722   0.1783
  0.1830   0.1876   0.1879   0.1981   0.2064   0.2103   0.2145   0.2197
  0.2349   0.2382   0.2479   0.2512   0.2646   0.2669   0.2725   0.2751
  0.2816   0.2862   0.2968   0.3049   0.3098   0.3158   0.3353   0.3434
  0.3495   0.3563   0.3620   0.3698   0.3722   0.3833   0.4015   0.4089
  0.4211   0.4317   0.4362   0.4441   0.4581   0.4725   0.5373   0.5453
  0.5687   0.5710   0.5926   0.5954   0.6018   0.6099   0.6134   0.6179
  0.6235   0.6287   0.6301   0.6577   0.6606   0.6763   0.6839   0.6954
  0.7084   0.7167   0.7200   0.7259   0.7353   0.7420   0.7447   0.7547
  0.7649   0.7720   0.7764   0.7865   0.7920   0.8222   0.8270   0.8358
  0.8379   0.8499   0.8528   0.8692   0.8772   0.8898   0.8982   0.9087
  0.9219   0.9400   0.9684   0.9914   0.9967   1.0181   1.0328   1.0539
  1.0703   1.0753   1.0985   1.1153   1.1167   1.1251   1.1383   1.1720
  1.1748   1.1824   1.1889   1.2050   1.2065   1.2269   1.2440   1.2486
  1.2690   1.2876   1.2940   1.3198   1.3364   1.3658   1.3726   1.3813
  1.3938   1.4071   1.4211   1.4307   1.4346   1.4503   1.4604   1.4651
  1.4766   1.4864   1.5049   1.5197   1.5381   1.5599   1.5657   1.5788
  1.5889   1.5936   1.6118   1.6449   1.6627   1.6959   1.7153   1.7238
  1.7804   1.7981   1.8187   1.8255   1.8276   1.8741   1.8799   1.9079
  1.9508   1.9895   2.0748   2.0850   2.0896   2.1064   2.1604   2.2364
  2.2563   2.3006   2.3314   2.3810   2.4210   2.5710   2.5807   2.6075
  2.6281   2.6520   2.6940   2.7221   2.7289   2.7502   2.7998   2.8132
  2.8243   2.8273   2.8325   2.8563   2.8616   2.8793   2.8834   2.9102
  2.9130   2.9247   2.9278   2.9350   2.9403   2.9457   2.9636   2.9804
  3.0123   3.0289   3.0406   3.0665   3.0895   3.1552   3.1771   3.1818
  3.2122   3.2183   3.2312   3.2368   3.2537   3.2611   3.2682   3.2776
  3.2871   3.3078   3.3401   3.3667   3.3796   3.3825   3.3948   3.4193
  3.4391   3.4685   3.4735   3.4828   3.5027   3.5095   3.5260   3.5405
  3.5523   3.5718   3.5879   3.6161   3.6297   3.6465   3.6631   3.6825
  3.7201   3.7321   3.7378   3.7820   3.7947   3.8151   3.8223   3.8276
  3.8505   3.8688   3.8848   3.8995   3.9080   3.9102   3.9344   3.9407
  3.9597   3.9697   3.9911   4.0041   4.0766   4.1022   4.1290   4.1371
  4.1527   4.1744   4.1835   4.1942   4.1966   4.2292   4.2511   4.2881
  4.3201   4.3408   4.3685   4.4006   4.4190   4.4370   4.4426   4.4591
  4.4649   4.5223   4.5452   4.5639   4.5735   4.5804   4.5910   4.6078
  4.6303   4.6507   4.7295   4.7475   4.7917   4.8200   4.8478   4.8755
  4.9673   5.0694   5.0706   5.0758   5.1049   5.1412   5.1717   5.1745
  5.1888   5.1942   5.2187   5.2428   5.2651   5.2843   5.3189   5.3331
  5.3461   5.3908   5.4816   5.5095   5.5636   5.6138   5.6165   5.6397
  5.6687   5.6866   5.7579   5.8429   5.8735   5.8877   5.9507   5.9966
  6.0462   6.2819   6.6330   6.6544   6.8277   6.9641   6.9702   7.0862
  7.1176   7.2308   7.3180   7.3331   7.3656   7.5087   7.6540   7.8055
 24.1860  24.7963  24.8034  24.8135  25.0483  25.0654  25.5304  50.4326
 50.5979
 
 Beta MOs
 -- Occupied --
-19.3679 -19.3436 -10.3941 -10.3543 -10.3437 -10.3435 -10.3432 -10.3426
-10.3421  -1.1625  -1.0727  -0.9884  -0.8936  -0.8702  -0.7956  -0.7240
 -0.6970  -0.6320  -0.6228  -0.5780  -0.5594  -0.5552  -0.5381  -0.5268
 -0.5194  -0.4807  -0.4703  -0.4393  -0.4325  -0.4273  -0.3934  -0.3473
 -0.3390
 -- Virtual --
 -0.0761   0.0234   0.0330   0.0372   0.0516   0.0523   0.0543   0.0589
  0.0666   0.0797   0.0844   0.0919   0.0960   0.1113   0.1240   0.1319
  0.1375   0.1484   0.1540   0.1586   0.1612   0.1637   0.1687   0.1727
  0.1788   0.1836   0.1879   0.1883   0.1997   0.2076   0.2123   0.2149
  0.2202   0.2372   0.2397   0.2496   0.2522   0.2649   0.2676   0.2729
  0.2764   0.2830   0.2877   0.2983   0.3069   0.3110   0.3170   0.3361
  0.3454   0.3508   0.3569   0.3623   0.3707   0.3756   0.3839   0.4035
  0.4136   0.4248   0.4322   0.4377   0.4500   0.4619   0.4736   0.5377
  0.5475   0.5699   0.5719   0.5945   0.5963   0.6022   0.6105   0.6141
  0.6188   0.6253   0.6297   0.6320   0.6582   0.6615   0.6770   0.6844
  0.6962   0.7089   0.7181   0.7211   0.7262   0.7357   0.7425   0.7453
  0.7553   0.7653   0.7728   0.7772   0.7875   0.7932   0.8240   0.8283
  0.8361   0.8378   0.8513   0.8540   0.8704   0.8780   0.8908   0.8991
  0.9092   0.9235   0.9412   0.9706   0.9933   0.9992   1.0207   1.0365
  1.0548   1.0718   1.0758   1.0992   1.1174   1.1189   1.1282   1.1395
  1.1728   1.1789   1.1849   1.1893   1.2081   1.2275   1.2433   1.2468
  1.2537   1.2706   1.2882   1.2968   1.3217   1.3386   1.3676   1.3767
  1.3839   1.3945   1.4089   1.4230   1.4328   1.4374   1.4510   1.4612
  1.4688   1.4792   1.4903   1.5065   1.5282   1.5395   1.5607   1.5673
  1.5806   1.5939   1.5982   1.6152   1.6651   1.6714   1.7076   1.7184
  1.7382   1.7827   1.7997   1.8188   1.8259   1.8329   1.8820   1.8910
  1.9114   1.9764   1.9921   2.0755   2.0853   2.0901   2.1070   2.1623
  2.2399   2.2626   2.3063   2.3530   2.3857   2.4219   2.5710   2.5818
  2.6077   2.6283   2.6555   2.6951   2.7235   2.7317   2.7638   2.8008
  2.8130   2.8247   2.8286   2.8327   2.8569   2.8629   2.8807   2.8840
  2.9106   2.9138   2.9260   2.9285   2.9360   2.9400   2.9465   2.9641
  2.9807   3.0125   3.0298   3.0409   3.0673   3.0909   3.1577   3.1776
  3.1823   3.2129   3.2198   3.2319   3.2373   3.2547   3.2620   3.2690
  3.2780   3.2888   3.3089   3.3414   3.3676   3.3807   3.3841   3.3956
  3.4195   3.4396   3.4695   3.4741   3.4832   3.5032   3.5102   3.5267
  3.5415   3.5544   3.5732   3.5899   3.6171   3.6307   3.6478   3.6646
  3.6854   3.7286   3.7357   3.7423   3.7848   3.7971   3.8165   3.8280
  3.8287   3.8525   3.8701   3.8869   3.9008   3.9095   3.9133   3.9361
  3.9422   3.9606   3.9706   3.9919   4.0068   4.0784   4.1044   4.1304
  4.1388   4.1534   4.1747   4.1850   4.1954   4.1987   4.2370   4.2517
  4.2886   4.3198   4.3416   4.3698   4.3996   4.4191   4.4377   4.4423
  4.4593   4.4642   4.5227   4.5463   4.5644   4.5740   4.5809   4.5917
  4.6082   4.6311   4.6516   4.7300   4.7484   4.7926   4.8207   4.8485
  4.8759   4.9710   5.0702   5.1238   5.1249   5.1311   5.1791   5.1835
  5.1883   5.2146   5.2266   5.2583   5.2704   5.2908   5.3094   5.3345
  5.3548   5.3642   5.4031   5.4830   5.5104   5.5680   5.6345   5.6400
  5.6695   5.6799   5.6889   5.7599   5.8436   5.8745   5.8882   5.9512
  5.9980   6.0473   6.2825   6.6359   6.6548   6.9327   7.0036   7.0720
  7.1117   7.1689   7.2972   7.3208   7.3403   7.3724   7.5782   7.6572
  7.8069  24.1860  24.7964  24.8039  24.8150  25.0483  25.0655  25.5305
 50.4482  50.5985
 --------------------------------------------------------------
 
          Ground-State Mulliken Net Atomic Charges

     Atom                 Charge (a.u.)    Spin (a.u.)
  --------------------------------------------------------
      1 C                    -0.632415       0.115135
      2 H                     0.239440       0.000246
      3 H                     0.286521      -0.033906
      4 O                    -0.383016       0.022404
      5 O                    -0.411463       0.885415
      6 H                     0.337690      -0.013255
      7 H                     0.335645      -0.000230
      8 C                     0.579824       0.013124
      9 C                     0.171452       0.000265
     10 H                     0.277719      -0.000335
     11 C                    -0.347527      -0.008458
     12 H                     0.284514       0.000105
     13 C                    -0.445150       0.014643
     14 H                     0.277190      -0.000312
     15 C                    -0.309922      -0.007631
     16 H                     0.289287       0.000195
     17 C                    -0.815335       0.013217
     18 H                     0.265545      -0.000621
  --------------------------------------------------------
  Sum of atomic charges =    -0.000000
  Sum of spin   charges =     1.000000

 -----------------------------------------------------------------
                    Cartesian Multipole Moments
 -----------------------------------------------------------------
    Charge (ESU x 10^10)
                -0.0000
    Dipole Moment (Debye)
         X       2.8705      Y       1.9103      Z       1.3904
       Tot       3.7179
    Quadrupole Moments (Debye-Ang)
        XX     -45.5266     XY       1.5680     YY     -47.6978
        XZ      -1.9256     YZ       5.9507     ZZ     -63.4502
    Octopole Moments (Debye-Ang^2)
       XXX    -115.8052    XXY     105.4085    XYY     -33.2684
       YYY     319.7488    XXZ      68.8120    XYZ      -2.2423
       YYZ      45.6376    XZZ     -50.1568    YZZ     110.2876
       ZZZ     286.1405
    Hexadecapole Moments (Debye-Ang^3)
      XXXX    -537.3618   XXXY     315.3936   XXYY    -477.2217
      XYYY     334.8952   YYYY   -2476.8176   XXXZ     213.5926
      XXYZ    -175.5142   XYYZ      35.7733   YYYZ    -424.8409
      XXZZ    -266.4321   XYZZ     127.9234   YYZZ    -561.8888
      XZZZ     276.9407   YZZZ    -618.7413   ZZZZ   -1205.1909
 -----------------------------------------------------------------
 Calculating analytic gradient of the SCF energy
 Gradient of CDS energy
            1           2           3           4           5           6
    1  -0.0001596   0.0001592   0.0000738   0.0002601  -0.0002479   0.0002635
    2   0.0004378  -0.0001520  -0.0000504  -0.0001954  -0.0002295   0.0004406
    3   0.0005098  -0.0000370  -0.0000283  -0.0004325  -0.0001059  -0.0000627
            7           8           9          10          11          12
    1  -0.0003053  -0.0001043  -0.0002507  -0.0001343  -0.0004300  -0.0001713
    2   0.0002469   0.0000849   0.0002154   0.0001143  -0.0002438  -0.0001064
    3   0.0003649  -0.0000274   0.0000838   0.0000835  -0.0001125  -0.0000497
           13          14          15          16          17          18
    1   0.0000428   0.0000164   0.0004687   0.0001879   0.0002094   0.0001215
    2  -0.0004779  -0.0001891  -0.0001914  -0.0000821   0.0002517   0.0001263
    3  -0.0002114  -0.0000837  -0.0000828  -0.0000330   0.0001489   0.0000760
 Gradient of SCF Energy
            1           2           3           4           5           6
    1  -0.0125222   0.0085192   0.0022974  -0.0030842  -0.0136545   0.0127450
    2  -0.0107986   0.0044304   0.0045509  -0.0151913  -0.0083428   0.0077648
    3  -0.0055028   0.0037107  -0.0006566  -0.0038802  -0.0117225   0.0107745
            7           8           9          10          11          12
    1   0.0029691  -0.0010860   0.0045535   0.0023382   0.0040506  -0.0014686
    2   0.0142662   0.0030301   0.0011607  -0.0021382   0.0057958  -0.0012078
    3   0.0045885   0.0022522   0.0031008  -0.0016047   0.0024304  -0.0005195
           13          14          15          16          17          18
    1  -0.0022167   0.0003346  -0.0043401   0.0041014  -0.0086955   0.0051588
    2   0.0042529  -0.0030203  -0.0001364  -0.0016419  -0.0067766   0.0040020
    3   0.0012841  -0.0013619   0.0003950  -0.0005804  -0.0045961   0.0018886
 Max gradient component =       1.519E-02
 RMS gradient           =       6.147E-03
 Computing fast CPCM-SWIG gradient
 Updating gradient with PCM contributions...
 -- total gradient after adding PCM contribution --
---------------------------------------------------
  Atom         X              Y              Z     
---------------------------------------------------
   1       0.000293      -0.000334       0.000159
   2      -0.000045       0.000048      -0.000126
   3      -0.000188       0.000040       0.000145
   4      -0.000036       0.000105      -0.000232
   5       0.000048       0.000132      -0.000169
   6       0.000008      -0.000001       0.000007
   7       0.000011      -0.000013       0.000025
   8       0.000072       0.000060       0.000200
   9      -0.000031      -0.000005      -0.000057
  10      -0.000017       0.000007       0.000029
  11      -0.000044       0.000047       0.000004
  12      -0.000021       0.000010       0.000021
  13      -0.000001      -0.000012       0.000034
  14      -0.000031      -0.000003       0.000003
  15      -0.000005      -0.000000      -0.000040
  16      -0.000021      -0.000019       0.000003
  17       0.000011      -0.000041      -0.000010
  18      -0.000002      -0.000021       0.000000
---------------------------------------------------
 Number of fixed atoms: 0
 Gradient time:  CPU 280.77 s  wall 41.18 s
 ######################################################
 ######################################################
 # Starting finite difference calculation for IDERIV  #
 Finite diff step size:  1.88973e-03 a.u.
 ----------------------------------------------------------------
             Standard Nuclear Orientation (Angstroms)
    I     Atom           X                Y                Z
 ----------------------------------------------------------------
    1      C       0.8372394702    -0.6681514020    -0.6306477225
    2      H       1.7651329885    -0.3798744668    -0.1368918618
    3      H       0.6872968823     0.0495609770    -1.4752566625
    4      O      -0.2685539262    -0.5777826738     0.2514970380
    5      O       0.7696445387     1.3301087145    -2.6484583248
    6      H       1.4672087822     1.7881300037    -2.1474608362
    7      H      -0.2802905847     0.3092399403     0.6261923335
    8      C       0.9399723577    -2.0497663924    -1.2004410987
    9      C      -0.2020097447    -2.7699551489    -1.5426473336
   10      H      -1.1798318164    -2.3396848699    -1.3722310521
   11      C      -0.0898355621    -4.0356243578    -2.0997697725
   12      H      -0.9821700168    -4.5896770512    -2.3586557269
   13      C       1.1637147179    -4.5904522962    -2.3286019170
   14      H       1.2493165954    -5.5765014705    -2.7650174289
   15      C       2.3050060161    -3.8739787154    -1.9949876305
   16      H       3.2836812244    -4.3016584249    -2.1667677019
   17      C       2.1921867287    -2.6108387719    -1.4293305320
   18      H       3.0819979489    -2.0557486938    -1.1594536697
 ----------------------------------------------------------------
 Nuclear Repulsion Energy =         412.54073297 hartrees
 There are       34 alpha and       33 beta electrons
 Discretize the solute cavity surface with Lebedev spheres
	Using 110 Lebedev grid points for each H atom
	Using 194 Lebedev grid points for other atoms
	Atomic van der Waals radii will be scaled by 1.20
 Remove points where switching function is < 1.0e-08
 Keep 1389 surface tesserae and discard 1347 interior tesserae
 Molecular Surface Area = 166.046 Angst**2
 Requested basis set is 6-311++G(2df,2p)
 There are 126 shells and 396 basis functions
 A cutoff of  1.0D-12 yielded   6980 shell pairs
 There are     68917 function pairs (     85073 Cartesian)
 Smallest overlap matrix eigenvalue = 8.27E-07
 Linear dependence detected in AO basis
 Tighter screening thresholds may be required for diffuse basis sets
 Use S2THRESH > 14 and THRESH = 14 in case of SCF convergence issues
 Number of orthogonalized atomic orbitals = 395
 Maximum deviation from orthogonality = 6.574E-11
 Guess MOs from SCF MO coefficient file

 -----------------------------------------------------------------------
  General SCF calculation program by
  Eric Jon Sundstrom, Paul Horn, Yuezhi Mao, Dmitri Zuev, Alec White,
  David Stuck, Shaama M.S., Shane Yost, Joonho Lee, David Small,
  Daniel Levine, Susi Lehtola, Hugh Burton, Evgeny Epifanovsky,
  Bang C. Huynh
 -----------------------------------------------------------------------
 Exchange:     0.1500 Hartree-Fock + 1.0000 wB97M-V + LR-HF
 Correlation:  1.0000 wB97M-V
 Using SG-2 standard quadrature grid
 Nonlocal Correlation:  VV10 with C = 0.0100 and b = 6.00 and scale = 1.00000
 Grid used for NLC:  SG-1 standard quadrature
 
 Citation of the SMD model:
 Marenich, A.V.; Cramer, C.J.; Truhlar, D.G.
 J. Phys. Chem. B 2009, 113, 6378-6396.
 iSolventCode=           1
 Solvent: water                                                           
 
 vradii
            1           2           3           4           5           6
    1   1.8500000   1.2000000   1.2000000   1.5200000   1.5200000   1.2000000
            7           8           9          10          11          12
    1   1.2000000   1.8500000   1.8500000   1.2000000   1.8500000   1.2000000
           13          14          15          16          17          18
    1   1.8500000   1.2000000   1.8500000   1.2000000   1.8500000   1.2000000
 -------------------------------------------------------
 OpenMP BLAS3 based DFT computing Module                
 Release: version 1.0, May 2013, Q-Chem Inc. Pittsburgh 
 -------------------------------------------------------
 A unrestricted SCF calculation will be
 performed using Roothaan-Hall, DIIS, GDM
 SCF converges when RMS gradient is below 1.0e-07
 ---------------------------------------
  Cycle       Energy         DIIS error
 ---------------------------------------
    1    -422.4718306947      2.12e-04  Roothaan Step
 ---------------------------------------
  Cycle       Energy         DIIS error
 ---------------------------------------
    1    -422.4964044623      2.37e-04  
    2    -422.5014260874      1.70e-04  Done DIIS. Switching to GDM
 ---------------------------------------
  Cycle       Energy        RMS Gradient
 ---------------------------------------
    1    -422.5014260874      5.29e-03   Normal BFGS step
    2    -422.5018681747      5.18e-03   Normal BFGS step
    3    -422.5031996369      5.26e-04   Normal BFGS step
    4    -422.5032144139      3.92e-04   Normal BFGS step
    5    -422.5032225571      1.58e-04   Normal BFGS step
    6    -422.5032227737      9.93e-05   Normal BFGS step
    7    -422.5032228955      7.38e-05   Normal BFGS step
    8    -422.5032229055      4.78e-05   Normal BFGS step
    9    -422.5032229109      1.03e-05   Normal BFGS step
   10    -422.5032229117      3.92e-06   Normal BFGS step
   11    -422.5032229119      3.80e-06   Normal BFGS step
   12    -422.5032229120      3.56e-06   Normal BFGS step
   13    -422.5032229120      3.33e-06   Normal BFGS step
   14    -422.5032229121      2.57e-06   Normal BFGS step
   15    -422.5032229121      1.73e-06   Normal BFGS step
   16    -422.5032229122      1.64e-06   Normal BFGS step
   17    -422.5032229122      1.04e-06   Normal BFGS step
   18    -422.5032229122      5.64e-07   Normal BFGS step
   19    -422.5032229122      2.27e-07   Normal BFGS step
   20    -422.5032229122      9.83e-08  Convergence criterion met
 ---------------------------------------
 SCF time:   CPU 2039.24s  wall 259.00s 
<S^2> =          0.755482088
(3)  G-ENP(liq) elect-nuc-pol free energy of system     -422.503222912 a.u.
(4)  G-CDS(liq) cavity-dispersion-solvent structure 
     free energy                                                3.8919 kcal/mol
(6)  G-S(liq) free energy of system                     -422.497020771 a.u.
 SCF   energy in the final basis set =     -422.4970207707
 Total energy in the final basis set =     -422.4970207707
 
 --------------------------------------------------------------
 
                    Orbital Energies (a.u.)
 --------------------------------------------------------------
 
 Alpha MOs
 -- Occupied --
-19.3905 -19.3443 -10.3964 -10.3542 -10.3438 -10.3435 -10.3432 -10.3428
-10.3423  -1.1641  -1.1342  -0.9887  -0.8948  -0.8704  -0.7992  -0.7242
 -0.6983  -0.6368  -0.6233  -0.5933  -0.5776  -0.5601  -0.5427  -0.5283
 -0.5200  -0.5072  -0.4813  -0.4647  -0.4567  -0.4396  -0.4312  -0.3908
 -0.3479  -0.3354
 -- Virtual --
  0.0229   0.0327   0.0370   0.0507   0.0520   0.0540   0.0583   0.0641
  0.0790   0.0842   0.0916   0.0957   0.1106   0.1231   0.1312   0.1368
  0.1481   0.1539   0.1583   0.1600   0.1626   0.1684   0.1722   0.1783
  0.1830   0.1876   0.1879   0.1981   0.2064   0.2103   0.2145   0.2197
  0.2349   0.2382   0.2479   0.2512   0.2646   0.2669   0.2725   0.2751
  0.2815   0.2862   0.2968   0.3048   0.3098   0.3158   0.3353   0.3433
  0.3495   0.3563   0.3620   0.3698   0.3721   0.3832   0.4015   0.4088
  0.4211   0.4317   0.4362   0.4441   0.4581   0.4725   0.5373   0.5453
  0.5687   0.5710   0.5926   0.5954   0.6018   0.6098   0.6134   0.6179
  0.6235   0.6287   0.6302   0.6577   0.6606   0.6763   0.6839   0.6954
  0.7084   0.7168   0.7200   0.7259   0.7353   0.7420   0.7447   0.7547
  0.7649   0.7720   0.7764   0.7865   0.7920   0.8222   0.8270   0.8358
  0.8379   0.8499   0.8528   0.8692   0.8772   0.8898   0.8982   0.9087
  0.9219   0.9401   0.9684   0.9914   0.9967   1.0181   1.0328   1.0539
  1.0702   1.0753   1.0986   1.1153   1.1167   1.1252   1.1383   1.1720
  1.1749   1.1824   1.1888   1.2050   1.2064   1.2269   1.2441   1.2487
  1.2690   1.2876   1.2940   1.3198   1.3364   1.3659   1.3727   1.3813
  1.3938   1.4071   1.4211   1.4308   1.4346   1.4502   1.4604   1.4651
  1.4766   1.4864   1.5049   1.5197   1.5382   1.5599   1.5660   1.5789
  1.5889   1.5936   1.6118   1.6449   1.6628   1.6959   1.7153   1.7239
  1.7804   1.7981   1.8187   1.8255   1.8274   1.8740   1.8799   1.9080
  1.9508   1.9894   2.0747   2.0850   2.0895   2.1064   2.1601   2.2360
  2.2560   2.3006   2.3313   2.3808   2.4210   2.5710   2.5806   2.6075
  2.6281   2.6517   2.6940   2.7221   2.7289   2.7500   2.7998   2.8132
  2.8243   2.8273   2.8325   2.8563   2.8615   2.8793   2.8834   2.9103
  2.9131   2.9247   2.9277   2.9350   2.9403   2.9457   2.9636   2.9804
  3.0123   3.0289   3.0406   3.0665   3.0892   3.1551   3.1771   3.1818
  3.2123   3.2182   3.2311   3.2368   3.2537   3.2612   3.2682   3.2776
  3.2871   3.3079   3.3402   3.3666   3.3794   3.3823   3.3947   3.4193
  3.4391   3.4684   3.4734   3.4828   3.5027   3.5095   3.5261   3.5405
  3.5523   3.5718   3.5878   3.6161   3.6297   3.6466   3.6632   3.6823
  3.7201   3.7321   3.7376   3.7822   3.7949   3.8150   3.8222   3.8275
  3.8506   3.8688   3.8848   3.8994   3.9080   3.9102   3.9344   3.9406
  3.9597   3.9699   3.9912   4.0041   4.0769   4.1023   4.1290   4.1373
  4.1527   4.1743   4.1832   4.1943   4.1967   4.2292   4.2510   4.2881
  4.3200   4.3408   4.3688   4.4007   4.4191   4.4375   4.4427   4.4593
  4.4649   4.5223   4.5454   4.5641   4.5735   4.5804   4.5910   4.6077
  4.6306   4.6508   4.7295   4.7475   4.7920   4.8201   4.8477   4.8756
  4.9675   5.0694   5.0706   5.0757   5.1049   5.1413   5.1717   5.1744
  5.1888   5.1942   5.2187   5.2429   5.2651   5.2841   5.3190   5.3332
  5.3461   5.3911   5.4816   5.5093   5.5637   5.6138   5.6165   5.6396
  5.6685   5.6861   5.7583   5.8429   5.8735   5.8877   5.9503   5.9962
  6.0449   6.2819   6.6309   6.6544   6.8276   6.9640   6.9702   7.0861
  7.1176   7.2308   7.3178   7.3329   7.3652   7.5087   7.6537   7.8054
 24.1860  24.7964  24.8032  24.8136  25.0483  25.0654  25.5304  50.4325
 50.5977
 
 Beta MOs
 -- Occupied --
-19.3679 -19.3436 -10.3941 -10.3544 -10.3437 -10.3436 -10.3432 -10.3426
-10.3421  -1.1622  -1.0727  -0.9884  -0.8936  -0.8702  -0.7957  -0.7240
 -0.6970  -0.6319  -0.6227  -0.5781  -0.5594  -0.5552  -0.5381  -0.5268
 -0.5195  -0.4807  -0.4703  -0.4392  -0.4326  -0.4273  -0.3935  -0.3473
 -0.3390
 -- Virtual --
 -0.0761   0.0234   0.0330   0.0372   0.0516   0.0523   0.0543   0.0589
  0.0666   0.0797   0.0844   0.0919   0.0960   0.1113   0.1240   0.1320
  0.1375   0.1484   0.1540   0.1586   0.1612   0.1637   0.1687   0.1727
  0.1788   0.1836   0.1879   0.1883   0.1997   0.2076   0.2123   0.2149
  0.2202   0.2372   0.2397   0.2496   0.2522   0.2649   0.2676   0.2729
  0.2764   0.2830   0.2877   0.2984   0.3069   0.3110   0.3170   0.3361
  0.3454   0.3508   0.3569   0.3623   0.3707   0.3756   0.3839   0.4035
  0.4135   0.4248   0.4322   0.4377   0.4500   0.4620   0.4736   0.5377
  0.5475   0.5700   0.5719   0.5945   0.5963   0.6022   0.6105   0.6141
  0.6188   0.6253   0.6297   0.6320   0.6582   0.6615   0.6770   0.6844
  0.6962   0.7089   0.7182   0.7211   0.7262   0.7357   0.7425   0.7453
  0.7553   0.7653   0.7728   0.7772   0.7875   0.7931   0.8240   0.8283
  0.8361   0.8378   0.8512   0.8540   0.8704   0.8780   0.8908   0.8991
  0.9092   0.9235   0.9412   0.9706   0.9933   0.9992   1.0207   1.0365
  1.0548   1.0717   1.0758   1.0993   1.1174   1.1189   1.1283   1.1395
  1.1729   1.1789   1.1849   1.1893   1.2080   1.2275   1.2434   1.2469
  1.2537   1.2706   1.2882   1.2967   1.3217   1.3385   1.3677   1.3768
  1.3839   1.3945   1.4088   1.4230   1.4328   1.4374   1.4510   1.4613
  1.4689   1.4792   1.4903   1.5065   1.5281   1.5396   1.5607   1.5675
  1.5807   1.5940   1.5981   1.6152   1.6653   1.6714   1.7077   1.7184
  1.7383   1.7827   1.7998   1.8188   1.8259   1.8327   1.8820   1.8910
  1.9115   1.9764   1.9920   2.0755   2.0853   2.0900   2.1069   2.1620
  2.2396   2.2624   2.3062   2.3529   2.3855   2.4218   2.5710   2.5818
  2.6077   2.6283   2.6552   2.6951   2.7235   2.7316   2.7637   2.8008
  2.8131   2.8247   2.8286   2.8327   2.8569   2.8628   2.8807   2.8840
  2.9107   2.9138   2.9259   2.9284   2.9360   2.9400   2.9465   2.9641
  2.9807   3.0125   3.0298   3.0409   3.0673   3.0907   3.1575   3.1776
  3.1823   3.2130   3.2197   3.2318   3.2373   3.2547   3.2621   3.2690
  3.2780   3.2888   3.3090   3.3415   3.3676   3.3806   3.3839   3.3955
  3.4195   3.4396   3.4695   3.4741   3.4833   3.5032   3.5102   3.5268
  3.5415   3.5544   3.5732   3.5899   3.6171   3.6307   3.6479   3.6647
  3.6852   3.7286   3.7356   3.7421   3.7850   3.7973   3.8164   3.8280
  3.8286   3.8526   3.8701   3.8868   3.9008   3.9096   3.9132   3.9361
  3.9421   3.9606   3.9708   3.9920   4.0069   4.0787   4.1046   4.1304
  4.1390   4.1535   4.1746   4.1848   4.1955   4.1987   4.2371   4.2516
  4.2887   4.3197   4.3416   4.3701   4.3997   4.4191   4.4383   4.4425
  4.4594   4.4642   4.5227   4.5465   4.5645   4.5739   4.5809   4.5917
  4.6081   4.6314   4.6518   4.7300   4.7484   4.7929   4.8207   4.8485
  4.8760   4.9712   5.0702   5.1238   5.1250   5.1312   5.1790   5.1836
  5.1882   5.2146   5.2266   5.2583   5.2704   5.2908   5.3094   5.3346
  5.3548   5.3641   5.4033   5.4830   5.5102   5.5681   5.6345   5.6398
  5.6694   5.6798   5.6885   5.7604   5.8436   5.8745   5.8882   5.9508
  5.9976   6.0459   6.2825   6.6339   6.6548   6.9326   7.0036   7.0720
  7.1116   7.1689   7.2972   7.3205   7.3400   7.3720   7.5781   7.6569
  7.8068  24.1861  24.7965  24.8037  24.8151  25.0483  25.0655  25.5305
 50.4482  50.5983
 --------------------------------------------------------------
 
          Ground-State Mulliken Net Atomic Charges

     Atom                 Charge (a.u.)    Spin (a.u.)
  --------------------------------------------------------
      1 C                    -0.632346       0.115155
      2 H                     0.239964       0.000233
      3 H                     0.286360      -0.033903
      4 O                    -0.383476       0.022357
      5 O                    -0.411346       0.885477
      6 H                     0.337679      -0.013257
      7 H                     0.335589      -0.000231
      8 C                     0.579976       0.013076
      9 C                     0.171219       0.000252
     10 H                     0.277743      -0.000335
     11 C                    -0.347361      -0.008460
     12 H                     0.284512       0.000105
     13 C                    -0.445023       0.014647
     14 H                     0.277194      -0.000313
     15 C                    -0.309979      -0.007634
     16 H                     0.289269       0.000195
     17 C                    -0.815486       0.013256
     18 H                     0.265511      -0.000622
  --------------------------------------------------------
  Sum of atomic charges =    -0.000000
  Sum of spin   charges =     1.000000

 -----------------------------------------------------------------
                    Cartesian Multipole Moments
 -----------------------------------------------------------------
    Charge (ESU x 10^10)
                -0.0000
    Dipole Moment (Debye)
         X       2.8746      Y       1.9104      Z       1.3880
       Tot       3.7201
    Quadrupole Moments (Debye-Ang)
        XX     -45.5200     XY       1.5673     YY     -47.6941
        XZ      -1.9264     YZ       5.9514     ZZ     -63.4469
    Octopole Moments (Debye-Ang^2)
       XXX    -115.8027    XXY     105.4068    XYY     -33.2727
       YYY     319.7371    XXZ      68.8108    XYZ      -2.2435
       YYZ      45.6261    XZZ     -50.1590    YZZ     110.2875
       ZZZ     286.1264
    Hexadecapole Moments (Debye-Ang^3)
      XXXX    -537.3684   XXXY     315.4017   XXYY    -477.2272
      XYYY     334.9151   YYYY   -2476.7363   XXXZ     213.6011
      XXYZ    -175.5150   XYYZ      35.7814   YYYZ    -424.8127
      XXZZ    -266.4363   XYZZ     127.9288   YYZZ    -561.8614
      XZZZ     276.9494   YZZZ    -618.7379   ZZZZ   -1205.1615
 -----------------------------------------------------------------
 Calculating analytic gradient of the SCF energy
 Gradient of CDS energy
            1           2           3           4           5           6
    1  -0.0000863   0.0001583   0.0000695   0.0001929  -0.0002483   0.0002634
    2   0.0004252  -0.0001525  -0.0000454  -0.0001893  -0.0002293   0.0004406
    3   0.0004587  -0.0000379  -0.0000256  -0.0003796  -0.0001061  -0.0000628
            7           8           9          10          11          12
    1  -0.0003055  -0.0001044  -0.0002508  -0.0001343  -0.0004300  -0.0001713
    2   0.0002489   0.0000849   0.0002155   0.0001144  -0.0002438  -0.0001064
    3   0.0003615  -0.0000273   0.0000837   0.0000835  -0.0001125  -0.0000497
           13          14          15          16          17          18
    1   0.0000428   0.0000164   0.0004687   0.0001879   0.0002094   0.0001215
    2  -0.0004779  -0.0001891  -0.0001914  -0.0000821   0.0002515   0.0001262
    3  -0.0002114  -0.0000837  -0.0000828  -0.0000330   0.0001488   0.0000761
 Gradient of SCF Energy
            1           2           3           4           5           6
    1  -0.0114221   0.0081046   0.0021937  -0.0034873  -0.0136601   0.0127482
    2  -0.0107756   0.0043396   0.0046055  -0.0151639  -0.0083446   0.0077627
    3  -0.0054487   0.0035084  -0.0007256  -0.0036530  -0.0117245   0.0107791
            7           8           9          10          11          12
    1   0.0029637  -0.0012617   0.0045796   0.0023438   0.0040388  -0.0014683
    2   0.0142511   0.0030376   0.0011168  -0.0021419   0.0057931  -0.0012108
    3   0.0045814   0.0022491   0.0030846  -0.0016077   0.0024313  -0.0005214
           13          14          15          16          17          18
    1  -0.0022216   0.0003350  -0.0043477   0.0041036  -0.0087080   0.0051657
    2   0.0042509  -0.0030217  -0.0001340  -0.0016404  -0.0067336   0.0040096
    3   0.0012838  -0.0013626   0.0003954  -0.0005797  -0.0045826   0.0018926
 Max gradient component =       1.516E-02
 RMS gradient           =       6.092E-03
 Computing fast CPCM-SWIG gradient
 Updating gradient with PCM contributions...
 -- total gradient after adding PCM contribution --
---------------------------------------------------
  Atom         X              Y              Z     
---------------------------------------------------
   1       0.001400      -0.000302       0.000220
   2      -0.000476      -0.000053      -0.000337
   3      -0.000286       0.000094       0.000081
   4      -0.000425       0.000122      -0.000015
   5       0.000046       0.000131      -0.000170
   6       0.000007      -0.000005       0.000009
   7       0.000000      -0.000017       0.000026
   8      -0.000101       0.000066       0.000195
   9      -0.000014      -0.000055      -0.000074
  10      -0.000018       0.000009       0.000030
  11      -0.000053       0.000041       0.000003
  12      -0.000021       0.000007       0.000020
  13      -0.000003      -0.000012       0.000034
  14      -0.000031      -0.000003       0.000003
  15      -0.000013       0.000003      -0.000039
  16      -0.000021      -0.000017       0.000004
  17       0.000010       0.000010       0.000010
  18      -0.000001      -0.000019       0.000002
---------------------------------------------------
 Number of fixed atoms: 0
 Gradient time:  CPU 279.65 s  wall 40.74 s
 ----------------------------------------------------------------
             Standard Nuclear Orientation (Angstroms)
    I     Atom           X                Y                Z
 ----------------------------------------------------------------
    1      C       0.8352394702    -0.6681514020    -0.6306477225
    2      H       1.7651329885    -0.3798744668    -0.1368918618
    3      H       0.6872968823     0.0495609770    -1.4752566625
    4      O      -0.2685539262    -0.5777826738     0.2514970380
    5      O       0.7696445387     1.3301087145    -2.6484583248
    6      H       1.4672087822     1.7881300037    -2.1474608362
    7      H      -0.2802905847     0.3092399403     0.6261923335
    8      C       0.9399723577    -2.0497663924    -1.2004410987
    9      C      -0.2020097447    -2.7699551489    -1.5426473336
   10      H      -1.1798318164    -2.3396848699    -1.3722310521
   11      C      -0.0898355621    -4.0356243578    -2.0997697725
   12      H      -0.9821700168    -4.5896770512    -2.3586557269
   13      C       1.1637147179    -4.5904522962    -2.3286019170
   14      H       1.2493165954    -5.5765014705    -2.7650174289
   15      C       2.3050060161    -3.8739787154    -1.9949876305
   16      H       3.2836812244    -4.3016584249    -2.1667677019
   17      C       2.1921867287    -2.6108387719    -1.4293305320
   18      H       3.0819979489    -2.0557486938    -1.1594536697
 ----------------------------------------------------------------
 Nuclear Repulsion Energy =         412.55486612 hartrees
 There are       34 alpha and       33 beta electrons
 Discretize the solute cavity surface with Lebedev spheres
	Using 110 Lebedev grid points for each H atom
	Using 194 Lebedev grid points for other atoms
	Atomic van der Waals radii will be scaled by 1.20
 Remove points where switching function is < 1.0e-08
 Keep 1389 surface tesserae and discard 1347 interior tesserae
 Molecular Surface Area = 166.042 Angst**2
 Requested basis set is 6-311++G(2df,2p)
 There are 126 shells and 396 basis functions
 A cutoff of  1.0D-12 yielded   6980 shell pairs
 There are     68917 function pairs (     85073 Cartesian)
 Smallest overlap matrix eigenvalue = 8.27E-07
 Linear dependence detected in AO basis
 Tighter screening thresholds may be required for diffuse basis sets
 Use S2THRESH > 14 and THRESH = 14 in case of SCF convergence issues
 Number of orthogonalized atomic orbitals = 395
 Maximum deviation from orthogonality = 5.228E-11
 Guess MOs from SCF MO coefficient file

 -----------------------------------------------------------------------
  General SCF calculation program by
  Eric Jon Sundstrom, Paul Horn, Yuezhi Mao, Dmitri Zuev, Alec White,
  David Stuck, Shaama M.S., Shane Yost, Joonho Lee, David Small,
  Daniel Levine, Susi Lehtola, Hugh Burton, Evgeny Epifanovsky,
  Bang C. Huynh
 -----------------------------------------------------------------------
 Exchange:     0.1500 Hartree-Fock + 1.0000 wB97M-V + LR-HF
 Correlation:  1.0000 wB97M-V
 Using SG-2 standard quadrature grid
 Nonlocal Correlation:  VV10 with C = 0.0100 and b = 6.00 and scale = 1.00000
 Grid used for NLC:  SG-1 standard quadrature
 
 Citation of the SMD model:
 Marenich, A.V.; Cramer, C.J.; Truhlar, D.G.
 J. Phys. Chem. B 2009, 113, 6378-6396.
 iSolventCode=           1
 Solvent: water                                                           
 
 vradii
            1           2           3           4           5           6
    1   1.8500000   1.2000000   1.2000000   1.5200000   1.5200000   1.2000000
            7           8           9          10          11          12
    1   1.2000000   1.8500000   1.8500000   1.2000000   1.8500000   1.2000000
           13          14          15          16          17          18
    1   1.8500000   1.2000000   1.8500000   1.2000000   1.8500000   1.2000000
 -------------------------------------------------------
 OpenMP BLAS3 based DFT computing Module                
 Release: version 1.0, May 2013, Q-Chem Inc. Pittsburgh 
 -------------------------------------------------------
 A unrestricted SCF calculation will be
 performed using Roothaan-Hall, DIIS, GDM
 SCF converges when RMS gradient is below 1.0e-07
 ---------------------------------------
  Cycle       Energy         DIIS error
 ---------------------------------------
    1    -422.4718218316      2.13e-04  Roothaan Step
 ---------------------------------------
  Cycle       Energy         DIIS error
 ---------------------------------------
    1    -422.4964268006      2.37e-04  
    2    -422.5014451944      1.69e-04  Done DIIS. Switching to GDM
 ---------------------------------------
  Cycle       Energy        RMS Gradient
 ---------------------------------------
    1    -422.5014451944      5.27e-03   Normal BFGS step
    2    -422.5018916578      5.10e-03   Normal BFGS step
    3    -422.5032015345      5.21e-04   Normal BFGS step
    4    -422.5032162140      3.89e-04   Normal BFGS step
    5    -422.5032242613      1.62e-04   Normal BFGS step
    6    -422.5032244780      1.02e-04   Normal BFGS step
    7    -422.5032246009      7.59e-05   Normal BFGS step
    8    -422.5032246122      4.87e-05   Normal BFGS step
    9    -422.5032246191      1.96e-05   Normal BFGS step
   10    -422.5032246205      1.79e-05   Normal BFGS step
   11    -422.5032246213      1.66e-05   Normal BFGS step
   12    -422.5032246221      1.39e-05   Normal BFGS step
   13    -422.5032246231      9.82e-06   Normal BFGS step
   14    -422.5032246243      5.97e-06   Normal BFGS step
   15    -422.5032246248      4.00e-06   Normal BFGS step
   16    -422.5032246250      1.97e-06   Normal BFGS step
   17    -422.5032246250      1.10e-06   Normal BFGS step
   18    -422.5032246250      6.23e-07   Normal BFGS step
   19    -422.5032246250      1.98e-07   Normal BFGS step
   20    -422.5032246250      8.14e-08  Convergence criterion met
 ---------------------------------------
 SCF time:   CPU 2070.09s  wall 263.00s 
<S^2> =          0.755483913
(3)  G-ENP(liq) elect-nuc-pol free energy of system     -422.503224625 a.u.
(4)  G-CDS(liq) cavity-dispersion-solvent structure 
     free energy                                                3.8923 kcal/mol
(6)  G-S(liq) free energy of system                     -422.497021874 a.u.
 SCF   energy in the final basis set =     -422.4970218745
 Total energy in the final basis set =     -422.4970218745
 
 --------------------------------------------------------------
 
                    Orbital Energies (a.u.)
 --------------------------------------------------------------
 
 Alpha MOs
 -- Occupied --
-19.3905 -19.3444 -10.3965 -10.3542 -10.3439 -10.3435 -10.3432 -10.3427
-10.3423  -1.1646  -1.1342  -0.9887  -0.8948  -0.8704  -0.7992  -0.7242
 -0.6983  -0.6370  -0.6234  -0.5932  -0.5776  -0.5601  -0.5426  -0.5285
 -0.5200  -0.5073  -0.4813  -0.4647  -0.4567  -0.4396  -0.4310  -0.3907
 -0.3479  -0.3353
 -- Virtual --
  0.0229   0.0327   0.0370   0.0507   0.0520   0.0540   0.0583   0.0641
  0.0790   0.0842   0.0916   0.0957   0.1106   0.1231   0.1312   0.1368
  0.1481   0.1539   0.1583   0.1600   0.1626   0.1685   0.1722   0.1783
  0.1830   0.1876   0.1879   0.1981   0.2064   0.2102   0.2145   0.2197
  0.2349   0.2383   0.2479   0.2512   0.2646   0.2669   0.2725   0.2751
  0.2816   0.2862   0.2968   0.3049   0.3098   0.3158   0.3352   0.3434
  0.3496   0.3563   0.3620   0.3697   0.3722   0.3833   0.4015   0.4089
  0.4211   0.4317   0.4362   0.4441   0.4580   0.4726   0.5373   0.5453
  0.5686   0.5710   0.5926   0.5954   0.6018   0.6099   0.6134   0.6179
  0.6235   0.6287   0.6301   0.6578   0.6606   0.6763   0.6839   0.6955
  0.7084   0.7166   0.7200   0.7259   0.7353   0.7420   0.7447   0.7547
  0.7649   0.7720   0.7764   0.7865   0.7920   0.8221   0.8270   0.8358
  0.8379   0.8500   0.8527   0.8692   0.8772   0.8898   0.8982   0.9087
  0.9219   0.9400   0.9684   0.9914   0.9966   1.0181   1.0329   1.0539
  1.0704   1.0753   1.0985   1.1154   1.1167   1.1251   1.1383   1.1720
  1.1747   1.1824   1.1889   1.2051   1.2065   1.2269   1.2439   1.2485
  1.2690   1.2875   1.2941   1.3198   1.3365   1.3657   1.3725   1.3813
  1.3938   1.4072   1.4211   1.4307   1.4346   1.4503   1.4603   1.4650
  1.4766   1.4864   1.5049   1.5198   1.5380   1.5599   1.5655   1.5788
  1.5890   1.5935   1.6118   1.6449   1.6625   1.6959   1.7153   1.7238
  1.7804   1.7981   1.8187   1.8255   1.8277   1.8742   1.8800   1.9078
  1.9508   1.9896   2.0748   2.0850   2.0896   2.1065   2.1607   2.2367
  2.2565   2.3007   2.3315   2.3812   2.4210   2.5710   2.5808   2.6075
  2.6281   2.6523   2.6940   2.7221   2.7289   2.7503   2.7998   2.8132
  2.8243   2.8273   2.8325   2.8564   2.8617   2.8794   2.8835   2.9102
  2.9130   2.9247   2.9279   2.9350   2.9403   2.9456   2.9637   2.9805
  3.0124   3.0290   3.0406   3.0665   3.0897   3.1554   3.1772   3.1819
  3.2122   3.2183   3.2313   3.2368   3.2537   3.2611   3.2682   3.2776
  3.2870   3.3078   3.3401   3.3667   3.3797   3.3826   3.3949   3.4193
  3.4391   3.4685   3.4735   3.4827   3.5027   3.5096   3.5260   3.5405
  3.5523   3.5718   3.5880   3.6161   3.6297   3.6465   3.6630   3.6826
  3.7201   3.7322   3.7380   3.7818   3.7945   3.8151   3.8223   3.8276
  3.8504   3.8688   3.8848   3.8995   3.9079   3.9102   3.9345   3.9407
  3.9597   3.9695   3.9911   4.0040   4.0763   4.1020   4.1289   4.1369
  4.1526   4.1744   4.1837   4.1942   4.1966   4.2291   4.2511   4.2881
  4.3202   4.3408   4.3681   4.4005   4.4190   4.4364   4.4425   4.4590
  4.4649   4.5223   4.5449   4.5638   4.5736   4.5804   4.5910   4.6078
  4.6300   4.6505   4.7295   4.7474   4.7915   4.8200   4.8478   4.8754
  4.9671   5.0693   5.0706   5.0758   5.1048   5.1412   5.1717   5.1745
  5.1888   5.1942   5.2187   5.2428   5.2651   5.2844   5.3189   5.3329
  5.3462   5.3905   5.4816   5.5096   5.5635   5.6139   5.6165   5.6399
  5.6689   5.6871   5.7574   5.8428   5.8734   5.8878   5.9511   5.9970
  6.0475   6.2819   6.6350   6.6544   6.8277   6.9641   6.9703   7.0863
  7.1176   7.2308   7.3183   7.3333   7.3659   7.5088   7.6543   7.8057
 24.1859  24.7963  24.8036  24.8135  25.0482  25.0654  25.5304  50.4326
 50.5981
 
 Beta MOs
 -- Occupied --
-19.3679 -19.3437 -10.3941 -10.3543 -10.3437 -10.3435 -10.3432 -10.3426
-10.3421  -1.1627  -1.0727  -0.9884  -0.8936  -0.8702  -0.7956  -0.7240
 -0.6970  -0.6321  -0.6229  -0.5780  -0.5594  -0.5552  -0.5381  -0.5269
 -0.5194  -0.4807  -0.4703  -0.4393  -0.4324  -0.4273  -0.3934  -0.3473
 -0.3390
 -- Virtual --
 -0.0761   0.0234   0.0330   0.0372   0.0516   0.0523   0.0543   0.0589
  0.0666   0.0797   0.0844   0.0919   0.0960   0.1113   0.1240   0.1319
  0.1375   0.1484   0.1540   0.1586   0.1613   0.1637   0.1687   0.1727
  0.1788   0.1836   0.1879   0.1882   0.1997   0.2076   0.2123   0.2149
  0.2202   0.2372   0.2397   0.2497   0.2522   0.2649   0.2676   0.2729
  0.2765   0.2830   0.2877   0.2983   0.3070   0.3110   0.3170   0.3360
  0.3454   0.3508   0.3569   0.3623   0.3707   0.3757   0.3840   0.4035
  0.4136   0.4248   0.4322   0.4377   0.4500   0.4619   0.4737   0.5377
  0.5475   0.5699   0.5719   0.5945   0.5963   0.6022   0.6105   0.6141
  0.6188   0.6253   0.6297   0.6320   0.6583   0.6615   0.6770   0.6844
  0.6962   0.7089   0.7181   0.7211   0.7262   0.7357   0.7425   0.7453
  0.7553   0.7653   0.7728   0.7773   0.7876   0.7932   0.8240   0.8283
  0.8361   0.8378   0.8513   0.8540   0.8703   0.8780   0.8908   0.8991
  0.9092   0.9235   0.9412   0.9706   0.9933   0.9992   1.0207   1.0366
  1.0548   1.0719   1.0758   1.0992   1.1174   1.1189   1.1282   1.1395
  1.1728   1.1788   1.1849   1.1893   1.2081   1.2275   1.2433   1.2467
  1.2537   1.2706   1.2881   1.2968   1.3218   1.3387   1.3675   1.3766
  1.3839   1.3945   1.4090   1.4231   1.4328   1.4374   1.4510   1.4612
  1.4688   1.4792   1.4903   1.5064   1.5282   1.5394   1.5607   1.5670
  1.5806   1.5939   1.5982   1.6152   1.6650   1.6713   1.7076   1.7183
  1.7381   1.7826   1.7997   1.8188   1.8259   1.8331   1.8821   1.8910
  1.9113   1.9764   1.9922   2.0755   2.0853   2.0901   2.1070   2.1627
  2.2403   2.2629   2.3064   2.3531   2.3858   2.4219   2.5710   2.5819
  2.6077   2.6283   2.6559   2.6951   2.7235   2.7317   2.7639   2.8008
  2.8130   2.8247   2.8286   2.8327   2.8570   2.8630   2.8807   2.8841
  2.9106   2.9138   2.9260   2.9286   2.9360   2.9400   2.9465   2.9641
  2.9807   3.0126   3.0298   3.0409   3.0673   3.0911   3.1578   3.1777
  3.1823   3.2129   3.2198   3.2320   3.2373   3.2546   3.2620   3.2690
  3.2780   3.2888   3.3088   3.3413   3.3677   3.3807   3.3843   3.3956
  3.4195   3.4396   3.4696   3.4742   3.4832   3.5032   3.5103   3.5267
  3.5415   3.5543   3.5732   3.5900   3.6171   3.6306   3.6477   3.6645
  3.6856   3.7286   3.7357   3.7425   3.7845   3.7969   3.8165   3.8280
  3.8288   3.8524   3.8701   3.8869   3.9009   3.9094   3.9134   3.9362
  3.9422   3.9605   3.9705   3.9919   4.0068   4.0781   4.1042   4.1303
  4.1385   4.1534   4.1747   4.1853   4.1954   4.1986   4.2370   4.2517
  4.2886   4.3199   4.3416   4.3694   4.3996   4.4190   4.4372   4.4422
  4.4592   4.4642   4.5227   4.5461   4.5642   4.5740   4.5808   4.5917
  4.6082   4.6308   4.6515   4.7300   4.7484   4.7924   4.8207   4.8485
  4.8758   4.9708   5.0702   5.1238   5.1249   5.1311   5.1791   5.1834
  5.1883   5.2146   5.2266   5.2583   5.2704   5.2908   5.3094   5.3344
  5.3548   5.3643   5.4028   5.4830   5.5105   5.5679   5.6345   5.6401
  5.6697   5.6799   5.6893   5.7595   5.8435   5.8745   5.8882   5.9516
  5.9984   6.0486   6.2825   6.6379   6.6548   6.9327   7.0036   7.0721
  7.1118   7.1689   7.2972   7.3210   7.3405   7.3727   7.5782   7.6575
  7.8070  24.1860  24.7964  24.8041  24.8150  25.0483  25.0655  25.5305
 50.4483  50.5987
 --------------------------------------------------------------
 
          Ground-State Mulliken Net Atomic Charges

     Atom                 Charge (a.u.)    Spin (a.u.)
  --------------------------------------------------------
      1 C                    -0.632483       0.115115
      2 H                     0.238915       0.000259
      3 H                     0.286684      -0.033910
      4 O                    -0.382556       0.022451
      5 O                    -0.411580       0.885353
      6 H                     0.337700      -0.013253
      7 H                     0.335702      -0.000228
      8 C                     0.579671       0.013173
      9 C                     0.171683       0.000277
     10 H                     0.277696      -0.000334
     11 C                    -0.347692      -0.008456
     12 H                     0.284516       0.000105
     13 C                    -0.445277       0.014637
     14 H                     0.277185      -0.000312
     15 C                    -0.309866      -0.007627
     16 H                     0.289304       0.000195
     17 C                    -0.815180       0.013178
     18 H                     0.265579      -0.000620
  --------------------------------------------------------
  Sum of atomic charges =    -0.000000
  Sum of spin   charges =     1.000000

 -----------------------------------------------------------------
                    Cartesian Multipole Moments
 -----------------------------------------------------------------
    Charge (ESU x 10^10)
                -0.0000
    Dipole Moment (Debye)
         X       2.8664      Y       1.9102      Z       1.3929
       Tot       3.7156
    Quadrupole Moments (Debye-Ang)
        XX     -45.5331     XY       1.5687     YY     -47.7015
        XZ      -1.9249     YZ       5.9501     ZZ     -63.4535
    Octopole Moments (Debye-Ang^2)
       XXX    -115.8077    XXY     105.4102    XYY     -33.2642
       YYY     319.7604    XXZ      68.8132    XYZ      -2.2411
       YYZ      45.6490    XZZ     -50.1546    YZZ     110.2877
       ZZZ     286.1547
    Hexadecapole Moments (Debye-Ang^3)
      XXXX    -537.3553   XXXY     315.3856   XXYY    -477.2163
      XYYY     334.8753   YYYY   -2476.8986   XXXZ     213.5841
      XXYZ    -175.5134   XYYZ      35.7652   YYYZ    -424.8689
      XXZZ    -266.4279   XYZZ     127.9181   YYZZ    -561.9160
      XZZZ     276.9321   YZZZ    -618.7445   ZZZZ   -1205.2205
 -----------------------------------------------------------------
 Calculating analytic gradient of the SCF energy
 Gradient of CDS energy
            1           2           3           4           5           6
    1  -0.0002425   0.0001602   0.0000743   0.0003407  -0.0002475   0.0002636
    2   0.0004456  -0.0001514  -0.0000512  -0.0002025  -0.0002298   0.0004405
    3   0.0005722  -0.0000362  -0.0000282  -0.0004962  -0.0001057  -0.0000626
            7           8           9          10          11          12
    1  -0.0003050  -0.0001043  -0.0002507  -0.0001343  -0.0004300  -0.0001713
    2   0.0002469   0.0000849   0.0002152   0.0001142  -0.0002438  -0.0001064
    3   0.0003651  -0.0000275   0.0000838   0.0000835  -0.0001125  -0.0000497
           13          14          15          16          17          18
    1   0.0000428   0.0000164   0.0004687   0.0001879   0.0002095   0.0001215
    2  -0.0004779  -0.0001891  -0.0001914  -0.0000821   0.0002519   0.0001264
    3  -0.0002114  -0.0000837  -0.0000828  -0.0000330   0.0001491   0.0000760
 Gradient of SCF Energy
            1           2           3           4           5           6
    1  -0.0136308   0.0089314   0.0023972  -0.0026664  -0.0136489   0.0127418
    2  -0.0108253   0.0045204   0.0045004  -0.0152199  -0.0083409   0.0077670
    3  -0.0055426   0.0039114  -0.0005850  -0.0041194  -0.0117206   0.0107699
            7           8           9          10          11          12
    1   0.0029746  -0.0009104   0.0045276   0.0023326   0.0040623  -0.0014689
    2   0.0142831   0.0030224   0.0012048  -0.0021345   0.0057986  -0.0012049
    3   0.0045922   0.0022551   0.0031170  -0.0016016   0.0024295  -0.0005176
           13          14          15          16          17          18
    1  -0.0022117   0.0003342  -0.0043325   0.0040992  -0.0086831   0.0051517
    2   0.0042549  -0.0030188  -0.0001387  -0.0016433  -0.0068196   0.0039944
    3   0.0012844  -0.0013612   0.0003947  -0.0005811  -0.0046095   0.0018845
 Max gradient component =       1.522E-02
 RMS gradient           =       6.206E-03
 Computing fast CPCM-SWIG gradient
 Updating gradient with PCM contributions...
 -- total gradient after adding PCM contribution --
---------------------------------------------------
  Atom         X              Y              Z     
---------------------------------------------------
   1      -0.000822      -0.000369       0.000113
   2       0.000383       0.000148       0.000085
   3      -0.000094      -0.000009       0.000212
   4       0.000367       0.000086      -0.000460
   5       0.000049       0.000132      -0.000168
   6       0.000009       0.000002       0.000005
   7       0.000021      -0.000007       0.000021
   8       0.000246       0.000054       0.000206
   9      -0.000049       0.000045      -0.000039
  10      -0.000016       0.000006       0.000029
  11      -0.000034       0.000052       0.000006
  12      -0.000022       0.000012       0.000023
  13       0.000002      -0.000012       0.000034
  14      -0.000031      -0.000003       0.000003
  15       0.000003      -0.000003      -0.000041
  16      -0.000021      -0.000021       0.000002
  17       0.000011      -0.000093      -0.000030
  18      -0.000003      -0.000023      -0.000001
---------------------------------------------------
 Number of fixed atoms: 0
 Gradient time:  CPU 282.96 s  wall 42.49 s
 ----------------------------------------------------------------
             Standard Nuclear Orientation (Angstroms)
    I     Atom           X                Y                Z
 ----------------------------------------------------------------
    1      C       0.8362394702    -0.6671514020    -0.6306477225
    2      H       1.7651329885    -0.3798744668    -0.1368918618
    3      H       0.6872968823     0.0495609770    -1.4752566625
    4      O      -0.2685539262    -0.5777826738     0.2514970380
    5      O       0.7696445387     1.3301087145    -2.6484583248
    6      H       1.4672087822     1.7881300037    -2.1474608362
    7      H      -0.2802905847     0.3092399403     0.6261923335
    8      C       0.9399723577    -2.0497663924    -1.2004410987
    9      C      -0.2020097447    -2.7699551489    -1.5426473336
   10      H      -1.1798318164    -2.3396848699    -1.3722310521
   11      C      -0.0898355621    -4.0356243578    -2.0997697725
   12      H      -0.9821700168    -4.5896770512    -2.3586557269
   13      C       1.1637147179    -4.5904522962    -2.3286019170
   14      H       1.2493165954    -5.5765014705    -2.7650174289
   15      C       2.3050060161    -3.8739787154    -1.9949876305
   16      H       3.2836812244    -4.3016584249    -2.1667677019
   17      C       2.1921867287    -2.6108387719    -1.4293305320
   18      H       3.0819979489    -2.0557486938    -1.1594536697
 ----------------------------------------------------------------
 Nuclear Repulsion Energy =         412.53708271 hartrees
 There are       34 alpha and       33 beta electrons
 Discretize the solute cavity surface with Lebedev spheres
	Using 110 Lebedev grid points for each H atom
	Using 194 Lebedev grid points for other atoms
	Atomic van der Waals radii will be scaled by 1.20
 Remove points where switching function is < 1.0e-08
 Keep 1389 surface tesserae and discard 1347 interior tesserae
 Molecular Surface Area = 166.046 Angst**2
 Requested basis set is 6-311++G(2df,2p)
 There are 126 shells and 396 basis functions
 A cutoff of  1.0D-12 yielded   6980 shell pairs
 There are     68917 function pairs (     85073 Cartesian)
 Smallest overlap matrix eigenvalue = 8.27E-07
 Linear dependence detected in AO basis
 Tighter screening thresholds may be required for diffuse basis sets
 Use S2THRESH > 14 and THRESH = 14 in case of SCF convergence issues
 Number of orthogonalized atomic orbitals = 395
 Maximum deviation from orthogonality = 9.535E-11
 Guess MOs from SCF MO coefficient file

 -----------------------------------------------------------------------
  General SCF calculation program by
  Eric Jon Sundstrom, Paul Horn, Yuezhi Mao, Dmitri Zuev, Alec White,
  David Stuck, Shaama M.S., Shane Yost, Joonho Lee, David Small,
  Daniel Levine, Susi Lehtola, Hugh Burton, Evgeny Epifanovsky,
  Bang C. Huynh
 -----------------------------------------------------------------------
 Exchange:     0.1500 Hartree-Fock + 1.0000 wB97M-V + LR-HF
 Correlation:  1.0000 wB97M-V
 Using SG-2 standard quadrature grid
 Nonlocal Correlation:  VV10 with C = 0.0100 and b = 6.00 and scale = 1.00000
 Grid used for NLC:  SG-1 standard quadrature
 
 Citation of the SMD model:
 Marenich, A.V.; Cramer, C.J.; Truhlar, D.G.
 J. Phys. Chem. B 2009, 113, 6378-6396.
 iSolventCode=           1
 Solvent: water                                                           
 
 vradii
            1           2           3           4           5           6
    1   1.8500000   1.2000000   1.2000000   1.5200000   1.5200000   1.2000000
            7           8           9          10          11          12
    1   1.2000000   1.8500000   1.8500000   1.2000000   1.8500000   1.2000000
           13          14          15          16          17          18
    1   1.8500000   1.2000000   1.8500000   1.2000000   1.8500000   1.2000000
 -------------------------------------------------------
 OpenMP BLAS3 based DFT computing Module                
 Release: version 1.0, May 2013, Q-Chem Inc. Pittsburgh 
 -------------------------------------------------------
 A unrestricted SCF calculation will be
 performed using Roothaan-Hall, DIIS, GDM
 SCF converges when RMS gradient is below 1.0e-07
 ---------------------------------------
  Cycle       Energy         DIIS error
 ---------------------------------------
    1    -422.4718476480      2.12e-04  Roothaan Step
 ---------------------------------------
  Cycle       Energy         DIIS error
 ---------------------------------------
    1    -422.4964110382      2.37e-04  
    2    -422.5014310861      1.70e-04  Done DIIS. Switching to GDM
 ---------------------------------------
  Cycle       Energy        RMS Gradient
 ---------------------------------------
    1    -422.5014310861      5.30e-03   Normal BFGS step
    2    -422.5018749692      5.16e-03   Normal BFGS step
    3    -422.5032021257      5.26e-04   Normal BFGS step
    4    -422.5032168643      3.92e-04   Normal BFGS step
    5    -422.5032249657      1.55e-04   Normal BFGS step
    6    -422.5032251799      9.66e-05   Normal BFGS step
    7    -422.5032253009      7.18e-05   Normal BFGS step
    8    -422.5032253105      4.64e-05   Normal BFGS step
    9    -422.5032253156      1.02e-05   Normal BFGS step
   10    -422.5032253165      6.97e-06   Normal BFGS step
   11    -422.5032253167      6.65e-06   Normal BFGS step
   12    -422.5032253168      6.13e-06   Normal BFGS step
   13    -422.5032253169      5.42e-06   Normal BFGS step
   14    -422.5032253171      3.43e-06   Normal BFGS step
   15    -422.5032253172      2.41e-06   Normal BFGS step
   16    -422.5032253173      1.78e-06   Normal BFGS step
   17    -422.5032253173      1.03e-06   Normal BFGS step
   18    -422.5032253173      6.10e-07   Normal BFGS step
   19    -422.5032253173      3.28e-07   Normal BFGS step
   20    -422.5032253173      1.86e-07   Normal BFGS step
   21    -422.5032253173      1.07e-07   Normal BFGS step
   22    -422.5032253173      6.23e-08  Convergence criterion met
 ---------------------------------------
 SCF time:   CPU 2200.97s  wall 279.00s 
<S^2> =          0.755462959
(3)  G-ENP(liq) elect-nuc-pol free energy of system     -422.503225317 a.u.
(4)  G-CDS(liq) cavity-dispersion-solvent structure 
     free energy                                                3.8926 kcal/mol
(6)  G-S(liq) free energy of system                     -422.497022114 a.u.
 SCF   energy in the final basis set =     -422.4970221144
 Total energy in the final basis set =     -422.4970221144
 
 --------------------------------------------------------------
 
                    Orbital Energies (a.u.)
 --------------------------------------------------------------
 
 Alpha MOs
 -- Occupied --
-19.3906 -19.3443 -10.3964 -10.3542 -10.3438 -10.3435 -10.3432 -10.3427
-10.3423  -1.1643  -1.1342  -0.9887  -0.8947  -0.8704  -0.7992  -0.7242
 -0.6983  -0.6369  -0.6233  -0.5933  -0.5776  -0.5601  -0.5427  -0.5284
 -0.5200  -0.5073  -0.4813  -0.4648  -0.4567  -0.4395  -0.4310  -0.3908
 -0.3479  -0.3354
 -- Virtual --
  0.0229   0.0327   0.0370   0.0507   0.0520   0.0540   0.0583   0.0641
  0.0790   0.0842   0.0916   0.0957   0.1106   0.1231   0.1312   0.1368
  0.1481   0.1539   0.1583   0.1600   0.1626   0.1685   0.1722   0.1783
  0.1830   0.1876   0.1879   0.1981   0.2064   0.2103   0.2145   0.2197
  0.2349   0.2382   0.2479   0.2512   0.2646   0.2669   0.2725   0.2751
  0.2816   0.2862   0.2968   0.3049   0.3098   0.3158   0.3353   0.3434
  0.3495   0.3563   0.3620   0.3697   0.3722   0.3833   0.4015   0.4089
  0.4211   0.4317   0.4362   0.4441   0.4581   0.4725   0.5373   0.5453
  0.5686   0.5710   0.5926   0.5954   0.6018   0.6099   0.6134   0.6179
  0.6235   0.6286   0.6301   0.6577   0.6605   0.6763   0.6839   0.6954
  0.7084   0.7167   0.7200   0.7258   0.7353   0.7420   0.7447   0.7547
  0.7649   0.7721   0.7765   0.7865   0.7921   0.8222   0.8270   0.8358
  0.8379   0.8499   0.8527   0.8692   0.8772   0.8898   0.8982   0.9087
  0.9219   0.9401   0.9684   0.9914   0.9967   1.0181   1.0329   1.0539
  1.0703   1.0753   1.0985   1.1154   1.1167   1.1251   1.1383   1.1720
  1.1748   1.1824   1.1889   1.2050   1.2064   1.2269   1.2440   1.2486
  1.2690   1.2875   1.2940   1.3198   1.3365   1.3658   1.3726   1.3812
  1.3938   1.4071   1.4211   1.4307   1.4346   1.4503   1.4604   1.4651
  1.4766   1.4864   1.5049   1.5197   1.5380   1.5598   1.5658   1.5788
  1.5889   1.5936   1.6118   1.6448   1.6626   1.6959   1.7152   1.7238
  1.7804   1.7981   1.8187   1.8255   1.8277   1.8740   1.8799   1.9077
  1.9508   1.9894   2.0747   2.0851   2.0895   2.1064   2.1605   2.2360
  2.2564   2.3006   2.3316   2.3811   2.4210   2.5706   2.5807   2.6075
  2.6281   2.6520   2.6940   2.7221   2.7289   2.7502   2.7999   2.8132
  2.8243   2.8274   2.8325   2.8564   2.8617   2.8793   2.8834   2.9102
  2.9130   2.9246   2.9277   2.9349   2.9402   2.9457   2.9636   2.9805
  3.0124   3.0288   3.0405   3.0664   3.0895   3.1552   3.1772   3.1819
  3.2123   3.2183   3.2312   3.2368   3.2537   3.2612   3.2681   3.2776
  3.2872   3.3077   3.3400   3.3666   3.3795   3.3825   3.3947   3.4193
  3.4391   3.4683   3.4735   3.4829   3.5027   3.5095   3.5260   3.5406
  3.5524   3.5717   3.5878   3.6160   3.6297   3.6465   3.6634   3.6825
  3.7200   3.7321   3.7377   3.7824   3.7949   3.8150   3.8223   3.8276
  3.8506   3.8687   3.8846   3.8995   3.9079   3.9102   3.9343   3.9406
  3.9597   3.9696   3.9912   4.0042   4.0766   4.1023   4.1289   4.1370
  4.1526   4.1743   4.1834   4.1941   4.1966   4.2292   4.2510   4.2878
  4.3201   4.3408   4.3683   4.4006   4.4188   4.4373   4.4424   4.4590
  4.4650   4.5223   4.5450   4.5639   4.5734   4.5804   4.5909   4.6078
  4.6302   4.6509   4.7293   4.7472   4.7915   4.8198   4.8477   4.8754
  4.9674   5.0693   5.0705   5.0757   5.1048   5.1411   5.1717   5.1744
  5.1887   5.1942   5.2186   5.2428   5.2650   5.2843   5.3190   5.3332
  5.3462   5.3908   5.4816   5.5095   5.5638   5.6138   5.6165   5.6410
  5.6687   5.6867   5.7573   5.8428   5.8735   5.8877   5.9503   5.9966
  6.0457   6.2818   6.6330   6.6544   6.8276   6.9640   6.9702   7.0862
  7.1176   7.2308   7.3182   7.3331   7.3658   7.5087   7.6537   7.8056
 24.1858  24.7961  24.8034  24.8135  25.0480  25.0653  25.5302  50.4325
 50.5980
 
 Beta MOs
 -- Occupied --
-19.3680 -19.3436 -10.3940 -10.3544 -10.3437 -10.3435 -10.3432 -10.3426
-10.3421  -1.1625  -1.0727  -0.9884  -0.8935  -0.8702  -0.7956  -0.7240
 -0.6970  -0.6320  -0.6227  -0.5781  -0.5594  -0.5552  -0.5382  -0.5268
 -0.5194  -0.4807  -0.4704  -0.4392  -0.4324  -0.4274  -0.3935  -0.3473
 -0.3390
 -- Virtual --
 -0.0761   0.0234   0.0330   0.0372   0.0516   0.0523   0.0543   0.0589
  0.0666   0.0797   0.0844   0.0919   0.0960   0.1113   0.1240   0.1319
  0.1375   0.1484   0.1540   0.1586   0.1612   0.1637   0.1687   0.1727
  0.1788   0.1836   0.1879   0.1883   0.1997   0.2076   0.2123   0.2149
  0.2202   0.2372   0.2397   0.2496   0.2522   0.2649   0.2676   0.2729
  0.2764   0.2830   0.2877   0.2983   0.3070   0.3109   0.3170   0.3361
  0.3454   0.3507   0.3569   0.3622   0.3707   0.3757   0.3839   0.4035
  0.4136   0.4248   0.4322   0.4377   0.4500   0.4619   0.4736   0.5377
  0.5474   0.5699   0.5718   0.5945   0.5963   0.6022   0.6105   0.6141
  0.6188   0.6253   0.6297   0.6320   0.6582   0.6614   0.6770   0.6844
  0.6962   0.7089   0.7181   0.7211   0.7261   0.7357   0.7425   0.7453
  0.7553   0.7653   0.7729   0.7773   0.7876   0.7932   0.8240   0.8283
  0.8361   0.8378   0.8512   0.8540   0.8703   0.8780   0.8908   0.8991
[...]
 O          0.002  0.001  0.001    0.002  0.002  0.002   -0.000 -0.001 -0.000
 H          0.004  0.053 -0.050    0.005  0.065 -0.061   -0.001 -0.014  0.013
 H          0.024  0.008 -0.007    0.033  0.013 -0.012   -0.055 -0.010  0.036
 C          0.022  0.025 -0.064    0.030  0.030 -0.085   -0.001 -0.030  0.005
 C          0.008 -0.006 -0.010   -0.001 -0.030  0.051   -0.039 -0.054 -0.030
 H          0.012 -0.041  0.094    0.013  0.127 -0.266   -0.191 -0.362 -0.148
 C         -0.010 -0.039  0.065   -0.003  0.013 -0.063    0.180  0.037  0.020
 H          0.019  0.145 -0.430    0.036 -0.208  0.278    0.409 -0.244 -0.112
 C          0.016  0.074 -0.073    0.018  0.014  0.074   -0.017  0.141  0.061
 H          0.077 -0.183  0.522    0.113  0.186 -0.288   -0.036  0.151  0.076
 C         -0.018 -0.017  0.064   -0.030  0.041 -0.048   -0.178  0.010  0.005
 H          0.006  0.209 -0.341   -0.018 -0.071  0.323   -0.362 -0.313 -0.159
 C         -0.049 -0.029 -0.011   -0.055 -0.057  0.035    0.056 -0.043 -0.026
 H         -0.041 -0.068  0.026   -0.027  0.050 -0.294    0.243 -0.313 -0.104
 TransDip   0.041  0.042 -0.020    0.062  0.043 -0.049    0.007 -0.109 -0.047

 Mode:                25                     26                     27
 Frequency:      1104.05                1156.68                1161.02
 Force Cnst:      1.0894                 2.1547                 0.9084
 Red. Mass:       1.5170                 2.7335                 1.1439
 IR Active:          YES                    YES                    YES
 IR Intens:       31.831                102.628                  1.019
 Raman Active:       YES                    YES                    YES
               X      Y      Z        X      Y      Z        X      Y      Z
 C         -0.002  0.016 -0.060    0.216  0.047 -0.153   -0.014 -0.003 -0.002
 H         -0.025 -0.121  0.062    0.316 -0.181 -0.218   -0.038 -0.002  0.043
 H          0.096  0.109  0.025    0.138 -0.092 -0.153    0.003  0.035  0.026
 O         -0.021 -0.002  0.027   -0.154  0.034  0.121    0.005 -0.005 -0.003
 O         -0.001 -0.002  0.001   -0.001 -0.008  0.006   -0.000  0.000 -0.000
 H         -0.001 -0.021  0.020    0.002 -0.018  0.017   -0.000 -0.002  0.002
 H          0.012  0.013 -0.004   -0.508 -0.080  0.385    0.082  0.021 -0.059
 C          0.038 -0.025  0.016    0.010 -0.142 -0.053    0.014  0.013  0.010
 C         -0.042  0.092  0.030    0.018 -0.026 -0.014   -0.016 -0.006 -0.002
 H          0.140  0.435  0.243    0.057  0.022  0.033   -0.084 -0.134 -0.065
 C         -0.038 -0.051 -0.021    0.030  0.052  0.022   -0.035  0.034  0.014
 H          0.091 -0.230 -0.110   -0.115  0.252  0.111   -0.262  0.332  0.152
 C          0.069 -0.001  0.002    0.000 -0.020 -0.008    0.074  0.007  0.005
 H          0.501  0.031  0.015    0.029 -0.016 -0.008    0.703  0.052  0.026
 C         -0.059  0.056  0.024   -0.032  0.028  0.012   -0.022 -0.044 -0.020
 H          0.047  0.275  0.127   -0.029  0.039  0.015   -0.204 -0.393 -0.177
 C         -0.025 -0.090 -0.048   -0.011  0.012 -0.002   -0.017  0.005  0.000
 H          0.193 -0.407 -0.146   -0.200  0.242  0.132   -0.082  0.090  0.041
 TransDip   0.163  0.036 -0.070    0.129  0.132 -0.267    0.025 -0.019 -0.008

 Mode:                28                     29                     30
 Frequency:      1188.07                1216.66                1242.46
 Force Cnst:      0.9288                 1.5396                 1.0073
 Red. Mass:       1.1169                 1.7652                 1.1075
 IR Active:          YES                    YES                    YES
 IR Intens:        3.647                316.791                  2.848
 Raman Active:       YES                    YES                    YES
               X      Y      Z        X      Y      Z        X      Y      Z
 C         -0.010  0.003  0.013    0.120  0.002 -0.106   -0.036  0.027 -0.022
 H         -0.008  0.008  0.006   -0.044  0.107  0.133   -0.351  0.249  0.422
 H         -0.016 -0.010  0.002   -0.006  0.124  0.077    0.542 -0.322 -0.460
 O          0.011  0.003 -0.009   -0.112 -0.051  0.069    0.022 -0.011  0.039
 O          0.000  0.000  0.000   -0.001 -0.004  0.002   -0.000  0.001 -0.001
 H          0.000  0.003 -0.002   -0.001 -0.018  0.019    0.003 -0.008  0.001
 H         -0.036 -0.013  0.025    0.706  0.206 -0.473   -0.023 -0.008  0.030
 C         -0.003 -0.013 -0.008    0.051  0.074  0.058    0.036 -0.006 -0.035
 C          0.023  0.040  0.018   -0.019  0.000 -0.005   -0.011 -0.015 -0.001
 H          0.229  0.436  0.202   -0.091 -0.141 -0.042   -0.023 -0.028 -0.033
 C          0.032 -0.030 -0.012   -0.026 -0.019 -0.009   -0.005  0.011  0.005
 H          0.269 -0.345 -0.154    0.103 -0.196 -0.087    0.014 -0.011 -0.011
 C          0.002 -0.010 -0.004    0.005  0.003  0.002    0.008  0.004  0.001
 H          0.012 -0.009 -0.003   -0.137 -0.008 -0.005   -0.027  0.000  0.005
 C         -0.026 -0.034 -0.015    0.010 -0.030 -0.014   -0.012 -0.005 -0.003
 H         -0.213 -0.394 -0.182    0.006 -0.044 -0.016    0.021  0.063  0.020
 C         -0.029  0.036  0.016   -0.030  0.034  0.008   -0.017 -0.002  0.003
 H         -0.288  0.381  0.166   -0.067  0.072  0.058   -0.067  0.064  0.023
 TransDip  -0.045  0.014  0.039    0.374  0.076 -0.424   -0.019  0.010  0.050

 Mode:                31                     32                     33
 Frequency:      1247.16                1316.16                1351.17
 Force Cnst:      1.6542                 4.4418                 1.4311
 Red. Mass:       1.8051                 4.3520                 1.3305
 IR Active:          YES                    YES                    YES
 IR Intens:       10.445                  6.236                  4.314
 Raman Active:       YES                    YES                    YES
               X      Y      Z        X      Y      Z        X      Y      Z
 C          0.016 -0.058 -0.032   -0.046 -0.052 -0.011    0.025  0.025  0.009
 H          0.220 -0.361 -0.256    0.113 -0.347 -0.138   -0.015  0.105  0.034
 H          0.225 -0.420 -0.360   -0.064  0.030  0.080    0.045 -0.039 -0.058
 O         -0.030  0.001  0.027    0.024  0.036 -0.014   -0.013 -0.015  0.007
 O          0.000 -0.001  0.002   -0.000 -0.000  0.000    0.000  0.000 -0.000
 H          0.004  0.010 -0.013   -0.000  0.003 -0.001    0.000 -0.000 -0.001
 H         -0.209 -0.058  0.160   -0.337 -0.079  0.227    0.138  0.032 -0.092
 C         -0.068  0.201  0.059    0.256  0.062  0.029   -0.083 -0.019 -0.012
 C          0.023  0.056  0.029   -0.083 -0.156 -0.067   -0.021 -0.080 -0.035
 H         -0.068 -0.099 -0.059    0.020  0.050  0.013    0.255  0.446  0.201
 C         -0.032 -0.065 -0.029   -0.144  0.152  0.065    0.027  0.000  0.001
 H          0.037 -0.164 -0.079    0.208 -0.326 -0.138   -0.193  0.298  0.131
 C         -0.017  0.004  0.001    0.211  0.014  0.009    0.071  0.007  0.004
 H          0.059  0.005  0.004   -0.263 -0.018 -0.014   -0.310 -0.019 -0.012
 C          0.066 -0.029 -0.011   -0.093 -0.184 -0.083    0.016  0.008  0.004
 H         -0.055 -0.276 -0.131    0.128  0.239  0.116   -0.129 -0.275 -0.124
 C          0.015  0.024  0.016   -0.125  0.165  0.071   -0.027  0.064  0.029
 H          0.212 -0.210 -0.115    0.105 -0.132 -0.069    0.311 -0.381 -0.168
 TransDip   0.018  0.022 -0.099   -0.063 -0.035  0.035    0.054  0.033 -0.020

 Mode:                34                     35                     36
 Frequency:      1407.38                1445.38                1491.13
 Force Cnst:      1.2946                 1.9217                 2.9556
 Red. Mass:       1.1093                 1.5612                 2.2562
 IR Active:          YES                    YES                    YES
 IR Intens:      272.246                 30.330                 17.218
 Raman Active:       YES                    YES                    YES
               X      Y      Z        X      Y      Z        X      Y      Z
 C         -0.028 -0.086  0.008   -0.062  0.138  0.106    0.059 -0.033 -0.031
 H          0.075  0.498 -0.486    0.386 -0.297 -0.442   -0.155  0.226  0.200
 H          0.576  0.380  0.140    0.275 -0.199 -0.271   -0.092  0.039  0.057
 O         -0.016  0.001  0.014   -0.027 -0.048 -0.004    0.000  0.005  0.005
 O         -0.000  0.006 -0.007   -0.000  0.000 -0.000    0.000  0.000 -0.000
 H         -0.004 -0.030  0.024    0.002 -0.001 -0.003   -0.001  0.002 -0.001
 H         -0.051 -0.004  0.030    0.374  0.074 -0.251   -0.043 -0.008  0.029
 C         -0.001  0.010  0.010   -0.015 -0.035 -0.018   -0.161 -0.008 -0.007
 C          0.001  0.000 -0.001   -0.004 -0.045 -0.020    0.065 -0.076 -0.032
 H          0.005  0.004  0.005    0.070  0.094  0.040    0.175  0.097  0.045
 C         -0.002 -0.000 -0.000    0.012  0.044  0.020    0.004  0.123  0.055
 H          0.006 -0.011 -0.002    0.054 -0.003  0.001    0.292 -0.235 -0.101
 C          0.001 -0.000 -0.000   -0.021  0.010  0.004   -0.145 -0.012 -0.008
 H          0.003  0.000 -0.001    0.158  0.026  0.012    0.606  0.038  0.023
 C          0.001 -0.003 -0.001   -0.031 -0.039 -0.018    0.039 -0.121 -0.053
 H         -0.002 -0.009 -0.003    0.095  0.203  0.092    0.238  0.223  0.104
 C         -0.003  0.001  0.000    0.042 -0.011 -0.003    0.034  0.099  0.045
 H         -0.001 -0.002 -0.002   -0.048  0.121  0.049    0.232 -0.137 -0.057
 TransDip   0.008 -0.416  0.326    0.037  0.149  0.086    0.125 -0.030 -0.032

 Mode:                37                     38                     39
 Frequency:      1539.66                1655.43                1675.83
 Force Cnst:      3.4753                 9.9223                10.1013
 Red. Mass:       2.4883                 6.1453                 6.1047
 IR Active:          YES                    YES                    YES
 IR Intens:        6.485                  0.440                  0.216
 Raman Active:       YES                    YES                    YES
               X      Y      Z        X      Y      Z        X      Y      Z
 C          0.018 -0.064 -0.037    0.042 -0.002 -0.003   -0.013  0.046  0.023
 H         -0.074  0.004  0.082   -0.067  0.166  0.089    0.047  0.013 -0.059
 H         -0.067  0.001  0.032   -0.033 -0.002 -0.011    0.047  0.016  0.014
 O          0.004  0.009  0.001   -0.003 -0.007  0.000   -0.003 -0.004 -0.001
 O          0.000  0.000 -0.000    0.000  0.000 -0.000   -0.000 -0.001  0.001
 H         -0.000  0.001 -0.001   -0.000  0.002 -0.002    0.000  0.000  0.000
 H         -0.086 -0.020  0.059    0.027  0.003 -0.022    0.039  0.011 -0.030
 C         -0.013  0.155  0.067   -0.338 -0.027 -0.017    0.034 -0.223 -0.096
 C         -0.098 -0.063 -0.029    0.194  0.116  0.055    0.064  0.288  0.128
 H          0.117  0.382  0.170    0.010 -0.270 -0.118   -0.242 -0.283 -0.127
 C          0.125 -0.111 -0.048   -0.214  0.047  0.018    0.101 -0.255 -0.111
 H         -0.234  0.385  0.168   -0.044 -0.218 -0.097   -0.240  0.184  0.079
 C         -0.015  0.106  0.047    0.374  0.033  0.019   -0.020  0.126  0.055
 H         -0.002  0.129  0.057   -0.441 -0.021 -0.015   -0.004  0.145  0.066
 C         -0.098 -0.125 -0.057   -0.211 -0.099 -0.047   -0.045 -0.257 -0.116
 H          0.166  0.403  0.182   -0.064  0.233  0.105    0.205  0.198  0.093
 C          0.105 -0.047 -0.020    0.209 -0.073 -0.030   -0.129  0.278  0.123
 H         -0.173  0.347  0.153   -0.024  0.258  0.116    0.282 -0.258 -0.111
 TransDip  -0.004  0.078  0.024   -0.009 -0.019 -0.001   -0.002 -0.004 -0.014

 Mode:                40                     41                     42
 Frequency:      2453.29                3080.88                3182.83
 Force Cnst:      3.8160                 6.0650                 6.4917
 Red. Mass:       1.0761                 1.0845                 1.0876
 IR Active:          YES                    YES                    YES
 IR Intens:     3761.703                 42.808                  6.794
 Raman Active:       YES                    YES                    YES
               X      Y      Z        X      Y      Z        X      Y      Z
 C         -0.021  0.050 -0.055   -0.069 -0.023 -0.040   -0.001 -0.000 -0.000
 H         -0.029  0.070 -0.063    0.840  0.262  0.466    0.009  0.005  0.006
 H          0.204 -0.613  0.752   -0.009 -0.014 -0.002   -0.000  0.001 -0.000
 O          0.007  0.001 -0.008   -0.000  0.001  0.001   -0.000  0.000  0.000
 O         -0.001 -0.007  0.006   -0.000 -0.000  0.000   -0.000 -0.000  0.000
 H          0.014  0.006  0.013    0.001  0.001  0.000    0.000  0.000  0.000
 H          0.009 -0.015  0.004   -0.002 -0.003  0.005   -0.000 -0.000  0.000
 C         -0.003  0.004 -0.002   -0.001  0.001 -0.000    0.002 -0.002 -0.001
 C         -0.001 -0.002 -0.001    0.000  0.000  0.000    0.007 -0.002 -0.001
 H         -0.001  0.003 -0.001    0.002 -0.001 -0.000   -0.075  0.032  0.013
 C         -0.000  0.001  0.001   -0.000  0.000  0.000   -0.013 -0.008 -0.004
 H         -0.002 -0.000  0.000    0.001  0.000  0.000    0.159  0.099  0.046
 C          0.000  0.000  0.000    0.000 -0.000  0.000   -0.002  0.020  0.009
 H          0.000 -0.000 -0.001    0.000  0.001 -0.000    0.021 -0.245 -0.109
 C         -0.000  0.000  0.001    0.000 -0.000  0.000    0.037 -0.014 -0.006
 H          0.002  0.001  0.001    0.001 -0.001 -0.000   -0.430  0.186  0.075
 C          0.002 -0.000 -0.001    0.001  0.001  0.001   -0.058 -0.035 -0.017
 H          0.003  0.003 -0.001   -0.009 -0.007 -0.005    0.665  0.411  0.200
 TransDip   0.143  1.598 -1.133   -0.190 -0.043 -0.078   -0.043 -0.065 -0.031

 Mode:                43                     44                     45
 Frequency:      3189.27                3197.60                3205.25
 Force Cnst:      6.5179                 6.5736                 6.6275
 Red. Mass:       1.0876                 1.0912                 1.0949
 IR Active:          YES                    YES                    YES
 IR Intens:        0.384                 14.610                 35.203
 Raman Active:       YES                    YES                    YES
               X      Y      Z        X      Y      Z        X      Y      Z
 C          0.001  0.000  0.000    0.000  0.000  0.000   -0.001 -0.000  0.000
 H         -0.003 -0.002 -0.002   -0.004 -0.003 -0.003    0.000 -0.001 -0.000
 H          0.000 -0.001  0.001    0.000 -0.002  0.001   -0.000 -0.000  0.000
 O         -0.000 -0.000 -0.000    0.000  0.000  0.000    0.000  0.000  0.000
 O          0.000  0.000 -0.000    0.000  0.000 -0.000    0.000  0.000 -0.000
 H         -0.000 -0.000 -0.000   -0.000 -0.000 -0.000   -0.000 -0.000 -0.000
 H         -0.000 -0.000 -0.000    0.001  0.000 -0.000    0.001  0.000  0.000
 C         -0.002  0.000  0.000   -0.000  0.002  0.001    0.003  0.001  0.000
 C          0.031 -0.012 -0.005   -0.042  0.017  0.007   -0.051  0.024  0.009
 H         -0.364  0.159  0.063    0.485 -0.211 -0.084    0.577 -0.255 -0.101
 C         -0.046 -0.029 -0.013    0.024  0.012  0.005   -0.028 -0.021 -0.010
 H          0.540  0.336  0.157   -0.255 -0.155 -0.073    0.328  0.208  0.097
 C         -0.002  0.038  0.017   -0.006  0.040  0.018    0.002  0.020  0.009
 H          0.037 -0.443 -0.196    0.043 -0.467 -0.207    0.016 -0.228 -0.101
 C          0.005 -0.004 -0.002    0.037 -0.019 -0.008   -0.045  0.020  0.008
 H         -0.064  0.030  0.012   -0.442  0.197  0.079    0.507 -0.223 -0.090
 C          0.029  0.018  0.009    0.024  0.016  0.008   -0.015 -0.012 -0.006
 H         -0.329 -0.204 -0.100   -0.270 -0.168 -0.082    0.176  0.112  0.054
 TransDip   0.008  0.012  0.013    0.069  0.091  0.043   -0.186  0.040  0.010

 Mode:                46                     47                     48
 Frequency:      3213.24                3734.92                3835.12
 Force Cnst:      6.6841                 8.7707                 9.2441
 Red. Mass:       1.0988                 1.0671                 1.0667
 IR Active:          YES                    YES                    YES
 IR Intens:       16.288                127.436                126.678
 Raman Active:       YES                    YES                    YES
               X      Y      Z        X      Y      Z        X      Y      Z
 C         -0.000  0.000  0.000    0.000 -0.001  0.001   -0.001 -0.001 -0.000
 H         -0.003 -0.002 -0.002   -0.001  0.001 -0.001   -0.001  0.001  0.004
 H          0.000 -0.003  0.002   -0.002  0.013 -0.015   -0.001 -0.006  0.008
 O          0.000  0.000 -0.000    0.000  0.001  0.000    0.002 -0.057 -0.025
 O          0.000  0.000  0.000   -0.045 -0.030 -0.032   -0.000 -0.000 -0.000
 H         -0.000 -0.000 -0.000    0.715  0.469  0.514    0.007  0.005  0.005
 H          0.001 -0.000 -0.000    0.000 -0.010 -0.004   -0.022  0.916  0.395
 C          0.000  0.001  0.001   -0.000  0.000 -0.000   -0.000  0.000  0.000
 C         -0.029  0.015  0.006   -0.000  0.000 -0.000    0.000  0.000  0.000
 H          0.325 -0.145 -0.058    0.000 -0.000 -0.000    0.000 -0.000  0.000
 C         -0.040 -0.024 -0.011   -0.000  0.000  0.000   -0.000  0.000 -0.000
 H          0.430  0.266  0.124    0.000  0.000  0.000    0.000  0.000  0.000
 C          0.005 -0.050 -0.022    0.000  0.000  0.000    0.000  0.000  0.000
 H         -0.048  0.546  0.242   -0.000  0.000 -0.000   -0.000  0.000  0.000
 C          0.038 -0.015 -0.006    0.000 -0.000  0.000   -0.000 -0.000 -0.000
 H         -0.413  0.179  0.072   -0.000  0.000  0.000   -0.000  0.000  0.000
 C          0.011  0.009  0.004    0.000  0.000 -0.000   -0.000  0.000 -0.000
 H         -0.126 -0.080 -0.039   -0.000 -0.000 -0.000   -0.000 -0.000  0.000
 TransDip  -0.013 -0.120 -0.047    0.211  0.290  0.044   -0.078  0.262  0.235

 STANDARD THERMODYNAMIC QUANTITIES AT   298.15 K  AND     1.00 ATM

   This Molecule has  2 Imaginary Frequencies
   Zero point vibrational energy:       89.513 kcal/mol

   Atom    1 Element C  Has Mass   12.00000
   Atom    2 Element H  Has Mass    1.00783
   Atom    3 Element H  Has Mass    1.00783
   Atom    4 Element O  Has Mass   15.99491
   Atom    5 Element O  Has Mass   15.99491
   Atom    6 Element H  Has Mass    1.00783
   Atom    7 Element H  Has Mass    1.00783
   Atom    8 Element C  Has Mass   12.00000
   Atom    9 Element C  Has Mass   12.00000
   Atom   10 Element H  Has Mass    1.00783
   Atom   11 Element C  Has Mass   12.00000
   Atom   12 Element H  Has Mass    1.00783
   Atom   13 Element C  Has Mass   12.00000
   Atom   14 Element H  Has Mass    1.00783
   Atom   15 Element C  Has Mass   12.00000
   Atom   16 Element H  Has Mass    1.00783
   Atom   17 Element C  Has Mass   12.00000
   Atom   18 Element H  Has Mass    1.00783
   Molecular Mass:   125.060290 amu
   Principal axes and moments of inertia in amu*Bohr^2:
                             1           2           3
    Eigenvalues --      721.65115  1993.81089  2183.38747
          X              -0.14813     0.75118     0.64326
          Y               0.97589     0.21646    -0.02804
          Z               0.16030    -0.62360     0.76513
   Rotational Symmetry Number is   1
   The Molecule is an Asymmetric Top
   Translational Enthalpy:        0.889 kcal/mol
   Rotational Enthalpy:           0.889 kcal/mol
   Vibrational Enthalpy:         93.209 kcal/mol
   gas constant (RT):             0.592 kcal/mol
   Translational Entropy:        40.384  cal/mol.K
   Rotational Entropy:           29.531  cal/mol.K
   Vibrational Entropy:          24.778  cal/mol.K

   Total Enthalpy:               95.579 kcal/mol
   Total Entropy:                94.694  cal/mol.K
 Total job time:  32314.35s(wall), 250987.60s(cpu) 
 Fri Jan 27 23:01:13 2023

        *************************************************************
        *                                                           *
        *  Thank you very much for using Q-Chem.  Have a nice day.  *
        *                                                           *
        *************************************************************


