
Running Job 1 of 1 Q_in.in
qchem Q_in.in_113238.0 /scratch/ari.fischer/qChem2074303.hpc-mn1/qchem113238/ 0
/usr/local/qchem-5.4.1/exe/qcprog.exe_s Q_in.in_113238.0 /scratch/ari.fischer/qChem2074303.hpc-mn1/qchem113238/
                  Welcome to Q-Chem
     A Quantum Leap Into The Future Of Chemistry


 Q-Chem 5.4, Q-Chem, Inc., Pleasanton, CA (2021)

 License issued to: Nanyang Technological University (site)

 E. Epifanovsky,  A. T. B. Gilbert,  Xintian Feng,  Joonho Lee,  Yuezhi Mao,  
 N. Mardirossian,  P. Pokhilko,  A. White,  M. Wormit,  M. P. Coons,  
 A. L. Dempwolff,  Zhengting Gan,  D. Hait,  P. R. Horn,  L. D. Jacobson,  
 I. Kaliman,  J. Kussmann,  A. W. Lange,  Ka Un Lao,  D. S. Levine,  Jie Liu,  
 S. C. McKenzie,  A. F. Morrison,  K. Nanda,  F. Plasser,  D. R. Rehn,  
 M. L. Vidal,  Zhi-Qiang You,  Ying Zhu,  B. Alam,  B. Albrecht,  
 A. Aldossary,  E. Alguire,  J. H. Andersen,  D. Barton,  K. Begam,  A. Behn,  
 Y. A. Bernard,  E. J. Berquist,  H. Burton,  A. Carreras,  K. Carter-Fenk,  
 R. Chakraborty,  A. D. Chien,  K. D. Closser,  V. Cofer-Shabica,  
 S. Dasgupta,  Jia Deng,  M. de Wergifosse,  M. Diedenhofen,  Hainam Do,  
 S. Ehlert,  Po-Tung Fang,  S. Fatehi,  Qingguo Feng,  T. Friedhoff,  
 J. Gayvert,  Qinghui Ge,  G. Gidofalvi,  M. Goldey,  J. Gomes,  
 C. Gonzalez-Espinoza,  S. Gulania,  A. Gunina,  M. W. D. Hanson-Heine,  
 P. H. P. Harbach,  A. W. Hauser,  M. F. Herbst,  M. Hernandez Vera,  
 M. Hodecker,  Z. C. Holden,  S. Houck,  Xunkun Huang,  Kerwin Hui,  
 B. C. Huynh,  M. Ivanov,  Hyunjun Ji,  Hanjie Jiang,  B. Kaduk,  S. Kaehler,  
 K. Khistyaev,  Jaehoon Kim,  P. Klunzinger,  Z. Koczor-Benda,  
 Joong Hoon Koh,  D. Kosenkov,  L. Koulias,  T. Kowalczyk,  C. M. Krauter,  
 K. Kue,  A. Kunitsa,  T. Kus,  A. Landau,  K. V. Lawler,  D. Lefrancois,  
 S. Lehtola,  Rain Li,  Yi-Pei Li,  Jiashu Liang,  M. Liebenthal,  
 Hung-Hsuan Lin,  You-Sheng Lin,  Fenglai Liu,  Kuan-Yu Liu,  
 M. Loipersberger,  A. Luenser,  A. Manjanath,  P. Manohar,  E. Mansoor,  
 S. F. Manzer,  Shan-Ping Mao,  A. V. Marenich,  T. Markovich,  S. Mason,  
 S. A. Maurer,  P. F. McLaughlin,  M. F. S. J. Menger,  J.-M. Mewes,  
 S. A. Mewes,  P. Morgante,  J. W. Mullinax,  K. J. Oosterbaan,  G. Paran,  
 Alexander C. Paul,  Suranjan K. Paul,  F. Pavosevic,  Zheng Pei,  S. Prager,  
 E. I. Proynov,  E. Ramos,  B. Rana,  A. E. Rask,  A. Rettig,  R. M. Richard,  
 F. Rob,  E. Rossomme,  T. Scheele,  M. Scheurer,  M. Schneider,  
 N. Sergueev,  S. M. Sharada,  W. Skomorowski,  D. W. Small,  C. J. Stein,  
 Yu-Chuan Su,  E. J. Sundstrom,  Zhen Tao,  J. Thirman,  T. Tsuchimochi,  
 N. M. Tubman,  S. P. Veccham,  O. Vydrov,  J. Wenzel,  J. Witte,  A. Yamada,  
 Kun Yao,  S. Yeganeh,  S. R. Yost,  A. Zech,  Igor Ying Zhang,  Xing Zhang,  
 Yu Zhang,  D. Zuev,  A. Aspuru-Guzik,  A. T. Bell,  N. A. Besley,  
 K. B. Bravaya,  B. R. Brooks,  D. Casanova,  Jeng-Da Chai,  S. Coriani,  
 C. J. Cramer,  A. E. DePrince, III,  R. A. DiStasio Jr.,  A. Dreuw,  
 B. D. Dunietz,  T. R. Furlani,  W. A. Goddard III,  S. Grimme,  
 S. Hammes-Schiffer,  T. Head-Gordon,  W. J. Hehre,  Chao-Ping Hsu,  
 T.-C. Jagau,  Yousung Jung,  A. Klamt,  Jing Kong,  D. S. Lambrecht,  
 WanZhen Liang,  N. J. Mayhall,  C. W. McCurdy,  J. B. Neaton,  
 C. Ochsenfeld,  J. A. Parkhill,  R. Peverati,  V. A. Rassolov,  Yihan Shao,  
 L. V. Slipchenko,  T. Stauch,  R. P. Steele,  J. E. Subotnik,  
 A. J. W. Thom,  A. Tkatchenko,  D. G. Truhlar,  T. Van Voorhis,  
 T. A. Wesolowski,  K. B. Whaley,  H. L. Woodcock III,  P. M. Zimmerman,  
 S. Faraji,  P. M. W. Gill,  M. Head-Gordon,  J. M. Herbert,  A. I. Krylov

 Additional authors for Version 5.4.1: 
 S. Kotaru,  Shaozhi Li,  Xiangyuan Li,  F. Matz,  A. Molle,  Haisheng Ren,  
 Yingli Su,  Hung-Yi Tsai,  C. Utku,  Fang Wang

 Contributors to earlier versions of Q-Chem not listed above: 
 R. D. Adamson,  B. Austin,  R. Baer,  J. Baker,  G. J. O. Beran,  
 K. Brandhorst,  S. T. Brown,  E. F. C. Byrd,  A. K. Chakraborty,  
 G. K. L. Chan,  Chun-Min Chang,  Yunqing Chen,  C.-L. Cheng,  
 Siu Hung Chien,  D. M. Chipman,  D. L. Crittenden,  H. Dachsel,  
 R. J. Doerksen,  A. D. Dutoi,  R. G. Edgar,  J. Fosso-Tande,  
 L. Fusti-Molnar,  D. Ghosh,  A. Ghysels,  A. Golubeva-Zadorozhnaya,  
 J. Gonthier,  M. S. Gordon,  S. R. Gwaltney,  G. Hawkins,  J. E. Herr,  
 A. Heyden,  S. Hirata,  E. G. Hohenstein,  G. Kedziora,  F. J. Keil,  
 C. Kelley,  Jihan Kim,  R. A. King,  R. Z. Khaliullin,  P. P. Korambath,  
 W. Kurlancheek,  A. Laurent,  A. M. Lee,  M. S. Lee,  S. V. Levchenko,  
 Ching Yeh Lin,  D. Liotard,  E. Livshits,  R. C. Lochan,  I. Lotan,  
 L. A. Martinez-Martinez,  P. E. Maslen,  N. Nair,  D. P. O'Neill,  
 D. Neuhauser,  E. Neuscamman,  C. M. Oana,  R. Olivares-Amaya,  R. Olson,  
 T. M. Perrine,  B. Peters,  P. A. Pieniazek,  A. Prociuk,  Y. M. Rhee,  
 J. Ritchie,  M. A. Rohrdanz,  E. Rosta,  N. J. Russ,  H. F. Schaefer III,  
 M. W. Schmidt,  N. E. Schultz,  S. Sharma,  N. Shenvi,  C. D. Sherrill,  
 A. C. Simmonett,  A. Sodt,  T. Stein,  D. Stuck,  K. S. Thanthiriwatte,  
 V. Vanovschi,  L. Vogt,  Tao Wang,  A. Warshel,  M. A. Watson,  
 C. F. Williams,  Q. Wu,  X. Xu,  Jun Yang,  W. Zhang,  Yan Zhao

 Please cite Q-Chem as follows:
 Y. Shao et al., Mol. Phys. 113, 184-215 (2015)
 DOI: 10.1080/00268976.2014.952696

 Q-Chem 5.4.1 for Intel X86 EM64T Linux

 Parts of Q-Chem use Armadillo 9.800.1 (Horizon Scraper).
 http://arma.sourceforge.net/

 Q-Chem begins on Tue Apr 23 20:04:11 2024  

 Host: 
0

     Scratch files written to /scratch/ari.fischer/qChem2074303.hpc-mn1/qchem113238//
 Aug1521 |scratch|qcdevops|jenkins|workspace|build_RNUM 8249   
 Processing $rem in /usr/local/qchem-5.4.1/config/preferences:
 Processing $rem in /home/ari.fischer/.qchemrc:
 Symmetry turned off for PCM/SM12/SMD calculation


!!********************************************.
!!******************Warning*******************.
!!Desired Analytical derivatives not available.
!!Finite difference job might take a long time.
!!********************************************.
!!********************************************.


 2-order derivative to be evaluated numerically with 1-order analytical derivatives

 Checking the input file for inconsistencies... 	...done.

--------------------------------------------------------------
User input:
--------------------------------------------------------------
$molecule
0 2
C        -1.3208393457    0.2598367185    0.5758233778
O        -2.2812278712   -0.5536591596   -0.2013951577
O        -3.4178386926    0.0567965551   -0.3874159016
C        -0.4474771055    1.0617248484   -0.3813983262
C         0.5721678738    0.2083175577   -1.0791779162
C         1.0813756307   -0.8590596951   -0.4684424870
C         0.5935371864   -1.2469686883    0.8598764867
C        -0.5178376997   -0.7201539130    1.3755913678
H        -1.9279166443    0.9229479354    1.1839985604
H         0.0930887949    1.7665481932    0.2602450180
H         0.9160967714    0.5374380312   -2.0513125150
H         1.8619585168   -1.4490442788   -0.9282190891
H         1.1456988295   -1.9953446307    1.4127211188
H        -0.9102138727   -1.0391133490    2.3308099416
O        -1.2105484191    1.8600454599   -1.2696380911
H        -1.6362893525    1.2867230149   -1.9179745872
$end

$rem
BASIS = 6-311++G(2df,2p)
GUI = 2
JOB_TYPE = Frequency
METHOD = wB97M-V
SOLVENT_METHOD = SMD
SCF_ALGORITHM = DIIS_GDM
MAX_SCF_CYCLES = 400
SCF_CONVERGENCE = 7
THRESH = 12
$end
--------------------------------------------------------------
 ----------------------------------------------------------------
             Standard Nuclear Orientation (Angstroms)
    I     Atom           X                Y                Z
 ----------------------------------------------------------------
    1      C      -1.3208393457     0.2598367185     0.5758233778
    2      O      -2.2812278712    -0.5536591596    -0.2013951577
    3      O      -3.4178386926     0.0567965551    -0.3874159016
    4      C      -0.4474771055     1.0617248484    -0.3813983262
    5      C       0.5721678738     0.2083175577    -1.0791779162
    6      C       1.0813756307    -0.8590596951    -0.4684424870
    7      C       0.5935371864    -1.2469686883     0.8598764867
    8      C      -0.5178376997    -0.7201539130     1.3755913678
    9      H      -1.9279166443     0.9229479354     1.1839985604
   10      H       0.0930887949     1.7665481932     0.2602450180
   11      H       0.9160967714     0.5374380312    -2.0513125150
   12      H       1.8619585168    -1.4490442788    -0.9282190891
   13      H       1.1456988295    -1.9953446307     1.4127211188
   14      H      -0.9102138727    -1.0391133490     2.3308099416
   15      O      -1.2105484191     1.8600454599    -1.2696380911
   16      H      -1.6362893525     1.2867230149    -1.9179745872
 ----------------------------------------------------------------
 Nuclear Repulsion Energy =         451.17665872 hartrees
 There are       34 alpha and       33 beta electrons
 Requested basis set is 6-311++G(2df,2p)
 There are 114 shells and 376 basis functions

 Total QAlloc Memory Limit 288000 MB
 Mega-Array Size       188 MB
 MEM_STATIC part       192 MB
 
 Citation of the SMD model:
 Marenich, A.V.; Cramer, C.J.; Truhlar, D.G.
 J. Phys. Chem. B 2009, 113, 6378-6396.
 iSolventCode=           1
 Solvent: water                                                           
 
 vradii
            1           2           3           4           5           6
    1   1.8500000   1.5200000   1.5200000   1.8500000   1.8500000   1.8500000
            7           8           9          10          11          12
    1   1.8500000   1.8500000   1.2000000   1.2000000   1.2000000   1.2000000
           13          14          15          16
    1   1.2000000   1.2000000   1.5200000   1.2000000
 Changing PCM_VDW_RADII to SMD_RADIUS
 Discretize the solute cavity surface with Lebedev spheres
	Using 110 Lebedev grid points for each H atom
	Using 194 Lebedev grid points for other atoms
	Atomic van der Waals radii will be scaled by 1.20
 Remove points where switching function is < 1.0e-08
 Keep 1235 surface tesserae and discard 1281 interior tesserae
 Molecular Surface Area = 144.786 Angst**2
 A cutoff of  1.0D-12 yielded   6060 shell pairs
 There are     66666 function pairs (     83580 Cartesian)
 Smallest overlap matrix eigenvalue = 2.68E-06
 Guess from superposition of atomic densities
 Warning:  Energy on first SCF cycle will be non-variational
 SAD guess density has 67.000000 electrons

 -----------------------------------------------------------------------
  General SCF calculation program by
  Eric Jon Sundstrom, Paul Horn, Yuezhi Mao, Dmitri Zuev, Alec White,
  David Stuck, Shaama M.S., Shane Yost, Joonho Lee, David Small,
  Daniel Levine, Susi Lehtola, Hugh Burton, Evgeny Epifanovsky,
  Bang C. Huynh
 -----------------------------------------------------------------------
 Exchange:     0.1500 Hartree-Fock + 1.0000 wB97M-V + LR-HF
 Correlation:  1.0000 wB97M-V
 Using SG-2 standard quadrature grid
 Nonlocal Correlation:  VV10 with C = 0.0100 and b = 6.00 and scale = 1.00000
 Grid used for NLC:  SG-1 standard quadrature
 using 16 threads for integral computing
 -------------------------------------------------------
 OpenMP Integral computing Module                
 Release: version 1.0, May 2013, Q-Chem Inc. Pittsburgh 
 -------------------------------------------------------
 
 Citation of the SMD model:
 Marenich, A.V.; Cramer, C.J.; Truhlar, D.G.
 J. Phys. Chem. B 2009, 113, 6378-6396.
 iSolventCode=           1
 Solvent: water                                                           
 
 vradii
            1           2           3           4           5           6
    1   1.8500000   1.5200000   1.5200000   1.8500000   1.8500000   1.8500000
            7           8           9          10          11          12
    1   1.8500000   1.8500000   1.2000000   1.2000000   1.2000000   1.2000000
           13          14          15          16
    1   1.2000000   1.2000000   1.5200000   1.2000000
 -------------------------------------------------------
 OpenMP BLAS3 based DFT computing Module                
 Release: version 1.0, May 2013, Q-Chem Inc. Pittsburgh 
 -------------------------------------------------------
 A unrestricted SCF calculation will be
 performed using DIIS, GDM
 SCF converges when RMS gradient is below 1.0e-07
 ---------------------------------------
  Cycle       Energy         DIIS error
 ---------------------------------------
    1    -460.6965876068      1.29e-02  
    2    -458.2456299209      1.32e-03  Done DIIS. Switching to GDM
 ---------------------------------------
  Cycle       Energy        RMS Gradient
 ---------------------------------------
    1    -458.2456299209      1.21e-01   Descent step
    2    -458.3373002755      3.34e-02   Normal BFGS step
    3    -458.3512110168      3.26e-02   Normal BFGS step
    4    -458.3549311181      4.67e-03   Normal BFGS step
    5    -458.3556689365      5.24e-03   Normal BFGS step
    6    -458.3558719915      3.69e-03   Normal BFGS step
    7    -458.3559383336      2.13e-03   Normal BFGS step
    8    -458.3559549071      6.88e-04   Normal BFGS step
    9    -458.3559575837      5.20e-04   Normal BFGS step
   10    -458.3559583552      3.72e-04   Normal BFGS step
   11    -458.3559586760      3.30e-04   Normal BFGS step
   12    -458.3559590253      2.15e-04   Normal BFGS step
   13    -458.3559592428      1.09e-04   Normal BFGS step
   14    -458.3559593219      4.46e-05   Normal BFGS step
   15    -458.3559593346      1.44e-05   Normal BFGS step
   16    -458.3559593365      8.11e-06   Normal BFGS step
   17    -458.3559593371      5.23e-06   Normal BFGS step
   18    -458.3559593373      3.78e-06   Normal BFGS step
   19    -458.3559593374      1.97e-06   Normal BFGS step
   20    -458.3559593374      1.05e-06   Normal BFGS step
   21    -458.3559593374      2.94e-07   Normal BFGS step
   22    -458.3559593374      1.27e-07   Normal BFGS step
   23    -458.3559593374      5.22e-08  Convergence criterion met
 ---------------------------------------
 SCF time:   CPU 2364.48s  wall 163.00s 
<S^2> =          0.754115300
(3)  G-ENP(liq) elect-nuc-pol free energy of system     -458.355959337 a.u.
(4)  G-CDS(liq) cavity-dispersion-solvent structure 
     free energy                                                2.4708 kcal/mol
(6)  G-S(liq) free energy of system                     -458.352021848 a.u.
 SCF   energy in the final basis set =     -458.3520218483
 Total energy in the final basis set =     -458.3520218483
 
 --------------------------------------------------------------
 
                    Orbital Energies (a.u.)
 --------------------------------------------------------------
 
 Alpha MOs
 -- Occupied --
-19.4613 -19.4145 -19.3460 -10.4108 -10.4084 -10.3568 -10.3505 -10.3495
-10.3475  -1.3398  -1.1687  -1.0278  -0.9591  -0.8749  -0.8593  -0.7515
 -0.7266  -0.6693  -0.6494  -0.6339  -0.6187  -0.5884  -0.5590  -0.5557
 -0.5452  -0.5250  -0.4854  -0.4559  -0.4482  -0.4318  -0.4138  -0.4059
 -0.3773  -0.3281
 -- Virtual --
  0.0192   0.0276   0.0372   0.0416   0.0480   0.0580   0.0608   0.0819
  0.0981   0.1015   0.1063   0.1199   0.1343   0.1400   0.1471   0.1522
  0.1547   0.1565   0.1622   0.1649   0.1673   0.1699   0.1755   0.1783
  0.1845   0.1900   0.2028   0.2074   0.2106   0.2200   0.2342   0.2365
  0.2438   0.2499   0.2591   0.2663   0.2838   0.2928   0.2999   0.3121
  0.3197   0.3245   0.3364   0.3421   0.3427   0.3570   0.3652   0.3737
  0.3814   0.3851   0.3917   0.3965   0.4027   0.4134   0.4270   0.4344
  0.4382   0.4663   0.4763   0.5110   0.5220   0.5426   0.5480   0.5805
  0.5944   0.6078   0.6166   0.6237   0.6312   0.6336   0.6469   0.6501
  0.6751   0.6852   0.6943   0.7087   0.7172   0.7318   0.7425   0.7494
  0.7594   0.7685   0.7719   0.7921   0.8024   0.8096   0.8263   0.8324
  0.8434   0.8564   0.8660   0.8951   0.9091   0.9272   0.9506   0.9684
  0.9744   1.0408   1.0449   1.0664   1.0795   1.1096   1.1159   1.1238
  1.1414   1.1477   1.1647   1.1682   1.1918   1.1964   1.2153   1.2211
  1.2242   1.2317   1.2572   1.2606   1.2771   1.2940   1.3123   1.3167
  1.3444   1.3546   1.3659   1.3707   1.3835   1.3975   1.4112   1.4375
  1.4485   1.4511   1.4594   1.4836   1.4887   1.5148   1.5261   1.5395
  1.5501   1.5652   1.5916   1.5978   1.6122   1.6194   1.6373   1.6536
  1.6826   1.6954   1.7201   1.7365   1.7573   1.7851   1.7961   1.8167
  1.8468   1.8768   1.9153   1.9881   1.9973   2.0397   2.0682   2.0835
  2.1127   2.1421   2.2368   2.2804   2.3102   2.3452   2.3892   2.4195
  2.4547   2.6027   2.6153   2.6482   2.6530   2.6785   2.7086   2.7464
  2.7637   2.7894   2.8118   2.8306   2.8441   2.8544   2.8670   2.8803
  2.8980   2.9171   2.9293   2.9516   2.9650   2.9714   2.9839   3.0101
  3.0153   3.0536   3.0717   3.1188   3.1321   3.1545   3.1708   3.1911
  3.2271   3.2512   3.2686   3.2873   3.3137   3.3391   3.3580   3.3810
  3.3947   3.3977   3.4356   3.4477   3.4595   3.4730   3.4833   3.4941
  3.5091   3.5333   3.5414   3.5771   3.6006   3.6295   3.6377   3.6443
  3.7000   3.7261   3.7435   3.7505   3.7587   3.7826   3.7929   3.8167
  3.8309   3.8551   3.8845   3.8937   3.9069   3.9166   3.9372   3.9462
  3.9689   3.9975   4.0447   4.0548   4.0792   4.0854   4.1417   4.1607
  4.1984   4.2174   4.2353   4.2399   4.2711   4.3174   4.3278   4.3280
  4.3673   4.3755   4.4141   4.4833   4.4954   4.5199   4.5297   4.5404
  4.5843   4.6234   4.6518   4.6675   4.6769   4.7085   4.7146   4.7385
  4.7651   4.7695   4.8095   4.8840   4.9219   4.9306   4.9839   5.0270
  5.0329   5.0796   5.0969   5.1045   5.1085   5.1712   5.1877   5.2453
  5.2462   5.2820   5.3068   5.3182   5.3571   5.3944   5.4028   5.4598
  5.4789   5.5278   5.5566   5.5768   5.6198   5.6538   5.6792   5.6854
  5.7276   5.8092   5.8172   5.9075   5.9792   6.0375   6.1091   6.2528
  6.4243   6.4835   6.6097   6.6818   6.8361   6.8795   6.9677   7.1094
  7.1278   7.2157   7.2457   7.3271   7.3525   7.4094   7.4207   7.4551
  7.7052   7.7961   7.8179   8.0347   8.1143  24.2957  24.5489  24.7143
 24.8034  25.1448  25.3329  50.4367  50.5360  50.6280
 
 Beta MOs
 -- Occupied --
-19.4506 -19.3960 -19.3458 -10.4112 -10.4080 -10.3568 -10.3504 -10.3494
-10.3475  -1.3133  -1.1682  -1.0084  -0.9464  -0.8737  -0.8519  -0.7469
 -0.7257  -0.6602  -0.6433  -0.6197  -0.5897  -0.5840  -0.5560  -0.5463
 -0.5264  -0.5073  -0.4818  -0.4537  -0.4451  -0.4257  -0.3994  -0.3865
 -0.3266
 -- Virtual --
 -0.0295   0.0204   0.0282   0.0374   0.0418   0.0483   0.0585   0.0611
  0.0822   0.0991   0.1017   0.1068   0.1213   0.1351   0.1410   0.1483
  0.1528   0.1552   0.1570   0.1626   0.1652   0.1676   0.1702   0.1763
  0.1787   0.1862   0.1910   0.2036   0.2083   0.2111   0.2213   0.2348
  0.2376   0.2447   0.2505   0.2620   0.2732   0.2866   0.2956   0.3017
  0.3133   0.3205   0.3253   0.3371   0.3445   0.3450   0.3597   0.3659
  0.3741   0.3820   0.3869   0.3926   0.3980   0.4054   0.4149   0.4277
  0.4356   0.4403   0.4677   0.4772   0.5114   0.5228   0.5427   0.5487
  0.5806   0.5946   0.6089   0.6169   0.6247   0.6313   0.6339   0.6474
  0.6508   0.6753   0.6855   0.6946   0.7089   0.7176   0.7327   0.7428
  0.7496   0.7597   0.7690   0.7725   0.7927   0.8034   0.8098   0.8268
  0.8328   0.8434   0.8570   0.8664   0.8955   0.9093   0.9278   0.9513
  0.9691   0.9759   1.0429   1.0485   1.0689   1.0814   1.1119   1.1165
  1.1275   1.1422   1.1495   1.1694   1.1732   1.1971   1.2037   1.2184
  1.2281   1.2416   1.2440   1.2588   1.2643   1.2786   1.2951   1.3146
  1.3180   1.3456   1.3555   1.3678   1.3733   1.3851   1.3989   1.4128
  1.4403   1.4494   1.4520   1.4621   1.4848   1.4918   1.5208   1.5308
  1.5415   1.5510   1.5663   1.5936   1.6015   1.6195   1.6260   1.6453
  1.6567   1.6920   1.7103   1.7233   1.7423   1.7678   1.7906   1.7979
  1.8236   1.8491   1.8823   1.9188   1.9894   2.0019   2.0420   2.0709
  2.0845   2.1179   2.1495   2.2402   2.2942   2.3261   2.3522   2.3969
  2.4215   2.4556   2.6029   2.6176   2.6493   2.6582   2.6797   2.7103
  2.7468   2.7639   2.7898   2.8121   2.8309   2.8446   2.8546   2.8672
  2.8807   2.8985   2.9174   2.9296   2.9518   2.9652   2.9717   2.9843
  3.0105   3.0160   3.0540   3.0721   3.1197   3.1326   3.1550   3.1714
  3.1913   3.2273   3.2517   3.2693   3.2876   3.3140   3.3394   3.3586
  3.3812   3.3949   3.3978   3.4358   3.4483   3.4597   3.4733   3.4838
  3.4943   3.5095   3.5336   3.5418   3.5775   3.6011   3.6298   3.6379
  3.6447   3.7007   3.7262   3.7441   3.7510   3.7590   3.7834   3.7934
  3.8172   3.8311   3.8556   3.8851   3.8940   3.9071   3.9167   3.9379
  3.9466   3.9693   3.9980   4.0449   4.0556   4.0801   4.0857   4.1422
  4.1615   4.1987   4.2178   4.2355   4.2404   4.2723   4.3180   4.3281
  4.3286   4.3691   4.3761   4.4144   4.4841   4.4959   4.5212   4.5307
  4.5437   4.5858   4.6389   4.6589   4.6705   4.6796   4.7145   4.7252
  4.7404   4.7661   4.7775   4.8115   4.8979   4.9325   4.9369   4.9865
  5.0286   5.0492   5.0883   5.1451   5.1494   5.1767   5.2009   5.2060
  5.2634   5.2906   5.2961   5.3156   5.3316   5.3644   5.3986   5.4183
  5.4710   5.4854   5.5460   5.5576   5.5851   5.6216   5.6569   5.6860
  5.6924   5.7305   5.8177   5.8359   5.9077   5.9799   6.0380   6.1095
  6.2540   6.4382   6.5304   6.6214   6.6831   6.9191   6.9604   7.0268
  7.1301   7.1528   7.2410   7.2868   7.3292   7.3610   7.4168   7.4441
  7.5007   7.7055   7.8046   7.8231   8.0494   8.1333  24.2957  24.5489
 24.7141  24.8036  25.1448  25.3329  50.4495  50.5452  50.6285
 --------------------------------------------------------------
 
          Ground-State Mulliken Net Atomic Charges

     Atom                 Charge (a.u.)    Spin (a.u.)
  --------------------------------------------------------
      1 C                    -0.273559      -0.005512
      2 O                     0.089667       0.320812
      3 O                    -0.251220       0.661264
      4 C                    -0.284165       0.021497
      5 C                    -0.070368      -0.001862
      6 C                    -0.324076      -0.000545
      7 C                    -0.301586       0.003276
      8 C                    -0.193709      -0.000664
      9 H                     0.293775       0.001056
     10 H                     0.221155       0.000874
     11 H                     0.294324       0.000184
     12 H                     0.284790      -0.000030
     13 H                     0.284874       0.000149
     14 H                     0.299505      -0.000017
     15 O                    -0.408114       0.001747
     16 H                     0.338707      -0.002228
  --------------------------------------------------------
  Sum of atomic charges =     0.000000
  Sum of spin   charges =     1.000000

 -----------------------------------------------------------------
                    Cartesian Multipole Moments
 -----------------------------------------------------------------
    Charge (ESU x 10^10)
                 0.0000
    Dipole Moment (Debye)
         X       4.0672      Y      -1.3538      Z       1.4254
       Tot       4.5173
    Quadrupole Moments (Debye-Ang)
        XX     -64.7435     XY      -1.4239     YY     -57.1867
        XZ      -3.8017     YZ       0.3839     ZZ     -46.5136
    Octopole Moments (Debye-Ang^2)
       XXX     166.3612    XXY      -4.7337    XYY      53.8665
       YYY     -18.6888    XXZ      11.3447    XYZ      -0.9719
       YYZ      18.3171    XZZ      30.9092    YZZ      -2.9944
       ZZZ      11.0697
    Hexadecapole Moments (Debye-Ang^3)
      XXXX   -1030.8012   XXXY      54.9796   XXYY    -209.5784
      XYYY      78.3187   YYYY    -402.0560   XXXZ     -45.4365
      XXYZ      24.2011   XYYZ     -13.5294   YYYZ     105.0871
      XXZZ    -174.9072   XYZZ      15.5318   YYZZ    -117.4298
      XZZZ     -15.8143   YZZZ      66.9184   ZZZZ    -290.4797
 -----------------------------------------------------------------
 Calculating analytic gradient of the SCF energy
 Gradient of CDS energy
            1           2           3           4           5           6
    1  -0.0001586  -0.0000636  -0.0000230  -0.0003561   0.0001533   0.0003664
    2   0.0000701   0.0000871  -0.0000491   0.0003969   0.0001253  -0.0001898
    3  -0.0000807  -0.0000045   0.0000580  -0.0001765  -0.0002735  -0.0003494
            7           8           9          10          11          12
    1   0.0001634  -0.0001859  -0.0001753   0.0000844   0.0000227   0.0001474
    2  -0.0003332  -0.0000680   0.0001420   0.0001420   0.0001075  -0.0001114
    3   0.0003747   0.0003717   0.0000275   0.0001155  -0.0001826  -0.0000868
           13          14          15          16
    1   0.0001046  -0.0000727   0.0001852  -0.0001923
    2  -0.0001418  -0.0000591  -0.0002505   0.0001320
    3   0.0001048   0.0001770   0.0003595  -0.0004348
 Gradient of SCF Energy
            1           2           3           4           5           6
    1   0.0012777   0.0007374  -0.0017265  -0.0044425  -0.0048892  -0.0018091
    2  -0.0074192  -0.0015854   0.0012657  -0.0037560   0.0022226   0.0013351
    3  -0.0080944   0.0010317  -0.0002656  -0.0045109   0.0057414   0.0034064
            7           8           9          10          11          12
    1  -0.0006005  -0.0017800  -0.0012018   0.0037230   0.0026494   0.0069824
    2   0.0016106   0.0082554   0.0035247   0.0033409   0.0017104  -0.0049725
    3  -0.0044739  -0.0042959   0.0055236   0.0047105  -0.0070193  -0.0035772
           13          14          15          16
    1   0.0051835  -0.0030333   0.0004915  -0.0015620
    2  -0.0070956  -0.0022184   0.0108915  -0.0071100
    3   0.0051659   0.0080214   0.0055336  -0.0068973
 Max gradient component =       1.089E-02
 RMS gradient           =       4.668E-03
 Computing fast CPCM-SWIG gradient
 Updating gradient with PCM contributions...
 -- total gradient after adding PCM contribution --
---------------------------------------------------
  Atom         X              Y              Z     
---------------------------------------------------
   1       0.000004       0.000036      -0.000020
   2       0.000027      -0.000022       0.000002
   3      -0.000063       0.000024      -0.000068
   4       0.000045      -0.000008      -0.000002
   5      -0.000004      -0.000020       0.000026
   6       0.000010      -0.000031       0.000025
   7      -0.000018       0.000012       0.000049
   8      -0.000012       0.000011       0.000019
   9      -0.000014       0.000016      -0.000030
  10       0.000026       0.000009      -0.000011
  11       0.000037      -0.000009       0.000007
  12       0.000015      -0.000022       0.000048
  13      -0.000033      -0.000003       0.000052
  14      -0.000045       0.000028       0.000019
  15      -0.000018      -0.000005      -0.000048
  16       0.000042      -0.000016      -0.000068
---------------------------------------------------
 Number of fixed atoms: 0
 Gradient time:  CPU 299.44 s  wall 23.97 s
 ######################################################
 ######################################################
 # Starting finite difference calculation for IDERIV  #
 Finite diff step size:  1.88973e-03 a.u.
 ----------------------------------------------------------------
             Standard Nuclear Orientation (Angstroms)
    I     Atom           X                Y                Z
 ----------------------------------------------------------------
    1      C      -1.3198393457     0.2598367185     0.5758233778
    2      O      -2.2812278712    -0.5536591596    -0.2013951577
    3      O      -3.4178386926     0.0567965551    -0.3874159016
    4      C      -0.4474771055     1.0617248484    -0.3813983262
    5      C       0.5721678738     0.2083175577    -1.0791779162
    6      C       1.0813756307    -0.8590596951    -0.4684424870
    7      C       0.5935371864    -1.2469686883     0.8598764867
    8      C      -0.5178376997    -0.7201539130     1.3755913678
    9      H      -1.9279166443     0.9229479354     1.1839985604
   10      H       0.0930887949     1.7665481932     0.2602450180
   11      H       0.9160967714     0.5374380312    -2.0513125150
   12      H       1.8619585168    -1.4490442788    -0.9282190891
   13      H       1.1456988295    -1.9953446307     1.4127211188
   14      H      -0.9102138727    -1.0391133490     2.3308099416
   15      O      -1.2105484191     1.8600454599    -1.2696380911
   16      H      -1.6362893525     1.2867230149    -1.9179745872
 ----------------------------------------------------------------
 Nuclear Repulsion Energy =         451.18058565 hartrees
 There are       34 alpha and       33 beta electrons
 Discretize the solute cavity surface with Lebedev spheres
	Using 110 Lebedev grid points for each H atom
	Using 194 Lebedev grid points for other atoms
	Atomic van der Waals radii will be scaled by 1.20
 Remove points where switching function is < 1.0e-08
 Keep 1234 surface tesserae and discard 1282 interior tesserae
 Molecular Surface Area = 144.787 Angst**2
 Requested basis set is 6-311++G(2df,2p)
 There are 114 shells and 376 basis functions
 A cutoff of  1.0D-12 yielded   6060 shell pairs
 There are     66666 function pairs (     83580 Cartesian)
 Smallest overlap matrix eigenvalue = 2.68E-06
 Guess MOs from SCF MO coefficient file

 -----------------------------------------------------------------------
  General SCF calculation program by
  Eric Jon Sundstrom, Paul Horn, Yuezhi Mao, Dmitri Zuev, Alec White,
  David Stuck, Shaama M.S., Shane Yost, Joonho Lee, David Small,
  Daniel Levine, Susi Lehtola, Hugh Burton, Evgeny Epifanovsky,
  Bang C. Huynh
 -----------------------------------------------------------------------
 Exchange:     0.1500 Hartree-Fock + 1.0000 wB97M-V + LR-HF
 Correlation:  1.0000 wB97M-V
 Using SG-2 standard quadrature grid
 Nonlocal Correlation:  VV10 with C = 0.0100 and b = 6.00 and scale = 1.00000
 Grid used for NLC:  SG-1 standard quadrature
 
 Citation of the SMD model:
 Marenich, A.V.; Cramer, C.J.; Truhlar, D.G.
 J. Phys. Chem. B 2009, 113, 6378-6396.
 iSolventCode=           1
 Solvent: water                                                           
 
 vradii
            1           2           3           4           5           6
    1   1.8500000   1.5200000   1.5200000   1.8500000   1.8500000   1.8500000
            7           8           9          10          11          12
    1   1.8500000   1.8500000   1.2000000   1.2000000   1.2000000   1.2000000
           13          14          15          16
    1   1.2000000   1.2000000   1.5200000   1.2000000
 -------------------------------------------------------
 OpenMP BLAS3 based DFT computing Module                
 Release: version 1.0, May 2013, Q-Chem Inc. Pittsburgh 
 -------------------------------------------------------
 A unrestricted SCF calculation will be
 performed using Roothaan-Hall, DIIS, GDM
 SCF converges when RMS gradient is below 1.0e-07
 ---------------------------------------
  Cycle       Energy         DIIS error
 ---------------------------------------
    1    -458.3322573563      1.56e-04  Roothaan Step
 ---------------------------------------
  Cycle       Energy         DIIS error
 ---------------------------------------
    1    -458.3529146845      1.66e-04  
    2    -458.3548237820      1.50e-04  Done DIIS. Switching to GDM
 ---------------------------------------
  Cycle       Energy        RMS Gradient
 ---------------------------------------
    1    -458.3548237820      1.27e-02   Normal BFGS step
    2    -458.3544236157      2.23e-02  Line search: overstep
    3    -458.3558559476      3.36e-03   Normal BFGS step
    4    -458.3559311911      7.66e-04   Normal BFGS step
    5    -458.3559523854      9.61e-04   Normal BFGS step
    6    -458.3559569066      3.62e-04   Normal BFGS step
    7    -458.3559576827      2.52e-04   Normal BFGS step
    8    -458.3559580361      1.06e-04   Normal BFGS step
    9    -458.3559581318      6.95e-05   Normal BFGS step
   10    -458.3559581469      6.21e-05   Normal BFGS step
   11    -458.3559581550      5.12e-05   Normal BFGS step
   12    -458.3559581651      2.38e-05   Normal BFGS step
   13    -458.3559581691      9.89e-06   Normal BFGS step
   14    -458.3559581710      6.33e-06   Normal BFGS step
   15    -458.3559581713      1.65e-06   Normal BFGS step
   16    -458.3559581713      4.07e-07   Normal BFGS step
   17    -458.3559581713      2.61e-07   Normal BFGS step
   18    -458.3559581714      6.16e-08  Convergence criterion met
 ---------------------------------------
 SCF time:   CPU 2037.62s  wall 139.00s 
<S^2> =          0.754116839
(3)  G-ENP(liq) elect-nuc-pol free energy of system     -458.355958171 a.u.
(4)  G-CDS(liq) cavity-dispersion-solvent structure 
     free energy                                                2.4706 kcal/mol
(6)  G-S(liq) free energy of system                     -458.352020981 a.u.
 SCF   energy in the final basis set =     -458.3520209809
 Total energy in the final basis set =     -458.3520209809
 
 --------------------------------------------------------------
 
                    Orbital Energies (a.u.)
 --------------------------------------------------------------
 
 Alpha MOs
 -- Occupied --
-19.4612 -19.4145 -19.3460 -10.4108 -10.4084 -10.3568 -10.3505 -10.3495
-10.3475  -1.3397  -1.1687  -1.0277  -0.9591  -0.8750  -0.8593  -0.7515
 -0.7266  -0.6693  -0.6494  -0.6339  -0.6187  -0.5884  -0.5590  -0.5557
 -0.5452  -0.5250  -0.4854  -0.4559  -0.4482  -0.4318  -0.4138  -0.4059
 -0.3774  -0.3281
 -- Virtual --
  0.0192   0.0276   0.0372   0.0416   0.0480   0.0580   0.0608   0.0819
  0.0981   0.1015   0.1063   0.1199   0.1343   0.1400   0.1471   0.1522
  0.1547   0.1565   0.1622   0.1649   0.1673   0.1699   0.1755   0.1783
  0.1845   0.1900   0.2027   0.2074   0.2106   0.2200   0.2342   0.2365
  0.2438   0.2499   0.2591   0.2664   0.2837   0.2928   0.2999   0.3121
  0.3197   0.3245   0.3364   0.3421   0.3427   0.3570   0.3652   0.3737
  0.3814   0.3851   0.3917   0.3966   0.4028   0.4134   0.4271   0.4344
  0.4382   0.4663   0.4763   0.5111   0.5219   0.5427   0.5481   0.5805
  0.5944   0.6078   0.6166   0.6237   0.6311   0.6336   0.6469   0.6501
  0.6751   0.6852   0.6943   0.7087   0.7172   0.7318   0.7425   0.7494
  0.7594   0.7686   0.7719   0.7921   0.8024   0.8096   0.8263   0.8324
  0.8434   0.8564   0.8660   0.8951   0.9092   0.9272   0.9506   0.9684
  0.9745   1.0408   1.0448   1.0665   1.0796   1.1096   1.1159   1.1238
  1.1414   1.1477   1.1647   1.1682   1.1918   1.1963   1.2153   1.2211
  1.2243   1.2317   1.2573   1.2606   1.2771   1.2940   1.3124   1.3167
  1.3444   1.3547   1.3659   1.3708   1.3836   1.3976   1.4113   1.4375
  1.4486   1.4511   1.4594   1.4836   1.4888   1.5148   1.5261   1.5394
  1.5500   1.5653   1.5916   1.5978   1.6122   1.6194   1.6373   1.6536
  1.6828   1.6954   1.7201   1.7367   1.7574   1.7852   1.7961   1.8166
  1.8469   1.8768   1.9153   1.9880   1.9972   2.0397   2.0681   2.0835
  2.1127   2.1421   2.2368   2.2802   2.3102   2.3450   2.3889   2.4196
  2.4547   2.6027   2.6153   2.6482   2.6530   2.6785   2.7086   2.7466
  2.7638   2.7895   2.8119   2.8307   2.8442   2.8545   2.8670   2.8804
  2.8981   2.9170   2.9293   2.9515   2.9651   2.9715   2.9840   3.0101
  3.0156   3.0536   3.0716   3.1189   3.1322   3.1545   3.1707   3.1913
  3.2271   3.2513   3.2686   3.2874   3.3137   3.3391   3.3579   3.3809
  3.3946   3.3976   3.4356   3.4478   3.4594   3.4730   3.4834   3.4942
  3.5091   3.5333   3.5413   3.5771   3.6007   3.6293   3.6377   3.6444
  3.6999   3.7263   3.7435   3.7505   3.7587   3.7826   3.7931   3.8166
  3.8309   3.8549   3.8846   3.8937   3.9069   3.9169   3.9373   3.9463
  3.9689   3.9976   4.0447   4.0551   4.0791   4.0854   4.1420   4.1607
  4.1983   4.2175   4.2355   4.2399   4.2713   4.3173   4.3278   4.3281
  4.3674   4.3756   4.4141   4.4832   4.4954   4.5199   4.5298   4.5406
  4.5846   4.6235   4.6519   4.6677   4.6772   4.7086   4.7148   4.7386
  4.7650   4.7696   4.8098   4.8840   4.9217   4.9306   4.9841   5.0270
  5.0328   5.0797   5.0969   5.1045   5.1086   5.1712   5.1877   5.2453
  5.2463   5.2819   5.3068   5.3181   5.3572   5.3944   5.4029   5.4596
  5.4785   5.5274   5.5566   5.5771   5.6198   5.6533   5.6788   5.6855
  5.7278   5.8089   5.8167   5.9075   5.9791   6.0376   6.1094   6.2529
  6.4228   6.4835   6.6097   6.6818   6.8361   6.8794   6.9677   7.1093
  7.1278   7.2154   7.2454   7.3270   7.3525   7.4093   7.4206   7.4550
  7.7052   7.7960   7.8179   8.0346   8.1142  24.2955  24.5490  24.7139
 24.8040  25.1449  25.3331  50.4367  50.5359  50.6280
 
 Beta MOs
 -- Occupied --
-19.4505 -19.3960 -19.3459 -10.4112 -10.4080 -10.3568 -10.3504 -10.3495
-10.3475  -1.3132  -1.1682  -1.0084  -0.9464  -0.8737  -0.8520  -0.7469
 -0.7257  -0.6602  -0.6432  -0.6196  -0.5897  -0.5839  -0.5560  -0.5463
 -0.5264  -0.5073  -0.4818  -0.4537  -0.4452  -0.4258  -0.3995  -0.3864
 -0.3266
 -- Virtual --
 -0.0295   0.0204   0.0282   0.0374   0.0418   0.0483   0.0585   0.0611
  0.0821   0.0991   0.1017   0.1068   0.1213   0.1352   0.1410   0.1483
  0.1528   0.1552   0.1570   0.1626   0.1652   0.1676   0.1702   0.1763
  0.1787   0.1861   0.1910   0.2036   0.2083   0.2111   0.2213   0.2348
  0.2376   0.2447   0.2505   0.2620   0.2732   0.2866   0.2956   0.3018
  0.3134   0.3204   0.3253   0.3372   0.3445   0.3450   0.3597   0.3659
  0.3741   0.3820   0.3869   0.3926   0.3980   0.4054   0.4150   0.4278
  0.4356   0.4402   0.4677   0.4772   0.5115   0.5227   0.5427   0.5487
  0.5806   0.5946   0.6088   0.6169   0.6247   0.6313   0.6340   0.6474
  0.6509   0.6753   0.6855   0.6946   0.7089   0.7176   0.7327   0.7428
  0.7496   0.7598   0.7690   0.7725   0.7927   0.8034   0.8098   0.8268
  0.8328   0.8434   0.8570   0.8664   0.8955   0.9093   0.9278   0.9513
  0.9691   0.9759   1.0429   1.0485   1.0690   1.0814   1.1118   1.1165
  1.1275   1.1422   1.1495   1.1694   1.1732   1.1971   1.2037   1.2184
  1.2282   1.2417   1.2440   1.2589   1.2643   1.2786   1.2951   1.3147
  1.3180   1.3456   1.3555   1.3679   1.3733   1.3852   1.3989   1.4129
  1.4403   1.4495   1.4520   1.4621   1.4848   1.4918   1.5208   1.5308
  1.5415   1.5510   1.5663   1.5936   1.6015   1.6195   1.6260   1.6454
  1.6566   1.6921   1.7103   1.7233   1.7424   1.7678   1.7906   1.7978
  1.8234   1.8491   1.8823   1.9189   1.9894   2.0019   2.0420   2.0708
  2.0844   2.1179   2.1496   2.2402   2.2940   2.3261   2.3521   2.3967
  2.4215   2.4557   2.6029   2.6175   2.6493   2.6582   2.6797   2.7103
  2.7470   2.7640   2.7898   2.8122   2.8310   2.8448   2.8547   2.8673
  2.8807   2.8986   2.9173   2.9296   2.9517   2.9653   2.9718   2.9844
  3.0105   3.0162   3.0541   3.0720   3.1197   3.1327   3.1551   3.1714
  3.1915   3.2273   3.2517   3.2693   3.2877   3.3140   3.3393   3.3585
  3.3811   3.3948   3.3977   3.4357   3.4484   3.4597   3.4733   3.4839
  3.4944   3.5095   3.5335   3.5417   3.5775   3.6013   3.6296   3.6379
  3.6448   3.7005   3.7264   3.7441   3.7510   3.7590   3.7834   3.7936
  3.8171   3.8311   3.8554   3.8852   3.8940   3.9071   3.9170   3.9380
  3.9467   3.9693   3.9982   4.0449   4.0558   4.0800   4.0856   4.1425
  4.1614   4.1986   4.2179   4.2358   4.2404   4.2724   4.3179   4.3282
  4.3286   4.3692   4.3762   4.4143   4.4839   4.4959   4.5212   4.5308
  4.5438   4.5860   4.6391   4.6589   4.6706   4.6799   4.7146   4.7254
  4.7405   4.7661   4.7775   4.8118   4.8979   4.9323   4.9369   4.9867
  5.0287   5.0490   5.0885   5.1452   5.1494   5.1767   5.2009   5.2061
  5.2634   5.2906   5.2961   5.3156   5.3315   5.3646   5.3985   5.4184
  5.4707   5.4850   5.5457   5.5576   5.5852   5.6217   5.6565   5.6860
  5.6921   5.7306   5.8174   5.8354   5.9078   5.9799   6.0380   6.1098
  6.2541   6.4366   6.5304   6.6214   6.6831   6.9190   6.9603   7.0268
  7.1301   7.1528   7.2408   7.2866   7.3292   7.3609   7.4168   7.4439
  7.5006   7.7055   7.8045   7.8230   8.0494   8.1332  24.2956  24.5490
 24.7137  24.8042  25.1450  25.3331  50.4495  50.5451  50.6285
 --------------------------------------------------------------
 
          Ground-State Mulliken Net Atomic Charges

     Atom                 Charge (a.u.)    Spin (a.u.)
  --------------------------------------------------------
      1 C                    -0.272868      -0.005544
      2 O                     0.089418       0.320968
      3 O                    -0.251273       0.661220
      4 C                    -0.284350       0.021452
      5 C                    -0.069999      -0.001857
      6 C                    -0.324493      -0.000549
      7 C                    -0.300970       0.003275
      8 C                    -0.194394      -0.000676
      9 H                     0.293631       0.001061
     10 H                     0.221116       0.000870
     11 H                     0.294333       0.000184
     12 H                     0.284792      -0.000031
     13 H                     0.284866       0.000149
     14 H                     0.299540      -0.000015
     15 O                    -0.408070       0.001723
     16 H                     0.338721      -0.002228
  --------------------------------------------------------
  Sum of atomic charges =     0.000000
  Sum of spin   charges =     1.000000

 -----------------------------------------------------------------
                    Cartesian Multipole Moments
 -----------------------------------------------------------------
    Charge (ESU x 10^10)
                 0.0000
    Dipole Moment (Debye)
         X       4.0717      Y      -1.3536      Z       1.4259
       Tot       4.5215
    Quadrupole Moments (Debye-Ang)
        XX     -64.7547     XY      -1.4253     YY     -57.1852
        XZ      -3.8005     YZ       0.3810     ZZ     -46.5101
    Octopole Moments (Debye-Ang^2)
       XXX     166.3854    XXY      -4.7316    XYY      53.8665
       YYY     -18.6883    XXZ      11.3424    XYZ      -0.9684
       YYZ      18.3167    XZZ      30.9058    YZZ      -2.9971
       ZZZ      11.0728
    Hexadecapole Moments (Debye-Ang^3)
      XXXX   -1030.8371   XXXY      54.9683   XXYY    -209.5785
      XYYY      78.3115   YYYY    -402.0420   XXXZ     -45.4376
      XXYZ      24.1956   XYYZ     -13.5297   YYYZ     105.0727
      XXZZ    -174.8954   XYZZ      15.5315   YYZZ    -117.4204
      XZZZ     -15.8185   YZZZ      66.9006   ZZZZ    -290.4520
 -----------------------------------------------------------------
 Calculating analytic gradient of the SCF energy
 Gradient of CDS energy
            1           2           3           4           5           6
    1  -0.0001574  -0.0000636  -0.0000230  -0.0003563   0.0001534   0.0003664
    2   0.0000699   0.0000871  -0.0000491   0.0003966   0.0001253  -0.0001898
    3  -0.0000811  -0.0000044   0.0000581  -0.0001764  -0.0002735  -0.0003494
            7           8           9          10          11          12
    1   0.0001634  -0.0001864  -0.0001757   0.0000844   0.0000227   0.0001474
    2  -0.0003332  -0.0000676   0.0001422   0.0001420   0.0001075  -0.0001114
    3   0.0003748   0.0003714   0.0000279   0.0001155  -0.0001826  -0.0000868
           13          14          15          16
    1   0.0001046  -0.0000727   0.0001851  -0.0001923
    2  -0.0001418  -0.0000591  -0.0002504   0.0001320
    3   0.0001048   0.0001770   0.0003596  -0.0004348
 Gradient of SCF Energy
            1           2           3           4           5           6
    1   0.0021951   0.0006441  -0.0018136  -0.0046674  -0.0049187  -0.0018093
    2  -0.0076739  -0.0015622   0.0012499  -0.0038080   0.0022068   0.0013307
    3  -0.0082835   0.0010419  -0.0003152  -0.0044110   0.0057753   0.0033991
            7           8           9          10          11          12
    1  -0.0006357  -0.0019920  -0.0014581   0.0037019   0.0026473   0.0069878
    2   0.0016554   0.0083578   0.0036963   0.0033263   0.0017149  -0.0049752
    3  -0.0044977  -0.0043373   0.0056861   0.0047300  -0.0070222  -0.0035806
           13          14          15          16
    1   0.0051866  -0.0030162   0.0005040  -0.0015559
    2  -0.0070918  -0.0022353   0.0109138  -0.0071054
    3   0.0051779   0.0080409   0.0054966  -0.0069002
 Max gradient component =       1.091E-02
 RMS gradient           =       4.712E-03
 Computing fast CPCM-SWIG gradient
 Updating gradient with PCM contributions...
 -- total gradient after adding PCM contribution --
---------------------------------------------------
  Atom         X              Y              Z     
---------------------------------------------------
   1       0.000914      -0.000226      -0.000209
   2      -0.000060       0.000001       0.000013
   3      -0.000154       0.000009      -0.000118
   4      -0.000172      -0.000059       0.000101
   5      -0.000031      -0.000040       0.000056
   6       0.000009      -0.000032       0.000018
   7      -0.000055       0.000055       0.000031
   8      -0.000212       0.000108      -0.000029
   9      -0.000272       0.000195       0.000139
  10       0.000003      -0.000007       0.000005
  11       0.000033      -0.000006       0.000008
  12       0.000016      -0.000022       0.000047
  13      -0.000033       0.000004       0.000060
  14      -0.000028       0.000014       0.000032
  15      -0.000003       0.000020      -0.000085
  16       0.000045      -0.000014      -0.000070
---------------------------------------------------
 Number of fixed atoms: 0
 Gradient time:  CPU 295.05 s  wall 23.47 s
 ----------------------------------------------------------------
             Standard Nuclear Orientation (Angstroms)
    I     Atom           X                Y                Z
 ----------------------------------------------------------------
    1      C      -1.3218393457     0.2598367185     0.5758233778
    2      O      -2.2812278712    -0.5536591596    -0.2013951577
    3      O      -3.4178386926     0.0567965551    -0.3874159016
    4      C      -0.4474771055     1.0617248484    -0.3813983262
    5      C       0.5721678738     0.2083175577    -1.0791779162
    6      C       1.0813756307    -0.8590596951    -0.4684424870
    7      C       0.5935371864    -1.2469686883     0.8598764867
    8      C      -0.5178376997    -0.7201539130     1.3755913678
    9      H      -1.9279166443     0.9229479354     1.1839985604
   10      H       0.0930887949     1.7665481932     0.2602450180
   11      H       0.9160967714     0.5374380312    -2.0513125150
   12      H       1.8619585168    -1.4490442788    -0.9282190891
   13      H       1.1456988295    -1.9953446307     1.4127211188
   14      H      -0.9102138727    -1.0391133490     2.3308099416
   15      O      -1.2105484191     1.8600454599    -1.2696380911
   16      H      -1.6362893525     1.2867230149    -1.9179745872
 ----------------------------------------------------------------
 Nuclear Repulsion Energy =         451.17273677 hartrees
 There are       34 alpha and       33 beta electrons
 Discretize the solute cavity surface with Lebedev spheres
	Using 110 Lebedev grid points for each H atom
	Using 194 Lebedev grid points for other atoms
	Atomic van der Waals radii will be scaled by 1.20
 Remove points where switching function is < 1.0e-08
 Keep 1235 surface tesserae and discard 1281 interior tesserae
 Molecular Surface Area = 144.786 Angst**2
 Requested basis set is 6-311++G(2df,2p)
 There are 114 shells and 376 basis functions
 A cutoff of  1.0D-12 yielded   6060 shell pairs
 There are     66666 function pairs (     83580 Cartesian)
 Smallest overlap matrix eigenvalue = 2.69E-06
 Guess MOs from SCF MO coefficient file

 -----------------------------------------------------------------------
  General SCF calculation program by
  Eric Jon Sundstrom, Paul Horn, Yuezhi Mao, Dmitri Zuev, Alec White,
  David Stuck, Shaama M.S., Shane Yost, Joonho Lee, David Small,
  Daniel Levine, Susi Lehtola, Hugh Burton, Evgeny Epifanovsky,
  Bang C. Huynh
 -----------------------------------------------------------------------
 Exchange:     0.1500 Hartree-Fock + 1.0000 wB97M-V + LR-HF
 Correlation:  1.0000 wB97M-V
 Using SG-2 standard quadrature grid
 Nonlocal Correlation:  VV10 with C = 0.0100 and b = 6.00 and scale = 1.00000
 Grid used for NLC:  SG-1 standard quadrature
 
 Citation of the SMD model:
 Marenich, A.V.; Cramer, C.J.; Truhlar, D.G.
 J. Phys. Chem. B 2009, 113, 6378-6396.
 iSolventCode=           1
 Solvent: water                                                           
 
 vradii
            1           2           3           4           5           6
    1   1.8500000   1.5200000   1.5200000   1.8500000   1.8500000   1.8500000
            7           8           9          10          11          12
    1   1.8500000   1.8500000   1.2000000   1.2000000   1.2000000   1.2000000
           13          14          15          16
    1   1.2000000   1.2000000   1.5200000   1.2000000
 -------------------------------------------------------
 OpenMP BLAS3 based DFT computing Module                
 Release: version 1.0, May 2013, Q-Chem Inc. Pittsburgh 
 -------------------------------------------------------
 A unrestricted SCF calculation will be
 performed using Roothaan-Hall, DIIS, GDM
 SCF converges when RMS gradient is below 1.0e-07
 ---------------------------------------
  Cycle       Energy         DIIS error
 ---------------------------------------
    1    -458.3322485728      1.57e-04  Roothaan Step
 ---------------------------------------
  Cycle       Energy         DIIS error
 ---------------------------------------
    1    -458.3529114703      1.67e-04  
    2    -458.3548076812      1.51e-04  Done DIIS. Switching to GDM
 ---------------------------------------
  Cycle       Energy        RMS Gradient
 ---------------------------------------
    1    -458.3548076812      1.30e-02   Normal BFGS step
    2    -458.3543841982      2.28e-02  Line search: overstep
    3    -458.3558567148      3.33e-03   Normal BFGS step
    4    -458.3559319076      7.66e-04   Normal BFGS step
    5    -458.3559531688      9.42e-04   Normal BFGS step
    6    -458.3559575874      3.61e-04   Normal BFGS step
    7    -458.3559583436      2.52e-04   Normal BFGS step
    8    -458.3559586782      1.10e-04   Normal BFGS step
    9    -458.3559587631      4.29e-05   Normal BFGS step
   10    -458.3559587737      3.92e-05   Normal BFGS step
   11    -458.3559587773      3.33e-05   Normal BFGS step
   12    -458.3559587803      2.16e-05   Normal BFGS step
   13    -458.3559587823      1.06e-05   Normal BFGS step
   14    -458.3559587837      5.64e-06   Normal BFGS step
   15    -458.3559587840      1.83e-06   Normal BFGS step
   16    -458.3559587840      4.21e-07   Normal BFGS step
   17    -458.3559587840      3.43e-07   Normal BFGS step
   18    -458.3559587840      7.79e-08  Convergence criterion met
 ---------------------------------------
 SCF time:   CPU 2013.30s  wall 137.00s 
<S^2> =          0.754113779
(3)  G-ENP(liq) elect-nuc-pol free energy of system     -458.355958784 a.u.
(4)  G-CDS(liq) cavity-dispersion-solvent structure 
     free energy                                                2.4710 kcal/mol
(6)  G-S(liq) free energy of system                     -458.352020994 a.u.
 SCF   energy in the final basis set =     -458.3520209942
 Total energy in the final basis set =     -458.3520209942
 
 --------------------------------------------------------------
 
                    Orbital Energies (a.u.)
 --------------------------------------------------------------
 
 Alpha MOs
 -- Occupied --
-19.4613 -19.4145 -19.3460 -10.4108 -10.4084 -10.3568 -10.3505 -10.3495
-10.3475  -1.3399  -1.1687  -1.0278  -0.9591  -0.8749  -0.8592  -0.7516
 -0.7266  -0.6693  -0.6495  -0.6340  -0.6187  -0.5885  -0.5590  -0.5557
 -0.5451  -0.5250  -0.4854  -0.4559  -0.4482  -0.4318  -0.4138  -0.4060
 -0.3773  -0.3281
 -- Virtual --
  0.0192   0.0276   0.0372   0.0416   0.0480   0.0580   0.0608   0.0819
  0.0981   0.1015   0.1063   0.1200   0.1343   0.1400   0.1471   0.1523
  0.1547   0.1565   0.1622   0.1649   0.1673   0.1699   0.1755   0.1783
  0.1846   0.1900   0.2028   0.2073   0.2106   0.2200   0.2342   0.2365
  0.2439   0.2500   0.2591   0.2663   0.2838   0.2928   0.2998   0.3121
  0.3197   0.3245   0.3363   0.3421   0.3427   0.3571   0.3652   0.3737
  0.3814   0.3851   0.3917   0.3965   0.4027   0.4133   0.4270   0.4344
  0.4383   0.4663   0.4763   0.5110   0.5220   0.5426   0.5480   0.5805
  0.5944   0.6078   0.6166   0.6237   0.6312   0.6336   0.6469   0.6501
  0.6751   0.6852   0.6943   0.7087   0.7172   0.7319   0.7425   0.7495
  0.7594   0.7685   0.7719   0.7921   0.8024   0.8096   0.8263   0.8324
  0.8434   0.8564   0.8660   0.8952   0.9091   0.9272   0.9506   0.9684
  0.9744   1.0408   1.0449   1.0663   1.0795   1.1096   1.1159   1.1237
  1.1414   1.1478   1.1647   1.1682   1.1918   1.1964   1.2153   1.2210
  1.2241   1.2317   1.2571   1.2606   1.2771   1.2940   1.3122   1.3167
  1.3444   1.3546   1.3659   1.3707   1.3834   1.3975   1.4111   1.4375
  1.4485   1.4511   1.4593   1.4836   1.4887   1.5148   1.5262   1.5395
  1.5501   1.5652   1.5917   1.5977   1.6122   1.6193   1.6372   1.6537
  1.6825   1.6954   1.7200   1.7364   1.7573   1.7851   1.7962   1.8169
  1.8468   1.8768   1.9153   1.9881   1.9973   2.0397   2.0683   2.0836
  2.1127   2.1420   2.2369   2.2806   2.3102   2.3453   2.3894   2.4194
  2.4546   2.6027   2.6153   2.6482   2.6530   2.6785   2.7087   2.7462
  2.7636   2.7894   2.8117   2.8305   2.8439   2.8544   2.8670   2.8803
  2.8980   2.9171   2.9293   2.9517   2.9649   2.9713   2.9838   3.0101
  3.0151   3.0536   3.0719   3.1188   3.1320   3.1545   3.1708   3.1910
  3.2270   3.2511   3.2686   3.2872   3.3138   3.3392   3.3580   3.3810
  3.3947   3.3977   3.4357   3.4477   3.4595   3.4730   3.4833   3.4940
  3.5091   3.5333   3.5415   3.5770   3.6004   3.6297   3.6377   3.6442
  3.7002   3.7260   3.7434   3.7505   3.7586   3.7825   3.7928   3.8168
  3.8309   3.8552   3.8843   3.8936   3.9069   3.9164   3.9371   3.9462
  3.9688   3.9974   4.0447   4.0546   4.0792   4.0855   4.1414   4.1608
  4.1984   4.2172   4.2350   4.2399   4.2709   4.3174   4.3277   4.3280
  4.3672   4.3754   4.4141   4.4835   4.4953   4.5199   4.5297   4.5403
  4.5841   4.6232   4.6518   4.6673   4.6766   4.7084   4.7144   4.7385
  4.7651   4.7694   4.8091   4.8841   4.9220   4.9306   4.9836   5.0271
  5.0331   5.0796   5.0969   5.1044   5.1085   5.1712   5.1876   5.2453
  5.2462   5.2820   5.3068   5.3182   5.3569   5.3944   5.4028   5.4601
  5.4792   5.5281   5.5565   5.5765   5.6197   5.6542   5.6795   5.6853
  5.7275   5.8096   5.8177   5.9074   5.9792   6.0374   6.1089   6.2527
  6.4258   6.4835   6.6098   6.6818   6.8361   6.8795   6.9677   7.1095
  7.1277   7.2159   7.2460   7.3271   7.3524   7.4095   7.4207   7.4552
  7.7052   7.7963   7.8179   8.0348   8.1145  24.2958  24.5488  24.7147
 24.8028  25.1446  25.3326  50.4368  50.5361  50.6280
 
 Beta MOs
 -- Occupied --
-19.4507 -19.3960 -19.3458 -10.4112 -10.4081 -10.3568 -10.3504 -10.3494
-10.3475  -1.3135  -1.1682  -1.0084  -0.9465  -0.8737  -0.8519  -0.7470
 -0.7256  -0.6602  -0.6433  -0.6197  -0.5898  -0.5840  -0.5560  -0.5463
 -0.5264  -0.5073  -0.4817  -0.4537  -0.4451  -0.4257  -0.3994  -0.3865
 -0.3266
 -- Virtual --
 -0.0296   0.0204   0.0283   0.0374   0.0419   0.0483   0.0585   0.0611
  0.0822   0.0991   0.1017   0.1068   0.1213   0.1351   0.1409   0.1483
  0.1528   0.1552   0.1570   0.1626   0.1652   0.1676   0.1702   0.1764
  0.1787   0.1862   0.1910   0.2036   0.2083   0.2111   0.2213   0.2348
  0.2376   0.2447   0.2505   0.2621   0.2731   0.2866   0.2956   0.3017
  0.3133   0.3205   0.3253   0.3371   0.3445   0.3450   0.3597   0.3659
  0.3741   0.3820   0.3869   0.3925   0.3980   0.4054   0.4149   0.4277
  0.4356   0.4403   0.4677   0.4772   0.5114   0.5228   0.5426   0.5487
  0.5806   0.5946   0.6089   0.6169   0.6247   0.6314   0.6339   0.6473
  0.6508   0.6752   0.6855   0.6946   0.7090   0.7176   0.7327   0.7428
  0.7497   0.7597   0.7689   0.7725   0.7928   0.8034   0.8098   0.8268
  0.8328   0.8434   0.8571   0.8664   0.8955   0.9092   0.9278   0.9513
  0.9690   0.9759   1.0429   1.0485   1.0688   1.0813   1.1119   1.1165
  1.1274   1.1423   1.1496   1.1694   1.1732   1.1971   1.2038   1.2183
  1.2281   1.2415   1.2441   1.2588   1.2643   1.2786   1.2951   1.3145
  1.3180   1.3456   1.3555   1.3678   1.3733   1.3851   1.3989   1.4127
  1.4403   1.4494   1.4520   1.4620   1.4848   1.4917   1.5208   1.5308
  1.5415   1.5511   1.5663   1.5937   1.6014   1.6195   1.6259   1.6453
  1.6567   1.6918   1.7103   1.7232   1.7422   1.7677   1.7906   1.7979
  1.8237   1.8490   1.8822   1.9188   1.9895   2.0019   2.0420   2.0710
  2.0845   2.1179   2.1495   2.2403   2.2944   2.3261   2.3524   2.3972
  2.4214   2.4555   2.6030   2.6176   2.6493   2.6582   2.6797   2.7103
  2.7466   2.7638   2.7897   2.8121   2.8308   2.8444   2.8546   2.8672
  2.8807   2.8984   2.9175   2.9296   2.9518   2.9651   2.9716   2.9842
  3.0105   3.0157   3.0540   3.0722   3.1197   3.1325   3.1550   3.1715
  3.1911   3.2273   3.2516   3.2693   3.2875   3.3140   3.3394   3.3586
  3.3813   3.3949   3.3978   3.4358   3.4483   3.4598   3.4733   3.4838
  3.4942   3.5095   3.5336   3.5419   3.5775   3.6009   3.6300   3.6379
  3.6446   3.7008   3.7261   3.7440   3.7510   3.7589   3.7833   3.7933
  3.8173   3.8310   3.8557   3.8849   3.8939   3.9071   3.9165   3.9379
  3.9466   3.9692   3.9979   4.0449   4.0554   4.0802   4.0857   4.1419
  4.1615   4.1987   4.2176   4.2353   4.2404   4.2721   4.3181   4.3280
  4.3285   4.3690   4.3760   4.4144   4.4842   4.4958   4.5212   4.5307
  4.5435   4.5855   4.6387   4.6589   4.6703   4.6793   4.7143   4.7250
  4.7403   4.7662   4.7774   4.8112   4.8979   4.9326   4.9369   4.9863
  5.0286   5.0494   5.0881   5.1451   5.1494   5.1766   5.2009   5.2060
  5.2633   5.2906   5.2961   5.3156   5.3316   5.3642   5.3986   5.4183
  5.4712   5.4858   5.5462   5.5575   5.5849   5.6216   5.6573   5.6859
  5.6928   5.7304   5.8180   5.8364   5.9077   5.9800   6.0379   6.1093
  6.2539   6.4397   6.5303   6.6215   6.6831   6.9191   6.9604   7.0268
  7.1301   7.1529   7.2413   7.2870   7.3293   7.3610   7.4169   7.4443
  7.5007   7.7055   7.8047   7.8232   8.0495   8.1335  24.2958  24.5488
 24.7145  24.8030  25.1447  25.3327  50.4496  50.5453  50.6285
 --------------------------------------------------------------
 
          Ground-State Mulliken Net Atomic Charges

     Atom                 Charge (a.u.)    Spin (a.u.)
  --------------------------------------------------------
      1 C                    -0.274247      -0.005479
      2 O                     0.089916       0.320656
      3 O                    -0.251167       0.661307
      4 C                    -0.283982       0.021544
      5 C                    -0.070738      -0.001867
      6 C                    -0.323658      -0.000540
      7 C                    -0.302202       0.003276
      8 C                    -0.193025      -0.000651
      9 H                     0.293919       0.001052
     10 H                     0.221194       0.000878
     11 H                     0.294316       0.000183
     12 H                     0.284788      -0.000030
     13 H                     0.284882       0.000150
     14 H                     0.299470      -0.000019
     15 O                    -0.408158       0.001770
     16 H                     0.338693      -0.002228
  --------------------------------------------------------
  Sum of atomic charges =     0.000000
  Sum of spin   charges =     1.000000

 -----------------------------------------------------------------
                    Cartesian Multipole Moments
 -----------------------------------------------------------------
    Charge (ESU x 10^10)
                 0.0000
    Dipole Moment (Debye)
         X       4.0626      Y      -1.3539      Z       1.4249
       Tot       4.5131
    Quadrupole Moments (Debye-Ang)
        XX     -64.7323     XY      -1.4225     YY     -57.1881
        XZ      -3.8029     YZ       0.3869     ZZ     -46.5171
    Octopole Moments (Debye-Ang^2)
       XXX     166.3370    XXY      -4.7358    XYY      53.8666
       YYY     -18.6893    XXZ      11.3470    XYZ      -0.9755
       YYZ      18.3175    XZZ      30.9126    YZZ      -2.9917
       ZZZ      11.0665
    Hexadecapole Moments (Debye-Ang^3)
      XXXX   -1030.7658   XXXY      54.9910   XXYY    -209.5784
      XYYY      78.3259   YYYY    -402.0700   XXXZ     -45.4354
      XXYZ      24.2066   XYYZ     -13.5292   YYYZ     105.1015
      XXZZ    -174.9191   XYZZ      15.5322   YYZZ    -117.4393
      XZZZ     -15.8101   YZZZ      66.9361   ZZZZ    -290.5074
 -----------------------------------------------------------------
 Calculating analytic gradient of the SCF energy
 Gradient of CDS energy
            1           2           3           4           5           6
    1  -0.0001597  -0.0000636  -0.0000231  -0.0003559   0.0001533   0.0003664
    2   0.0000704   0.0000872  -0.0000491   0.0003971   0.0001252  -0.0001898
    3  -0.0000803  -0.0000045   0.0000579  -0.0001766  -0.0002735  -0.0003494
            7           8           9          10          11          12
    1   0.0001634  -0.0001854  -0.0001748   0.0000844   0.0000227   0.0001474
    2  -0.0003332  -0.0000683   0.0001418   0.0001420   0.0001075  -0.0001114
    3   0.0003746   0.0003721   0.0000272   0.0001155  -0.0001826  -0.0000868
           13          14          15          16
    1   0.0001046  -0.0000727   0.0001852  -0.0001923
    2  -0.0001418  -0.0000591  -0.0002505   0.0001320
    3   0.0001048   0.0001769   0.0003594  -0.0004348
 Gradient of SCF Energy
            1           2           3           4           5           6
    1   0.0003598   0.0008314  -0.0016391  -0.0042180  -0.0048597  -0.0018090
    2  -0.0071643  -0.0016082   0.0012816  -0.0037043   0.0022384   0.0013396
    3  -0.0079056   0.0010217  -0.0002158  -0.0046102   0.0057075   0.0034136
            7           8           9          10          11          12
    1  -0.0005655  -0.0015682  -0.0009451   0.0037441   0.0026516   0.0069770
    2   0.0015659   0.0081534   0.0033524   0.0033555   0.0017060  -0.0049698
    3  -0.0044500  -0.0042548   0.0053605   0.0046909  -0.0070163  -0.0035739
           13          14          15          16
    1   0.0051803  -0.0030505   0.0004791  -0.0015681
    2  -0.0070994  -0.0022015   0.0108693  -0.0071145
    3   0.0051540   0.0080019   0.0055706  -0.0068943
 Max gradient component =       1.087E-02
 RMS gradient           =       4.629E-03
 Computing fast CPCM-SWIG gradient
 Updating gradient with PCM contributions...
 -- total gradient after adding PCM contribution --
---------------------------------------------------
  Atom         X              Y              Z     
---------------------------------------------------
   1      -0.000908       0.000298       0.000169
   2       0.000115      -0.000045      -0.000009
   3       0.000028       0.000038      -0.000018
   4       0.000263       0.000043      -0.000105
   5       0.000024       0.000001      -0.000004
   6       0.000011      -0.000029       0.000031
   7       0.000020      -0.000030       0.000067
   8       0.000189      -0.000086       0.000067
   9       0.000244      -0.000164      -0.000200
  10       0.000049       0.000026      -0.000028
  11       0.000040      -0.000013       0.000007
  12       0.000014      -0.000022       0.000049
  13      -0.000033      -0.000010       0.000044
  14      -0.000061       0.000042       0.000006
  15      -0.000033      -0.000031      -0.000011
  16       0.000039      -0.000018      -0.000066
---------------------------------------------------
 Number of fixed atoms: 0
 Gradient time:  CPU 294.89 s  wall 23.69 s
 ----------------------------------------------------------------
             Standard Nuclear Orientation (Angstroms)
    I     Atom           X                Y                Z
 ----------------------------------------------------------------
    1      C      -1.3208393457     0.2608367185     0.5758233778
    2      O      -2.2812278712    -0.5536591596    -0.2013951577
    3      O      -3.4178386926     0.0567965551    -0.3874159016
    4      C      -0.4474771055     1.0617248484    -0.3813983262
    5      C       0.5721678738     0.2083175577    -1.0791779162
    6      C       1.0813756307    -0.8590596951    -0.4684424870
    7      C       0.5935371864    -1.2469686883     0.8598764867
    8      C      -0.5178376997    -0.7201539130     1.3755913678
    9      H      -1.9279166443     0.9229479354     1.1839985604
   10      H       0.0930887949     1.7665481932     0.2602450180
   11      H       0.9160967714     0.5374380312    -2.0513125150
   12      H       1.8619585168    -1.4490442788    -0.9282190891
   13      H       1.1456988295    -1.9953446307     1.4127211188
   14      H      -0.9102138727    -1.0391133490     2.3308099416
   15      O      -1.2105484191     1.8600454599    -1.2696380911
   16      H      -1.6362893525     1.2867230149    -1.9179745872
 ----------------------------------------------------------------
 Nuclear Repulsion Energy =         451.17018908 hartrees
 There are       34 alpha and       33 beta electrons
 Discretize the solute cavity surface with Lebedev spheres
	Using 110 Lebedev grid points for each H atom
	Using 194 Lebedev grid points for other atoms
	Atomic van der Waals radii will be scaled by 1.20
 Remove points where switching function is < 1.0e-08
 Keep 1235 surface tesserae and discard 1281 interior tesserae
 Molecular Surface Area = 144.784 Angst**2
 Requested basis set is 6-311++G(2df,2p)
 There are 114 shells and 376 basis functions
 A cutoff of  1.0D-12 yielded   6060 shell pairs
 There are     66666 function pairs (     83580 Cartesian)
 Smallest overlap matrix eigenvalue = 2.68E-06
 Guess MOs from SCF MO coefficient file

 -----------------------------------------------------------------------
  General SCF calculation program by
  Eric Jon Sundstrom, Paul Horn, Yuezhi Mao, Dmitri Zuev, Alec White,
  David Stuck, Shaama M.S., Shane Yost, Joonho Lee, David Small,
  Daniel Levine, Susi Lehtola, Hugh Burton, Evgeny Epifanovsky,
  Bang C. Huynh
 -----------------------------------------------------------------------
 Exchange:     0.1500 Hartree-Fock + 1.0000 wB97M-V + LR-HF
 Correlation:  1.0000 wB97M-V
 Using SG-2 standard quadrature grid
 Nonlocal Correlation:  VV10 with C = 0.0100 and b = 6.00 and scale = 1.00000
 Grid used for NLC:  SG-1 standard quadrature
 
 Citation of the SMD model:
 Marenich, A.V.; Cramer, C.J.; Truhlar, D.G.
 J. Phys. Chem. B 2009, 113, 6378-6396.
 iSolventCode=           1
 Solvent: water                                                           
 
 vradii
            1           2           3           4           5           6
    1   1.8500000   1.5200000   1.5200000   1.8500000   1.8500000   1.8500000
            7           8           9          10          11          12
    1   1.8500000   1.8500000   1.2000000   1.2000000   1.2000000   1.2000000
           13          14          15          16
    1   1.2000000   1.2000000   1.5200000   1.2000000
 -------------------------------------------------------
 OpenMP BLAS3 based DFT computing Module                
 Release: version 1.0, May 2013, Q-Chem Inc. Pittsburgh 
 -------------------------------------------------------
 A unrestricted SCF calculation will be
 performed using Roothaan-Hall, DIIS, GDM
 SCF converges when RMS gradient is below 1.0e-07
 ---------------------------------------
  Cycle       Energy         DIIS error
 ---------------------------------------
    1    -458.3322650388      1.56e-04  Roothaan Step
 ---------------------------------------
  Cycle       Energy         DIIS error
 ---------------------------------------
    1    -458.3529134094      1.66e-04  
    2    -458.3548248662      1.50e-04  Done DIIS. Switching to GDM
 ---------------------------------------
  Cycle       Energy        RMS Gradient
 ---------------------------------------
    1    -458.3548248662      1.26e-02   Normal BFGS step
    2    -458.3544284074      2.23e-02  Line search: overstep
    3    -458.3558562220      3.36e-03   Normal BFGS step
    4    -458.3559314476      7.69e-04   Normal BFGS step
    5    -458.3559526565      9.63e-04   Normal BFGS step
    6    -458.3559571850      3.60e-04   Normal BFGS step
    7    -458.3559579682      2.51e-04   Normal BFGS step
    8    -458.3559583293      1.04e-04   Normal BFGS step
    9    -458.3559584313      8.06e-05   Normal BFGS step
   10    -458.3559584489      7.15e-05   Normal BFGS step
   11    -458.3559584602      5.76e-05   Normal BFGS step
   12    -458.3559584741      2.36e-05   Normal BFGS step
   13    -458.3559584788      9.38e-06   Normal BFGS step
   14    -458.3559584809      6.39e-06   Normal BFGS step
   15    -458.3559584812      1.60e-06   Normal BFGS step
   16    -458.3559584812      3.91e-07   Normal BFGS step
   17    -458.3559584812      2.49e-07   Normal BFGS step
   18    -458.3559584812      6.38e-08  Convergence criterion met
 ---------------------------------------
 SCF time:   CPU 2019.96s  wall 138.00s 
<S^2> =          0.754116105
(3)  G-ENP(liq) elect-nuc-pol free energy of system     -458.355958481 a.u.
(4)  G-CDS(liq) cavity-dispersion-solvent structure 
     free energy                                                2.4709 kcal/mol
(6)  G-S(liq) free energy of system                     -458.352020858 a.u.
 SCF   energy in the final basis set =     -458.3520208583
 Total energy in the final basis set =     -458.3520208583
 
 --------------------------------------------------------------
 
                    Orbital Energies (a.u.)
 --------------------------------------------------------------
 
 Alpha MOs
 -- Occupied --
-19.4612 -19.4145 -19.3460 -10.4108 -10.4084 -10.3568 -10.3505 -10.3495
-10.3475  -1.3398  -1.1687  -1.0276  -0.9590  -0.8749  -0.8593  -0.7515
 -0.7266  -0.6693  -0.6494  -0.6339  -0.6187  -0.5884  -0.5590  -0.5557
 -0.5452  -0.5251  -0.4854  -0.4559  -0.4482  -0.4318  -0.4138  -0.4059
 -0.3774  -0.3281
 -- Virtual --
  0.0192   0.0276   0.0372   0.0416   0.0480   0.0580   0.0608   0.0819
  0.0981   0.1015   0.1063   0.1199   0.1343   0.1400   0.1471   0.1522
  0.1547   0.1565   0.1622   0.1649   0.1673   0.1700   0.1755   0.1783
  0.1845   0.1900   0.2027   0.2073   0.2106   0.2200   0.2341   0.2365
  0.2438   0.2499   0.2590   0.2663   0.2837   0.2928   0.2998   0.3121
  0.3197   0.3245   0.3364   0.3421   0.3427   0.3570   0.3652   0.3737
  0.3814   0.3851   0.3917   0.3965   0.4027   0.4134   0.4271   0.4344
  0.4382   0.4663   0.4763   0.5110   0.5220   0.5426   0.5480   0.5805
  0.5943   0.6078   0.6166   0.6237   0.6312   0.6336   0.6469   0.6501
  0.6752   0.6852   0.6943   0.7087   0.7172   0.7319   0.7425   0.7495
  0.7594   0.7685   0.7719   0.7921   0.8024   0.8096   0.8263   0.8324
  0.8434   0.8564   0.8660   0.8951   0.9091   0.9272   0.9505   0.9684
  0.9744   1.0408   1.0449   1.0664   1.0795   1.1096   1.1159   1.1238
  1.1414   1.1477   1.1647   1.1682   1.1918   1.1964   1.2153   1.2211
  1.2243   1.2317   1.2572   1.2606   1.2771   1.2940   1.3123   1.3168
  1.3444   1.3547   1.3659   1.3707   1.3835   1.3975   1.4112   1.4375
  1.4485   1.4511   1.4594   1.4836   1.4888   1.5148   1.5261   1.5395
  1.5502   1.5653   1.5916   1.5976   1.6122   1.6194   1.6373   1.6537
  1.6826   1.6954   1.7201   1.7365   1.7574   1.7852   1.7962   1.8167
  1.8469   1.8769   1.9154   1.9880   1.9972   2.0396   2.0682   2.0835
  2.1126   2.1419   2.2367   2.2803   2.3102   2.3449   2.3891   2.4194
  2.4546   2.6027   2.6153   2.6481   2.6530   2.6784   2.7086   2.7463
  2.7636   2.7894   2.8118   2.8306   2.8439   2.8544   2.8670   2.8802
  2.8981   2.9170   2.9293   2.9516   2.9651   2.9713   2.9840   3.0102
  3.0154   3.0532   3.0716   3.1189   3.1320   3.1545   3.1708   3.1910
  3.2271   3.2512   3.2685   3.2874   3.3137   3.3392   3.3581   3.3809
  3.3946   3.3977   3.4354   3.4478   3.4595   3.4729   3.4833   3.4940
  3.5090   3.5334   3.5416   3.5770   3.6003   3.6295   3.6378   3.6442
  3.7000   3.7262   3.7436   3.7506   3.7586   3.7825   3.7929   3.8168
  3.8308   3.8551   3.8843   3.8937   3.9068   3.9166   3.9373   3.9462
  3.9689   3.9973   4.0446   4.0547   4.0792   4.0854   4.1416   4.1606
  4.1984   4.2175   4.2352   4.2399   4.2714   4.3175   4.3277   4.3281
  4.3677   4.3756   4.4144   4.4834   4.4954   4.5200   4.5298   4.5403
  4.5844   4.6233   4.6519   4.6675   4.6769   4.7087   4.7146   4.7386
  4.7650   4.7696   4.8097   4.8838   4.9219   4.9308   4.9838   5.0271
  5.0326   5.0795   5.0970   5.1045   5.1085   5.1713   5.1878   5.2453
  5.2462   5.2819   5.3068   5.3181   5.3571   5.3943   5.4027   5.4596
  5.4791   5.5275   5.5566   5.5771   5.6200   5.6541   5.6790   5.6854
  5.7275   5.8087   5.8173   5.9074   5.9793   6.0376   6.1090   6.2528
  6.4230   6.4835   6.6094   6.6818   6.8362   6.8794   6.9677   7.1093
  7.1278   7.2155   7.2456   7.3271   7.3525   7.4093   7.4208   7.4550
  7.7053   7.7959   7.8178   8.0346   8.1143  24.2956  24.5488  24.7138
 24.8041  25.1446  25.3328  50.4367  50.5360  50.6280
 
 Beta MOs
 -- Occupied --
-19.4506 -19.3959 -19.3458 -10.4112 -10.4080 -10.3568 -10.3505 -10.3495
-10.3475  -1.3133  -1.1682  -1.0083  -0.9464  -0.8737  -0.8520  -0.7469
 -0.7257  -0.6602  -0.6432  -0.6196  -0.5898  -0.5840  -0.5560  -0.5463
 -0.5265  -0.5073  -0.4818  -0.4538  -0.4451  -0.4257  -0.3995  -0.3864
 -0.3266
 -- Virtual --
 -0.0295   0.0204   0.0283   0.0374   0.0418   0.0483   0.0585   0.0611
  0.0822   0.0991   0.1017   0.1068   0.1213   0.1351   0.1410   0.1483
  0.1528   0.1552   0.1570   0.1626   0.1652   0.1676   0.1702   0.1763
  0.1787   0.1861   0.1910   0.2036   0.2083   0.2111   0.2213   0.2347
  0.2376   0.2447   0.2504   0.2620   0.2732   0.2866   0.2956   0.3017
  0.3133   0.3204   0.3253   0.3371   0.3445   0.3450   0.3597   0.3659
  0.3741   0.3820   0.3869   0.3926   0.3980   0.4054   0.4150   0.4277
  0.4356   0.4403   0.4677   0.4772   0.5114   0.5228   0.5426   0.5487
  0.5806   0.5946   0.6088   0.6169   0.6247   0.6314   0.6339   0.6474
  0.6508   0.6753   0.6855   0.6946   0.7089   0.7176   0.7328   0.7428
  0.7497   0.7597   0.7690   0.7725   0.7928   0.8033   0.8098   0.8268
  0.8328   0.8434   0.8570   0.8664   0.8955   0.9092   0.9278   0.9513
  0.9690   0.9759   1.0429   1.0485   1.0690   1.0813   1.1118   1.1165
  1.1275   1.1423   1.1495   1.1693   1.1732   1.1971   1.2037   1.2184
  1.2282   1.2416   1.2440   1.2588   1.2643   1.2786   1.2951   1.3146
  1.3180   1.3456   1.3555   1.3679   1.3733   1.3851   1.3989   1.4127
  1.4404   1.4494   1.4520   1.4621   1.4848   1.4919   1.5208   1.5308
  1.5415   1.5511   1.5663   1.5936   1.6014   1.6194   1.6260   1.6454
  1.6567   1.6920   1.7103   1.7233   1.7423   1.7678   1.7906   1.7979
  1.8235   1.8492   1.8823   1.9189   1.9894   2.0018   2.0419   2.0709
  2.0844   2.1179   2.1494   2.2401   2.2941   2.3262   2.3520   2.3968
  2.4214   2.4555   2.6029   2.6175   2.6491   2.6583   2.6796   2.7103
  2.7467   2.7638   2.7898   2.8121   2.8309   2.8445   2.8546   2.8673
  2.8806   2.8986   2.9174   2.9296   2.9518   2.9652   2.9717   2.9844
  3.0105   3.0160   3.0537   3.0720   3.1198   3.1325   3.1550   3.1715
  3.1912   3.2273   3.2516   3.2692   3.2877   3.3139   3.3394   3.3587
  3.3812   3.3948   3.3978   3.4356   3.4484   3.4598   3.4732   3.4837
  3.4941   3.5094   3.5337   3.5419   3.5774   3.6009   3.6298   3.6380
  3.6446   3.7006   3.7263   3.7442   3.7511   3.7589   3.7833   3.7934
  3.8173   3.8310   3.8556   3.8850   3.8940   3.9070   3.9167   3.9380
  3.9466   3.9693   3.9978   4.0448   4.0555   4.0801   4.0857   4.1421
  4.1613   4.1987   4.2179   4.2355   4.2404   4.2726   4.3181   4.3280
  4.3286   4.3694   4.3762   4.4147   4.4841   4.4959   4.5213   4.5307
  4.5436   4.5858   4.6389   4.6589   4.6705   4.6796   4.7146   4.7253
  4.7404   4.7661   4.7775   4.8118   4.8977   4.9324   4.9370   4.9864
  5.0287   5.0489   5.0882   5.1452   5.1495   5.1768   5.2009   5.2061
  5.2634   5.2906   5.2961   5.3156   5.3315   5.3644   5.3986   5.4182
  5.4708   5.4855   5.5458   5.5576   5.5852   5.6218   5.6572   5.6860
  5.6923   5.7303   5.8177   5.8354   5.9077   5.9801   6.0381   6.1094
  6.2539   6.4369   6.5304   6.6211   6.6832   6.9191   6.9604   7.0268
  7.1301   7.1528   7.2409   7.2867   7.3292   7.3609   7.4169   7.4441
  7.5005   7.7056   7.8045   7.8230   8.0493   8.1333  24.2956  24.5488
 24.7136  24.8044  25.1446  25.3328  50.4495  50.5452  50.6286
 --------------------------------------------------------------
 
          Ground-State Mulliken Net Atomic Charges

     Atom                 Charge (a.u.)    Spin (a.u.)
  --------------------------------------------------------
      1 C                    -0.273633      -0.005506
      2 O                     0.089510       0.320898
      3 O                    -0.251246       0.661271
      4 C                    -0.284384       0.021440
      5 C                    -0.070314      -0.001859
      6 C                    -0.323994      -0.000551
      7 C                    -0.301600       0.003296
      8 C                    -0.193716      -0.000693
      9 H                     0.294115       0.001042
     10 H                     0.221083       0.000872
     11 H                     0.294366       0.000183
     12 H                     0.284791      -0.000030
     13 H                     0.284886       0.000149
     14 H                     0.299534      -0.000017
     15 O                    -0.408113       0.001733
     16 H                     0.338713      -0.002228
  --------------------------------------------------------
  Sum of atomic charges =    -0.000000
  Sum of spin   charges =     1.000000

 -----------------------------------------------------------------
                    Cartesian Multipole Moments
 -----------------------------------------------------------------
    Charge (ESU x 10^10)
                -0.0000
    Dipole Moment (Debye)
         X       4.0680      Y      -1.3520      Z       1.4267
       Tot       4.5179
    Quadrupole Moments (Debye-Ang)
        XX     -64.7468     XY      -1.4267     YY     -57.1872
        XZ      -3.8055     YZ       0.3866     ZZ     -46.5114
    Octopole Moments (Debye-Ang^2)
       XXX     166.3794    XXY      -4.7318    XYY      53.8667
       YYY     -18.7011    XXZ      11.3516    XYZ      -0.9760
       YYZ      18.3203    XZZ      30.9057    YZZ      -2.9988
       ZZZ      11.0736
    Hexadecapole Moments (Debye-Ang^3)
      XXXX   -1030.8815   XXXY      54.9781   XXYY    -209.5821
      XYYY      78.3364   YYYY    -402.0796   XXXZ     -45.4619
      XXYZ      24.2078   XYYZ     -13.5352   YYYZ     105.0881
      XXZZ    -174.8968   XYZZ      15.5367   YYZZ    -117.4317
      XZZZ     -15.8287   YZZZ      66.9154   ZZZZ    -290.4699
 -----------------------------------------------------------------
 Calculating analytic gradient of the SCF energy
 Gradient of CDS energy
            1           2           3           4           5           6
    1  -0.0001589  -0.0000637  -0.0000231  -0.0003561   0.0001534   0.0003664
    2   0.0000715   0.0000872  -0.0000492   0.0003967   0.0001253  -0.0001898
    3  -0.0000806  -0.0000045   0.0000580  -0.0001764  -0.0002735  -0.0003494
            7           8           9          10          11          12
    1   0.0001635  -0.0001858  -0.0001752   0.0000845   0.0000227   0.0001474
[...]
 H         -0.142  0.037 -0.013   -0.027  0.090  0.025    0.295  0.297 -0.207
 H         -0.184 -0.240 -0.230   -0.331 -0.284 -0.267    0.313  0.159  0.178
 H         -0.245 -0.456 -0.138   -0.062 -0.116 -0.065    0.419  0.151  0.231
 H         -0.234 -0.212 -0.186    0.140  0.243  0.158    0.035  0.208  0.068
 H         -0.095 -0.467 -0.062    0.358  0.525  0.376    0.071 -0.097  0.044
 O         -0.043  0.071 -0.047   -0.013  0.013 -0.013   -0.041  0.038 -0.039
 H         -0.057  0.151 -0.110    0.008 -0.044  0.023    0.103 -0.185  0.063
 TransDip  -0.156 -0.194 -0.128   -0.039  0.077  0.054    0.299  0.089  0.128

 Mode:                16                     17                     18
 Frequency:       936.16                 968.01                 979.23
 Force Cnst:      2.0411                 1.4388                 1.9617
 Red. Mass:       3.9530                 2.6060                 3.4722
 IR Active:          YES                    YES                    YES
 IR Intens:       43.076                  6.887                 12.451
 Raman Active:       YES                    YES                    YES
               X      Y      Z        X      Y      Z        X      Y      Z
 C          0.279  0.120  0.155   -0.102  0.000  0.112   -0.090  0.199  0.125
 O         -0.060 -0.092 -0.086   -0.000 -0.013 -0.018   -0.030 -0.077 -0.054
 O          0.007  0.003  0.005    0.013  0.001  0.006    0.034  0.012  0.021
 C         -0.081 -0.176 -0.097    0.003  0.012 -0.012   -0.043 -0.057 -0.020
 C         -0.011  0.045  0.194    0.072 -0.025 -0.085    0.033  0.074 -0.158
 C         -0.003  0.028  0.049   -0.148  0.075  0.196    0.040  0.054 -0.074
 C         -0.063  0.087 -0.100    0.022  0.022 -0.077    0.098 -0.170  0.219
 C         -0.067 -0.034 -0.086    0.075  0.021 -0.168   -0.044 -0.015 -0.075
 H          0.293  0.130  0.142   -0.118 -0.212  0.330   -0.252  0.097  0.084
 H          0.063 -0.108 -0.269    0.061 -0.004 -0.043    0.095 -0.057 -0.129
 H         -0.285 -0.045  0.078    0.411 -0.333 -0.067    0.105  0.376 -0.040
 H         -0.289 -0.171 -0.160   -0.289 -0.189  0.315   -0.238 -0.060 -0.422
 H          0.058  0.285  0.034    0.015 -0.050 -0.187   -0.041 -0.177  0.372
 H          0.125  0.203  0.062    0.367  0.014 -0.060   -0.137  0.296 -0.002
 O          0.019 -0.002  0.014    0.017 -0.017  0.017    0.030 -0.031  0.030
 H         -0.088  0.324 -0.201    0.022 -0.036  0.033    0.007  0.043 -0.017
 TransDip   0.153  0.136 -0.047   -0.024 -0.055  0.059   -0.040  0.072  0.077

 Mode:                19                     20                     21
 Frequency:      1016.34                1018.52                1032.32
 Force Cnst:      0.8815                 1.1247                 0.8543
 Red. Mass:       1.4484                 1.8401                 1.3606
 IR Active:          YES                    YES                    YES
 IR Intens:        5.556                 29.076                  1.117
 Raman Active:       YES                    YES                    YES
               X      Y      Z        X      Y      Z        X      Y      Z
 C          0.036 -0.000  0.050   -0.123  0.141 -0.022    0.003 -0.019  0.021
 O         -0.006 -0.007 -0.013   -0.005 -0.034 -0.012    0.002  0.002 -0.002
 O          0.000 -0.001 -0.001    0.020  0.010  0.014   -0.005  0.001 -0.002
 C         -0.042 -0.009  0.021    0.051 -0.011 -0.071   -0.003  0.003  0.001
 C          0.095  0.065 -0.025    0.021  0.024  0.087   -0.001 -0.001 -0.023
 C         -0.085 -0.063 -0.050   -0.063 -0.009  0.015    0.019  0.028  0.020
 C         -0.004 -0.025  0.040    0.045 -0.039 -0.055   -0.075 -0.104 -0.044
 C          0.006  0.041 -0.044    0.018 -0.071  0.059    0.051  0.088  0.022
 H          0.068 -0.110  0.200   -0.268  0.397 -0.436    0.012 -0.063  0.079
 H         -0.117  0.008  0.070    0.085 -0.018 -0.084    0.006 -0.002 -0.003
 H         -0.396 -0.281 -0.319   -0.153 -0.287 -0.074    0.057  0.006 -0.002
 H          0.482  0.372  0.350    0.143  0.266  0.021   -0.119 -0.083 -0.075
 H         -0.028  0.017  0.120    0.349  0.143 -0.108    0.409  0.561  0.372
 H         -0.152  0.053 -0.107    0.206 -0.292  0.069   -0.299 -0.376 -0.276
 O          0.010 -0.003  0.001    0.002 -0.018  0.028    0.003 -0.001 -0.000
 H          0.003  0.011 -0.006   -0.016  0.034 -0.005    0.004 -0.006  0.004
 TransDip  -0.006  0.015  0.074   -0.011  0.115 -0.128    0.010 -0.032  0.006

 Mode:                22                     23                     24
 Frequency:      1114.86                1166.59                1173.96
 Force Cnst:      1.1838                 0.9171                 1.2545
 Red. Mass:       1.6166                 1.1438                 1.5449
 IR Active:          YES                    YES                    YES
 IR Intens:       42.183                  2.001                125.898
 Raman Active:       YES                    YES                    YES
               X      Y      Z        X      Y      Z        X      Y      Z
 C          0.069  0.111 -0.038   -0.045 -0.012 -0.019    0.016 -0.019  0.032
 O         -0.013 -0.015 -0.013    0.005  0.002  0.009   -0.007  0.001 -0.009
 O          0.007  0.000  0.003   -0.003  0.002 -0.000    0.007 -0.004  0.001
 C         -0.094 -0.014  0.110    0.063 -0.032 -0.005    0.078 -0.082  0.069
 C          0.018 -0.030 -0.083    0.005  0.030  0.015   -0.002  0.021 -0.017
 C          0.007 -0.013  0.035   -0.007 -0.016  0.028   -0.028  0.008  0.020
 C          0.020 -0.016 -0.025    0.004 -0.015  0.004   -0.017 -0.003  0.017
 C          0.006 -0.043  0.017    0.019  0.007 -0.013    0.021  0.002 -0.048
 H          0.051  0.239 -0.194   -0.074 -0.129  0.078    0.110  0.272 -0.192
 H         -0.348 -0.095  0.419    0.357 -0.018 -0.270    0.103 -0.299  0.289
 H          0.011  0.165 -0.024   -0.486  0.520  0.007   -0.078  0.100 -0.014
 H         -0.019 -0.350  0.417   -0.002 -0.281  0.375   -0.014  0.085 -0.050
 H          0.325  0.033 -0.262    0.119 -0.022 -0.120   -0.347  0.048  0.409
 H         -0.114  0.089  0.012   -0.021  0.019 -0.026    0.421 -0.282  0.016
 O         -0.011  0.021 -0.028   -0.024  0.017 -0.017   -0.069  0.079 -0.082
 H          0.053 -0.124  0.055   -0.024  0.030 -0.031    0.076 -0.250  0.100
 TransDip   0.116 -0.049  0.165   -0.029 -0.029 -0.018    0.162 -0.198  0.252

 Mode:                25                     26                     27
 Frequency:      1189.69                1270.45                1275.38
 Force Cnst:      1.1186                 2.4282                 3.0045
 Red. Mass:       1.3414                 2.5534                 3.1351
 IR Active:          YES                    YES                    YES
 IR Intens:       67.388                 10.851                  4.140
 Raman Active:       YES                    YES                    YES
               X      Y      Z        X      Y      Z        X      Y      Z
 C          0.026  0.000 -0.023    0.027  0.059 -0.046   -0.005 -0.032  0.065
 O          0.002  0.001  0.004    0.169 -0.085  0.030    0.204 -0.106  0.036
 O         -0.006  0.001 -0.001   -0.158  0.087 -0.025   -0.200  0.105 -0.031
 C         -0.055  0.071 -0.044   -0.143  0.051 -0.092    0.121 -0.081  0.111
 C         -0.023  0.013 -0.043    0.014  0.036  0.016   -0.003 -0.034 -0.021
 C          0.008 -0.021  0.007    0.014 -0.016 -0.012   -0.024  0.021  0.015
 C         -0.025  0.001  0.015   -0.013  0.016 -0.004    0.014 -0.011 -0.004
 C          0.030 -0.021 -0.015    0.008 -0.042  0.028   -0.011  0.018 -0.051
 H         -0.014  0.081 -0.152   -0.084 -0.206  0.131   -0.078  0.182 -0.248
 H         -0.318  0.312 -0.089    0.357 -0.434  0.025   -0.328  0.387 -0.031
 H         -0.109  0.226 -0.008    0.012 -0.060 -0.022    0.017  0.021  0.011
 H          0.031 -0.185  0.247   -0.015 -0.116  0.061   -0.000  0.125 -0.071
 H         -0.293  0.047  0.341   -0.125  0.036  0.135    0.072 -0.004 -0.057
 H          0.430 -0.329  0.044    0.097 -0.098  0.048   -0.127  0.167 -0.054
 O          0.055 -0.060  0.057    0.026  0.007  0.033   -0.029  0.003 -0.043
 H         -0.087  0.245 -0.109    0.274 -0.504  0.311   -0.253  0.493 -0.321
 TransDip  -0.128  0.191 -0.128   -0.078  0.070  0.010   -0.043  0.043  0.024

 Mode:                28                     29                     30
 Frequency:      1313.63                1332.83                1352.22
 Force Cnst:      1.3832                 1.7502                 1.5687
 Red. Mass:       1.3604                 1.6722                 1.4561
 IR Active:          YES                    YES                    YES
 IR Intens:       11.321                  1.816                 37.123
 Raman Active:       YES                    YES                    YES
               X      Y      Z        X      Y      Z        X      Y      Z
 C         -0.071  0.064 -0.031   -0.067 -0.118  0.126   -0.055  0.021 -0.090
 O          0.016 -0.043 -0.026    0.012 -0.017 -0.023    0.003 -0.034 -0.018
 O         -0.006  0.012  0.004   -0.002  0.005  0.001    0.002  0.005  0.004
 C          0.088  0.006 -0.084    0.007  0.055 -0.106   -0.073 -0.017  0.137
 C         -0.013 -0.027  0.009   -0.051  0.037  0.026    0.017  0.017 -0.011
 C          0.007 -0.010  0.011    0.022 -0.012 -0.021    0.002  0.013 -0.024
 C         -0.020  0.006  0.017    0.029 -0.018 -0.009   -0.006 -0.001  0.012
 C         -0.009  0.007  0.027   -0.002  0.024 -0.036    0.011 -0.006  0.027
 H          0.461 -0.024  0.599    0.413  0.624 -0.193    0.604  0.320  0.243
 H         -0.349 -0.064  0.370   -0.088  0.054 -0.027    0.357  0.143 -0.421
 H         -0.125  0.190  0.044    0.012 -0.009  0.029    0.152 -0.195 -0.036
 H          0.013  0.087 -0.103    0.030 -0.205  0.233   -0.002 -0.046  0.041
 H          0.088 -0.020 -0.125    0.015 -0.029 -0.006   -0.027 -0.015  0.019
 H          0.134 -0.133  0.044   -0.236  0.230 -0.064    0.083 -0.116  0.023
 O         -0.009 -0.008  0.009    0.019  0.011  0.027    0.003 -0.004 -0.011
 H         -0.024  0.027 -0.012    0.148 -0.260  0.175   -0.054  0.108 -0.069
 TransDip  -0.085  0.035  0.057   -0.023  0.036 -0.007   -0.190  0.045 -0.011

 Mode:                31                     32                     33
 Frequency:      1382.36                1415.94                1441.04
 Force Cnst:      1.4953                 1.7892                 2.2339
 Red. Mass:       1.3281                 1.5146                 1.8258
 IR Active:          YES                    YES                    YES
 IR Intens:       11.182                 59.040                 69.420
 Raman Active:       YES                    YES                    YES
               X      Y      Z        X      Y      Z        X      Y      Z
 C         -0.027  0.034 -0.004   -0.031  0.061 -0.044   -0.028 -0.007  0.005
 O         -0.005 -0.005 -0.004   -0.007 -0.001 -0.002   -0.004 -0.006 -0.008
 O          0.004 -0.000  0.002    0.008 -0.001  0.002    0.005 -0.001  0.002
 C          0.060  0.026 -0.006    0.044 -0.114 -0.003   -0.055  0.093  0.009
 C         -0.062  0.057  0.032   -0.012 -0.004  0.013    0.087 -0.071 -0.051
 C          0.012  0.026 -0.060   -0.022  0.026 -0.002   -0.046 -0.040  0.127
 C          0.027 -0.003 -0.040    0.026  0.020 -0.074    0.031  0.043 -0.111
 C          0.040 -0.046  0.033    0.067 -0.070  0.051    0.062 -0.067  0.040
 H         -0.041 -0.065  0.095   -0.057 -0.134  0.142    0.129  0.202 -0.056
 H          0.168 -0.328  0.314   -0.368  0.430 -0.275    0.182 -0.166  0.105
 H          0.187 -0.247  0.023    0.017 -0.035  0.021   -0.258  0.372 -0.031
 H          0.029 -0.274  0.356   -0.023 -0.042  0.101   -0.067  0.315 -0.345
 H         -0.242  0.032  0.283   -0.311  0.065  0.317   -0.272  0.083  0.227
 H         -0.217  0.158  0.000   -0.280  0.188 -0.002   -0.357  0.257 -0.024
 O         -0.016 -0.041 -0.019   -0.002  0.054  0.012    0.007 -0.034  0.004
 H         -0.205  0.344 -0.227    0.192 -0.326  0.211   -0.083  0.151 -0.093
 TransDip  -0.051  0.092 -0.020    0.032 -0.176  0.169   -0.140  0.203 -0.102

 Mode:                34                     35                     36
 Frequency:      1678.45                1730.70                3034.82
 Force Cnst:     13.5834                10.6742                 5.8725
 Red. Mass:       8.1836                 6.0484                 1.0822
 IR Active:          YES                    YES                    YES
 IR Intens:        5.844                  3.872                 16.559
 Raman Active:       YES                    YES                    YES
               X      Y      Z        X      Y      Z        X      Y      Z
 C         -0.037  0.013  0.021   -0.037  0.035  0.003   -0.003  0.001  0.001
 O         -0.010 -0.003 -0.007   -0.006 -0.002 -0.004    0.000  0.001  0.000
 O          0.003 -0.001  0.000    0.002 -0.000  0.000    0.000 -0.000 -0.000
 C         -0.025  0.054 -0.019    0.038 -0.047  0.008   -0.041 -0.053 -0.047
 C          0.164 -0.312  0.145   -0.164  0.286 -0.109    0.001 -0.002 -0.000
 C         -0.072  0.289 -0.267    0.140 -0.276  0.160    0.000  0.001 -0.001
 C         -0.327  0.094  0.253   -0.270  0.137  0.127   -0.000  0.000  0.001
 C          0.343 -0.173 -0.118    0.271 -0.153 -0.077   -0.000 -0.001 -0.000
 H         -0.048  0.198 -0.177   -0.092  0.043 -0.057    0.023 -0.023 -0.020
 H          0.016 -0.086  0.068    0.014  0.029 -0.036    0.489  0.652  0.571
 H         -0.182  0.087  0.203    0.201 -0.150 -0.179   -0.001 -0.003  0.003
 H         -0.082  0.016  0.151    0.154  0.072 -0.375   -0.006  0.001  0.002
 H          0.034  0.083 -0.201    0.131  0.123 -0.378    0.001 -0.000  0.001
 H         -0.113  0.176 -0.242   -0.132  0.183 -0.184    0.000 -0.001  0.000
 O         -0.005  0.000  0.007    0.002 -0.004 -0.004    0.000  0.001  0.000
 H          0.005 -0.005  0.006   -0.011  0.015 -0.010   -0.003 -0.014 -0.004
 TransDip  -0.046 -0.020  0.059   -0.043  0.011  0.044   -0.072 -0.022 -0.106

 Mode:                37                     38                     39
 Frequency:      3149.97                3190.60                3196.15
 Force Cnst:      6.3598                 6.5165                 6.5525
 Red. Mass:       1.0879                 1.0865                 1.0887
 IR Active:          YES                    YES                    YES
 IR Intens:        7.452                  0.732                  8.266
 Raman Active:       YES                    YES                    YES
               X      Y      Z        X      Y      Z        X      Y      Z
 C          0.049 -0.051 -0.047    0.001 -0.001 -0.000   -0.002  0.002  0.002
 O          0.000 -0.000 -0.000    0.000  0.000 -0.000   -0.000 -0.000 -0.000
 O         -0.000  0.000  0.000   -0.000  0.000 -0.000    0.000 -0.000  0.000
 C         -0.001 -0.003 -0.001   -0.001  0.001 -0.000   -0.001  0.001  0.000
 C         -0.000  0.000 -0.000    0.018  0.017 -0.050    0.015  0.016 -0.045
 C          0.000 -0.000 -0.000   -0.033  0.024  0.020   -0.006  0.003  0.007
 C         -0.000  0.000 -0.000    0.022 -0.029  0.021   -0.032  0.043 -0.031
 C         -0.003 -0.000  0.005    0.005  0.006 -0.015   -0.010 -0.011  0.028
 H         -0.558  0.604  0.558   -0.008  0.009  0.007    0.020 -0.021 -0.019
 H          0.018  0.026  0.019    0.002  0.001  0.001   -0.001 -0.002 -0.002
 H         -0.003 -0.003  0.009   -0.206 -0.194  0.579   -0.182 -0.171  0.509
 H         -0.004  0.003  0.003    0.392 -0.296 -0.231    0.084 -0.061 -0.052
 H          0.003 -0.005  0.003   -0.250  0.338 -0.249    0.364 -0.493  0.364
 H          0.026  0.018 -0.057   -0.075 -0.061  0.185    0.138  0.113 -0.341
 O         -0.000  0.000 -0.000    0.000 -0.000  0.000    0.000 -0.000  0.000
 H         -0.000 -0.001 -0.000    0.001 -0.000  0.000    0.001  0.000  0.000
 TransDip   0.028 -0.060 -0.057   -0.010  0.003  0.025   -0.027  0.068 -0.056

 Mode:                40                     41                     42
 Frequency:      3211.48                3218.07                3810.47
 Force Cnst:      6.6702                 6.7099                 9.1257
 Red. Mass:       1.0977                 1.0997                 1.0667
 IR Active:          YES                    YES                    YES
 IR Intens:       16.874                 11.221                112.458
 Raman Active:       YES                    YES                    YES
               X      Y      Z        X      Y      Z        X      Y      Z
 C         -0.002  0.002  0.001    0.003 -0.003 -0.001    0.000 -0.000  0.000
 O         -0.000 -0.000 -0.000    0.000  0.000 -0.000    0.000  0.000  0.000
 O          0.000 -0.000  0.000   -0.000  0.000 -0.000   -0.000  0.000 -0.000
 C          0.001 -0.001 -0.001    0.000 -0.001  0.000   -0.000 -0.002 -0.001
 C         -0.010 -0.016  0.038   -0.005 -0.008  0.018    0.000 -0.000  0.000
 C         -0.046  0.038  0.023   -0.028  0.022  0.016    0.000 -0.000 -0.000
 C          0.005 -0.003 -0.001   -0.026  0.032 -0.021   -0.000  0.000  0.000
 C         -0.018 -0.012  0.041    0.027  0.016 -0.057   -0.000 -0.000  0.000
 H          0.015 -0.017 -0.013   -0.029  0.030  0.024   -0.000  0.000  0.000
 H          0.002  0.003  0.003    0.002  0.003  0.002    0.006  0.007  0.008
 H          0.144  0.138 -0.407    0.068  0.066 -0.194   -0.000  0.001 -0.001
 H          0.513 -0.389 -0.300    0.307 -0.230 -0.182    0.000 -0.001 -0.000
 H         -0.022  0.025 -0.015    0.252 -0.341  0.251    0.000 -0.000  0.000
 H          0.192  0.155 -0.468   -0.263 -0.210  0.638    0.000 -0.000  0.001
 O         -0.000  0.000 -0.000   -0.000  0.000 -0.000   -0.028 -0.036 -0.043
 H         -0.001 -0.000 -0.001   -0.001 -0.001 -0.001    0.445  0.584  0.676
 TransDip  -0.079  0.003  0.105   -0.064  0.073 -0.046    0.174  0.120  0.266

 STANDARD THERMODYNAMIC QUANTITIES AT   298.15 K  AND     1.00 ATM

   This Molecule has  0 Imaginary Frequencies
   Zero point vibrational energy:       77.787 kcal/mol

   Atom    1 Element C  Has Mass   12.00000
   Atom    2 Element O  Has Mass   15.99491
   Atom    3 Element O  Has Mass   15.99491
   Atom    4 Element C  Has Mass   12.00000
   Atom    5 Element C  Has Mass   12.00000
   Atom    6 Element C  Has Mass   12.00000
   Atom    7 Element C  Has Mass   12.00000
   Atom    8 Element C  Has Mass   12.00000
   Atom    9 Element H  Has Mass    1.00783
   Atom   10 Element H  Has Mass    1.00783
   Atom   11 Element H  Has Mass    1.00783
   Atom   12 Element H  Has Mass    1.00783
   Atom   13 Element H  Has Mass    1.00783
   Atom   14 Element H  Has Mass    1.00783
   Atom   15 Element O  Has Mass   15.99491
   Atom   16 Element H  Has Mass    1.00783
   Molecular Mass:   127.039540 amu
   Principal axes and moments of inertia in amu*Bohr^2:
                             1           2           3
    Eigenvalues --      716.59005  1127.76709  1562.02226
          X               0.92037     0.37797     0.10025
          Y              -0.34555     0.66613     0.66095
          Z               0.18304    -0.64296     0.74370
   Rotational Symmetry Number is   1
   The Molecule is an Asymmetric Top
   Translational Enthalpy:        0.889 kcal/mol
   Rotational Enthalpy:           0.889 kcal/mol
   Vibrational Enthalpy:         81.047 kcal/mol
   gas constant (RT):             0.592 kcal/mol
   Translational Entropy:        40.431  cal/mol.K
   Rotational Entropy:           28.625  cal/mol.K
   Vibrational Entropy:          18.783  cal/mol.K

   Total Enthalpy:               83.417 kcal/mol
   Total Entropy:                87.839  cal/mol.K
 Total job time:  15570.54s(wall), 224265.65s(cpu) 
 Wed Apr 24 00:23:42 2024

        *************************************************************
        *                                                           *
        *  Thank you very much for using Q-Chem.  Have a nice day.  *
        *                                                           *
        *************************************************************


