
Running Job 1 of 1 Q_in.in
qchem Q_in.in_437860.0 /scratch/ari.fischer/qChem2074250.hpc-mn1/qchem437860/ 0
/usr/local/qchem-5.4.1/exe/qcprog.exe_s Q_in.in_437860.0 /scratch/ari.fischer/qChem2074250.hpc-mn1/qchem437860/
                  Welcome to Q-Chem
     A Quantum Leap Into The Future Of Chemistry


 Q-Chem 5.4, Q-Chem, Inc., Pleasanton, CA (2021)

 License issued to: Nanyang Technological University (site)

 E. Epifanovsky,  A. T. B. Gilbert,  Xintian Feng,  Joonho Lee,  Yuezhi Mao,  
 N. Mardirossian,  P. Pokhilko,  A. White,  M. Wormit,  M. P. Coons,  
 A. L. Dempwolff,  Zhengting Gan,  D. Hait,  P. R. Horn,  L. D. Jacobson,  
 I. Kaliman,  J. Kussmann,  A. W. Lange,  Ka Un Lao,  D. S. Levine,  Jie Liu,  
 S. C. McKenzie,  A. F. Morrison,  K. Nanda,  F. Plasser,  D. R. Rehn,  
 M. L. Vidal,  Zhi-Qiang You,  Ying Zhu,  B. Alam,  B. Albrecht,  
 A. Aldossary,  E. Alguire,  J. H. Andersen,  D. Barton,  K. Begam,  A. Behn,  
 Y. A. Bernard,  E. J. Berquist,  H. Burton,  A. Carreras,  K. Carter-Fenk,  
 R. Chakraborty,  A. D. Chien,  K. D. Closser,  V. Cofer-Shabica,  
 S. Dasgupta,  Jia Deng,  M. de Wergifosse,  M. Diedenhofen,  Hainam Do,  
 S. Ehlert,  Po-Tung Fang,  S. Fatehi,  Qingguo Feng,  T. Friedhoff,  
 J. Gayvert,  Qinghui Ge,  G. Gidofalvi,  M. Goldey,  J. Gomes,  
 C. Gonzalez-Espinoza,  S. Gulania,  A. Gunina,  M. W. D. Hanson-Heine,  
 P. H. P. Harbach,  A. W. Hauser,  M. F. Herbst,  M. Hernandez Vera,  
 M. Hodecker,  Z. C. Holden,  S. Houck,  Xunkun Huang,  Kerwin Hui,  
 B. C. Huynh,  M. Ivanov,  Hyunjun Ji,  Hanjie Jiang,  B. Kaduk,  S. Kaehler,  
 K. Khistyaev,  Jaehoon Kim,  P. Klunzinger,  Z. Koczor-Benda,  
 Joong Hoon Koh,  D. Kosenkov,  L. Koulias,  T. Kowalczyk,  C. M. Krauter,  
 K. Kue,  A. Kunitsa,  T. Kus,  A. Landau,  K. V. Lawler,  D. Lefrancois,  
 S. Lehtola,  Rain Li,  Yi-Pei Li,  Jiashu Liang,  M. Liebenthal,  
 Hung-Hsuan Lin,  You-Sheng Lin,  Fenglai Liu,  Kuan-Yu Liu,  
 M. Loipersberger,  A. Luenser,  A. Manjanath,  P. Manohar,  E. Mansoor,  
 S. F. Manzer,  Shan-Ping Mao,  A. V. Marenich,  T. Markovich,  S. Mason,  
 S. A. Maurer,  P. F. McLaughlin,  M. F. S. J. Menger,  J.-M. Mewes,  
 S. A. Mewes,  P. Morgante,  J. W. Mullinax,  K. J. Oosterbaan,  G. Paran,  
 Alexander C. Paul,  Suranjan K. Paul,  F. Pavosevic,  Zheng Pei,  S. Prager,  
 E. I. Proynov,  E. Ramos,  B. Rana,  A. E. Rask,  A. Rettig,  R. M. Richard,  
 F. Rob,  E. Rossomme,  T. Scheele,  M. Scheurer,  M. Schneider,  
 N. Sergueev,  S. M. Sharada,  W. Skomorowski,  D. W. Small,  C. J. Stein,  
 Yu-Chuan Su,  E. J. Sundstrom,  Zhen Tao,  J. Thirman,  T. Tsuchimochi,  
 N. M. Tubman,  S. P. Veccham,  O. Vydrov,  J. Wenzel,  J. Witte,  A. Yamada,  
 Kun Yao,  S. Yeganeh,  S. R. Yost,  A. Zech,  Igor Ying Zhang,  Xing Zhang,  
 Yu Zhang,  D. Zuev,  A. Aspuru-Guzik,  A. T. Bell,  N. A. Besley,  
 K. B. Bravaya,  B. R. Brooks,  D. Casanova,  Jeng-Da Chai,  S. Coriani,  
 C. J. Cramer,  A. E. DePrince, III,  R. A. DiStasio Jr.,  A. Dreuw,  
 B. D. Dunietz,  T. R. Furlani,  W. A. Goddard III,  S. Grimme,  
 S. Hammes-Schiffer,  T. Head-Gordon,  W. J. Hehre,  Chao-Ping Hsu,  
 T.-C. Jagau,  Yousung Jung,  A. Klamt,  Jing Kong,  D. S. Lambrecht,  
 WanZhen Liang,  N. J. Mayhall,  C. W. McCurdy,  J. B. Neaton,  
 C. Ochsenfeld,  J. A. Parkhill,  R. Peverati,  V. A. Rassolov,  Yihan Shao,  
 L. V. Slipchenko,  T. Stauch,  R. P. Steele,  J. E. Subotnik,  
 A. J. W. Thom,  A. Tkatchenko,  D. G. Truhlar,  T. Van Voorhis,  
 T. A. Wesolowski,  K. B. Whaley,  H. L. Woodcock III,  P. M. Zimmerman,  
 S. Faraji,  P. M. W. Gill,  M. Head-Gordon,  J. M. Herbert,  A. I. Krylov

 Additional authors for Version 5.4.1: 
 S. Kotaru,  Shaozhi Li,  Xiangyuan Li,  F. Matz,  A. Molle,  Haisheng Ren,  
 Yingli Su,  Hung-Yi Tsai,  C. Utku,  Fang Wang

 Contributors to earlier versions of Q-Chem not listed above: 
 R. D. Adamson,  B. Austin,  R. Baer,  J. Baker,  G. J. O. Beran,  
 K. Brandhorst,  S. T. Brown,  E. F. C. Byrd,  A. K. Chakraborty,  
 G. K. L. Chan,  Chun-Min Chang,  Yunqing Chen,  C.-L. Cheng,  
 Siu Hung Chien,  D. M. Chipman,  D. L. Crittenden,  H. Dachsel,  
 R. J. Doerksen,  A. D. Dutoi,  R. G. Edgar,  J. Fosso-Tande,  
 L. Fusti-Molnar,  D. Ghosh,  A. Ghysels,  A. Golubeva-Zadorozhnaya,  
 J. Gonthier,  M. S. Gordon,  S. R. Gwaltney,  G. Hawkins,  J. E. Herr,  
 A. Heyden,  S. Hirata,  E. G. Hohenstein,  G. Kedziora,  F. J. Keil,  
 C. Kelley,  Jihan Kim,  R. A. King,  R. Z. Khaliullin,  P. P. Korambath,  
 W. Kurlancheek,  A. Laurent,  A. M. Lee,  M. S. Lee,  S. V. Levchenko,  
 Ching Yeh Lin,  D. Liotard,  E. Livshits,  R. C. Lochan,  I. Lotan,  
 L. A. Martinez-Martinez,  P. E. Maslen,  N. Nair,  D. P. O'Neill,  
 D. Neuhauser,  E. Neuscamman,  C. M. Oana,  R. Olivares-Amaya,  R. Olson,  
 T. M. Perrine,  B. Peters,  P. A. Pieniazek,  A. Prociuk,  Y. M. Rhee,  
 J. Ritchie,  M. A. Rohrdanz,  E. Rosta,  N. J. Russ,  H. F. Schaefer III,  
 M. W. Schmidt,  N. E. Schultz,  S. Sharma,  N. Shenvi,  C. D. Sherrill,  
 A. C. Simmonett,  A. Sodt,  T. Stein,  D. Stuck,  K. S. Thanthiriwatte,  
 V. Vanovschi,  L. Vogt,  Tao Wang,  A. Warshel,  M. A. Watson,  
 C. F. Williams,  Q. Wu,  X. Xu,  Jun Yang,  W. Zhang,  Yan Zhao

 Please cite Q-Chem as follows:
 Y. Shao et al., Mol. Phys. 113, 184-215 (2015)
 DOI: 10.1080/00268976.2014.952696

 Q-Chem 5.4.1 for Intel X86 EM64T Linux

 Parts of Q-Chem use Armadillo 9.800.1 (Horizon Scraper).
 http://arma.sourceforge.net/

 Q-Chem begins on Tue Apr 23 18:44:27 2024  

 Host: 
0

     Scratch files written to /scratch/ari.fischer/qChem2074250.hpc-mn1/qchem437860//
 Aug1521 |scratch|qcdevops|jenkins|workspace|build_RNUM 8249   
 Processing $rem in /usr/local/qchem-5.4.1/config/preferences:
 Processing $rem in /home/ari.fischer/.qchemrc:
 Symmetry turned off for PCM/SM12/SMD calculation

 Checking the input file for inconsistencies... 	...done.

--------------------------------------------------------------
User input:
--------------------------------------------------------------
$molecule
0 2
C        -1.3200626931    0.2608755554    0.5888304483
O        -2.2809976981   -0.5549124490   -0.1893559918
O        -3.3842950932    0.1081578408   -0.4458585409
C        -0.4539806828    1.0678602899   -0.3792525391
C         0.5694995054    0.2121663518   -1.0799473817
C         1.0838691132   -0.8608618190   -0.4702254893
C         0.5967584356   -1.2561224551    0.8607141646
C        -0.5145027656   -0.7237704584    1.3867729158
H        -1.9322019679    0.9255827621    1.1984779216
H         0.0847889365    1.7883893777    0.2537972994
H         0.9129218101    0.5477426593   -2.0553265770
H         1.8676872016   -1.4521891510   -0.9341704340
H         1.1511420886   -2.0134503014    1.4085200351
H        -0.9060011852   -1.0472985660    2.3461177653
O        -1.2302029428    1.8507792503   -1.2714244481
H        -1.6506874621    1.2440857123   -1.9035773482
$end

$rem
BASIS = 6-311++G(2df,2p)
GUI = 2
JOB_TYPE = Optimization
METHOD = wB97M-V
SCF_ALGORITHM = DIIS_GDM
MAX_SCF_CYCLES = 400
GEOM_OPT_MAX_CYCLES = 150
SCF_CONVERGENCE = 7
THRESH = 12
Solvent_method = SMD
$end
--------------------------------------------------------------
 ----------------------------------------------------------------
             Standard Nuclear Orientation (Angstroms)
    I     Atom           X                Y                Z
 ----------------------------------------------------------------
    1      C      -1.3200626931     0.2608755554     0.5888304483
    2      O      -2.2809976981    -0.5549124490    -0.1893559918
    3      O      -3.3842950932     0.1081578408    -0.4458585409
    4      C      -0.4539806828     1.0678602899    -0.3792525391
    5      C       0.5694995054     0.2121663518    -1.0799473817
    6      C       1.0838691132    -0.8608618190    -0.4702254893
    7      C       0.5967584356    -1.2561224551     0.8607141646
    8      C      -0.5145027656    -0.7237704584     1.3867729158
    9      H      -1.9322019679     0.9255827621     1.1984779216
   10      H       0.0847889365     1.7883893777     0.2537972994
   11      H       0.9129218101     0.5477426593    -2.0553265770
   12      H       1.8676872016    -1.4521891510    -0.9341704340
   13      H       1.1511420886    -2.0134503014     1.4085200351
   14      H      -0.9060011852    -1.0472985660     2.3461177653
   15      O      -1.2302029428     1.8507792503    -1.2714244481
   16      H      -1.6506874621     1.2440857123    -1.9035773482
 ----------------------------------------------------------------
 Nuclear Repulsion Energy =         450.71923602 hartrees
 There are       34 alpha and       33 beta electrons
 Requested basis set is 6-311++G(2df,2p)
 There are 114 shells and 376 basis functions

 Total QAlloc Memory Limit 288000 MB
 Mega-Array Size       188 MB
 MEM_STATIC part       192 MB
 
 Citation of the SMD model:
 Marenich, A.V.; Cramer, C.J.; Truhlar, D.G.
 J. Phys. Chem. B 2009, 113, 6378-6396.
 iSolventCode=           1
 Solvent: water                                                           
 
 vradii
            1           2           3           4           5           6
    1   1.8500000   1.5200000   1.5200000   1.8500000   1.8500000   1.8500000
            7           8           9          10          11          12
    1   1.8500000   1.8500000   1.2000000   1.2000000   1.2000000   1.2000000
           13          14          15          16
    1   1.2000000   1.2000000   1.5200000   1.2000000
 Changing PCM_VDW_RADII to SMD_RADIUS
 Discretize the solute cavity surface with Lebedev spheres
	Using 110 Lebedev grid points for each H atom
	Using 194 Lebedev grid points for other atoms
	Atomic van der Waals radii will be scaled by 1.20
 Remove points where switching function is < 1.0e-08
 Keep 1242 surface tesserae and discard 1274 interior tesserae
 Molecular Surface Area = 144.534 Angst**2
 A cutoff of  1.0D-12 yielded   6053 shell pairs
 There are     66588 function pairs (     83492 Cartesian)
 Smallest overlap matrix eigenvalue = 2.76E-06

 Scale SEOQF with 1.000000e-01/1.000000e-01/1.000000e-01

 Standard Electronic Orientation quadrupole field applied
 Nucleus-field energy     =     0.0000000050 hartrees
 Guess from superposition of atomic densities
 Warning:  Energy on first SCF cycle will be non-variational
 SAD guess density has 67.000000 electrons

 -----------------------------------------------------------------------
  General SCF calculation program by
  Eric Jon Sundstrom, Paul Horn, Yuezhi Mao, Dmitri Zuev, Alec White,
  David Stuck, Shaama M.S., Shane Yost, Joonho Lee, David Small,
  Daniel Levine, Susi Lehtola, Hugh Burton, Evgeny Epifanovsky,
  Bang C. Huynh
 -----------------------------------------------------------------------
 Exchange:     0.1500 Hartree-Fock + 1.0000 wB97M-V + LR-HF
 Correlation:  1.0000 wB97M-V
 Using SG-2 standard quadrature grid
 Nonlocal Correlation:  VV10 with C = 0.0100 and b = 6.00 and scale = 1.00000
 Grid used for NLC:  SG-1 standard quadrature
 
 Citation of the SMD model:
 Marenich, A.V.; Cramer, C.J.; Truhlar, D.G.
 J. Phys. Chem. B 2009, 113, 6378-6396.
 iSolventCode=           1
 Solvent: water                                                           
 
 vradii
            1           2           3           4           5           6
    1   1.8500000   1.5200000   1.5200000   1.8500000   1.8500000   1.8500000
            7           8           9          10          11          12
    1   1.8500000   1.8500000   1.2000000   1.2000000   1.2000000   1.2000000
           13          14          15          16
    1   1.2000000   1.2000000   1.5200000   1.2000000
 using 16 threads for integral computing
 -------------------------------------------------------
 OpenMP Integral computing Module                
 Release: version 1.0, May 2013, Q-Chem Inc. Pittsburgh 
 -------------------------------------------------------
 -------------------------------------------------------
 OpenMP BLAS3 based DFT computing Module                
 Release: version 1.0, May 2013, Q-Chem Inc. Pittsburgh 
 -------------------------------------------------------
 A unrestricted SCF calculation will be
 performed using DIIS, GDM
 SCF converges when RMS gradient is below 1.0e-07
 ---------------------------------------
  Cycle       Energy         DIIS error
 ---------------------------------------
    1    -460.6084535960      1.28e-02  
    2    -458.2457087807      1.31e-03  Done DIIS. Switching to GDM
 ---------------------------------------
  Cycle       Energy        RMS Gradient
 ---------------------------------------
    1    -458.2457087807      1.26e-01   Descent step
    2    -458.3363241880      3.44e-02   Normal BFGS step
    3    -458.3505002571      3.08e-02   Normal BFGS step
    4    -458.3542989826      4.72e-03   Normal BFGS step
    5    -458.3550948932      5.55e-03   Normal BFGS step
    6    -458.3553204482      3.65e-03   Normal BFGS step
    7    -458.3553954945      2.16e-03   Normal BFGS step
    8    -458.3554139129      8.97e-04   Normal BFGS step
    9    -458.3554174027      6.66e-04   Normal BFGS step
   10    -458.3554186535      4.92e-04   Normal BFGS step
   11    -458.3554192726      4.32e-04   Normal BFGS step
   12    -458.3554199732      2.65e-04   Normal BFGS step
   13    -458.3554203481      1.41e-04   Normal BFGS step
   14    -458.3554204640      5.75e-05   Normal BFGS step
   15    -458.3554204816      1.61e-05   Normal BFGS step
   16    -458.3554204836      8.32e-06   Normal BFGS step
   17    -458.3554204841      4.83e-06   Normal BFGS step
   18    -458.3554204843      3.08e-06   Normal BFGS step
   19    -458.3554204844      1.87e-06   Normal BFGS step
   20    -458.3554204844      1.26e-06   Normal BFGS step
   21    -458.3554204844      3.52e-07   Normal BFGS step
   22    -458.3554204844      1.52e-07   Normal BFGS step
   23    -458.3554204844      7.27e-08  Convergence criterion met
 ---------------------------------------
 SCF time:   CPU 2409.14s  wall 165.00s 
<S^2> =          0.754159721
(3)  G-ENP(liq) elect-nuc-pol free energy of system     -458.355420484 a.u.
(4)  G-CDS(liq) cavity-dispersion-solvent structure 
     free energy                                                2.4801 kcal/mol
(6)  G-S(liq) free energy of system                     -458.351468151 a.u.
 SCF   energy in the final basis set =     -458.3514681505
 Total energy in the final basis set =     -458.3514681505
 
 --------------------------------------------------------------
 
                    Orbital Energies (a.u.)
 --------------------------------------------------------------
 
 Alpha MOs
 -- Occupied --
-19.4614 -19.4156 -19.3474 -10.4126 -10.4098 -10.3591 -10.3526 -10.3516
-10.3499  -1.3350  -1.1683  -1.0272  -0.9575  -0.8734  -0.8580  -0.7502
 -0.7258  -0.6687  -0.6470  -0.6323  -0.6166  -0.5873  -0.5586  -0.5533
 -0.5443  -0.5239  -0.4860  -0.4562  -0.4484  -0.4312  -0.4157  -0.4069
 -0.3780  -0.3278
 -- Virtual --
  0.0181   0.0272   0.0372   0.0414   0.0480   0.0580   0.0607   0.0818
  0.0977   0.1012   0.1061   0.1194   0.1340   0.1398   0.1475   0.1521
  0.1543   0.1562   0.1619   0.1645   0.1669   0.1697   0.1760   0.1779
  0.1845   0.1889   0.2024   0.2072   0.2102   0.2197   0.2339   0.2362
  0.2430   0.2488   0.2563   0.2641   0.2835   0.2935   0.3002   0.3112
  0.3177   0.3209   0.3355   0.3399   0.3429   0.3554   0.3642   0.3724
  0.3795   0.3838   0.3906   0.3953   0.4032   0.4107   0.4262   0.4335
  0.4383   0.4655   0.4751   0.5098   0.5206   0.5408   0.5473   0.5802
  0.5928   0.6065   0.6165   0.6233   0.6290   0.6317   0.6451   0.6512
  0.6729   0.6845   0.6934   0.7068   0.7159   0.7292   0.7401   0.7481
  0.7570   0.7670   0.7712   0.7897   0.8005   0.8091   0.8261   0.8316
  0.8419   0.8505   0.8655   0.8898   0.9061   0.9179   0.9468   0.9662
  0.9731   1.0411   1.0441   1.0687   1.0782   1.1086   1.1153   1.1253
  1.1414   1.1461   1.1600   1.1678   1.1909   1.1983   1.2156   1.2210
  1.2226   1.2305   1.2531   1.2606   1.2733   1.2905   1.3113   1.3133
  1.3411   1.3521   1.3639   1.3741   1.3805   1.3946   1.4084   1.4327
  1.4453   1.4493   1.4536   1.4790   1.4863   1.5106   1.5220   1.5357
  1.5465   1.5621   1.5880   1.5897   1.6123   1.6156   1.6334   1.6529
  1.6759   1.6950   1.7133   1.7353   1.7541   1.7857   1.7943   1.8210
  1.8452   1.8804   1.9145   1.9827   1.9901   2.0338   2.0688   2.0825
  2.1154   2.1358   2.2401   2.2681   2.2993   2.3404   2.3838   2.4165
  2.4530   2.6044   2.6176   2.6459   2.6613   2.6760   2.7094   2.7454
  2.7592   2.7857   2.8098   2.8290   2.8440   2.8514   2.8665   2.8789
  2.8924   2.9160   2.9259   2.9483   2.9615   2.9689   2.9829   3.0090
  3.0138   3.0537   3.0674   3.1123   3.1320   3.1431   3.1640   3.1888
  3.2243   3.2493   3.2672   3.2826   3.3168   3.3350   3.3548   3.3784
  3.3916   3.3930   3.4294   3.4449   3.4555   3.4683   3.4812   3.4904
  3.5033   3.5297   3.5361   3.5749   3.5962   3.6272   3.6308   3.6380
  3.6940   3.7198   3.7416   3.7459   3.7546   3.7820   3.7895   3.8150
  3.8275   3.8496   3.8831   3.8880   3.8961   3.9092   3.9299   3.9436
  3.9631   3.9963   4.0371   4.0457   4.0694   4.0749   4.1299   4.1557
  4.1873   4.2078   4.2257   4.2320   4.2604   4.3067   4.3140   4.3185
  4.3592   4.3616   4.4011   4.4708   4.4808   4.5135   4.5182   4.5283
  4.5707   4.6173   4.6394   4.6522   4.6643   4.6965   4.7104   4.7263
  4.7454   4.7564   4.7985   4.8789   4.9116   4.9145   4.9683   5.0134
  5.0232   5.0698   5.0968   5.1042   5.1106   5.1662   5.1786   5.2403
  5.2434   5.2747   5.3034   5.3121   5.3512   5.3864   5.4050   5.4562
  5.4691   5.5152   5.5479   5.5648   5.6010   5.6422   5.6661   5.6808
  5.7089   5.7909   5.8042   5.8848   5.9607   6.0176   6.0834   6.2232
  6.4134   6.4472   6.5737   6.6756   6.8377   6.8807   6.9622   7.0986
  7.1257   7.2060   7.2480   7.2900   7.3628   7.4081   7.4175   7.4523
  7.6882   7.7973   7.8170   8.0207   8.0933  24.2868  24.5335  24.6949
 24.7820  25.1116  25.2969  50.4287  50.5305  50.6226
 
 Beta MOs
 -- Occupied --
-19.4509 -19.3970 -19.3472 -10.4129 -10.4095 -10.3591 -10.3525 -10.3516
-10.3499  -1.3086  -1.1677  -1.0068  -0.9452  -0.8721  -0.8509  -0.7458
 -0.7249  -0.6592  -0.6411  -0.6182  -0.5885  -0.5827  -0.5553  -0.5449
 -0.5259  -0.5057  -0.4809  -0.4537  -0.4451  -0.4258  -0.4000  -0.3870
 -0.3263
 -- Virtual --
 -0.0319   0.0193   0.0277   0.0374   0.0416   0.0483   0.0585   0.0610
  0.0821   0.0987   0.1014   0.1066   0.1207   0.1348   0.1408   0.1487
  0.1526   0.1547   0.1567   0.1623   0.1648   0.1672   0.1700   0.1767
  0.1785   0.1862   0.1899   0.2033   0.2081   0.2109   0.2211   0.2346
  0.2373   0.2439   0.2494   0.2604   0.2702   0.2861   0.2962   0.3022
  0.3124   0.3184   0.3214   0.3366   0.3420   0.3453   0.3580   0.3646
  0.3729   0.3803   0.3855   0.3913   0.3967   0.4056   0.4120   0.4267
  0.4344   0.4408   0.4669   0.4760   0.5103   0.5213   0.5408   0.5480
  0.5803   0.5930   0.6076   0.6168   0.6241   0.6292   0.6319   0.6455
  0.6521   0.6729   0.6848   0.6937   0.7070   0.7162   0.7302   0.7404
  0.7483   0.7573   0.7675   0.7718   0.7904   0.8013   0.8094   0.8265
  0.8320   0.8420   0.8513   0.8661   0.8905   0.9063   0.9186   0.9476
  0.9668   0.9744   1.0420   1.0489   1.0710   1.0796   1.1106   1.1163
  1.1284   1.1421   1.1482   1.1659   1.1708   1.1949   1.2058   1.2169
  1.2268   1.2402   1.2453   1.2554   1.2653   1.2753   1.2912   1.3136
  1.3154   1.3424   1.3526   1.3648   1.3763   1.3827   1.3961   1.4102
  1.4359   1.4460   1.4502   1.4564   1.4806   1.4894   1.5172   1.5264
  1.5376   1.5475   1.5632   1.5898   1.5931   1.6194   1.6231   1.6404
  1.6565   1.6841   1.7106   1.7172   1.7405   1.7622   1.7927   1.7959
  1.8285   1.8474   1.8853   1.9186   1.9841   1.9945   2.0360   2.0719
  2.0841   2.1205   2.1436   2.2438   2.2811   2.3152   2.3474   2.3915
  2.4186   2.4539   2.6045   2.6201   2.6467   2.6645   2.6787   2.7116
  2.7458   2.7594   2.7860   2.8101   2.8292   2.8446   2.8516   2.8668
  2.8792   2.8929   2.9163   2.9262   2.9484   2.9616   2.9691   2.9833
  3.0093   3.0145   3.0542   3.0678   3.1132   3.1325   3.1436   3.1646
  3.1889   3.2245   3.2497   3.2679   3.2829   3.3170   3.3352   3.3553
  3.3786   3.3917   3.3931   3.4295   3.4455   3.4557   3.4687   3.4816
  3.4905   3.5038   3.5300   3.5364   3.5753   3.5967   3.6275   3.6310
  3.6384   3.6946   3.7198   3.7420   3.7465   3.7549   3.7828   3.7901
  3.8154   3.8277   3.8502   3.8837   3.8883   3.8962   3.9094   3.9306
  3.9440   3.9635   3.9968   4.0375   4.0464   4.0704   4.0751   4.1304
  4.1565   4.1876   4.2082   4.2261   4.2324   4.2616   4.3072   4.3146
  4.3189   4.3605   4.3626   4.4014   4.4715   4.4813   4.5143   4.5194
  4.5307   4.5722   4.6305   4.6484   4.6551   4.6663   4.7012   4.7211
  4.7291   4.7463   4.7663   4.8006   4.8866   4.9182   4.9301   4.9718
  5.0146   5.0401   5.0753   5.1457   5.1513   5.1663   5.1988   5.2052
  5.2590   5.2859   5.2946   5.3091   5.3269   5.3546   5.3920   5.4219
  5.4626   5.4808   5.5321   5.5493   5.5740   5.6030   5.6456   5.6759
  5.6831   5.7130   5.8016   5.8207   5.8851   5.9615   6.0181   6.0838
  6.2242   6.4275   6.4930   6.5850   6.6766   6.9215   6.9621   7.0216
  7.1259   7.1441   7.2299   7.2856   7.2956   7.3709   7.4141   7.4434
  7.4987   7.6886   7.8079   7.8208   8.0350   8.1122  24.2868  24.5335
 24.6947  24.7822  25.1116  25.2969  50.4415  50.5396  50.6232
 --------------------------------------------------------------
 
          Ground-State Mulliken Net Atomic Charges

     Atom                 Charge (a.u.)    Spin (a.u.)
  --------------------------------------------------------
      1 C                    -0.275986      -0.005330
      2 O                     0.085169       0.316097
      3 O                    -0.248835       0.665087
      4 C                    -0.274305       0.019431
      5 C                    -0.084748      -0.001866
      6 C                    -0.315192      -0.000193
      7 C                    -0.307388       0.001614
      8 C                    -0.191853       0.001041
      9 H                     0.293995       0.001839
     10 H                     0.216926       0.001005
     11 H                     0.293862       0.000144
     12 H                     0.285319      -0.000016
     13 H                     0.285056       0.000160
     14 H                     0.298811      -0.000157
     15 O                    -0.397988       0.003653
     16 H                     0.337157      -0.002508
  --------------------------------------------------------
  Sum of atomic charges =    -0.000000
  Sum of spin   charges =     1.000000

 -----------------------------------------------------------------
                    Cartesian Multipole Moments
 -----------------------------------------------------------------
    Charge (ESU x 10^10)
                -0.0000
    Dipole Moment (Debye)
         X       4.0454      Y      -1.4252      Z       1.5384
       Tot       4.5566
    Quadrupole Moments (Debye-Ang)
        XX     -64.4623     XY      -1.2019     YY     -57.1481
        XZ      -4.1937     YZ       0.5712     ZZ     -46.7403
    Octopole Moments (Debye-Ang^2)
       XXX     164.1769    XXY      -5.7914    XYY      54.2649
       YYY     -18.9485    XXZ      12.4497    XYZ      -1.5990
       YYZ      18.7338    XZZ      31.2291    YZZ      -3.6646
       ZZZ      12.1147
    Hexadecapole Moments (Debye-Ang^3)
      XXXX   -1015.9376   XXXY      60.7472   XXYY    -209.5257
      XYYY      81.9902   YYYY    -401.5790   XXXZ     -51.3064
      XXYZ      25.9101   XYYZ     -15.1948   YYYZ     105.8427
      XXZZ    -175.6881   XYZZ      17.6591   YYZZ    -118.9101
      XZZZ     -20.0041   YZZZ      68.5823   ZZZZ    -295.4351
 -----------------------------------------------------------------
 Calculating analytic gradient of the SCF energy
 Gradient of CDS energy
            1           2           3           4           5           6
    1  -0.0001649  -0.0000609  -0.0000221  -0.0003056   0.0001535   0.0003685
    2   0.0000679   0.0000888  -0.0000459   0.0003399   0.0001266  -0.0001876
    3  -0.0000761  -0.0000146   0.0000681  -0.0001152  -0.0002742  -0.0003526
            7           8           9          10          11          12
    1   0.0001633  -0.0001846  -0.0001785   0.0000834   0.0000225   0.0001515
    2  -0.0003418  -0.0000679   0.0001481   0.0001534   0.0001102  -0.0001143
    3   0.0003735   0.0003768   0.0000265   0.0001138  -0.0001877  -0.0000897
           13          14          15          16
    1   0.0001075  -0.0000743   0.0001243  -0.0001837
    2  -0.0001469  -0.0000614  -0.0001866   0.0001175
    3   0.0001062   0.0001820   0.0002968  -0.0004336
 Gradient of SCF Energy
            1           2           3           4           5           6
    1   0.0017076   0.0060950  -0.0066692  -0.0074553  -0.0063063  -0.0000531
    2  -0.0081712  -0.0071450   0.0063484  -0.0032131   0.0042300  -0.0014846
    3  -0.0080557   0.0011798  -0.0015932  -0.0072406   0.0041231   0.0051007
            7           8           9          10          11          12
    1   0.0022635  -0.0052242  -0.0034246   0.0047560   0.0034421   0.0094285
    2  -0.0000269   0.0103163   0.0054885   0.0058146   0.0029719  -0.0069855
    3  -0.0063335  -0.0026366   0.0069675   0.0059203  -0.0097526  -0.0048414
           13          14          15          16
    1   0.0070029  -0.0042377   0.0016055  -0.0029308
    2  -0.0095618  -0.0032620   0.0177197  -0.0130393
    3   0.0065980   0.0109835   0.0090337  -0.0094528
 Max gradient component =       1.772E-02
 RMS gradient           =       6.734E-03
 Computing fast CPCM-SWIG gradient
 Updating gradient with PCM contributions...
 -- total gradient after adding PCM contribution --
---------------------------------------------------
  Atom         X              Y              Z     
---------------------------------------------------
   1       0.000078      -0.000559      -0.000183
   2       0.005658      -0.005656       0.000025
   3      -0.005104       0.005164      -0.001524
   4      -0.002470       0.000030      -0.002692
   5      -0.001883       0.002326      -0.001720
   6       0.001835      -0.003009       0.001872
   7       0.002977      -0.001660      -0.001776
   8      -0.003503       0.002106       0.001664
   9      -0.002090       0.002016       0.001390
  10       0.001124       0.002414       0.001323
  11       0.000855       0.001247      -0.002833
  12       0.002446      -0.002001      -0.001206
  13       0.001743      -0.002383       0.001548
  14      -0.001238      -0.000989       0.002920
  15       0.001706       0.007235       0.004197
  16      -0.002133      -0.006280      -0.003002
---------------------------------------------------
 Number of fixed atoms: 0
 Gradient time:  CPU 324.40 s  wall 26.00 s
 Geometry Optimization Parameters
   NAtoms,    NIC,     NZ,  NCons,   NDum,   NFix, NCnnct, MaxDiis
       16     113       0       0       0       0       0       0


** GEOMETRY OPTIMIZATION IN DELOCALIZED INTERNAL COORDINATES **
   Searching for a Minimum

   Optimization Cycle:   1

                       Coordinates (Angstroms)
     ATOM                X               Y               Z
      1  C        -1.3200626931    0.2608755554    0.5888304483
      2  O        -2.2809976981   -0.5549124490   -0.1893559918
      3  O        -3.3842950932    0.1081578408   -0.4458585409
      4  C        -0.4539806828    1.0678602899   -0.3792525391
      5  C         0.5694995054    0.2121663518   -1.0799473817
      6  C         1.0838691132   -0.8608618190   -0.4702254893
      7  C         0.5967584356   -1.2561224551    0.8607141646
      8  C        -0.5145027656   -0.7237704584    1.3867729158
      9  H        -1.9322019679    0.9255827621    1.1984779216
     10  H         0.0847889365    1.7883893777    0.2537972994
     11  H         0.9129218101    0.5477426593   -2.0553265770
     12  H         1.8676872016   -1.4521891510   -0.9341704340
     13  H         1.1511420886   -2.0134503014    1.4085200351
     14  H        -0.9060011852   -1.0472985660    2.3461177653
     15  O        -1.2302029428    1.8507792503   -1.2714244481
     16  H        -1.6506874621    1.2440857123   -1.9035773482
   Point Group: c1    Number of degrees of freedom:    42


   Energy is   -458.351468151


 Attempting to generate delocalized internal coordinates
 Initial Hessian constructed with Jon Baker's OPTIMIZE code

 42 Hessian modes will be used to form the next step
  Hessian Eigenvalues:
     0.004881    0.008493    0.013230    0.014185    0.015681    0.018152
     0.021336    0.021536    0.025132    0.041858    0.044829    0.058067
     0.066633    0.076080    0.082419    0.137379    0.158946    0.159560
     0.159967    0.159996    0.160000    0.168685    0.195420    0.209143
     0.219864    0.250000    0.284097    0.306628    0.312979    0.336727
     0.344123    0.346434    0.348063    0.351430    0.351935    0.352851
     0.353393    0.427239    0.529998    0.543625    0.562952    0.638315

 Minimum search - taking simple RFO step
 Searching for Lamda that Minimizes Along All modes
 Value Taken    Lamda =  -0.00127303
 Step Taken.  Stepsize is  0.222534

                             Maximum     Tolerance    Cnvgd?
         Gradient           0.008172      0.000300      NO
         Displacement       0.085331      0.001200      NO
         Energy change     *********      0.000001      NO


 New Cartesian Coordinates Obtained by Inverse Iteration

 Displacement from previous Coordinates is:  0.341935
 ----------------------------------------------------------------
             Standard Nuclear Orientation (Angstroms)
    I     Atom           X                Y                Z
 ----------------------------------------------------------------
    1      C      -1.3229322856     0.2610023321     0.5720901528
    2      O      -2.2841398271    -0.5620265044    -0.1961091177
    3      O      -3.4429166003     0.0241922691    -0.3400589860
    4      C      -0.4458925445     1.0644811800    -0.3849610053
    5      C       0.5758484446     0.2108189473    -1.0787624213
    6      C       1.0791161542    -0.8592225021    -0.4696823047
    7      C       0.5881840808    -1.2475635645     0.8566435473
    8      C      -0.5208820078    -0.7176713938     1.3725410588
    9      H      -1.9297236391     0.9225970395     1.1818786443
   10      H       0.0934119845     1.7673285225     0.2595450004
   11      H       0.9276501036     0.5441871086    -2.0465302079
   12      H       1.8613589653    -1.4485083044    -0.9270532749
   13      H       1.1378448079    -1.9980005826     1.4088045351
   14      H      -0.9131756115    -1.0360490777     2.3276958395
   15      O      -1.1969726880     1.8684795586    -1.2798698673
   16      H      -1.6130447370     1.3029895716    -1.9420797930
 ----------------------------------------------------------------
 Nuclear Repulsion Energy =         450.40281701 hartrees
 There are       34 alpha and       33 beta electrons
 Discretize the solute cavity surface with Lebedev spheres
	Using 110 Lebedev grid points for each H atom
	Using 194 Lebedev grid points for other atoms
	Atomic van der Waals radii will be scaled by 1.20
 Remove points where switching function is < 1.0e-08
 Keep 1238 surface tesserae and discard 1278 interior tesserae
 Molecular Surface Area = 145.353 Angst**2
 Applying Cartesian multipole field
    Component          Value
    ---------          -----
     (2,0,0)        1.00000E-11
     (0,2,0)        2.00000E-11
     (0,0,2)       -3.00000E-11
 Nucleus-field energy     =     0.0000000052 hartrees
 Requested basis set is 6-311++G(2df,2p)
 There are 114 shells and 376 basis functions
 A cutoff of  1.0D-12 yielded   6057 shell pairs
 There are     66620 function pairs (     83510 Cartesian)
 Smallest overlap matrix eigenvalue = 2.68E-06
 Guess MOs from SCF MO coefficient file

 -----------------------------------------------------------------------
  General SCF calculation program by
  Eric Jon Sundstrom, Paul Horn, Yuezhi Mao, Dmitri Zuev, Alec White,
  David Stuck, Shaama M.S., Shane Yost, Joonho Lee, David Small,
  Daniel Levine, Susi Lehtola, Hugh Burton, Evgeny Epifanovsky,
  Bang C. Huynh
 -----------------------------------------------------------------------
 Exchange:     0.1500 Hartree-Fock + 1.0000 wB97M-V + LR-HF
 Correlation:  1.0000 wB97M-V
 Using SG-2 standard quadrature grid
 Nonlocal Correlation:  VV10 with C = 0.0100 and b = 6.00 and scale = 1.00000
 Grid used for NLC:  SG-1 standard quadrature
 
 Citation of the SMD model:
 Marenich, A.V.; Cramer, C.J.; Truhlar, D.G.
 J. Phys. Chem. B 2009, 113, 6378-6396.
 iSolventCode=           1
 Solvent: water                                                           
 
 vradii
            1           2           3           4           5           6
    1   1.8500000   1.5200000   1.5200000   1.8500000   1.8500000   1.8500000
            7           8           9          10          11          12
    1   1.8500000   1.8500000   1.2000000   1.2000000   1.2000000   1.2000000
           13          14          15          16
    1   1.2000000   1.2000000   1.5200000   1.2000000
 -------------------------------------------------------
 OpenMP BLAS3 based DFT computing Module                
 Release: version 1.0, May 2013, Q-Chem Inc. Pittsburgh 
 -------------------------------------------------------
 A unrestricted SCF calculation will be
 performed using Roothaan-Hall, DIIS, GDM
 SCF converges when RMS gradient is below 1.0e-07
 ---------------------------------------
  Cycle       Energy         DIIS error
 ---------------------------------------
    1    -458.3219459559      3.22e-04  Roothaan Step
 ---------------------------------------
  Cycle       Energy         DIIS error
 ---------------------------------------
    1    -458.3514420931      1.80e-04  
    2    -458.3544737270      1.49e-04  Done DIIS. Switching to GDM
 ---------------------------------------
  Cycle       Energy        RMS Gradient
 ---------------------------------------
    1    -458.3544737270      1.17e-02   Normal BFGS step
    2    -458.3543286605      2.17e-02  Line search: overstep
    3    -458.3555778195      5.63e-03   Normal BFGS step
    4    -458.3557707716      2.66e-03   Normal BFGS step
    5    -458.3558169186      1.53e-03   Normal BFGS step
    6    -458.3558367734      9.38e-04   Normal BFGS step
    7    -458.3558403805      8.02e-04   Normal BFGS step
    8    -458.3558423702      5.79e-04   Normal BFGS step
    9    -458.3558432384      4.05e-04   Normal BFGS step
   10    -458.3558439980      2.03e-04   Normal BFGS step
   11    -458.3558445258      9.05e-05   Normal BFGS step
   12    -458.3558446505      6.94e-05   Normal BFGS step
   13    -458.3558446752      3.66e-05   Normal BFGS step
   14    -458.3558446837      1.41e-05   Normal BFGS step
   15    -458.3558446864      6.14e-06   Normal BFGS step
   16    -458.3558446869      4.15e-06   Normal BFGS step
   17    -458.3558446870      2.42e-06   Normal BFGS step
   18    -458.3558446871      1.56e-06   Normal BFGS step
   19    -458.3558446872      8.98e-07   Normal BFGS step
   20    -458.3558446872      3.10e-07   Normal BFGS step
   21    -458.3558446872      1.11e-07   Normal BFGS step
   22    -458.3558446872      4.89e-08  Convergence criterion met
 ---------------------------------------
 SCF time:   CPU 2451.03s  wall 168.00s 
<S^2> =          0.754134625
(3)  G-ENP(liq) elect-nuc-pol free energy of system     -458.355844687 a.u.
(4)  G-CDS(liq) cavity-dispersion-solvent structure 
     free energy                                                2.4799 kcal/mol
(6)  G-S(liq) free energy of system                     -458.351892772 a.u.
 SCF   energy in the final basis set =     -458.3518927716
 Total energy in the final basis set =     -458.3518927716
 
 --------------------------------------------------------------
 
                    Orbital Energies (a.u.)
 --------------------------------------------------------------
 
 Alpha MOs
 -- Occupied --
-19.4612 -19.4149 -19.3460 -10.4110 -10.4088 -10.3564 -10.3502 -10.3492
-10.3472  -1.3376  -1.1679  -1.0278  -0.9593  -0.8751  -0.8593  -0.7516
 -0.7264  -0.6681  -0.6491  -0.6336  -0.6183  -0.5882  -0.5588  -0.5558
 -0.5450  -0.5250  -0.4850  -0.4555  -0.4480  -0.4321  -0.4135  -0.4066
 -0.3779  -0.3281
 -- Virtual --
  0.0193   0.0276   0.0372   0.0416   0.0480   0.0580   0.0609   0.0818
  0.0981   0.1015   0.1062   0.1198   0.1343   0.1399   0.1467   0.1523
  0.1548   0.1565   0.1622   0.1647   0.1673   0.1702   0.1749   0.1784
  0.1843   0.1905   0.2028   0.2071   0.2106   0.2195   0.2340   0.2365
  0.2436   0.2498   0.2577   0.2661   0.2832   0.2920   0.2991   0.3116
  0.3199   0.3245   0.3362   0.3406   0.3433   0.3573   0.3647   0.3741
  0.3815   0.3856   0.3921   0.3960   0.4021   0.4136   0.4259   0.4345
  0.4382   0.4663   0.4757   0.5109   0.5224   0.5424   0.5479   0.5806
  0.5942   0.6077   0.6161   0.6234   0.6318   0.6333   0.6468   0.6486
  0.6747   0.6851   0.6944   0.7093   0.7170   0.7322   0.7433   0.7490
  0.7595   0.7680   0.7712   0.7918   0.8028   0.8096   0.8268   0.8326
  0.8435   0.8580   0.8657   0.8967   0.9103   0.9320   0.9520   0.9675
  0.9739   1.0389   1.0440   1.0644   1.0769   1.1104   1.1151   1.1233
  1.1398   1.1465   1.1648   1.1684   1.1934   1.1948   1.2102   1.2232
  1.2239   1.2327   1.2584   1.2613   1.2776   1.2949   1.3110   1.3165
  1.3444   1.3522   1.3630   1.3697   1.3840   1.3980   1.4114   1.4383
  1.4470   1.4508   1.4614   1.4837   1.4884   1.5140   1.5280   1.5392
  1.5513   1.5657   1.5910   1.5997   1.6075   1.6226   1.6373   1.6531
  1.6841   1.6943   1.7225   1.7352   1.7557   1.7820   1.7964   1.8156
  1.8464   1.8731   1.9134   1.9888   1.9979   2.0352   2.0634   2.0822
  2.1095   2.1416   2.2320   2.2773   2.3104   2.3463   2.3858   2.4180
  2.4547   2.6028   2.6170   2.6464   2.6498   2.6788   2.7078   2.7432
  2.7639   2.7900   2.8111   2.8301   2.8429   2.8549   2.8660   2.8795
  2.8982   2.9164   2.9296   2.9512   2.9657   2.9707   2.9829   3.0108
  3.0143   3.0523   3.0705   3.1174   3.1327   3.1555   3.1702   3.1916
  3.2265   3.2515   3.2671   3.2868   3.3131   3.3402   3.3580   3.3806
  3.3941   3.3973   3.4357   3.4461   3.4589   3.4728   3.4821   3.4946
  3.5094   3.5339   3.5413   3.5763   3.5996   3.6288   3.6381   3.6440
  3.7018   3.7251   3.7417   3.7527   3.7588   3.7824   3.7941   3.8172
  3.8315   3.8547   3.8828   3.8947   3.9065   3.9162   3.9391   3.9457
  3.9689   3.9972   4.0443   4.0536   4.0791   4.0859   4.1429   4.1596
  4.1992   4.2173   4.2351   4.2405   4.2724   4.3166   4.3272   4.3292
  4.3660   4.3750   4.4152   4.4854   4.4952   4.5182   4.5296   4.5406
  4.5849   4.6218   4.6529   4.6663   4.6769   4.7096   4.7140   4.7385
  4.7681   4.7708   4.8087   4.8824   4.9208   4.9305   4.9837   5.0278
  5.0312   5.0792   5.0969   5.1043   5.1071   5.1713   5.1875   5.2433
  5.2468   5.2793   5.3061   5.3191   5.3556   5.3921   5.3982   5.4587
  5.4803   5.5266   5.5560   5.5738   5.6193   5.6496   5.6748   5.6827
  5.7268   5.8092   5.8136   5.9097   5.9764   6.0376   6.1116   6.2548
  6.4212   6.4716   6.5989   6.6782   6.8342   6.8762   6.9642   7.1089
  7.1254   7.2105   7.2423   7.3230   7.3462   7.4049   7.4187   7.4542
  7.7074   7.7930   7.8172   8.0306   8.1070  24.2955  24.5503  24.7140
 24.7974  25.1483  25.3372  50.4330  50.5335  50.6254
 
 Beta MOs
 -- Occupied --
-19.4506 -19.3963 -19.3459 -10.4114 -10.4085 -10.3564 -10.3501 -10.3492
-10.3472  -1.3111  -1.1675  -1.0083  -0.9466  -0.8738  -0.8521  -0.7470
 -0.7254  -0.6596  -0.6429  -0.6195  -0.5891  -0.5837  -0.5558  -0.5459
 -0.5262  -0.5072  -0.4818  -0.4535  -0.4449  -0.4256  -0.3991  -0.3871
 -0.3266
 -- Virtual --
 -0.0301   0.0206   0.0283   0.0374   0.0419   0.0483   0.0584   0.0612
  0.0821   0.0991   0.1017   0.1068   0.1212   0.1353   0.1409   0.1479
  0.1529   0.1553   0.1570   0.1625   0.1650   0.1676   0.1704   0.1758
  0.1789   0.1859   0.1915   0.2037   0.2082   0.2110   0.2209   0.2346
  0.2377   0.2446   0.2503   0.2615   0.2722   0.2860   0.2945   0.3009
  0.3129   0.3206   0.3254   0.3368   0.3433   0.3453   0.3600   0.3657
  0.3745   0.3820   0.3875   0.3931   0.3973   0.4047   0.4153   0.4269
  0.4356   0.4400   0.4677   0.4765   0.5112   0.5232   0.5425   0.5486
  0.5807   0.5945   0.6086   0.6165   0.6245   0.6320   0.6336   0.6474
  0.6491   0.6749   0.6855   0.6947   0.7095   0.7175   0.7330   0.7435
  0.7493   0.7598   0.7685   0.7717   0.7924   0.8037   0.8097   0.8273
  0.8329   0.8435   0.8586   0.8661   0.8970   0.9104   0.9325   0.9528
  0.9681   0.9756   1.0415   1.0471   1.0670   1.0792   1.1123   1.1157
  1.1272   1.1408   1.1484   1.1686   1.1750   1.1983   1.2025   1.2143
  1.2307   1.2410   1.2435   1.2598   1.2642   1.2790   1.2965   1.3133
  1.3176   1.3455   1.3538   1.3656   1.3717   1.3854   1.3993   1.4129
  1.4411   1.4480   1.4516   1.4640   1.4848   1.4910   1.5198   1.5325
  1.5414   1.5523   1.5667   1.5932   1.6036   1.6142   1.6287   1.6460
  1.6559   1.6957   1.7079   1.7257   1.7416   1.7682   1.7855   1.7985
  1.8219   1.8487   1.8791   1.9165   1.9902   2.0025   2.0378   2.0656
  2.0830   2.1149   2.1491   2.2351   2.2911   2.3274   2.3526   2.3934
  2.4199   2.4555   2.6030   2.6191   2.6488   2.6541   2.6798   2.7095
  2.7436   2.7641   2.7903   2.8114   2.8304   2.8435   2.8551   2.8662
  2.8799   2.8986   2.9167   2.9299   2.9515   2.9659   2.9711   2.9833
  3.0111   3.0149   3.0527   3.0708   3.1183   3.1332   3.1560   3.1709
  3.1917   3.2268   3.2520   3.2678   3.2871   3.3134   3.3404   3.3587
  3.3808   3.3943   3.3973   3.4358   3.4466   3.4592   3.4731   3.4826
  3.4947   3.5098   3.5341   3.5417   3.5767   3.6002   3.6292   3.6383
  3.6444   3.7025   3.7252   3.7423   3.7531   3.7591   3.7831   3.7945
  3.8176   3.8317   3.8552   3.8834   3.8950   3.9068   3.9163   3.9398
  3.9462   3.9693   3.9977   4.0445   4.0543   4.0800   4.0862   4.1434
  4.1602   4.1995   4.2178   4.2354   4.2410   4.2735   4.3171   4.3275
  4.3298   4.3677   4.3756   4.4155   4.4861   4.4958   4.5196   4.5304
  4.5439   4.5863   4.6378   4.6595   4.6694   4.6795   4.7166   4.7235
  4.7397   4.7695   4.7787   4.8109   4.8970   4.9310   4.9365   4.9860
  5.0297   5.0469   5.0881   5.1451   5.1497   5.1779   5.2009   5.2049
  5.2632   5.2898   5.2939   5.3148   5.3300   5.3650   5.3961   5.4128
  5.4703   5.4858   5.5436   5.5576   5.5827   5.6212   5.6528   5.6833
  5.6884   5.7293   5.8176   5.8319   5.9100   5.9771   6.0381   6.1120
  6.2560   6.4351   6.5182   6.6104   6.6795   6.9173   6.9575   7.0237
  7.1271   7.1525   7.2353   7.2855   7.3250   7.3540   7.4119   7.4425
  7.4996   7.7077   7.8007   7.8231   8.0453   8.1259  24.2955  24.5504
 24.7138  24.7976  25.1483  25.3372  50.4459  50.5427  50.6259
 --------------------------------------------------------------
 
          Ground-State Mulliken Net Atomic Charges

     Atom                 Charge (a.u.)    Spin (a.u.)
  --------------------------------------------------------
      1 C                    -0.268014      -0.005091
      2 O                     0.088719       0.320187
      3 O                    -0.250272       0.662455
      4 C                    -0.287827       0.021735
      5 C                    -0.064605      -0.001468
      6 C                    -0.331315      -0.000765
      7 C                    -0.292587       0.004365
      8 C                    -0.200957      -0.002109
      9 H                     0.293611       0.000665
     10 H                     0.222361       0.000734
     11 H                     0.294054       0.000183
     12 H                     0.285251      -0.000033
     13 H                     0.284763       0.000135
     14 H                     0.299757       0.000025
     15 O                    -0.412650       0.000929
     16 H                     0.339710      -0.001947
  --------------------------------------------------------
  Sum of atomic charges =    -0.000000
  Sum of spin   charges =     1.000000

 -----------------------------------------------------------------
                    Cartesian Multipole Moments
 -----------------------------------------------------------------
    Charge (ESU x 10^10)
                -0.0000
    Dipole Moment (Debye)
         X       4.1002      Y      -1.2950      Z       1.3420
       Tot       4.5044
    Quadrupole Moments (Debye-Ang)
        XX     -65.0103     XY      -1.5909     YY     -57.1974
        XZ      -3.5985     YZ       0.3097     ZZ     -46.3752
    Octopole Moments (Debye-Ang^2)
       XXX     168.0742    XXY      -3.9928    XYY      53.8849
       YYY     -18.4833    XXZ      10.5180    XYZ      -0.7855
       YYZ      18.1708    XZZ      30.7195    YZZ      -2.6361
       ZZZ      10.1823
    Hexadecapole Moments (Debye-Ang^3)
      XXXX   -1041.8743   XXXY      50.4966   XXYY    -210.6722
      XYYY      75.5087   YYYY    -404.3298   XXXZ     -40.3984
      XXYZ      23.9428   XYYZ     -12.4088   YYYZ     105.6551
      XXZZ    -175.0101   XYZZ      14.4401   YYZZ    -117.4218
      XZZZ     -12.0147   YZZZ      66.5989   ZZZZ    -288.5403
 -----------------------------------------------------------------
 Calculating analytic gradient of the SCF energy
 Gradient of CDS energy
            1           2           3           4           5           6
    1  -0.0001545  -0.0000656  -0.0000245  -0.0003048   0.0001558   0.0003642
    2   0.0000735   0.0000855  -0.0000498   0.0003437   0.0001249  -0.0001907
    3  -0.0000839   0.0000014   0.0000508  -0.0001167  -0.0002705  -0.0003485
            7           8           9          10          11          12
    1   0.0001601  -0.0001856  -0.0001753   0.0000844   0.0000248   0.0001476
    2  -0.0003335  -0.0000646   0.0001367   0.0001414   0.0001081  -0.0001112
    3   0.0003731   0.0003702   0.0000315   0.0001150  -0.0001808  -0.0000863
           13          14          15          16
    1   0.0001041  -0.0000726   0.0001397  -0.0001978
    2  -0.0001421  -0.0000589  -0.0001996   0.0001366
    3   0.0001046   0.0001768   0.0002985  -0.0004352
 Gradient of SCF Energy
            1           2           3           4           5           6
    1   0.0011794   0.0029886  -0.0044893  -0.0034493  -0.0049324  -0.0023265
    2  -0.0079107  -0.0041962   0.0022996  -0.0031458   0.0017985   0.0016351
    3  -0.0074593   0.0017503  -0.0002488  -0.0039056   0.0060179   0.0032462
            7           8           9          10          11          12
    1  -0.0010974  -0.0021815  -0.0009571   0.0037916   0.0028383   0.0069326
    2   0.0020261   0.0082049   0.0033122   0.0033756   0.0018832  -0.0048663
    3  -0.0044514  -0.0047579   0.0057660   0.0044663  -0.0069333  -0.0034658
           13          14          15          16
    1   0.0050660  -0.0027970   0.0015997  -0.0021657
    2  -0.0069692  -0.0021652   0.0117367  -0.0070185
    3   0.0050308   0.0078333   0.0052138  -0.0081024
 Max gradient component =       1.174E-02
 RMS gradient           =       4.806E-03
 Computing fast CPCM-SWIG gradient
 Updating gradient with PCM contributions...
 -- total gradient after adding PCM contribution --
---------------------------------------------------
  Atom         X              Y              Z     
---------------------------------------------------
   1       0.000127      -0.000456       0.000587
   2       0.002363      -0.002647       0.000769
   3      -0.003076       0.001001       0.000139
   4       0.000811       0.000773       0.000618
   5       0.000256      -0.000625       0.000380
   6      -0.000611       0.000479      -0.000276
   7      -0.000502       0.000382       0.000022
   8      -0.000470      -0.000056      -0.000425
   9       0.000151      -0.000218       0.000245
  10       0.000076       0.000019      -0.000305
  11       0.000152       0.000081       0.000160
  12      -0.000061       0.000083       0.000149
  13      -0.000105       0.000097      -0.000046
  14       0.000159       0.000056      -0.000108
  15       0.000961       0.000688      -0.000812
  16      -0.000229       0.000342      -0.001097
---------------------------------------------------
 Number of fixed atoms: 0
 Gradient time:  CPU 319.76 s  wall 25.55 s
 Geometry Optimization Parameters
   NAtoms,    NIC,     NZ,  NCons,   NDum,   NFix, NCnnct, MaxDiis
       16     113       0       0       0       0       0       0

 Cartesian Hessian Update
 Hessian updated using BFGS update


** GEOMETRY OPTIMIZATION IN DELOCALIZED INTERNAL COORDINATES **
   Searching for a Minimum

   Optimization Cycle:   2

                       Coordinates (Angstroms)
     ATOM                X               Y               Z
      1  C        -1.3229322856    0.2610023321    0.5720901528
      2  O        -2.2841398271   -0.5620265044   -0.1961091177
      3  O        -3.4429166003    0.0241922691   -0.3400589860
      4  C        -0.4458925445    1.0644811800   -0.3849610053
      5  C         0.5758484446    0.2108189473   -1.0787624213
      6  C         1.0791161542   -0.8592225021   -0.4696823047
      7  C         0.5881840808   -1.2475635645    0.8566435473
      8  C        -0.5208820078   -0.7176713938    1.3725410588
      9  H        -1.9297236391    0.9225970395    1.1818786443
     10  H         0.0934119845    1.7673285225    0.2595450004
     11  H         0.9276501036    0.5441871086   -2.0465302079
     12  H         1.8613589653   -1.4485083044   -0.9270532749
     13  H         1.1378448079   -1.9980005826    1.4088045351
     14  H        -0.9131756115   -1.0360490777    2.3276958395
     15  O        -1.1969726880    1.8684795586   -1.2798698673
     16  H        -1.6130447370    1.3029895716   -1.9420797930
   Point Group: c1    Number of degrees of freedom:    42


   Energy is   -458.351892772

 Hessian updated using BFGS update

 42 Hessian modes will be used to form the next step
  Hessian Eigenvalues:
     0.006186    0.008555    0.013493    0.014145    0.015672    0.018151
     0.021336    0.021570    0.025161    0.042974    0.045433    0.058039
     0.066674    0.076006    0.084682    0.137714    0.156246    0.159448
     0.159779    0.159982    0.160139    0.183939    0.201695    0.210442
     0.219816    0.246339    0.277303    0.306125    0.316353    0.334779
     0.339591    0.347400    0.348911    0.351114    0.352000    0.352797
     0.353447    0.428731    0.506745    0.543473    0.556469    0.627805

 Minimum search - taking simple RFO step
 Searching for Lamda that Minimizes Along All modes
 Value Taken    Lamda =  -0.00027467
 Step Taken.  Stepsize is  0.103578

                             Maximum     Tolerance    Cnvgd?
         Gradient           0.005898      0.000300      NO
         Displacement       0.045781      0.001200      NO
         Energy change     -0.000425      0.000001      NO


 New Cartesian Coordinates Obtained by Inverse Iteration

 Displacement from previous Coordinates is:  0.179489
 ----------------------------------------------------------------
             Standard Nuclear Orientation (Angstroms)
    I     Atom           X                Y                Z
 ----------------------------------------------------------------
    1      C      -1.3197179640     0.2602727813     0.5776643783
    2      O      -2.2809338551    -0.5530600088    -0.1984760111
    3      O      -3.4118565005     0.0633668417    -0.3996139167
    4      C      -0.4480427498     1.0607525975    -0.3798515085
    5      C       0.5709361545     0.2080483568    -1.0776186966
    6      C       1.0800223555    -0.8586705649    -0.4683943309
    7      C       0.5934844591    -1.2466062483     0.8593102228
    8      C      -0.5159726085    -0.7194479141     1.3758714111
    9      H      -1.9255148057     0.9231365032     1.1858560704
   10      H       0.0914278690     1.7659378880     0.2609650575
   11      H       0.9146695437     0.5377902659    -2.0487327958
   12      H       1.8597594702    -1.4478006476    -0.9287179619
   13      H       1.1448456915    -1.9955837964     1.4105165947
   14      H      -0.9071270054    -1.0384245040     2.3306286023
   15      O      -1.2138565778     1.8551723876    -1.2686908124
   16      H      -1.6383888765     1.2821506618    -1.9166245034
 ----------------------------------------------------------------
 Nuclear Repulsion Energy =         451.52850283 hartrees
 There are       34 alpha and       33 beta electrons
 Discretize the solute cavity surface with Lebedev spheres
	Using 110 Lebedev grid points for each H atom
	Using 194 Lebedev grid points for other atoms
	Atomic van der Waals radii will be scaled by 1.20
 Remove points where switching function is < 1.0e-08
 Keep 1237 surface tesserae and discard 1279 interior tesserae
 Molecular Surface Area = 144.578 Angst**2
 Applying Cartesian multipole field
    Component          Value
    ---------          -----
     (2,0,0)        1.00000E-11
     (0,2,0)        2.00000E-11
     (0,0,2)       -3.00000E-11
 Nucleus-field energy     =     0.0000000050 hartrees
 Requested basis set is 6-311++G(2df,2p)
 There are 114 shells and 376 basis functions
 A cutoff of  1.0D-12 yielded   6060 shell pairs
 There are     66666 function pairs (     83580 Cartesian)
 Smallest overlap matrix eigenvalue = 2.67E-06
 Guess MOs from SCF MO coefficient file

 -----------------------------------------------------------------------
  General SCF calculation program by
  Eric Jon Sundstrom, Paul Horn, Yuezhi Mao, Dmitri Zuev, Alec White,
  David Stuck, Shaama M.S., Shane Yost, Joonho Lee, David Small,
  Daniel Levine, Susi Lehtola, Hugh Burton, Evgeny Epifanovsky,
  Bang C. Huynh
 -----------------------------------------------------------------------
 Exchange:     0.1500 Hartree-Fock + 1.0000 wB97M-V + LR-HF
 Correlation:  1.0000 wB97M-V
 Using SG-2 standard quadrature grid
 Nonlocal Correlation:  VV10 with C = 0.0100 and b = 6.00 and scale = 1.00000
 Grid used for NLC:  SG-1 standard quadrature
 
 Citation of the SMD model:
 Marenich, A.V.; Cramer, C.J.; Truhlar, D.G.
 J. Phys. Chem. B 2009, 113, 6378-6396.
 iSolventCode=           1
 Solvent: water                                                           
 
 vradii
            1           2           3           4           5           6
    1   1.8500000   1.5200000   1.5200000   1.8500000   1.8500000   1.8500000
            7           8           9          10          11          12
    1   1.8500000   1.8500000   1.2000000   1.2000000   1.2000000   1.2000000
           13          14          15          16
    1   1.2000000   1.2000000   1.5200000   1.2000000
 -------------------------------------------------------
 OpenMP BLAS3 based DFT computing Module                
 Release: version 1.0, May 2013, Q-Chem Inc. Pittsburgh 
 -------------------------------------------------------
 A unrestricted SCF calculation will be
 performed using Roothaan-Hall, DIIS, GDM
 SCF converges when RMS gradient is below 1.0e-07
 ---------------------------------------
  Cycle       Energy         DIIS error
 ---------------------------------------
    1    -458.3298357799      2.08e-04  Roothaan Step
 ---------------------------------------
  Cycle       Energy         DIIS error
 ---------------------------------------
    1    -458.3525677990      1.71e-04  
    2    -458.3547181866      1.52e-04  Done DIIS. Switching to GDM
 ---------------------------------------
  Cycle       Energy        RMS Gradient
 ---------------------------------------
    1    -458.3547181866      1.26e-02   Normal BFGS step
    2    -458.3543530365      2.25e-02  Line search: overstep
    3    -458.3557940128      3.46e-03   Normal BFGS step
    4    -458.3558945945      1.48e-03   Normal BFGS step
    5    -458.3559216588      1.04e-03   Normal BFGS step
    6    -458.3559292542      4.38e-04   Normal BFGS step
    7    -458.3559307075      3.69e-04   Normal BFGS step
    8    -458.3559314506      3.04e-04   Normal BFGS step
    9    -458.3559317101      2.23e-04   Normal BFGS step
   10    -458.3559318595      1.62e-04   Normal BFGS step
   11    -458.3559320235      8.17e-05   Normal BFGS step
   12    -458.3559320776      5.03e-05   Normal BFGS step
   13    -458.3559320909      2.21e-05   Normal BFGS step
   14    -458.3559320950      1.23e-05   Normal BFGS step
   15    -458.3559320961      3.66e-06   Normal BFGS step
   16    -458.3559320963      3.52e-06   Normal BFGS step
   17    -458.3559320964      1.48e-06   Normal BFGS step
   18    -458.3559320964      1.08e-06   Normal BFGS step
   19    -458.3559320964      7.14e-07   Normal BFGS step
   20    -458.3559320964      3.22e-07   Normal BFGS step
   21    -458.3559320964      1.08e-07   Normal BFGS step
   22    -458.3559320964      3.39e-08  Convergence criterion met
 ---------------------------------------
 SCF time:   CPU 2434.97s  wall 167.00s 
<S^2> =          0.754114064
(3)  G-ENP(liq) elect-nuc-pol free energy of system     -458.355932096 a.u.
(4)  G-CDS(liq) cavity-dispersion-solvent structure 
     free energy                                                2.4642 kcal/mol
(6)  G-S(liq) free energy of system                     -458.352005112 a.u.
 SCF   energy in the final basis set =     -458.3520051123
 Total energy in the final basis set =     -458.3520051123
 
 --------------------------------------------------------------
 
                    Orbital Energies (a.u.)
 --------------------------------------------------------------
 
 Alpha MOs
 -- Occupied --
-19.4612 -19.4145 -19.3458 -10.4106 -10.4081 -10.3565 -10.3501 -10.3491
-10.3471  -1.3397  -1.1689  -1.0280  -0.9595  -0.8752  -0.8596  -0.7517
 -0.7269  -0.6696  -0.6496  -0.6339  -0.6189  -0.5887  -0.5592  -0.5558
 -0.5453  -0.5253  -0.4855  -0.4559  -0.4481  -0.4320  -0.4141  -0.4058
 -0.3773  -0.3282
 -- Virtual --
  0.0193   0.0276   0.0372   0.0416   0.0481   0.0581   0.0608   0.0819
  0.0981   0.1015   0.1063   0.1201   0.1343   0.1401   0.1473   0.1523
  0.1546   0.1566   0.1622   0.1649   0.1674   0.1700   0.1757   0.1783
  0.1846   0.1899   0.2028   0.2074   0.2107   0.2202   0.2342   0.2365
  0.2440   0.2499   0.2594   0.2664   0.2840   0.2930   0.3003   0.3124
  0.3201   0.3247   0.3362   0.3421   0.3427   0.3572   0.3655   0.3740
  0.3818   0.3852   0.3918   0.3967   0.4031   0.4135   0.4273   0.4345
  0.4385   0.4664   0.4768   0.5115   0.5220   0.5431   0.5484   0.5806
  0.5946   0.6076   0.6167   0.6242   0.6313   0.6339   0.6470   0.6509
  0.6758   0.6854   0.6946   0.7087   0.7175   0.7320   0.7429   0.7497
  0.7597   0.7688   0.7723   0.7924   0.8029   0.8099   0.8264   0.8329
  0.8433   0.8566   0.8668   0.8950   0.9096   0.9268   0.9502   0.9687
  0.9750   1.0415   1.0452   1.0669   1.0804   1.1097   1.1165   1.1245
  1.1417   1.1483   1.1642   1.1690   1.1923   1.1970   1.2165   1.2211
  1.2242   1.2317   1.2571   1.2607   1.2773   1.2942   1.3130   1.3171
  1.3450   1.3557   1.3673   1.3719   1.3839   1.3984   1.4115   1.4378
  1.4495   1.4519   1.4597   1.4843   1.4893   1.5155   1.5265   1.5399
  1.5504   1.5659   1.5924   1.5978   1.6138   1.6187   1.6379   1.6549
  1.6820   1.6960   1.7197   1.7374   1.7581   1.7866   1.7966   1.8173
  1.8482   1.8778   1.9157   1.9894   1.9970   2.0413   2.0699   2.0841
  2.1148   2.1420   2.2365   2.2802   2.3093   2.3448   2.3898   2.4195
  2.4545   2.6022   2.6149   2.6481   2.6548   2.6786   2.7089   2.7478
  2.7647   2.7905   2.8124   2.8310   2.8445   2.8545   2.8674   2.8808
  2.8982   2.9171   2.9297   2.9521   2.9655   2.9719   2.9849   3.0108
  3.0168   3.0547   3.0728   3.1197   3.1322   3.1552   3.1723   3.1924
  3.2276   3.2519   3.2692   3.2879   3.3138   3.3394   3.3580   3.3808
  3.3956   3.3986   3.4368   3.4492   3.4599   3.4733   3.4839   3.4947
  3.5096   3.5334   3.5430   3.5777   3.6012   3.6302   3.6387   3.6449
  3.7005   3.7272   3.7442   3.7513   3.7597   3.7835   3.7935   3.8172
  3.8315   3.8564   3.8857   3.8952   3.9088   3.9185   3.9383   3.9474
  3.9697   3.9987   4.0462   4.0566   4.0805   4.0877   4.1431   4.1611
  4.1997   4.2187   4.2370   4.2411   4.2724   4.3191   4.3295   4.3307
  4.3694   4.3778   4.4165   4.4856   4.4976   4.5224   4.5324   4.5432
  4.5868   4.6250   4.6540   4.6698   4.6790   4.7104   4.7173   4.7408
  4.7686   4.7717   4.8120   4.8863   4.9250   4.9322   4.9866   5.0298
  5.0340   5.0809   5.0969   5.1049   5.1094   5.1715   5.1902   5.2461
  5.2465   5.2830   5.3075   5.3191   5.3588   5.3959   5.4054   5.4615
  5.4807   5.5277   5.5586   5.5793   5.6232   5.6557   5.6804   5.6878
  5.7317   5.8099   5.8195   5.9116   5.9816   6.0408   6.1147   6.2587
  6.4258   6.4833   6.6097   6.6831   6.8362   6.8800   6.9680   7.1084
  7.1285   7.2162   7.2468   7.3315   7.3534   7.4102   7.4213   7.4555
  7.7074   7.7970   7.8179   8.0349   8.1140  24.2970  24.5521  24.7177
 24.8086  25.1509  25.3401  50.4366  50.5362  50.6291
 
 Beta MOs
 -- Occupied --
-19.4505 -19.3960 -19.3456 -10.4109 -10.4078 -10.3565 -10.3501 -10.3490
-10.3471  -1.3133  -1.1684  -1.0088  -0.9467  -0.8740  -0.8523  -0.7471
 -0.7259  -0.6605  -0.6434  -0.6198  -0.5901  -0.5841  -0.5562  -0.5465
 -0.5267  -0.5072  -0.4818  -0.4537  -0.4451  -0.4260  -0.3995  -0.3864
 -0.3267
 -- Virtual --
 -0.0296   0.0205   0.0283   0.0374   0.0419   0.0483   0.0585   0.0611
  0.0822   0.0991   0.1017   0.1068   0.1214   0.1351   0.1410   0.1484
  0.1529   0.1551   0.1571   0.1626   0.1652   0.1676   0.1702   0.1765
  0.1787   0.1863   0.1909   0.2036   0.2084   0.2113   0.2214   0.2348
  0.2376   0.2448   0.2505   0.2622   0.2735   0.2868   0.2959   0.3023
  0.3136   0.3208   0.3254   0.3370   0.3443   0.3452   0.3599   0.3662
  0.3744   0.3824   0.3870   0.3926   0.3981   0.4058   0.4150   0.4280
  0.4357   0.4406   0.4678   0.4776   0.5118   0.5228   0.5432   0.5491
  0.5807   0.5949   0.6087   0.6170   0.6251   0.6315   0.6343   0.6474
  0.6517   0.6760   0.6857   0.6949   0.7090   0.7179   0.7329   0.7431
  0.7499   0.7601   0.7693   0.7729   0.7931   0.8039   0.8100   0.8269
  0.8332   0.8434   0.8573   0.8672   0.8955   0.9098   0.9274   0.9510
  0.9693   0.9764   1.0434   1.0491   1.0695   1.0821   1.1120   1.1170
  1.1281   1.1425   1.1501   1.1698   1.1729   1.1974   1.2047   1.2193
  1.2283   1.2414   1.2443   1.2587   1.2646   1.2788   1.2952   1.3154
  1.3184   1.3462   1.3564   1.3690   1.3745   1.3856   1.3997   1.4130
  1.4408   1.4504   1.4529   1.4624   1.4855   1.4924   1.5217   1.5310
  1.5420   1.5514   1.5669   1.5943   1.6015   1.6213   1.6254   1.6457
  1.6580   1.6913   1.7111   1.7229   1.7430   1.7682   1.7924   1.7981
  1.8241   1.8504   1.8831   1.9194   1.9908   2.0015   2.0436   2.0727
  2.0851   2.1200   2.1495   2.2400   2.2939   2.3249   2.3522   2.3975
  2.4214   2.4554   2.6024   2.6172   2.6493   2.6599   2.6798   2.7105
  2.7482   2.7649   2.7908   2.8127   2.8312   2.8451   2.8547   2.8676
  2.8812   2.8986   2.9175   2.9300   2.9523   2.9657   2.9723   2.9853
  3.0112   3.0174   3.0552   3.0731   3.1205   3.1326   3.1557   3.1729
  3.1925   3.2278   3.2524   3.2699   3.2882   3.3140   3.3396   3.3586
  3.3810   3.3958   3.3987   3.4369   3.4498   3.4601   3.4736   3.4844
  3.4948   3.5100   3.5336   3.5434   3.5781   3.6017   3.6305   3.6389
  3.6454   3.7012   3.7273   3.7448   3.7518   3.7600   3.7843   3.7940
  3.8177   3.8317   3.8569   3.8863   3.8955   3.9091   3.9186   3.9390
  3.9477   3.9701   3.9993   4.0464   4.0573   4.0814   4.0880   4.1436
  4.1618   4.2000   4.2191   4.2372   4.2416   4.2736   4.3198   4.3298
  4.3312   4.3712   4.3784   4.4168   4.4863   4.4981   4.5236   4.5334
  4.5465   4.5884   4.6411   4.6608   4.6724   4.6817   4.7166   4.7282
  4.7426   4.7696   4.7793   4.8140   4.9008   4.9352   4.9382   4.9892
  5.0315   5.0504   5.0902   5.1453   5.1494   5.1784   5.2009   5.2071
  5.2651   5.2907   5.2968   5.3172   5.3316   5.3666   5.4000   5.4204
  5.4729   5.4869   5.5467   5.5596   5.5865   5.6251   5.6589   5.6886
  5.6938   5.7344   5.8191   5.8373   5.9119   5.9824   6.0412   6.1151
  6.2599   6.4397   6.5301   6.6214   6.6844   6.9192   6.9609   7.0271
  7.1308   7.1519   7.2418   7.2875   7.3336   7.3620   7.4181   7.4440
  7.5012   7.7077   7.8054   7.8233   8.0496   8.1330  24.2970  24.5521
 24.7175  24.8089  25.1510  25.3402  50.4494  50.5454  50.6297
 --------------------------------------------------------------
 
          Ground-State Mulliken Net Atomic Charges

     Atom                 Charge (a.u.)    Spin (a.u.)
  --------------------------------------------------------
      1 C                    -0.276642      -0.005537
      2 O                     0.089118       0.320653
      3 O                    -0.251049       0.661249
      4 C                    -0.285216       0.021291
      5 C                    -0.071112      -0.001946
      6 C                    -0.321202      -0.000421
      7 C                    -0.304005       0.002945
      8 C                    -0.189902      -0.000334
      9 H                     0.293867       0.001207
     10 H                     0.221265       0.000888
     11 H                     0.294344       0.000181
     12 H                     0.284893      -0.000026
     13 H                     0.284840       0.000152
     14 H                     0.299482      -0.000046
     15 O                    -0.407293       0.001981
     16 H                     0.338613      -0.002237
  --------------------------------------------------------
  Sum of atomic charges =     0.000000
  Sum of spin   charges =     1.000000

 -----------------------------------------------------------------
                    Cartesian Multipole Moments
 -----------------------------------------------------------------
    Charge (ESU x 10^10)
                 0.0000
    Dipole Moment (Debye)
         X       4.0719      Y      -1.3581      Z       1.4426
       Tot       4.5283
    Quadrupole Moments (Debye-Ang)
        XX     -64.7062     XY      -1.3848     YY     -57.1569
        XZ      -3.8544     YZ       0.4095     ZZ     -46.5234
    Octopole Moments (Debye-Ang^2)
       XXX     166.0639    XXY      -4.8514    XYY      53.8794
       YYY     -18.6664    XXZ      11.5361    XYZ      -1.0384
       YYZ      18.3183    XZZ      30.9401    YZZ      -3.0133
       ZZZ      11.1667
    Hexadecapole Moments (Debye-Ang^3)
      XXXX   -1027.8134   XXXY      55.7847   XXYY    -209.3028
      XYYY      78.6913   YYYY    -400.8026   XXXZ     -46.6599
      XXYZ      24.3050   XYYZ     -13.7973   YYYZ     104.8239
      XXZZ    -174.8037   XYZZ      15.6956   YYZZ    -117.2851
      XZZZ     -16.5166   YZZZ      66.8650   ZZZZ    -290.5792
 -----------------------------------------------------------------
 Calculating analytic gradient of the SCF energy
 Gradient of CDS energy
            1           2           3           4           5           6
    1  -0.0001598  -0.0000629  -0.0000230  -0.0003761   0.0001534   0.0003654
    2   0.0000690   0.0000872  -0.0000488   0.0004183   0.0001249  -0.0001895
    3  -0.0000792  -0.0000066   0.0000600  -0.0002009  -0.0002726  -0.0003492
            7           8           9          10          11          12
    1   0.0001633  -0.0001847  -0.0001742   0.0000837   0.0000223   0.0001466
    2  -0.0003330  -0.0000678   0.0001429   0.0001411   0.0001073  -0.0001108
    3   0.0003737   0.0003718   0.0000271   0.0001156  -0.0001819  -0.0000866
           13          14          15          16
    1   0.0001041  -0.0000722   0.0002045  -0.0001905
    2  -0.0001414  -0.0000588  -0.0002719   0.0001314
    3   0.0001040   0.0001761   0.0003840  -0.0004354
 Gradient of SCF Energy
            1           2           3           4           5           6
    1   0.0016188   0.0007630  -0.0018260  -0.0041688  -0.0045829  -0.0021979
    2  -0.0070597  -0.0011884   0.0012417  -0.0036352   0.0014275   0.0020067
    3  -0.0080709   0.0011765  -0.0005009  -0.0040009   0.0062042   0.0030863
            7           8           9          10          11          12
    1  -0.0011685  -0.0008906  -0.0008861   0.0034685   0.0025235   0.0065584
    2   0.0019494   0.0080212   0.0031745   0.0028538   0.0015448  -0.0046281
    3  -0.0042120  -0.0046677   0.0051868   0.0046360  -0.0064883  -0.0033603
           13          14          15          16
    1   0.0048695  -0.0028053  -0.0000891  -0.0011862
    2  -0.0067614  -0.0020567   0.0094643  -0.0063543
    3   0.0048281   0.0074903   0.0050252  -0.0063324
 Max gradient component =       9.464E-03
 RMS gradient           =       4.393E-03
 Computing fast CPCM-SWIG gradient
 Updating gradient with PCM contributions...
 -- total gradient after adding PCM contribution --
---------------------------------------------------
  Atom         X              Y              Z     
---------------------------------------------------
   1       0.000274       0.000460       0.000009
   2       0.000078       0.000356       0.000149
   3      -0.000152       0.000023      -0.000363
   4       0.000430       0.000073       0.000546
   5       0.000256      -0.000795       0.000433
   6      -0.000373       0.000632      -0.000262
   7      -0.000566       0.000347       0.000303
   8       0.000878      -0.000275      -0.000335
   9       0.000319      -0.000336      -0.000384
  10      -0.000233      -0.000486      -0.000103
  11      -0.000097      -0.000172       0.000522
  12      -0.000414       0.000320       0.000281
  13      -0.000349       0.000352      -0.000285
  14       0.000173       0.000193      -0.000519
  15      -0.000512      -0.001359      -0.000488
  16       0.000288       0.000667       0.000494
---------------------------------------------------
 Number of fixed atoms: 0
 Gradient time:  CPU 326.42 s  wall 26.37 s
 Geometry Optimization Parameters
   NAtoms,    NIC,     NZ,  NCons,   NDum,   NFix, NCnnct, MaxDiis
       16     113       0       0       0       0       0       0

 Cartesian Hessian Update
 Hessian updated using BFGS update


** GEOMETRY OPTIMIZATION IN DELOCALIZED INTERNAL COORDINATES **
   Searching for a Minimum

   Optimization Cycle:   3

                       Coordinates (Angstroms)
     ATOM                X               Y               Z
      1  C        -1.3197179640    0.2602727813    0.5776643783
      2  O        -2.2809338551   -0.5530600088   -0.1984760111
      3  O        -3.4118565005    0.0633668417   -0.3996139167
      4  C        -0.4480427498    1.0607525975   -0.3798515085
      5  C         0.5709361545    0.2080483568   -1.0776186966
      6  C         1.0800223555   -0.8586705649   -0.4683943309
      7  C         0.5934844591   -1.2466062483    0.8593102228
      8  C        -0.5159726085   -0.7194479141    1.3758714111
      9  H        -1.9255148057    0.9231365032    1.1858560704
     10  H         0.0914278690    1.7659378880    0.2609650575
     11  H         0.9146695437    0.5377902659   -2.0487327958
     12  H         1.8597594702   -1.4478006476   -0.9287179619
     13  H         1.1448456915   -1.9955837964    1.4105165947
     14  H        -0.9071270054   -1.0384245040    2.3306286023
     15  O        -1.2138565778    1.8551723876   -1.2686908124
     16  H        -1.6383888765    1.2821506618   -1.9166245034
   Point Group: c1    Number of degrees of freedom:    42


   Energy is   -458.352005112

 Hessian updated using BFGS update

 42 Hessian modes will be used to form the next step
  Hessian Eigenvalues:
     0.006871    0.008639    0.013540    0.014118    0.015648    0.018150
     0.021336    0.021566    0.025194    0.043815    0.045469    0.058287
     0.066590    0.076089    0.086507    0.137917    0.157952    0.159307
     0.159623    0.159945    0.160010    0.180213    0.205598    0.213190
     0.219875    0.247518    0.304502    0.307028    0.318111    0.333988
     0.342082    0.343798    0.347430    0.349810    0.351674    0.352489
     0.353212    0.429930    0.513077    0.543324    0.553325    0.602677

 Minimum search - taking simple RFO step
 Searching for Lamda that Minimizes Along All modes
 Value Taken    Lamda =  -0.00003762
 Step Taken.  Stepsize is  0.030519

                             Maximum     Tolerance    Cnvgd?
         Gradient           0.001684      0.000300      NO
         Displacement       0.010886      0.001200      NO
         Energy change     -0.000112      0.000001      NO


 New Cartesian Coordinates Obtained by Inverse Iteration

 Displacement from previous Coordinates is:  0.039270
 ----------------------------------------------------------------
             Standard Nuclear Orientation (Angstroms)
    I     Atom           X                Y                Z
 ----------------------------------------------------------------
    1      C      -1.3209910807     0.2601356247     0.5758428444
    2      O      -2.2813685144    -0.5537204610    -0.2009130859
    3      O      -3.4181812754     0.0571818691    -0.3851061498
    4      C      -0.4477412541     1.0618424253    -0.3816859801
    5      C       0.5724804117     0.2086155697    -1.0791533896
    6      C       1.0817260341    -0.8590524593    -0.4685349628
    7      C       0.5933140488    -1.2474661441     0.8595774950
    8      C      -0.5180724334    -0.7202925241     1.3754399495
    9      H      -1.9282082250     0.9232828319     1.1840154175
   10      H       0.0921606615     1.7674117311     0.2597504604
   11      H       0.9167608763     0.5383224879    -2.0510596950
   12      H       1.8625597194    -1.4488983279    -0.9283009711
   13      H       1.1452693757    -1.9962136464     1.4123101136
   14      H      -0.9105709128    -1.0393410389     2.3306912690
   15      O      -1.2107884654     1.8597684449    -1.2700369032
   16      H      -1.6346143662     1.2854582167    -1.9187446120
 ----------------------------------------------------------------
 Nuclear Repulsion Energy =         451.15552104 hartrees
 There are       34 alpha and       33 beta electrons
 Discretize the solute cavity surface with Lebedev spheres
	Using 110 Lebedev grid points for each H atom
	Using 194 Lebedev grid points for other atoms
	Atomic van der Waals radii will be scaled by 1.20
 Remove points where switching function is < 1.0e-08
 Keep 1236 surface tesserae and discard 1280 interior tesserae
 Molecular Surface Area = 144.798 Angst**2
 Applying Cartesian multipole field
    Component          Value
    ---------          -----
     (2,0,0)        1.00000E-11
     (0,2,0)        2.00000E-11
     (0,0,2)       -3.00000E-11
 Nucleus-field energy     =     0.0000000051 hartrees
 Requested basis set is 6-311++G(2df,2p)
 There are 114 shells and 376 basis functions
 A cutoff of  1.0D-12 yielded   6060 shell pairs
 There are     66666 function pairs (     83580 Cartesian)
 Smallest overlap matrix eigenvalue = 2.69E-06
 Guess MOs from SCF MO coefficient file

 -----------------------------------------------------------------------
  General SCF calculation program by
  Eric Jon Sundstrom, Paul Horn, Yuezhi Mao, Dmitri Zuev, Alec White,
  David Stuck, Shaama M.S., Shane Yost, Joonho Lee, David Small,
  Daniel Levine, Susi Lehtola, Hugh Burton, Evgeny Epifanovsky,
  Bang C. Huynh
 -----------------------------------------------------------------------
 Exchange:     0.1500 Hartree-Fock + 1.0000 wB97M-V + LR-HF
 Correlation:  1.0000 wB97M-V
 Using SG-2 standard quadrature grid
 Nonlocal Correlation:  VV10 with C = 0.0100 and b = 6.00 and scale = 1.00000
 Grid used for NLC:  SG-1 standard quadrature
 
 Citation of the SMD model:
 Marenich, A.V.; Cramer, C.J.; Truhlar, D.G.
 J. Phys. Chem. B 2009, 113, 6378-6396.
 iSolventCode=           1
 Solvent: water                                                           
 
 vradii
            1           2           3           4           5           6
    1   1.8500000   1.5200000   1.5200000   1.8500000   1.8500000   1.8500000
            7           8           9          10          11          12
    1   1.8500000   1.8500000   1.2000000   1.2000000   1.2000000   1.2000000
           13          14          15          16
    1   1.2000000   1.2000000   1.5200000   1.2000000
 -------------------------------------------------------
 OpenMP BLAS3 based DFT computing Module                
 Release: version 1.0, May 2013, Q-Chem Inc. Pittsburgh 
 -------------------------------------------------------
 A unrestricted SCF calculation will be
 performed using Roothaan-Hall, DIIS, GDM
 SCF converges when RMS gradient is below 1.0e-07
 ---------------------------------------
  Cycle       Energy         DIIS error
 ---------------------------------------
    1    -458.3320666364      1.61e-04  Roothaan Step
 ---------------------------------------
  Cycle       Energy         DIIS error
 ---------------------------------------
    1    -458.3528995435      1.66e-04  
    2    -458.3548219254      1.50e-04  Done DIIS. Switching to GDM
 ---------------------------------------
  Cycle       Energy        RMS Gradient
 ---------------------------------------
    1    -458.3548219254      1.28e-02   Normal BFGS step
    2    -458.3544180837      2.24e-02  Line search: overstep
    3    -458.3558549662      3.39e-03   Normal BFGS step
    4    -458.3559319861      7.75e-04   Normal BFGS step
    5    -458.3559537008      9.58e-04   Normal BFGS step
    6    -458.3559583301      3.62e-04   Normal BFGS step
    7    -458.3559591612      2.52e-04   Normal BFGS step
    8    -458.3559595233      1.07e-04   Normal BFGS step
    9    -458.3559596125      5.84e-05   Normal BFGS step
   10    -458.3559596269      4.93e-05   Normal BFGS step
   11    -458.3559596339      4.35e-05   Normal BFGS step
   12    -458.3559596417      2.75e-05   Normal BFGS step
   13    -458.3559596450      1.31e-05   Normal BFGS step
   14    -458.3559596470      6.39e-06   Normal BFGS step
   15    -458.3559596474      2.77e-06   Normal BFGS step
   16    -458.3559596475      1.05e-06   Normal BFGS step
   17    -458.3559596475      4.75e-07   Normal BFGS step
   18    -458.3559596475      4.75e-07   Normal BFGS step
   19    -458.3559596475      2.56e-07   Normal BFGS step
   20    -458.3559596475      1.60e-07   Normal BFGS step
   21    -458.3559596475      7.26e-08  Convergence criterion met
 ---------------------------------------
 SCF time:   CPU 2310.92s  wall 158.00s 
<S^2> =          0.754115369
(3)  G-ENP(liq) elect-nuc-pol free energy of system     -458.355959647 a.u.
(4)  G-CDS(liq) cavity-dispersion-solvent structure 
     free energy                                                2.4716 kcal/mol
(6)  G-S(liq) free energy of system                     -458.352020979 a.u.
 SCF   energy in the final basis set =     -458.3520209789
 Total energy in the final basis set =     -458.3520209789
 
 --------------------------------------------------------------
 
                    Orbital Energies (a.u.)
 --------------------------------------------------------------
 
 Alpha MOs
 -- Occupied --
-19.4613 -19.4145 -19.3460 -10.4108 -10.4084 -10.3569 -10.3505 -10.3495
-10.3476  -1.3398  -1.1688  -1.0277  -0.9590  -0.8749  -0.8593  -0.7515
 -0.7266  -0.6693  -0.6494  -0.6339  -0.6187  -0.5884  -0.5590  -0.5557
 -0.5451  -0.5250  -0.4854  -0.4559  -0.4482  -0.4318  -0.4138  -0.4059
 -0.3773  -0.3281
 -- Virtual --
  0.0192   0.0275   0.0372   0.0416   0.0480   0.0580   0.0608   0.0819
  0.0981   0.1015   0.1063   0.1199   0.1343   0.1400   0.1471   0.1522
  0.1547   0.1565   0.1622   0.1649   0.1673   0.1700   0.1755   0.1783
  0.1846   0.1900   0.2028   0.2073   0.2106   0.2200   0.2342   0.2365
[...]
  7.5007   7.7055   7.8046   7.8231   8.0494   8.1333  24.2957  24.5489
 24.7141  24.8036  25.1448  25.3329  50.4495  50.5452  50.6285
 --------------------------------------------------------------
 
          Ground-State Mulliken Net Atomic Charges

     Atom                 Charge (a.u.)    Spin (a.u.)
  --------------------------------------------------------
      1 C                    -0.273559      -0.005512
      2 O                     0.089667       0.320812
      3 O                    -0.251220       0.661264
      4 C                    -0.284165       0.021498
      5 C                    -0.070369      -0.001863
      6 C                    -0.324075      -0.000544
      7 C                    -0.301587       0.003275
      8 C                    -0.193708      -0.000663
      9 H                     0.293775       0.001056
     10 H                     0.221155       0.000874
     11 H                     0.294324       0.000184
     12 H                     0.284790      -0.000030
     13 H                     0.284874       0.000149
     14 H                     0.299505      -0.000017
     15 O                    -0.408114       0.001746
     16 H                     0.338707      -0.002228
  --------------------------------------------------------
  Sum of atomic charges =    -0.000000
  Sum of spin   charges =     1.000000

 -----------------------------------------------------------------
                    Cartesian Multipole Moments
 -----------------------------------------------------------------
    Charge (ESU x 10^10)
                -0.0000
    Dipole Moment (Debye)
         X       4.0672      Y      -1.3538      Z       1.4254
       Tot       4.5173
    Quadrupole Moments (Debye-Ang)
        XX     -64.7435     XY      -1.4239     YY     -57.1867
        XZ      -3.8017     YZ       0.3839     ZZ     -46.5136
    Octopole Moments (Debye-Ang^2)
       XXX     166.3612    XXY      -4.7337    XYY      53.8665
       YYY     -18.6888    XXZ      11.3447    XYZ      -0.9719
       YYZ      18.3171    XZZ      30.9092    YZZ      -2.9944
       ZZZ      11.0697
    Hexadecapole Moments (Debye-Ang^3)
      XXXX   -1030.8012   XXXY      54.9796   XXYY    -209.5784
      XYYY      78.3187   YYYY    -402.0560   XXXZ     -45.4365
      XXYZ      24.2011   XYYZ     -13.5294   YYYZ     105.0871
      XXZZ    -174.9072   XYZZ      15.5318   YYZZ    -117.4298
      XZZZ     -15.8143   YZZZ      66.9184   ZZZZ    -290.4797
 -----------------------------------------------------------------
 Calculating analytic gradient of the SCF energy
 Gradient of CDS energy
            1           2           3           4           5           6
    1  -0.0001586  -0.0000636  -0.0000230  -0.0003561   0.0001533   0.0003664
    2   0.0000701   0.0000871  -0.0000491   0.0003969   0.0001253  -0.0001898
    3  -0.0000807  -0.0000045   0.0000580  -0.0001765  -0.0002735  -0.0003494
            7           8           9          10          11          12
    1   0.0001634  -0.0001859  -0.0001753   0.0000844   0.0000227   0.0001474
    2  -0.0003332  -0.0000680   0.0001420   0.0001420   0.0001075  -0.0001114
    3   0.0003747   0.0003717   0.0000275   0.0001155  -0.0001826  -0.0000868
           13          14          15          16
    1   0.0001046  -0.0000727   0.0001852  -0.0001923
    2  -0.0001418  -0.0000591  -0.0002505   0.0001320
    3   0.0001048   0.0001770   0.0003595  -0.0004348
 Gradient of SCF Energy
            1           2           3           4           5           6
    1   0.0012777   0.0007374  -0.0017265  -0.0044425  -0.0048892  -0.0018091
    2  -0.0074193  -0.0015854   0.0012657  -0.0037560   0.0022226   0.0013351
    3  -0.0080944   0.0010316  -0.0002656  -0.0045109   0.0057414   0.0034064
            7           8           9          10          11          12
    1  -0.0006005  -0.0017800  -0.0012018   0.0037230   0.0026494   0.0069824
    2   0.0016106   0.0082554   0.0035247   0.0033409   0.0017104  -0.0049725
    3  -0.0044739  -0.0042959   0.0055236   0.0047105  -0.0070193  -0.0035772
           13          14          15          16
    1   0.0051835  -0.0030333   0.0004915  -0.0015620
    2  -0.0070956  -0.0022184   0.0108915  -0.0071100
    3   0.0051659   0.0080214   0.0055336  -0.0068973
 Max gradient component =       1.089E-02
 RMS gradient           =       4.668E-03
 Computing fast CPCM-SWIG gradient
 Updating gradient with PCM contributions...
 -- total gradient after adding PCM contribution --
---------------------------------------------------
  Atom         X              Y              Z     
---------------------------------------------------
   1       0.000004       0.000036      -0.000020
   2       0.000027      -0.000022       0.000002
   3      -0.000063       0.000024      -0.000068
   4       0.000045      -0.000008      -0.000002
   5      -0.000004      -0.000020       0.000026
   6       0.000010      -0.000031       0.000025
   7      -0.000018       0.000012       0.000049
   8      -0.000012       0.000011       0.000019
   9      -0.000014       0.000016      -0.000030
  10       0.000026       0.000009      -0.000011
  11       0.000037      -0.000009       0.000007
  12       0.000015      -0.000022       0.000048
  13      -0.000033      -0.000003       0.000052
  14      -0.000045       0.000028       0.000019
  15      -0.000018      -0.000005      -0.000048
  16       0.000042      -0.000016      -0.000068
---------------------------------------------------
 Number of fixed atoms: 0
 Gradient time:  CPU 323.05 s  wall 25.93 s
 Geometry Optimization Parameters
   NAtoms,    NIC,     NZ,  NCons,   NDum,   NFix, NCnnct, MaxDiis
       16     113       0       0       0       0       0       0

 Cartesian Hessian Update
 Hessian updated using BFGS update


** GEOMETRY OPTIMIZATION IN DELOCALIZED INTERNAL COORDINATES **
   Searching for a Minimum

   Optimization Cycle:   5

                       Coordinates (Angstroms)
     ATOM                X               Y               Z
      1  C        -1.3208393457    0.2598367185    0.5758233778
      2  O        -2.2812278712   -0.5536591596   -0.2013951577
      3  O        -3.4178386926    0.0567965551   -0.3874159016
      4  C        -0.4474771055    1.0617248484   -0.3813983262
      5  C         0.5721678738    0.2083175577   -1.0791779162
      6  C         1.0813756307   -0.8590596951   -0.4684424870
      7  C         0.5935371864   -1.2469686883    0.8598764867
      8  C        -0.5178376997   -0.7201539130    1.3755913678
      9  H        -1.9279166443    0.9229479354    1.1839985604
     10  H         0.0930887949    1.7665481932    0.2602450180
     11  H         0.9160967714    0.5374380312   -2.0513125150
     12  H         1.8619585168   -1.4490442788   -0.9282190891
     13  H         1.1456988295   -1.9953446307    1.4127211188
     14  H        -0.9102138727   -1.0391133490    2.3308099416
     15  O        -1.2105484191    1.8600454599   -1.2696380911
     16  H        -1.6362893525    1.2867230149   -1.9179745872
   Point Group: c1    Number of degrees of freedom:    42


   Energy is   -458.352021849

 Hessian updated using BFGS update

 42 Hessian modes will be used to form the next step
  Hessian Eigenvalues:
     0.006998    0.008145    0.012362    0.014067    0.015611    0.018147
     0.021344    0.021591    0.025066    0.044315    0.045394    0.060256
     0.066570    0.075836    0.086340    0.137620    0.157464    0.159239
     0.159931    0.159971    0.167762    0.179909    0.205443    0.212301
     0.219586    0.276177    0.301717    0.311106    0.316741    0.330017
     0.340140    0.346643    0.349786    0.351373    0.352253    0.353182
     0.354351    0.442449    0.511021    0.544033    0.563466    0.608607

 Minimum search - taking simple RFO step
 Searching for Lamda that Minimizes Along All modes
 Value Taken    Lamda =  -0.00000016
 Step Taken.  Stepsize is  0.003247

                             Maximum     Tolerance    Cnvgd?
         Gradient           0.000060      0.000300     YES
         Displacement       0.001757      0.001200      NO
         Energy change     -0.000001      0.000001     YES

 Final energy is   -458.352021848662     


 ******************************
 **  OPTIMIZATION CONVERGED  **
 ******************************

                       Coordinates (Angstroms)
     ATOM                X               Y               Z
      1  C        -1.3208393457    0.2598367185    0.5758233778
      2  O        -2.2812278712   -0.5536591596   -0.2013951577
      3  O        -3.4178386926    0.0567965551   -0.3874159016
      4  C        -0.4474771055    1.0617248484   -0.3813983262
      5  C         0.5721678738    0.2083175577   -1.0791779162
      6  C         1.0813756307   -0.8590596951   -0.4684424870
      7  C         0.5935371864   -1.2469686883    0.8598764867
      8  C        -0.5178376997   -0.7201539130    1.3755913678
      9  H        -1.9279166443    0.9229479354    1.1839985604
     10  H         0.0930887949    1.7665481932    0.2602450180
     11  H         0.9160967714    0.5374380312   -2.0513125150
     12  H         1.8619585168   -1.4490442788   -0.9282190891
     13  H         1.1456988295   -1.9953446307    1.4127211188
     14  H        -0.9102138727   -1.0391133490    2.3308099416
     15  O        -1.2105484191    1.8600454599   -1.2696380911
     16  H        -1.6362893525    1.2867230149   -1.9179745872

Z-matrix Print:
$molecule
0 2
O 
O  1 1.303512
C  1 1.479253 2 112.553526
H  3 1.085420 1 105.500456 2 26.513640 0
C  3 1.498273 1 105.588081 2 147.084351 0
H  5 1.080804 3 118.048825 1 -85.953284 0
C  5 1.333660 3 119.906129 1 89.083482 0
H  7 1.081936 5 120.061281 3 -176.636852 0
C  7 1.467273 5 121.513764 3 1.923515 0
H  9 1.081104 7 118.737125 5 -167.713380 0
C  9 1.331009 7 120.013846 5 12.884561 0
H  11 1.082429 9 122.301310 7 178.940814 0
C  11 1.501625 9 120.153120 7 3.356648 0
H  13 1.095762 11 107.618831 9 83.475801 0
O  13 1.417238 11 113.234795 9 -160.102952 0
H  15 0.964518 13 108.912166 11 56.616989 0
$end

 
 --------------------------------------------------------------
 
                    Orbital Energies (a.u.)
 --------------------------------------------------------------
 
 Alpha MOs
 -- Occupied --
-19.4613 -19.4145 -19.3460 -10.4108 -10.4084 -10.3568 -10.3505 -10.3495
-10.3475  -1.3398  -1.1687  -1.0278  -0.9591  -0.8749  -0.8593  -0.7515
 -0.7266  -0.6693  -0.6494  -0.6339  -0.6187  -0.5884  -0.5590  -0.5557
 -0.5452  -0.5250  -0.4854  -0.4559  -0.4482  -0.4318  -0.4138  -0.4059
 -0.3773  -0.3281
 -- Virtual --
  0.0192   0.0276   0.0372   0.0416   0.0480   0.0580   0.0608   0.0819
  0.0981   0.1015   0.1063   0.1199   0.1343   0.1400   0.1471   0.1522
  0.1547   0.1565   0.1622   0.1649   0.1673   0.1699   0.1755   0.1783
  0.1845   0.1900   0.2028   0.2074   0.2106   0.2200   0.2342   0.2365
  0.2438   0.2499   0.2591   0.2663   0.2838   0.2928   0.2999   0.3121
  0.3197   0.3245   0.3364   0.3421   0.3427   0.3570   0.3652   0.3737
  0.3814   0.3851   0.3917   0.3965   0.4027   0.4134   0.4270   0.4344
  0.4382   0.4663   0.4763   0.5110   0.5220   0.5426   0.5480   0.5805
  0.5944   0.6078   0.6166   0.6237   0.6312   0.6336   0.6469   0.6501
  0.6751   0.6852   0.6943   0.7087   0.7172   0.7318   0.7425   0.7494
  0.7594   0.7685   0.7719   0.7921   0.8024   0.8096   0.8263   0.8324
  0.8434   0.8564   0.8660   0.8951   0.9091   0.9272   0.9506   0.9684
  0.9744   1.0408   1.0449   1.0664   1.0795   1.1096   1.1159   1.1238
  1.1414   1.1477   1.1647   1.1682   1.1918   1.1964   1.2153   1.2211
  1.2242   1.2317   1.2572   1.2606   1.2771   1.2940   1.3123   1.3167
  1.3444   1.3546   1.3659   1.3707   1.3835   1.3975   1.4112   1.4375
  1.4485   1.4511   1.4594   1.4836   1.4887   1.5148   1.5261   1.5395
  1.5501   1.5652   1.5916   1.5978   1.6122   1.6194   1.6373   1.6536
  1.6826   1.6954   1.7201   1.7365   1.7573   1.7851   1.7961   1.8167
  1.8468   1.8768   1.9153   1.9881   1.9973   2.0397   2.0682   2.0835
  2.1127   2.1421   2.2368   2.2804   2.3102   2.3452   2.3892   2.4195
  2.4547   2.6027   2.6153   2.6482   2.6530   2.6785   2.7086   2.7464
  2.7637   2.7894   2.8118   2.8306   2.8441   2.8544   2.8670   2.8803
  2.8980   2.9171   2.9293   2.9516   2.9650   2.9714   2.9839   3.0101
  3.0153   3.0536   3.0717   3.1188   3.1321   3.1545   3.1708   3.1911
  3.2271   3.2512   3.2686   3.2873   3.3137   3.3391   3.3580   3.3810
  3.3947   3.3977   3.4356   3.4477   3.4595   3.4730   3.4833   3.4941
  3.5091   3.5333   3.5414   3.5771   3.6006   3.6295   3.6377   3.6443
  3.7000   3.7261   3.7435   3.7505   3.7587   3.7826   3.7929   3.8167
  3.8309   3.8551   3.8845   3.8937   3.9069   3.9166   3.9372   3.9462
  3.9689   3.9975   4.0447   4.0548   4.0792   4.0854   4.1417   4.1607
  4.1984   4.2174   4.2353   4.2399   4.2711   4.3174   4.3278   4.3280
  4.3673   4.3755   4.4141   4.4833   4.4954   4.5199   4.5297   4.5404
  4.5843   4.6234   4.6518   4.6675   4.6769   4.7085   4.7146   4.7385
  4.7651   4.7695   4.8095   4.8840   4.9219   4.9306   4.9839   5.0270
  5.0329   5.0796   5.0969   5.1045   5.1085   5.1712   5.1877   5.2453
  5.2462   5.2820   5.3068   5.3182   5.3571   5.3944   5.4028   5.4598
  5.4789   5.5278   5.5566   5.5768   5.6198   5.6538   5.6792   5.6854
  5.7276   5.8092   5.8172   5.9075   5.9792   6.0375   6.1091   6.2528
  6.4243   6.4835   6.6097   6.6818   6.8361   6.8795   6.9677   7.1094
  7.1278   7.2157   7.2457   7.3271   7.3525   7.4094   7.4207   7.4551
  7.7052   7.7961   7.8179   8.0347   8.1143  24.2957  24.5489  24.7143
 24.8034  25.1448  25.3329  50.4367  50.5360  50.6280
 
 Beta MOs
 -- Occupied --
-19.4506 -19.3960 -19.3458 -10.4112 -10.4080 -10.3568 -10.3504 -10.3494
-10.3475  -1.3133  -1.1682  -1.0084  -0.9464  -0.8737  -0.8519  -0.7469
 -0.7257  -0.6602  -0.6433  -0.6197  -0.5897  -0.5840  -0.5560  -0.5463
 -0.5264  -0.5073  -0.4818  -0.4537  -0.4451  -0.4257  -0.3994  -0.3865
 -0.3266
 -- Virtual --
 -0.0295   0.0204   0.0282   0.0374   0.0418   0.0483   0.0585   0.0611
  0.0822   0.0991   0.1017   0.1068   0.1213   0.1351   0.1410   0.1483
  0.1528   0.1552   0.1570   0.1626   0.1652   0.1676   0.1702   0.1763
  0.1787   0.1862   0.1910   0.2036   0.2083   0.2111   0.2213   0.2348
  0.2376   0.2447   0.2505   0.2620   0.2732   0.2866   0.2956   0.3017
  0.3133   0.3205   0.3253   0.3371   0.3445   0.3450   0.3597   0.3659
  0.3741   0.3820   0.3869   0.3926   0.3980   0.4054   0.4149   0.4277
  0.4356   0.4403   0.4677   0.4772   0.5114   0.5228   0.5427   0.5487
  0.5806   0.5946   0.6089   0.6169   0.6247   0.6313   0.6339   0.6474
  0.6508   0.6753   0.6855   0.6946   0.7089   0.7176   0.7327   0.7428
  0.7496   0.7597   0.7690   0.7725   0.7927   0.8034   0.8098   0.8268
  0.8328   0.8434   0.8570   0.8664   0.8955   0.9093   0.9278   0.9513
  0.9691   0.9759   1.0429   1.0485   1.0689   1.0814   1.1119   1.1165
  1.1275   1.1422   1.1495   1.1694   1.1732   1.1971   1.2037   1.2184
  1.2281   1.2416   1.2440   1.2588   1.2643   1.2786   1.2951   1.3146
  1.3180   1.3456   1.3555   1.3678   1.3733   1.3851   1.3989   1.4128
  1.4403   1.4494   1.4520   1.4621   1.4848   1.4918   1.5208   1.5308
  1.5415   1.5510   1.5663   1.5936   1.6015   1.6195   1.6260   1.6453
  1.6567   1.6920   1.7103   1.7233   1.7423   1.7678   1.7906   1.7979
  1.8236   1.8491   1.8823   1.9188   1.9894   2.0019   2.0420   2.0709
  2.0845   2.1179   2.1495   2.2402   2.2942   2.3261   2.3522   2.3969
  2.4215   2.4556   2.6029   2.6176   2.6493   2.6582   2.6797   2.7103
  2.7468   2.7639   2.7898   2.8121   2.8309   2.8446   2.8546   2.8672
  2.8807   2.8985   2.9174   2.9296   2.9518   2.9652   2.9717   2.9843
  3.0105   3.0160   3.0540   3.0721   3.1197   3.1326   3.1550   3.1714
  3.1913   3.2273   3.2517   3.2693   3.2876   3.3140   3.3394   3.3586
  3.3812   3.3949   3.3978   3.4358   3.4483   3.4597   3.4733   3.4838
  3.4943   3.5095   3.5336   3.5418   3.5775   3.6011   3.6298   3.6379
  3.6447   3.7007   3.7262   3.7441   3.7510   3.7590   3.7834   3.7934
  3.8172   3.8311   3.8556   3.8851   3.8940   3.9071   3.9167   3.9379
  3.9466   3.9693   3.9980   4.0449   4.0556   4.0801   4.0857   4.1422
  4.1615   4.1987   4.2178   4.2355   4.2404   4.2723   4.3180   4.3281
  4.3286   4.3691   4.3761   4.4144   4.4841   4.4959   4.5212   4.5307
  4.5437   4.5858   4.6389   4.6589   4.6705   4.6796   4.7145   4.7252
  4.7404   4.7661   4.7775   4.8115   4.8979   4.9325   4.9369   4.9865
  5.0286   5.0492   5.0883   5.1451   5.1494   5.1767   5.2009   5.2060
  5.2634   5.2906   5.2961   5.3156   5.3316   5.3644   5.3986   5.4183
  5.4710   5.4854   5.5460   5.5576   5.5851   5.6216   5.6569   5.6860
  5.6924   5.7305   5.8177   5.8359   5.9077   5.9799   6.0380   6.1095
  6.2540   6.4382   6.5304   6.6214   6.6831   6.9191   6.9604   7.0268
  7.1301   7.1528   7.2410   7.2868   7.3292   7.3610   7.4168   7.4441
  7.5007   7.7055   7.8046   7.8231   8.0494   8.1333  24.2957  24.5489
 24.7141  24.8036  25.1448  25.3329  50.4495  50.5452  50.6285
 --------------------------------------------------------------
 
          Ground-State Mulliken Net Atomic Charges

     Atom                 Charge (a.u.)    Spin (a.u.)
  --------------------------------------------------------
      1 C                    -0.273559      -0.005512
      2 O                     0.089667       0.320812
      3 O                    -0.251220       0.661264
      4 C                    -0.284165       0.021498
      5 C                    -0.070369      -0.001863
      6 C                    -0.324075      -0.000544
      7 C                    -0.301587       0.003275
      8 C                    -0.193708      -0.000663
      9 H                     0.293775       0.001056
     10 H                     0.221155       0.000874
     11 H                     0.294324       0.000184
     12 H                     0.284790      -0.000030
     13 H                     0.284874       0.000149
     14 H                     0.299505      -0.000017
     15 O                    -0.408114       0.001746
     16 H                     0.338707      -0.002228
  --------------------------------------------------------
  Sum of atomic charges =    -0.000000
  Sum of spin   charges =     1.000000

 -----------------------------------------------------------------
                    Cartesian Multipole Moments
 -----------------------------------------------------------------
    Charge (ESU x 10^10)
                -0.0000
    Dipole Moment (Debye)
         X       4.0672      Y      -1.3538      Z       1.4254
       Tot       4.5173
    Quadrupole Moments (Debye-Ang)
        XX     -64.7435     XY      -1.4239     YY     -57.1867
        XZ      -3.8017     YZ       0.3839     ZZ     -46.5136
    Octopole Moments (Debye-Ang^2)
       XXX     166.3612    XXY      -4.7337    XYY      53.8665
       YYY     -18.6888    XXZ      11.3447    XYZ      -0.9719
       YYZ      18.3171    XZZ      30.9092    YZZ      -2.9944
       ZZZ      11.0697
    Hexadecapole Moments (Debye-Ang^3)
      XXXX   -1030.8012   XXXY      54.9796   XXYY    -209.5784
      XYYY      78.3187   YYYY    -402.0560   XXXZ     -45.4365
      XXYZ      24.2011   XYYZ     -13.5294   YYYZ     105.0871
      XXZZ    -174.9072   XYZZ      15.5318   YYZZ    -117.4298
      XZZZ     -15.8143   YZZZ      66.9184   ZZZZ    -290.4797
 -----------------------------------------------------------------
 Total job time:  933.09s(wall), 13360.30s(cpu) 
 Tue Apr 23 19:00:01 2024

        *************************************************************
        *                                                           *
        *  Thank you very much for using Q-Chem.  Have a nice day.  *
        *                                                           *
        *************************************************************


