
Running Job 1 of 1 Q_in.in
qchem Q_in.in_165096.0 /scratch/ari.fischer/qChem1518395.hpc-mn1/qchem165096/ 0
/usr/local/qchem-5.4.1/exe/qcprog.exe_s Q_in.in_165096.0 /scratch/ari.fischer/qChem1518395.hpc-mn1/qchem165096/
                  Welcome to Q-Chem
     A Quantum Leap Into The Future Of Chemistry


 Q-Chem 5.4, Q-Chem, Inc., Pleasanton, CA (2021)

 License issued to: Nanyang Technological University (site)

 E. Epifanovsky,  A. T. B. Gilbert,  Xintian Feng,  Joonho Lee,  Yuezhi Mao,  
 N. Mardirossian,  P. Pokhilko,  A. White,  M. Wormit,  M. P. Coons,  
 A. L. Dempwolff,  Zhengting Gan,  D. Hait,  P. R. Horn,  L. D. Jacobson,  
 I. Kaliman,  J. Kussmann,  A. W. Lange,  Ka Un Lao,  D. S. Levine,  Jie Liu,  
 S. C. McKenzie,  A. F. Morrison,  K. Nanda,  F. Plasser,  D. R. Rehn,  
 M. L. Vidal,  Zhi-Qiang You,  Ying Zhu,  B. Alam,  B. Albrecht,  
 A. Aldossary,  E. Alguire,  J. H. Andersen,  D. Barton,  K. Begam,  A. Behn,  
 Y. A. Bernard,  E. J. Berquist,  H. Burton,  A. Carreras,  K. Carter-Fenk,  
 R. Chakraborty,  A. D. Chien,  K. D. Closser,  V. Cofer-Shabica,  
 S. Dasgupta,  Jia Deng,  M. de Wergifosse,  M. Diedenhofen,  Hainam Do,  
 S. Ehlert,  Po-Tung Fang,  S. Fatehi,  Qingguo Feng,  T. Friedhoff,  
 J. Gayvert,  Qinghui Ge,  G. Gidofalvi,  M. Goldey,  J. Gomes,  
 C. Gonzalez-Espinoza,  S. Gulania,  A. Gunina,  M. W. D. Hanson-Heine,  
 P. H. P. Harbach,  A. W. Hauser,  M. F. Herbst,  M. Hernandez Vera,  
 M. Hodecker,  Z. C. Holden,  S. Houck,  Xunkun Huang,  Kerwin Hui,  
 B. C. Huynh,  M. Ivanov,  Hyunjun Ji,  Hanjie Jiang,  B. Kaduk,  S. Kaehler,  
 K. Khistyaev,  Jaehoon Kim,  P. Klunzinger,  Z. Koczor-Benda,  
 Joong Hoon Koh,  D. Kosenkov,  L. Koulias,  T. Kowalczyk,  C. M. Krauter,  
 K. Kue,  A. Kunitsa,  T. Kus,  A. Landau,  K. V. Lawler,  D. Lefrancois,  
 S. Lehtola,  Rain Li,  Yi-Pei Li,  Jiashu Liang,  M. Liebenthal,  
 Hung-Hsuan Lin,  You-Sheng Lin,  Fenglai Liu,  Kuan-Yu Liu,  
 M. Loipersberger,  A. Luenser,  A. Manjanath,  P. Manohar,  E. Mansoor,  
 S. F. Manzer,  Shan-Ping Mao,  A. V. Marenich,  T. Markovich,  S. Mason,  
 S. A. Maurer,  P. F. McLaughlin,  M. F. S. J. Menger,  J.-M. Mewes,  
 S. A. Mewes,  P. Morgante,  J. W. Mullinax,  K. J. Oosterbaan,  G. Paran,  
 Alexander C. Paul,  Suranjan K. Paul,  F. Pavosevic,  Zheng Pei,  S. Prager,  
 E. I. Proynov,  E. Ramos,  B. Rana,  A. E. Rask,  A. Rettig,  R. M. Richard,  
 F. Rob,  E. Rossomme,  T. Scheele,  M. Scheurer,  M. Schneider,  
 N. Sergueev,  S. M. Sharada,  W. Skomorowski,  D. W. Small,  C. J. Stein,  
 Yu-Chuan Su,  E. J. Sundstrom,  Zhen Tao,  J. Thirman,  T. Tsuchimochi,  
 N. M. Tubman,  S. P. Veccham,  O. Vydrov,  J. Wenzel,  J. Witte,  A. Yamada,  
 Kun Yao,  S. Yeganeh,  S. R. Yost,  A. Zech,  Igor Ying Zhang,  Xing Zhang,  
 Yu Zhang,  D. Zuev,  A. Aspuru-Guzik,  A. T. Bell,  N. A. Besley,  
 K. B. Bravaya,  B. R. Brooks,  D. Casanova,  Jeng-Da Chai,  S. Coriani,  
 C. J. Cramer,  A. E. DePrince, III,  R. A. DiStasio Jr.,  A. Dreuw,  
 B. D. Dunietz,  T. R. Furlani,  W. A. Goddard III,  S. Grimme,  
 S. Hammes-Schiffer,  T. Head-Gordon,  W. J. Hehre,  Chao-Ping Hsu,  
 T.-C. Jagau,  Yousung Jung,  A. Klamt,  Jing Kong,  D. S. Lambrecht,  
 WanZhen Liang,  N. J. Mayhall,  C. W. McCurdy,  J. B. Neaton,  
 C. Ochsenfeld,  J. A. Parkhill,  R. Peverati,  V. A. Rassolov,  Yihan Shao,  
 L. V. Slipchenko,  T. Stauch,  R. P. Steele,  J. E. Subotnik,  
 A. J. W. Thom,  A. Tkatchenko,  D. G. Truhlar,  T. Van Voorhis,  
 T. A. Wesolowski,  K. B. Whaley,  H. L. Woodcock III,  P. M. Zimmerman,  
 S. Faraji,  P. M. W. Gill,  M. Head-Gordon,  J. M. Herbert,  A. I. Krylov

 Additional authors for Version 5.4.1: 
 S. Kotaru,  Shaozhi Li,  Xiangyuan Li,  F. Matz,  A. Molle,  Haisheng Ren,  
 Yingli Su,  Hung-Yi Tsai,  C. Utku,  Fang Wang

 Contributors to earlier versions of Q-Chem not listed above: 
 R. D. Adamson,  B. Austin,  R. Baer,  J. Baker,  G. J. O. Beran,  
 K. Brandhorst,  S. T. Brown,  E. F. C. Byrd,  A. K. Chakraborty,  
 G. K. L. Chan,  Chun-Min Chang,  Yunqing Chen,  C.-L. Cheng,  
 Siu Hung Chien,  D. M. Chipman,  D. L. Crittenden,  H. Dachsel,  
 R. J. Doerksen,  A. D. Dutoi,  R. G. Edgar,  J. Fosso-Tande,  
 L. Fusti-Molnar,  D. Ghosh,  A. Ghysels,  A. Golubeva-Zadorozhnaya,  
 J. Gonthier,  M. S. Gordon,  S. R. Gwaltney,  G. Hawkins,  J. E. Herr,  
 A. Heyden,  S. Hirata,  E. G. Hohenstein,  G. Kedziora,  F. J. Keil,  
 C. Kelley,  Jihan Kim,  R. A. King,  R. Z. Khaliullin,  P. P. Korambath,  
 W. Kurlancheek,  A. Laurent,  A. M. Lee,  M. S. Lee,  S. V. Levchenko,  
 Ching Yeh Lin,  D. Liotard,  E. Livshits,  R. C. Lochan,  I. Lotan,  
 L. A. Martinez-Martinez,  P. E. Maslen,  N. Nair,  D. P. O'Neill,  
 D. Neuhauser,  E. Neuscamman,  C. M. Oana,  R. Olivares-Amaya,  R. Olson,  
 T. M. Perrine,  B. Peters,  P. A. Pieniazek,  A. Prociuk,  Y. M. Rhee,  
 J. Ritchie,  M. A. Rohrdanz,  E. Rosta,  N. J. Russ,  H. F. Schaefer III,  
 M. W. Schmidt,  N. E. Schultz,  S. Sharma,  N. Shenvi,  C. D. Sherrill,  
 A. C. Simmonett,  A. Sodt,  T. Stein,  D. Stuck,  K. S. Thanthiriwatte,  
 V. Vanovschi,  L. Vogt,  Tao Wang,  A. Warshel,  M. A. Watson,  
 C. F. Williams,  Q. Wu,  X. Xu,  Jun Yang,  W. Zhang,  Yan Zhao

 Please cite Q-Chem as follows:
 Y. Shao et al., Mol. Phys. 113, 184-215 (2015)
 DOI: 10.1080/00268976.2014.952696

 Q-Chem 5.4.1 for Intel X86 EM64T Linux

 Parts of Q-Chem use Armadillo 9.800.1 (Horizon Scraper).
 http://arma.sourceforge.net/

 Q-Chem begins on Thu Apr 27 11:39:29 2023  

 Host: 
0

     Scratch files written to /scratch/ari.fischer/qChem1518395.hpc-mn1/qchem165096//
 Aug1521 |scratch|qcdevops|jenkins|workspace|build_RNUM 8249   
 Processing $rem in /usr/local/qchem-5.4.1/config/preferences:
 Processing $rem in /home/ari.fischer/.qchemrc:
 Symmetry turned off for PCM/SM12/SMD calculation


!!********************************************.
!!******************Warning*******************.
!!Desired Analytical derivatives not available.
!!Finite difference job might take a long time.
!!********************************************.
!!********************************************.


 2-order derivative to be evaluated numerically with 1-order analytical derivatives

 Checking the input file for inconsistencies... 	...done.

--------------------------------------------------------------
User input:
--------------------------------------------------------------
$molecule
0 2
C        -0.1873587235   -0.9272121728   -0.1256294172
C        -0.5229556116   -1.8904036510    0.8130722998
C        -1.8532008719   -2.0837148725    1.1679779317
C        -2.8489326723   -1.3140927829    0.5831552321
C        -2.5153718359   -0.3491196617   -0.3578324894
C        -1.1865638031   -0.1541658210   -0.7091354586
C        -0.8445588915    0.8710398236   -1.7416402783
H         0.2519659481   -2.4913929127    1.2685405933
H        -2.1121829467   -2.8349085563    1.9016707827
H        -3.8835832755   -1.4620657724    0.8606235249
H        -3.2854173629    0.2573215221   -0.8169065556
O         0.3027996171    1.5694314897   -1.4095387576
H        -1.6776378704    1.5269804708   -1.9858314488
H         0.3715844895    2.3430714210   -1.9826727142
H         0.8468882958   -0.7738594863   -0.4032091831
O        -0.5904475336    0.1029550120   -2.9938705408
O        -0.4144477514    0.9115645502   -3.9992777206
$end

$rem
BASIS = 6-311++G(2df,2p)
GUI = 2
JOB_TYPE = Frequency
METHOD = wB97M-V
SOLVENT_METHOD = SMD
SCF_ALGORITHM = DIIS_GDM
MAX_SCF_CYCLES = 400
SCF_CONVERGENCE = 7
THRESH = 12
UNRESTRICTED = 1
SYMMETRY_IGNORE = 1
$end
--------------------------------------------------------------
 ----------------------------------------------------------------
             Standard Nuclear Orientation (Angstroms)
    I     Atom           X                Y                Z
 ----------------------------------------------------------------
    1      C      -0.1873587235    -0.9272121728    -0.1256294172
    2      C      -0.5229556116    -1.8904036510     0.8130722998
    3      C      -1.8532008719    -2.0837148725     1.1679779317
    4      C      -2.8489326723    -1.3140927829     0.5831552321
    5      C      -2.5153718359    -0.3491196617    -0.3578324894
    6      C      -1.1865638031    -0.1541658210    -0.7091354586
    7      C      -0.8445588915     0.8710398236    -1.7416402783
    8      H       0.2519659481    -2.4913929127     1.2685405933
    9      H      -2.1121829467    -2.8349085563     1.9016707827
   10      H      -3.8835832755    -1.4620657724     0.8606235249
   11      H      -3.2854173629     0.2573215221    -0.8169065556
   12      O       0.3027996171     1.5694314897    -1.4095387576
   13      H      -1.6776378704     1.5269804708    -1.9858314488
   14      H       0.3715844895     2.3430714210    -1.9826727142
   15      H       0.8468882958    -0.7738594863    -0.4032091831
   16      O      -0.5904475336     0.1029550120    -2.9938705408
   17      O      -0.4144477514     0.9115645502    -3.9992777206
 ----------------------------------------------------------------
 Nuclear Repulsion Energy =         503.21799035 hartrees
 There are       37 alpha and       36 beta electrons
 Requested basis set is 6-311++G(2df,2p)
 There are 122 shells and 410 basis functions

 Total QAlloc Memory Limit 288000 MB
 Mega-Array Size       188 MB
 MEM_STATIC part       192 MB
 
 Citation of the SMD model:
 Marenich, A.V.; Cramer, C.J.; Truhlar, D.G.
 J. Phys. Chem. B 2009, 113, 6378-6396.
 iSolventCode=           1
 Solvent: water                                                           
 
 vradii
            1           2           3           4           5           6
    1   1.8500000   1.8500000   1.8500000   1.8500000   1.8500000   1.8500000
            7           8           9          10          11          12
    1   1.8500000   1.2000000   1.2000000   1.2000000   1.2000000   1.5200000
           13          14          15          16          17
    1   1.2000000   1.2000000   1.2000000   1.5200000   1.5200000
 Changing PCM_VDW_RADII to SMD_RADIUS
 Discretize the solute cavity surface with Lebedev spheres
	Using 110 Lebedev grid points for each H atom
	Using 194 Lebedev grid points for other atoms
	Atomic van der Waals radii will be scaled by 1.20
 Remove points where switching function is < 1.0e-08
 Keep 1303 surface tesserae and discard 1407 interior tesserae
 Molecular Surface Area = 159.168 Angst**2
 A cutoff of  1.0D-12 yielded   6551 shell pairs
 There are     74388 function pairs (     93204 Cartesian)
 Smallest overlap matrix eigenvalue = 8.56E-07
 Linear dependence detected in AO basis
 Tighter screening thresholds may be required for diffuse basis sets
 Use S2THRESH > 14 and THRESH = 14 in case of SCF convergence issues
 Number of orthogonalized atomic orbitals = 409
 Maximum deviation from orthogonality = 8.149E-11
 Guess from superposition of atomic densities
 Warning:  Energy on first SCF cycle will be non-variational
 SAD guess density has 73.000000 electrons

 -----------------------------------------------------------------------
  General SCF calculation program by
  Eric Jon Sundstrom, Paul Horn, Yuezhi Mao, Dmitri Zuev, Alec White,
  David Stuck, Shaama M.S., Shane Yost, Joonho Lee, David Small,
  Daniel Levine, Susi Lehtola, Hugh Burton, Evgeny Epifanovsky,
  Bang C. Huynh
 -----------------------------------------------------------------------
 Exchange:     0.1500 Hartree-Fock + 1.0000 wB97M-V + LR-HF
 Correlation:  1.0000 wB97M-V
 Using SG-2 standard quadrature grid
 Nonlocal Correlation:  VV10 with C = 0.0100 and b = 6.00 and scale = 1.00000
 Grid used for NLC:  SG-1 standard quadrature
 using 8 threads for integral computing
 -------------------------------------------------------
 OpenMP Integral computing Module                
 Release: version 1.0, May 2013, Q-Chem Inc. Pittsburgh 
 -------------------------------------------------------
 
 Citation of the SMD model:
 Marenich, A.V.; Cramer, C.J.; Truhlar, D.G.
 J. Phys. Chem. B 2009, 113, 6378-6396.
 iSolventCode=           1
 Solvent: water                                                           
 
 vradii
            1           2           3           4           5           6
    1   1.8500000   1.8500000   1.8500000   1.8500000   1.8500000   1.8500000
            7           8           9          10          11          12
    1   1.8500000   1.2000000   1.2000000   1.2000000   1.2000000   1.5200000
           13          14          15          16          17
    1   1.2000000   1.2000000   1.2000000   1.5200000   1.5200000
 -------------------------------------------------------
 OpenMP BLAS3 based DFT computing Module                
 Release: version 1.0, May 2013, Q-Chem Inc. Pittsburgh 
 -------------------------------------------------------
 A unrestricted SCF calculation will be
 performed using DIIS, GDM
 SCF converges when RMS gradient is below 1.0e-07
 ---------------------------------------
  Cycle       Energy         DIIS error
 ---------------------------------------
    1    -499.2770147483      1.27e-02  
    2    -496.3882574162      1.26e-03  Done DIIS. Switching to GDM
 ---------------------------------------
  Cycle       Energy        RMS Gradient
 ---------------------------------------
    1    -496.3882574162      1.15e-01   Descent step
    2    -496.4885763781      1.88e-02   Normal BFGS step
    3    -496.5009105431      3.02e-02   Normal BFGS step
    4    -496.5045429154      3.44e-03   Normal BFGS step
    5    -496.5052029539      5.45e-03   Normal BFGS step
    6    -496.5053656158      3.21e-03   Normal BFGS step
    7    -496.5054233679      1.59e-03   Normal BFGS step
    8    -496.5054410646      2.44e-04   Normal BFGS step
    9    -496.5054423404      1.06e-04   Normal BFGS step
   10    -496.5054426093      6.68e-05   Normal BFGS step
   11    -496.5054426511      5.78e-05   Normal BFGS step
   12    -496.5054426611      4.95e-05   Normal BFGS step
   13    -496.5054426681      3.90e-05   Normal BFGS step
   14    -496.5054426745      2.29e-05   Normal BFGS step
   15    -496.5054426779      9.66e-06   Normal BFGS step
   16    -496.5054426794      4.44e-06   Normal BFGS step
   17    -496.5054426796      2.47e-06   Normal BFGS step
   18    -496.5054426797      1.88e-06   Normal BFGS step
   19    -496.5054426797      8.19e-07   Normal BFGS step
   20    -496.5054426798      4.72e-07   Normal BFGS step
   21    -496.5054426798      1.61e-07   Normal BFGS step
   22    -496.5054426798      1.00e-07   Normal BFGS step
   23    -496.5054426797      4.95e-08  Convergence criterion met
 ---------------------------------------
 SCF time:   CPU 1993.34s  wall 256.00s 
<S^2> =          0.753960972
(3)  G-ENP(liq) elect-nuc-pol free energy of system     -496.505442680 a.u.
(4)  G-CDS(liq) cavity-dispersion-solvent structure 
     free energy                                                3.0195 kcal/mol
(6)  G-S(liq) free energy of system                     -496.500630798 a.u.
 SCF   energy in the final basis set =     -496.5006307982
 Total energy in the final basis set =     -496.5006307982
 
 --------------------------------------------------------------
 
                    Orbital Energies (a.u.)
 --------------------------------------------------------------
 
 Alpha MOs
 -- Occupied --
-19.4600 -19.4196 -19.3629 -10.4633 -10.3609 -10.3515 -10.3510 -10.3484
-10.3473 -10.3471  -1.3452  -1.1923  -1.0161  -0.9868  -0.8917  -0.8767
 -0.7973  -0.7345  -0.7109  -0.6759  -0.6525  -0.6446  -0.6137  -0.5909
 -0.5623  -0.5534  -0.5355  -0.5263  -0.4950  -0.4837  -0.4538  -0.4479
 -0.4394  -0.4022  -0.3994  -0.3530  -0.3520
 -- Virtual --
  0.0239   0.0356   0.0370   0.0459   0.0526   0.0558   0.0561   0.0744
  0.0837   0.0895   0.0969   0.1032   0.1146   0.1294   0.1354   0.1462
  0.1511   0.1555   0.1606   0.1621   0.1668   0.1707   0.1726   0.1739
  0.1811   0.1818   0.1920   0.2018   0.2060   0.2164   0.2192   0.2267
  0.2374   0.2440   0.2517   0.2545   0.2600   0.2711   0.2729   0.2810
  0.2837   0.2921   0.3033   0.3079   0.3241   0.3327   0.3412   0.3465
  0.3505   0.3536   0.3590   0.3660   0.3720   0.3830   0.3912   0.3985
  0.4180   0.4267   0.4349   0.4420   0.4585   0.4655   0.4802   0.4836
  0.5503   0.5690   0.5700   0.5930   0.5973   0.6031   0.6073   0.6137
  0.6194   0.6225   0.6337   0.6541   0.6632   0.6761   0.6822   0.6950
  0.7029   0.7212   0.7281   0.7337   0.7378   0.7393   0.7465   0.7480
  0.7649   0.7781   0.7860   0.7897   0.8056   0.8248   0.8313   0.8398
  0.8451   0.8524   0.8715   0.8820   0.8921   0.9027   0.9216   0.9420
  0.9667   0.9967   1.0087   1.0157   1.0438   1.0598   1.0839   1.0910
  1.0986   1.1090   1.1266   1.1405   1.1492   1.1598   1.1792   1.1872
  1.1884   1.1971   1.2016   1.2110   1.2266   1.2398   1.2543   1.2679
  1.2734   1.2967   1.3000   1.3078   1.3453   1.3659   1.3868   1.3911
  1.3980   1.4197   1.4351   1.4436   1.4486   1.4528   1.4663   1.4710
  1.4873   1.4905   1.5111   1.5620   1.5643   1.5688   1.5754   1.5801
  1.5919   1.6114   1.6319   1.6738   1.6910   1.7117   1.7402   1.7699
  1.7787   1.7962   1.8065   1.8205   1.8291   1.8723   1.8893   1.9247
  1.9638   2.0455   2.0703   2.0831   2.0921   2.1155   2.1524   2.1854
  2.2542   2.2904   2.3277   2.3689   2.3738   2.4286   2.4645   2.5915
  2.6014   2.6276   2.6721   2.6753   2.7090   2.7283   2.7337   2.7936
  2.7968   2.8099   2.8270   2.8294   2.8384   2.8578   2.8697   2.8831
  2.9102   2.9136   2.9185   2.9282   2.9461   2.9547   2.9608   2.9632
  2.9896   3.0024   3.0303   3.0423   3.0742   3.1232   3.1596   3.1750
  3.1994   3.2159   3.2175   3.2300   3.2340   3.2572   3.2650   3.2825
  3.2976   3.3133   3.3273   3.3501   3.3655   3.3780   3.4008   3.4178
  3.4305   3.4497   3.4637   3.4760   3.4873   3.5028   3.5166   3.5268
  3.5420   3.5432   3.5784   3.5949   3.6129   3.6272   3.6381   3.6576
  3.6991   3.7135   3.7409   3.7718   3.8040   3.8104   3.8165   3.8360
  3.8586   3.8621   3.8716   3.9045   3.9050   3.9323   3.9327   3.9525
  3.9693   3.9796   3.9995   4.0617   4.0926   4.1249   4.1468   4.1564
  4.1622   4.1765   4.1953   4.2215   4.2603   4.2928   4.3309   4.3763
  4.3859   4.4174   4.4197   4.4466   4.4527   4.4647   4.5201   4.5413
  4.5530   4.5657   4.5752   4.5850   4.5947   4.6109   4.6253   4.6950
  4.7197   4.7327   4.7796   4.8089   4.8173   4.8590   4.8765   4.8984
  4.9597   5.0327   5.0621   5.0764   5.0819   5.0834   5.1262   5.1613
  5.1784   5.1824   5.2148   5.2233   5.2303   5.2457   5.3010   5.3208
  5.3409   5.3539   5.3814   5.4165   5.4947   5.5205   5.5449   5.5809
  5.6151   5.6738   5.7153   5.7379   5.8272   5.8492   5.8890   5.8953
  5.9572   6.0342   6.0897   6.2806   6.3704   6.4754   6.5944   6.6549
  6.6990   6.8368   6.8832   6.9633   7.0821   7.1167   7.1760   7.2308
  7.3013   7.3227   7.3775   7.4268   7.4912   7.6679   7.7868   7.8438
  8.0274   8.0977  24.1934  24.7966  24.8078  24.8200  25.0526  25.0717
 25.5347  50.4218  50.5139  50.6227
 
 Beta MOs
 -- Occupied --
-19.4498 -19.4007 -19.3627 -10.4637 -10.3609 -10.3515 -10.3510 -10.3484
-10.3473 -10.3471  -1.3193  -1.1903  -1.0027  -0.9691  -0.8862  -0.8766
 -0.7912  -0.7338  -0.7090  -0.6697  -0.6409  -0.6341  -0.5968  -0.5592
 -0.5548  -0.5457  -0.5262  -0.5237  -0.4922  -0.4729  -0.4502  -0.4465
 -0.4378  -0.3834  -0.3525  -0.3520
 -- Virtual --
 -0.0331   0.0240   0.0358   0.0371   0.0469   0.0526   0.0563   0.0565
  0.0748   0.0838   0.0900   0.0971   0.1039   0.1150   0.1308   0.1359
  0.1467   0.1516   0.1558   0.1608   0.1629   0.1674   0.1712   0.1730
  0.1746   0.1814   0.1821   0.1942   0.2021   0.2078   0.2169   0.2206
  0.2281   0.2390   0.2446   0.2529   0.2556   0.2620   0.2717   0.2784
  0.2818   0.2903   0.2933   0.3044   0.3088   0.3251   0.3339   0.3417
  0.3483   0.3507   0.3540   0.3601   0.3671   0.3728   0.3848   0.3929
  0.4009   0.4189   0.4268   0.4361   0.4436   0.4593   0.4663   0.4811
  0.4843   0.5505   0.5692   0.5702   0.5930   0.5974   0.6032   0.6075
  0.6139   0.6196   0.6225   0.6340   0.6543   0.6634   0.6765   0.6832
  0.6956   0.7030   0.7213   0.7281   0.7338   0.7380   0.7400   0.7469
  0.7483   0.7652   0.7783   0.7863   0.7906   0.8060   0.8258   0.8314
  0.8403   0.8452   0.8530   0.8718   0.8822   0.8921   0.9027   0.9221
  0.9434   0.9671   0.9982   1.0110   1.0169   1.0445   1.0602   1.0859
  1.0924   1.1008   1.1106   1.1280   1.1430   1.1546   1.1675   1.1892
  1.1897   1.1953   1.2018   1.2106   1.2193   1.2308   1.2454   1.2552
  1.2720   1.2751   1.3000   1.3024   1.3108   1.3460   1.3676   1.3873
  1.3918   1.4001   1.4233   1.4365   1.4444   1.4491   1.4580   1.4679
  1.4730   1.4922   1.4933   1.5151   1.5647   1.5690   1.5703   1.5795
  1.5826   1.5926   1.6222   1.6509   1.6831   1.6921   1.7200   1.7435
  1.7775   1.7877   1.7978   1.8075   1.8213   1.8298   1.8795   1.8935
  1.9300   1.9665   2.0478   2.0731   2.0839   2.0925   2.1177   2.1594
  2.1960   2.2561   2.3081   2.3327   2.3762   2.3805   2.4311   2.4666
  2.5918   2.6015   2.6280   2.6726   2.6818   2.7113   2.7298   2.7343
  2.7938   2.7974   2.8100   2.8272   2.8296   2.8386   2.8579   2.8699
  2.8832   2.9104   2.9136   2.9187   2.9283   2.9463   2.9549   2.9610
  2.9634   2.9897   3.0025   3.0304   3.0424   3.0743   3.1236   3.1598
  3.1751   3.2000   3.2160   3.2174   3.2300   3.2340   3.2572   3.2650
  3.2828   3.2984   3.3137   3.3274   3.3503   3.3657   3.3781   3.4009
  3.4180   3.4307   3.4500   3.4638   3.4762   3.4874   3.5028   3.5167
  3.5270   3.5422   3.5432   3.5786   3.5950   3.6129   3.6272   3.6381
  3.6575   3.6991   3.7141   3.7409   3.7727   3.8042   3.8107   3.8170
  3.8362   3.8587   3.8623   3.8719   3.9045   3.9051   3.9324   3.9330
  3.9526   3.9694   3.9800   3.9997   4.0618   4.0929   4.1250   4.1470
  4.1564   4.1624   4.1767   4.1954   4.2219   4.2608   4.2939   4.3310
  4.3766   4.3875   4.4181   4.4207   4.4469   4.4532   4.4650   4.5201
  4.5428   4.5565   4.5702   4.5753   4.5865   4.5961   4.6233   4.6367
  4.6967   4.7272   4.7450   4.7803   4.8147   4.8195   4.8759   4.8795
  4.9058   4.9634   5.0448   5.0652   5.1199   5.1305   5.1347   5.1635
  5.1816   5.1836   5.1948   5.2195   5.2392   5.2615   5.2793   5.3092
  5.3274   5.3470   5.3773   5.3919   5.4258   5.4986   5.5250   5.5542
  5.5899   5.6302   5.6763   5.7199   5.7523   5.8302   5.8496   5.8891
  5.8993   5.9582   6.0407   6.0909   6.2811   6.3828   6.5229   6.6064
  6.6549   6.7083   6.9167   6.9633   7.0195   7.1004   7.1462   7.2066
  7.2564   7.3067   7.3292   7.4136   7.4506   7.5150   7.6705   7.7960
  7.8508   8.0392   8.1180  24.1934  24.7966  24.8078  24.8197  25.0526
 25.0717  25.5347  50.4346  50.5225  50.6239
 --------------------------------------------------------------
 
          Ground-State Mulliken Net Atomic Charges

     Atom                 Charge (a.u.)    Spin (a.u.)
  --------------------------------------------------------
      1 C                     0.371172      -0.026178
      2 C                    -0.327690       0.004465
      3 C                    -0.376173      -0.001038
      4 C                    -0.340354       0.001559
      5 C                    -0.827314      -0.000612
      6 C                     0.252321       0.025331
      7 C                    -0.329626       0.000387
      8 H                     0.285180      -0.000005
      9 H                     0.280751       0.000018
     10 H                     0.285490      -0.000043
     11 H                     0.259662       0.000213
     12 O                    -0.336681       0.000240
     13 H                     0.313197       0.002597
     14 H                     0.357065       0.001627
     15 H                     0.280779      -0.000593
     16 O                     0.049853       0.313376
     17 O                    -0.197631       0.678657
  --------------------------------------------------------
  Sum of atomic charges =     0.000000
  Sum of spin   charges =     1.000000

 -----------------------------------------------------------------
                    Cartesian Multipole Moments
 -----------------------------------------------------------------
    Charge (ESU x 10^10)
                 0.0000
    Dipole Moment (Debye)
         X      -2.0344      Y       0.8670      Z       2.5917
       Tot       3.4069
    Quadrupole Moments (Debye-Ang)
        XX     -48.8379     XY      -1.3355     YY     -50.6528
        XZ      -0.2224     YZ      -8.6442     ZZ     -72.0403
    Octopole Moments (Debye-Ang^2)
       XXX     154.7962    XXY      17.2718    XYY      61.3398
       YYY      71.6339    XXZ      47.6953    XYZ       9.4022
       YYZ      46.9979    XZZ      65.4469    YZZ      18.6611
       ZZZ     218.0523
    Hexadecapole Moments (Debye-Ang^3)
      XXXX    -731.9182   XXXY    -145.2215   XXYY    -231.8901
      XYYY    -154.6513   YYYY    -570.0624   XXXZ     -33.3543
      XXYZ      43.9022   XYYZ     -29.6265   YYYZ     154.0244
      XXZZ    -329.9336   XYZZ     -44.7344   YYZZ    -264.8600
      XZZZ     -54.9563   YZZZ     240.4113   ZZZZ   -1534.6416
 -----------------------------------------------------------------
 Calculating analytic gradient of the SCF energy
 Gradient of CDS energy
            1           2           3           4           5           6
    1   0.0002605   0.0003819  -0.0001266  -0.0004949  -0.0001381   0.0001267
    2   0.0001305  -0.0002634  -0.0003609  -0.0000652   0.0002550  -0.0000171
    3  -0.0001446   0.0001945   0.0003525   0.0001249  -0.0001925  -0.0002494
            7           8           9          10          11          12
    1   0.0038329   0.0001484  -0.0000496  -0.0001983  -0.0000909  -0.0039564
    2   0.0028374  -0.0001151  -0.0001439  -0.0000284   0.0001363  -0.0027535
    3   0.0013316   0.0000872   0.0001406   0.0000532  -0.0001027  -0.0012160
           13          14          15          16          17
    1  -0.0001295   0.0002353   0.0001492   0.0000856  -0.0000362
    2  -0.0000213   0.0004215   0.0000879   0.0000118  -0.0001117
    3  -0.0001806  -0.0000222  -0.0000910  -0.0000342  -0.0000514
 Gradient of SCF Energy
            1           2           3           4           5           6
    1  -0.0070573  -0.0035912   0.0026953   0.0049855   0.0089278   0.0036638
    2   0.0029358   0.0049518   0.0039054  -0.0006394  -0.0076721   0.0022228
    3   0.0015114  -0.0041544  -0.0040708  -0.0001724   0.0038333  -0.0029932
            7           8           9          10          11          12
    1   0.0101804   0.0037262  -0.0017248  -0.0072394  -0.0067148   0.0011867
    2  -0.0090158  -0.0031856  -0.0046838  -0.0009089   0.0058409  -0.0113333
    3   0.0006086   0.0025005   0.0046573   0.0019216  -0.0042081   0.0098459
           13          14          15          16          17
    1  -0.0085757  -0.0008972   0.0012476  -0.0005159  -0.0002972
    2   0.0076336   0.0122339  -0.0010531  -0.0000547  -0.0011775
    3  -0.0013648  -0.0070894   0.0004272   0.0011527  -0.0024053
 Max gradient component =       1.223E-02
 RMS gradient           =       5.144E-03
 Computing fast CPCM-SWIG gradient
 Updating gradient with PCM contributions...
 -- total gradient after adding PCM contribution --
---------------------------------------------------
  Atom         X              Y              Z     
---------------------------------------------------
   1      -0.000008      -0.000030      -0.000023
   2      -0.000015       0.000010      -0.000002
   3       0.000002       0.000017      -0.000010
   4       0.000021       0.000023       0.000004
   5       0.000024       0.000005       0.000049
   6      -0.000083       0.000009      -0.000009
   7      -0.000024      -0.000049      -0.000043
   8      -0.000005      -0.000007      -0.000004
   9      -0.000005       0.000009       0.000007
  10      -0.000002       0.000020       0.000009
  11       0.000003       0.000010       0.000002
  12       0.000101      -0.000005       0.000061
  13       0.000003      -0.000014      -0.000015
  14      -0.000012       0.000054      -0.000028
  15       0.000003      -0.000010      -0.000013
  16      -0.000028      -0.000173       0.000180
  17       0.000024       0.000131      -0.000164
---------------------------------------------------
 Number of fixed atoms: 0
 Gradient time:  CPU 289.14 s  wall 49.64 s
 ######################################################
 ######################################################
 # Starting finite difference calculation for IDERIV  #
 Finite diff step size:  1.88973e-03 a.u.
 ----------------------------------------------------------------
             Standard Nuclear Orientation (Angstroms)
    I     Atom           X                Y                Z
 ----------------------------------------------------------------
    1      C      -0.1863587235    -0.9272121728    -0.1256294172
    2      C      -0.5229556116    -1.8904036510     0.8130722998
    3      C      -1.8532008719    -2.0837148725     1.1679779317
    4      C      -2.8489326723    -1.3140927829     0.5831552321
    5      C      -2.5153718359    -0.3491196617    -0.3578324894
    6      C      -1.1865638031    -0.1541658210    -0.7091354586
    7      C      -0.8445588915     0.8710398236    -1.7416402783
    8      H       0.2519659481    -2.4913929127     1.2685405933
    9      H      -2.1121829467    -2.8349085563     1.9016707827
   10      H      -3.8835832755    -1.4620657724     0.8606235249
   11      H      -3.2854173629     0.2573215221    -0.8169065556
   12      O       0.3027996171     1.5694314897    -1.4095387576
   13      H      -1.6776378704     1.5269804708    -1.9858314488
   14      H       0.3715844895     2.3430714210    -1.9826727142
   15      H       0.8468882958    -0.7738594863    -0.4032091831
   16      O      -0.5904475336     0.1029550120    -2.9938705408
   17      O      -0.4144477514     0.9115645502    -3.9992777206
 ----------------------------------------------------------------
 Nuclear Repulsion Energy =         503.20207543 hartrees
 There are       37 alpha and       36 beta electrons
 Discretize the solute cavity surface with Lebedev spheres
	Using 110 Lebedev grid points for each H atom
	Using 194 Lebedev grid points for other atoms
	Atomic van der Waals radii will be scaled by 1.20
 Remove points where switching function is < 1.0e-08
 Keep 1303 surface tesserae and discard 1407 interior tesserae
 Molecular Surface Area = 159.169 Angst**2
 Requested basis set is 6-311++G(2df,2p)
 There are 122 shells and 410 basis functions
 A cutoff of  1.0D-12 yielded   6551 shell pairs
 There are     74388 function pairs (     93204 Cartesian)
 Smallest overlap matrix eigenvalue = 8.58E-07
 Linear dependence detected in AO basis
 Tighter screening thresholds may be required for diffuse basis sets
 Use S2THRESH > 14 and THRESH = 14 in case of SCF convergence issues
 Number of orthogonalized atomic orbitals = 409
 Maximum deviation from orthogonality = 1.735E-10
 Guess MOs from SCF MO coefficient file

 -----------------------------------------------------------------------
  General SCF calculation program by
  Eric Jon Sundstrom, Paul Horn, Yuezhi Mao, Dmitri Zuev, Alec White,
  David Stuck, Shaama M.S., Shane Yost, Joonho Lee, David Small,
  Daniel Levine, Susi Lehtola, Hugh Burton, Evgeny Epifanovsky,
  Bang C. Huynh
 -----------------------------------------------------------------------
 Exchange:     0.1500 Hartree-Fock + 1.0000 wB97M-V + LR-HF
 Correlation:  1.0000 wB97M-V
 Using SG-2 standard quadrature grid
 Nonlocal Correlation:  VV10 with C = 0.0100 and b = 6.00 and scale = 1.00000
 Grid used for NLC:  SG-1 standard quadrature
 
 Citation of the SMD model:
 Marenich, A.V.; Cramer, C.J.; Truhlar, D.G.
 J. Phys. Chem. B 2009, 113, 6378-6396.
 iSolventCode=           1
 Solvent: water                                                           
 
 vradii
            1           2           3           4           5           6
    1   1.8500000   1.8500000   1.8500000   1.8500000   1.8500000   1.8500000
            7           8           9          10          11          12
    1   1.8500000   1.2000000   1.2000000   1.2000000   1.2000000   1.5200000
           13          14          15          16          17
    1   1.2000000   1.2000000   1.2000000   1.5200000   1.5200000
 -------------------------------------------------------
 OpenMP BLAS3 based DFT computing Module                
 Release: version 1.0, May 2013, Q-Chem Inc. Pittsburgh 
 -------------------------------------------------------
 A unrestricted SCF calculation will be
 performed using Roothaan-Hall, DIIS, GDM
 SCF converges when RMS gradient is below 1.0e-07
 ---------------------------------------
  Cycle       Energy         DIIS error
 ---------------------------------------
    1    -496.4827397672      1.57e-04  Roothaan Step
 ---------------------------------------
  Cycle       Energy         DIIS error
 ---------------------------------------
    1    -496.5016324953      1.71e-04  
    2    -496.5045418371      1.12e-04  Done DIIS. Switching to GDM
 ---------------------------------------
  Cycle       Energy        RMS Gradient
 ---------------------------------------
    1    -496.5045418371      3.53e-03   Normal BFGS step
    2    -496.5047967429      4.99e-03   Normal BFGS step
    3    -496.5054194518      9.11e-04   Normal BFGS step
    4    -496.5054234732      1.68e-03   Normal BFGS step
    5    -496.5054410758      1.10e-04   Normal BFGS step
    6    -496.5054414619      2.16e-04   Normal BFGS step
    7    -496.5054418103      8.76e-05   Normal BFGS step
    8    -496.5054418530      4.93e-05   Normal BFGS step
    9    -496.5054418730      1.28e-05   Normal BFGS step
   10    -496.5054418761      3.66e-06   Normal BFGS step
   11    -496.5054418764      3.46e-06   Normal BFGS step
   12    -496.5054418764      3.22e-06   Normal BFGS step
   13    -496.5054418765      2.84e-06   Normal BFGS step
   14    -496.5054418765      1.99e-06   Normal BFGS step
   15    -496.5054418766      9.22e-07   Normal BFGS step
   16    -496.5054418766      3.44e-07   Normal BFGS step
   17    -496.5054418765      1.19e-07   Normal BFGS step
   18    -496.5054418765      6.25e-08  Convergence criterion met
 ---------------------------------------
 SCF time:   CPU 1788.53s  wall 257.00s 
<S^2> =          0.753961032
(3)  G-ENP(liq) elect-nuc-pol free energy of system     -496.505441877 a.u.
(4)  G-CDS(liq) cavity-dispersion-solvent structure 
     free energy                                                3.0198 kcal/mol
(6)  G-S(liq) free energy of system                     -496.500629500 a.u.
 SCF   energy in the final basis set =     -496.5006295002
 Total energy in the final basis set =     -496.5006295002
 
 --------------------------------------------------------------
 
                    Orbital Energies (a.u.)
 --------------------------------------------------------------
 
 Alpha MOs
 -- Occupied --
-19.4600 -19.4196 -19.3629 -10.4633 -10.3609 -10.3515 -10.3511 -10.3484
-10.3474 -10.3472  -1.3452  -1.1923  -1.0160  -0.9867  -0.8916  -0.8767
 -0.7973  -0.7345  -0.7109  -0.6759  -0.6526  -0.6446  -0.6138  -0.5909
 -0.5624  -0.5533  -0.5355  -0.5263  -0.4949  -0.4837  -0.4538  -0.4480
 -0.4393  -0.4022  -0.3994  -0.3530  -0.3520
 -- Virtual --
  0.0239   0.0356   0.0370   0.0459   0.0525   0.0558   0.0561   0.0744
  0.0837   0.0896   0.0969   0.1032   0.1146   0.1294   0.1354   0.1462
  0.1511   0.1555   0.1606   0.1620   0.1668   0.1707   0.1726   0.1739
  0.1811   0.1818   0.1920   0.2018   0.2060   0.2164   0.2192   0.2267
  0.2374   0.2440   0.2517   0.2545   0.2600   0.2711   0.2729   0.2810
  0.2837   0.2920   0.3033   0.3079   0.3241   0.3327   0.3412   0.3465
  0.3505   0.3536   0.3589   0.3660   0.3720   0.3830   0.3913   0.3985
  0.4180   0.4266   0.4348   0.4420   0.4585   0.4655   0.4802   0.4836
  0.5503   0.5690   0.5700   0.5930   0.5973   0.6032   0.6073   0.6137
  0.6194   0.6224   0.6337   0.6541   0.6632   0.6761   0.6822   0.6951
  0.7029   0.7212   0.7280   0.7337   0.7378   0.7393   0.7465   0.7480
  0.7649   0.7781   0.7860   0.7897   0.8056   0.8248   0.8313   0.8398
  0.8451   0.8524   0.8714   0.8820   0.8920   0.9027   0.9216   0.9419
  0.9666   0.9967   1.0087   1.0157   1.0438   1.0598   1.0839   1.0910
  1.0986   1.1090   1.1265   1.1405   1.1491   1.1598   1.1792   1.1872
  1.1884   1.1971   1.2016   1.2110   1.2265   1.2398   1.2542   1.2679
  1.2734   1.2967   1.3000   1.3078   1.3452   1.3659   1.3868   1.3911
  1.3980   1.4196   1.4350   1.4435   1.4486   1.4528   1.4663   1.4710
  1.4873   1.4905   1.5111   1.5620   1.5643   1.5690   1.5753   1.5802
  1.5920   1.6114   1.6319   1.6738   1.6910   1.7116   1.7401   1.7699
  1.7787   1.7961   1.8065   1.8205   1.8290   1.8723   1.8893   1.9247
  1.9637   2.0454   2.0702   2.0832   2.0921   2.1154   2.1523   2.1853
  2.2540   2.2904   2.3274   2.3689   2.3737   2.4285   2.4645   2.5915
  2.6014   2.6274   2.6719   2.6752   2.7090   2.7284   2.7337   2.7935
  2.7968   2.8100   2.8269   2.8293   2.8383   2.8579   2.8697   2.8831
  2.9102   2.9136   2.9185   2.9282   2.9462   2.9549   2.9608   2.9633
  2.9898   3.0023   3.0301   3.0421   3.0741   3.1233   3.1594   3.1748
  3.1994   3.2159   3.2174   3.2300   3.2339   3.2572   3.2650   3.2825
  3.2976   3.3133   3.3272   3.3500   3.3656   3.3779   3.4009   3.4178
  3.4305   3.4495   3.4637   3.4759   3.4872   3.5027   3.5166   3.5268
  3.5421   3.5432   3.5784   3.5948   3.6129   3.6272   3.6382   3.6576
  3.6990   3.7135   3.7409   3.7718   3.8039   3.8103   3.8165   3.8358
  3.8585   3.8621   3.8717   3.9045   3.9050   3.9319   3.9324   3.9524
  3.9690   3.9795   3.9994   4.0615   4.0925   4.1249   4.1469   4.1564
  4.1623   4.1764   4.1955   4.2216   4.2607   4.2928   4.3307   4.3763
  4.3859   4.4176   4.4197   4.4466   4.4530   4.4647   4.5195   4.5408
  4.5529   4.5651   4.5749   4.5848   4.5946   4.6109   4.6254   4.6949
  4.7196   4.7326   4.7792   4.8087   4.8175   4.8588   4.8766   4.8984
  4.9597   5.0327   5.0617   5.0764   5.0819   5.0834   5.1265   5.1612
  5.1783   5.1823   5.2146   5.2234   5.2303   5.2457   5.3013   5.3207
  5.3409   5.3539   5.3814   5.4165   5.4945   5.5207   5.5449   5.5808
  5.6151   5.6738   5.7152   5.7379   5.8268   5.8494   5.8896   5.8954
  5.9567   6.0341   6.0896   6.2809   6.3703   6.4754   6.5944   6.6540
  6.6989   6.8368   6.8832   6.9633   7.0821   7.1166   7.1760   7.2308
  7.3013   7.3227   7.3775   7.4268   7.4912   7.6679   7.7868   7.8438
  8.0274   8.0977  24.1939  24.7966  24.8075  24.8199  25.0518  25.0713
 25.5340  50.4218  50.5139  50.6227
 
 Beta MOs
 -- Occupied --
-19.4498 -19.4007 -19.3627 -10.4637 -10.3609 -10.3516 -10.3511 -10.3484
-10.3474 -10.3471  -1.3193  -1.1903  -1.0026  -0.9691  -0.8861  -0.8766
 -0.7912  -0.7338  -0.7090  -0.6697  -0.6409  -0.6341  -0.5969  -0.5592
 -0.5548  -0.5457  -0.5263  -0.5237  -0.4922  -0.4729  -0.4502  -0.4466
 -0.4377  -0.3834  -0.3525  -0.3520
 -- Virtual --
 -0.0331   0.0240   0.0358   0.0371   0.0469   0.0526   0.0563   0.0565
  0.0748   0.0838   0.0900   0.0971   0.1039   0.1150   0.1308   0.1359
  0.1467   0.1516   0.1558   0.1608   0.1629   0.1674   0.1712   0.1730
  0.1746   0.1814   0.1821   0.1942   0.2021   0.2078   0.2169   0.2206
  0.2281   0.2390   0.2446   0.2529   0.2556   0.2620   0.2717   0.2784
  0.2817   0.2903   0.2933   0.3044   0.3087   0.3251   0.3340   0.3417
  0.3483   0.3507   0.3540   0.3601   0.3671   0.3728   0.3848   0.3929
  0.4009   0.4188   0.4267   0.4360   0.4436   0.4593   0.4663   0.4810
  0.4843   0.5505   0.5692   0.5702   0.5930   0.5974   0.6032   0.6074
  0.6138   0.6196   0.6225   0.6340   0.6542   0.6634   0.6764   0.6832
  0.6956   0.7030   0.7213   0.7280   0.7338   0.7379   0.7399   0.7469
  0.7483   0.7651   0.7783   0.7863   0.7906   0.8060   0.8257   0.8314
  0.8403   0.8452   0.8530   0.8717   0.8821   0.8920   0.9027   0.9221
  0.9433   0.9670   0.9981   1.0110   1.0169   1.0445   1.0602   1.0859
  1.0924   1.1008   1.1106   1.1280   1.1430   1.1546   1.1675   1.1892
  1.1896   1.1953   1.2017   1.2106   1.2193   1.2308   1.2454   1.2552
  1.2720   1.2751   1.2999   1.3024   1.3108   1.3460   1.3676   1.3873
  1.3918   1.4001   1.4232   1.4365   1.4443   1.4491   1.4580   1.4678
  1.4730   1.4922   1.4932   1.5151   1.5647   1.5691   1.5703   1.5796
  1.5826   1.5927   1.6222   1.6509   1.6830   1.6920   1.7199   1.7434
  1.7775   1.7877   1.7977   1.8074   1.8213   1.8297   1.8794   1.8935
  1.9300   1.9664   2.0477   2.0730   2.0840   2.0925   2.1177   2.1593
  2.1959   2.2559   2.3080   2.3325   2.3762   2.3805   2.4310   2.4666
  2.5918   2.6015   2.6278   2.6724   2.6818   2.7112   2.7299   2.7343
  2.7938   2.7974   2.8101   2.8271   2.8295   2.8386   2.8580   2.8699
  2.8833   2.9103   2.9137   2.9187   2.9282   2.9463   2.9551   2.9610
  2.9635   2.9899   3.0024   3.0302   3.0422   3.0742   3.1237   3.1596
  3.1749   3.2001   3.2160   3.2174   3.2300   3.2339   3.2572   3.2650
  3.2828   3.2984   3.3137   3.3274   3.3502   3.3658   3.3780   3.4009
  3.4179   3.4307   3.4499   3.4638   3.4761   3.4873   3.5027   3.5167
  3.5270   3.5423   3.5432   3.5786   3.5949   3.6129   3.6272   3.6382
  3.6575   3.6990   3.7140   3.7408   3.7727   3.8041   3.8106   3.8170
  3.8360   3.8586   3.8623   3.8720   3.9046   3.9050   3.9321   3.9328
  3.9525   3.9692   3.9799   3.9996   4.0617   4.0928   4.1249   4.1471
  4.1565   4.1624   4.1766   4.1956   4.2220   4.2612   4.2939   4.3308
  4.3765   4.3875   4.4183   4.4207   4.4469   4.4534   4.4649   4.5195
  4.5423   4.5562   4.5698   4.5750   4.5863   4.5959   4.6233   4.6367
  4.6966   4.7270   4.7450   4.7799   4.8146   4.8194   4.8760   4.8794
  4.9057   4.9633   5.0447   5.0648   5.1200   5.1305   5.1348   5.1634
  5.1815   5.1836   5.1948   5.2192   5.2392   5.2615   5.2793   5.3094
  5.3274   5.3470   5.3773   5.3919   5.4258   5.4984   5.5252   5.5541
  5.5898   5.6302   5.6763   5.7199   5.7523   5.8298   5.8498   5.8898
  5.8993   5.9577   6.0407   6.0909   6.2814   6.3828   6.5229   6.6064
  6.6541   6.7083   6.9167   6.9633   7.0195   7.1004   7.1462   7.2066
  7.2564   7.3066   7.3292   7.4136   7.4506   7.5150   7.6705   7.7960
  7.8508   8.0392   8.1180  24.1939  24.7965  24.8075  24.8196  25.0518
 25.0713  25.5340  50.4346  50.5225  50.6239
 --------------------------------------------------------------
 
          Ground-State Mulliken Net Atomic Charges

     Atom                 Charge (a.u.)    Spin (a.u.)
  --------------------------------------------------------
      1 C                     0.368843      -0.026192
      2 C                    -0.327314       0.004471
      3 C                    -0.376392      -0.001040
      4 C                    -0.340382       0.001560
      5 C                    -0.826567      -0.000621
      6 C                     0.253042       0.025380
      7 C                    -0.329224       0.000366
      8 H                     0.285183      -0.000005
      9 H                     0.280762       0.000018
     10 H                     0.285439      -0.000043
     11 H                     0.259708       0.000213
     12 O                    -0.336705       0.000238
     13 H                     0.313172       0.002597
     14 H                     0.357080       0.001626
     15 H                     0.281148      -0.000597
     16 O                     0.049846       0.313378
     17 O                    -0.197639       0.678652
  --------------------------------------------------------
  Sum of atomic charges =     0.000000
  Sum of spin   charges =     1.000000

 -----------------------------------------------------------------
                    Cartesian Multipole Moments
 -----------------------------------------------------------------
    Charge (ESU x 10^10)
                 0.0000
    Dipole Moment (Debye)
         X      -2.0343      Y       0.8669      Z       2.5917
       Tot       3.4069
    Quadrupole Moments (Debye-Ang)
        XX     -48.8327     XY      -1.3342     YY     -50.6557
        XZ      -0.2247     YZ      -8.6430     ZZ     -72.0432
    Octopole Moments (Debye-Ang^2)
       XXX     154.7664    XXY      17.2663    XYY      61.3329
       YYY      71.6393    XXZ      47.6975    XYZ       9.4049
       YYZ      46.9978    XZZ      65.4430    YZZ      18.6607
       ZZZ     218.0581
    Hexadecapole Moments (Debye-Ang^3)
      XXXX    -731.8330   XXXY    -145.1934   XXYY    -231.8794
      XYYY    -154.6272   YYYY    -570.0887   XXXZ     -33.3602
      XXYZ      43.8996   XYYZ     -29.6356   YYYZ     154.0317
      XXZZ    -329.9291   XYZZ     -44.7246   YYZZ    -264.8681
      XZZZ     -54.9659   YZZZ     240.4189   ZZZZ   -1534.6724
 -----------------------------------------------------------------
 Calculating analytic gradient of the SCF energy
 Gradient of CDS energy
            1           2           3           4           5           6
    1   0.0002631   0.0003812  -0.0001265  -0.0004949  -0.0001382   0.0001260
    2   0.0001302  -0.0002637  -0.0003609  -0.0000652   0.0002550  -0.0000168
    3  -0.0001446   0.0001948   0.0003525   0.0001249  -0.0001924  -0.0002495
            7           8           9          10          11          12
    1   0.0038328   0.0001484  -0.0000496  -0.0001983  -0.0000909  -0.0039562
    2   0.0028373  -0.0001151  -0.0001439  -0.0000284   0.0001363  -0.0027534
    3   0.0013315   0.0000872   0.0001406   0.0000532  -0.0001027  -0.0012160
           13          14          15          16          17
    1  -0.0001295   0.0002353   0.0001481   0.0000856  -0.0000362
    2  -0.0000213   0.0004215   0.0000880   0.0000119  -0.0001117
    3  -0.0001806  -0.0000222  -0.0000909  -0.0000343  -0.0000514
 Gradient of SCF Energy
            1           2           3           4           5           6
    1  -0.0056748  -0.0038609   0.0027153   0.0049798   0.0088313   0.0032103
    2   0.0028904   0.0048305   0.0038528  -0.0006091  -0.0076516   0.0024301
    3   0.0013953  -0.0040221  -0.0040214  -0.0002024   0.0038358  -0.0031393
            7           8           9          10          11          12
    1   0.0102118   0.0037419  -0.0017359  -0.0072407  -0.0067242   0.0011824
    2  -0.0090139  -0.0031511  -0.0046842  -0.0009084   0.0058397  -0.0113319
    3   0.0006038   0.0024673   0.0046610   0.0019209  -0.0042040   0.0098444
           13          14          15          16          17
    1  -0.0085755  -0.0008970   0.0006513  -0.0005173  -0.0002979
    2   0.0076280   0.0122330  -0.0011211  -0.0000555  -0.0011777
    3  -0.0013591  -0.0070885   0.0005572   0.0011536  -0.0024027
 Max gradient component =       1.223E-02
 RMS gradient           =       5.099E-03
 Computing fast CPCM-SWIG gradient
 Updating gradient with PCM contributions...
 -- total gradient after adding PCM contribution --
---------------------------------------------------
  Atom         X              Y              Z     
---------------------------------------------------
   1       0.001378      -0.000060      -0.000142
   2      -0.000289      -0.000103       0.000122
   3       0.000025      -0.000038       0.000041
   4       0.000009       0.000056      -0.000027
   5      -0.000075       0.000016       0.000055
   6      -0.000527       0.000211      -0.000158
   7       0.000006      -0.000052      -0.000043
   8       0.000013       0.000024      -0.000035
   9      -0.000014       0.000008       0.000010
  10      -0.000001       0.000020       0.000008
  11      -0.000005       0.000008       0.000007
  12       0.000098      -0.000005       0.000060
  13       0.000002      -0.000018      -0.000011
  14      -0.000013       0.000055      -0.000028
  15      -0.000600      -0.000079       0.000119
  16      -0.000029      -0.000174       0.000182
  17       0.000024       0.000131      -0.000162
---------------------------------------------------
 Number of fixed atoms: 0
 Gradient time:  CPU 249.97 s  wall 36.14 s
 ----------------------------------------------------------------
             Standard Nuclear Orientation (Angstroms)
    I     Atom           X                Y                Z
 ----------------------------------------------------------------
    1      C      -0.1883587235    -0.9272121728    -0.1256294172
    2      C      -0.5229556116    -1.8904036510     0.8130722998
    3      C      -1.8532008719    -2.0837148725     1.1679779317
    4      C      -2.8489326723    -1.3140927829     0.5831552321
    5      C      -2.5153718359    -0.3491196617    -0.3578324894
    6      C      -1.1865638031    -0.1541658210    -0.7091354586
    7      C      -0.8445588915     0.8710398236    -1.7416402783
    8      H       0.2519659481    -2.4913929127     1.2685405933
    9      H      -2.1121829467    -2.8349085563     1.9016707827
   10      H      -3.8835832755    -1.4620657724     0.8606235249
   11      H      -3.2854173629     0.2573215221    -0.8169065556
   12      O       0.3027996171     1.5694314897    -1.4095387576
   13      H      -1.6776378704     1.5269804708    -1.9858314488
   14      H       0.3715844895     2.3430714210    -1.9826727142
   15      H       0.8468882958    -0.7738594863    -0.4032091831
   16      O      -0.5904475336     0.1029550120    -2.9938705408
   17      O      -0.4144477514     0.9115645502    -3.9992777206
 ----------------------------------------------------------------
 Nuclear Repulsion Energy =         503.23390894 hartrees
 There are       37 alpha and       36 beta electrons
 Discretize the solute cavity surface with Lebedev spheres
	Using 110 Lebedev grid points for each H atom
	Using 194 Lebedev grid points for other atoms
	Atomic van der Waals radii will be scaled by 1.20
 Remove points where switching function is < 1.0e-08
 Keep 1302 surface tesserae and discard 1408 interior tesserae
 Molecular Surface Area = 159.166 Angst**2
 Requested basis set is 6-311++G(2df,2p)
 There are 122 shells and 410 basis functions
 A cutoff of  1.0D-12 yielded   6551 shell pairs
 There are     74388 function pairs (     93204 Cartesian)
 Smallest overlap matrix eigenvalue = 8.55E-07
 Linear dependence detected in AO basis
 Tighter screening thresholds may be required for diffuse basis sets
 Use S2THRESH > 14 and THRESH = 14 in case of SCF convergence issues
 Number of orthogonalized atomic orbitals = 409
 Maximum deviation from orthogonality = 2.127E-10
 Guess MOs from SCF MO coefficient file

 -----------------------------------------------------------------------
  General SCF calculation program by
  Eric Jon Sundstrom, Paul Horn, Yuezhi Mao, Dmitri Zuev, Alec White,
  David Stuck, Shaama M.S., Shane Yost, Joonho Lee, David Small,
  Daniel Levine, Susi Lehtola, Hugh Burton, Evgeny Epifanovsky,
  Bang C. Huynh
 -----------------------------------------------------------------------
 Exchange:     0.1500 Hartree-Fock + 1.0000 wB97M-V + LR-HF
 Correlation:  1.0000 wB97M-V
 Using SG-2 standard quadrature grid
 Nonlocal Correlation:  VV10 with C = 0.0100 and b = 6.00 and scale = 1.00000
 Grid used for NLC:  SG-1 standard quadrature
 
 Citation of the SMD model:
 Marenich, A.V.; Cramer, C.J.; Truhlar, D.G.
 J. Phys. Chem. B 2009, 113, 6378-6396.
 iSolventCode=           1
 Solvent: water                                                           
 
 vradii
            1           2           3           4           5           6
    1   1.8500000   1.8500000   1.8500000   1.8500000   1.8500000   1.8500000
            7           8           9          10          11          12
    1   1.8500000   1.2000000   1.2000000   1.2000000   1.2000000   1.5200000
           13          14          15          16          17
    1   1.2000000   1.2000000   1.2000000   1.5200000   1.5200000
 -------------------------------------------------------
 OpenMP BLAS3 based DFT computing Module                
 Release: version 1.0, May 2013, Q-Chem Inc. Pittsburgh 
 -------------------------------------------------------
 A unrestricted SCF calculation will be
 performed using Roothaan-Hall, DIIS, GDM
 SCF converges when RMS gradient is below 1.0e-07
 ---------------------------------------
  Cycle       Energy         DIIS error
 ---------------------------------------
    1    -496.4827318333      1.57e-04  Roothaan Step
 ---------------------------------------
  Cycle       Energy         DIIS error
 ---------------------------------------
    1    -496.5016444732      1.70e-04  
    2    -496.5045472859      1.12e-04  Done DIIS. Switching to GDM
 ---------------------------------------
  Cycle       Energy        RMS Gradient
 ---------------------------------------
    1    -496.5045472859      3.52e-03   Normal BFGS step
    2    -496.5047986893      5.07e-03   Normal BFGS step
    3    -496.5054183456      9.17e-04   Normal BFGS step
    4    -496.5054223538      1.67e-03   Normal BFGS step
    5    -496.5054400700      1.08e-04   Normal BFGS step
    6    -496.5054404579      2.15e-04   Normal BFGS step
    7    -496.5054408036      8.77e-05   Normal BFGS step
    8    -496.5054408465      4.92e-05   Normal BFGS step
    9    -496.5054408665      1.24e-05   Normal BFGS step
   10    -496.5054408695      3.48e-06   Normal BFGS step
   11    -496.5054408698      3.31e-06   Normal BFGS step
   12    -496.5054408699      3.09e-06   Normal BFGS step
   13    -496.5054408699      2.73e-06   Normal BFGS step
   14    -496.5054408699      1.95e-06   Normal BFGS step
   15    -496.5054408700      9.33e-07   Normal BFGS step
   16    -496.5054408699      2.93e-07   Normal BFGS step
   17    -496.5054408699      1.17e-07   Normal BFGS step
   18    -496.5054408699      6.73e-08  Convergence criterion met
 ---------------------------------------
 SCF time:   CPU 1536.84s  wall 193.00s 
<S^2> =          0.753960913
(3)  G-ENP(liq) elect-nuc-pol free energy of system     -496.505440870 a.u.
(4)  G-CDS(liq) cavity-dispersion-solvent structure 
     free energy                                                3.0192 kcal/mol
(6)  G-S(liq) free energy of system                     -496.500629478 a.u.
 SCF   energy in the final basis set =     -496.5006294782
 Total energy in the final basis set =     -496.5006294782
 
 --------------------------------------------------------------
 
                    Orbital Energies (a.u.)
 --------------------------------------------------------------
 
 Alpha MOs
 -- Occupied --
-19.4600 -19.4196 -19.3629 -10.4633 -10.3608 -10.3515 -10.3510 -10.3484
-10.3473 -10.3471  -1.3452  -1.1923  -1.0161  -0.9868  -0.8917  -0.8767
 -0.7974  -0.7345  -0.7109  -0.6759  -0.6525  -0.6447  -0.6137  -0.5909
 -0.5623  -0.5534  -0.5355  -0.5262  -0.4950  -0.4838  -0.4538  -0.4478
 -0.4394  -0.4022  -0.3994  -0.3530  -0.3520
 -- Virtual --
  0.0239   0.0356   0.0370   0.0460   0.0526   0.0558   0.0561   0.0744
  0.0837   0.0895   0.0969   0.1032   0.1146   0.1294   0.1354   0.1462
  0.1511   0.1556   0.1606   0.1621   0.1668   0.1707   0.1726   0.1740
  0.1811   0.1818   0.1920   0.2018   0.2059   0.2164   0.2192   0.2267
  0.2374   0.2440   0.2517   0.2545   0.2600   0.2711   0.2728   0.2810
  0.2838   0.2921   0.3033   0.3080   0.3241   0.3327   0.3412   0.3465
  0.3506   0.3536   0.3590   0.3660   0.3720   0.3830   0.3912   0.3985
  0.4181   0.4267   0.4349   0.4420   0.4585   0.4655   0.4802   0.4837
  0.5503   0.5690   0.5700   0.5930   0.5973   0.6031   0.6074   0.6138
  0.6194   0.6225   0.6337   0.6541   0.6632   0.6761   0.6822   0.6950
  0.7029   0.7212   0.7281   0.7337   0.7379   0.7394   0.7465   0.7480
  0.7650   0.7781   0.7860   0.7897   0.8056   0.8248   0.8314   0.8398
  0.8451   0.8525   0.8716   0.8821   0.8922   0.9027   0.9216   0.9421
  0.9667   0.9968   1.0087   1.0157   1.0439   1.0598   1.0839   1.0910
  1.0986   1.1090   1.1266   1.1405   1.1492   1.1598   1.1792   1.1871
  1.1884   1.1971   1.2016   1.2110   1.2266   1.2397   1.2543   1.2679
  1.2733   1.2968   1.3000   1.3079   1.3453   1.3660   1.3868   1.3912
  1.3980   1.4198   1.4351   1.4436   1.4486   1.4528   1.4664   1.4711
  1.4874   1.4905   1.5111   1.5619   1.5643   1.5687   1.5754   1.5801
  1.5919   1.6114   1.6319   1.6738   1.6910   1.7117   1.7402   1.7699
  1.7786   1.7964   1.8066   1.8205   1.8292   1.8723   1.8894   1.9247
  1.9639   2.0456   2.0704   2.0831   2.0921   2.1155   2.1524   2.1854
  2.2545   2.2905   2.3279   2.3690   2.3739   2.4287   2.4646   2.5914
  2.6014   2.6278   2.6722   2.6753   2.7091   2.7282   2.7336   2.7936
  2.7968   2.8098   2.8272   2.8295   2.8384   2.8577   2.8697   2.8830
  2.9103   2.9136   2.9184   2.9283   2.9461   2.9545   2.9608   2.9631
  2.9894   3.0025   3.0305   3.0425   3.0743   3.1232   3.1598   3.1751
  3.1993   3.2159   3.2175   3.2301   3.2341   3.2572   3.2650   3.2825
  3.2975   3.3133   3.3273   3.3502   3.3654   3.3781   3.4008   3.4179
  3.4305   3.4498   3.4638   3.4761   3.4874   3.5029   3.5166   3.5268
  3.5419   3.5433   3.5784   3.5949   3.6130   3.6272   3.6380   3.6576
  3.6992   3.7135   3.7410   3.7718   3.8041   3.8105   3.8165   3.8362
  3.8588   3.8622   3.8716   3.9044   3.9051   3.9326   3.9329   3.9526
  3.9695   3.9798   3.9995   4.0619   4.0927   4.1250   4.1466   4.1563
  4.1622   4.1766   4.1952   4.2214   4.2600   4.2928   4.3311   4.3763
  4.3859   4.4172   4.4197   4.4467   4.4524   4.4648   4.5207   4.5417
  4.5530   4.5662   4.5755   4.5852   4.5949   4.6110   4.6253   4.6950
  4.7197   4.7329   4.7801   4.8092   4.8172   4.8592   4.8764   4.8984
  4.9598   5.0328   5.0625   5.0764   5.0819   5.0834   5.1260   5.1613
  5.1786   5.1824   5.2150   5.2233   5.2304   5.2457   5.3008   5.3208
  5.3409   5.3539   5.3814   5.4165   5.4949   5.5203   5.5450   5.5810
  5.6152   5.6739   5.7153   5.7380   5.8276   5.8490   5.8883   5.8953
  5.9576   6.0343   6.0897   6.2803   6.3704   6.4754   6.5944   6.6557
  6.6990   6.8368   6.8832   6.9633   7.0821   7.1167   7.1760   7.2308
  7.3013   7.3227   7.3775   7.4269   7.4912   7.6679   7.7868   7.8438
  8.0274   8.0977  24.1929  24.7966  24.8081  24.8201  25.0534  25.0721
 25.5354  50.4218  50.5139  50.6227
 
 Beta MOs
 -- Occupied --
-19.4498 -19.4007 -19.3627 -10.4637 -10.3608 -10.3515 -10.3510 -10.3484
-10.3473 -10.3471  -1.3193  -1.1903  -1.0027  -0.9691  -0.8862  -0.8766
 -0.7912  -0.7338  -0.7090  -0.6698  -0.6409  -0.6341  -0.5968  -0.5592
 -0.5548  -0.5457  -0.5262  -0.5237  -0.4923  -0.4729  -0.4501  -0.4465
 -0.4378  -0.3834  -0.3525  -0.3521
 -- Virtual --
 -0.0331   0.0240   0.0358   0.0371   0.0470   0.0526   0.0563   0.0566
  0.0748   0.0838   0.0900   0.0971   0.1038   0.1150   0.1308   0.1359
  0.1467   0.1516   0.1558   0.1608   0.1629   0.1674   0.1712   0.1730
  0.1746   0.1814   0.1821   0.1942   0.2021   0.2078   0.2169   0.2206
  0.2281   0.2390   0.2446   0.2529   0.2556   0.2620   0.2717   0.2784
  0.2818   0.2903   0.2934   0.3044   0.3088   0.3251   0.3339   0.3417
  0.3483   0.3508   0.3540   0.3601   0.3671   0.3728   0.3848   0.3929
  0.4008   0.4189   0.4268   0.4361   0.4436   0.4593   0.4663   0.4811
  0.4844   0.5505   0.5692   0.5702   0.5931   0.5974   0.6032   0.6075
  0.6139   0.6196   0.6226   0.6340   0.6543   0.6634   0.6765   0.6832
  0.6956   0.7030   0.7213   0.7281   0.7338   0.7380   0.7400   0.7469
  0.7483   0.7652   0.7783   0.7863   0.7906   0.8060   0.8258   0.8314
  0.8402   0.8452   0.8531   0.8719   0.8823   0.8922   0.9027   0.9221
  0.9435   0.9672   0.9982   1.0110   1.0170   1.0445   1.0602   1.0859
  1.0924   1.1008   1.1106   1.1280   1.1430   1.1546   1.1675   1.1892
  1.1897   1.1953   1.2018   1.2106   1.2193   1.2308   1.2454   1.2553
  1.2720   1.2751   1.3000   1.3024   1.3108   1.3461   1.3676   1.3873
  1.3919   1.4001   1.4234   1.4366   1.4444   1.4491   1.4580   1.4680
  1.4730   1.4922   1.4933   1.5151   1.5647   1.5689   1.5703   1.5795
  1.5827   1.5925   1.6222   1.6509   1.6831   1.6921   1.7200   1.7435
  1.7775   1.7877   1.7979   1.8075   1.8213   1.8299   1.8795   1.8936
  1.9300   1.9666   2.0479   2.0732   2.0839   2.0926   2.1178   2.1594
  2.1960   2.2564   2.3081   2.3330   2.3762   2.3806   2.4312   2.4666
  2.5918   2.6015   2.6282   2.6727   2.6818   2.7113   2.7296   2.7343
  2.7939   2.7974   2.8099   2.8273   2.8297   2.8387   2.8577   2.8699
  2.8832   2.9104   2.9136   2.9186   2.9283   2.9463   2.9547   2.9610
  2.9632   2.9895   3.0026   3.0306   3.0427   3.0744   3.1236   3.1600
  3.1752   3.2000   3.2160   3.2174   3.2301   3.2341   3.2572   3.2650
  3.2829   3.2983   3.3137   3.3274   3.3504   3.3656   3.3782   3.4009
  3.4180   3.4307   3.4502   3.4639   3.4763   3.4875   3.5029   3.5167
  3.5270   3.5420   3.5433   3.5786   3.5950   3.6130   3.6272   3.6380
  3.6575   3.6992   3.7141   3.7410   3.7727   3.8043   3.8107   3.8170
  3.8364   3.8588   3.8624   3.8718   3.9045   3.9052   3.9328   3.9332
  3.9527   3.9697   3.9801   3.9997   4.0620   4.0930   4.1251   4.1468
  4.1564   4.1623   4.1768   4.1952   4.2218   4.2605   4.2939   4.3311
  4.3766   4.3875   4.4179   4.4207   4.4470   4.4529   4.4650   4.5208
  4.5432   4.5567   4.5705   4.5755   4.5866   4.5963   4.6233   4.6366
  4.6967   4.7274   4.7450   4.7808   4.8147   4.8196   4.8758   4.8796
  4.9058   4.9634   5.0449   5.0655   5.1197   5.1305   5.1346   5.1636
  5.1817   5.1837   5.1948   5.2198   5.2392   5.2615   5.2792   5.3090
  5.3275   5.3470   5.3773   5.3920   5.4257   5.4988   5.5247   5.5542
  5.5900   5.6302   5.6764   5.7200   5.7524   5.8306   5.8493   5.8884
  5.8993   5.9587   6.0408   6.0909   6.2808   6.3828   6.5229   6.6064
  6.6558   6.7083   6.9167   6.9633   7.0195   7.1004   7.1462   7.2066
  7.2564   7.3067   7.3292   7.4136   7.4506   7.5150   7.6705   7.7960
  7.8508   8.0392   8.1180  24.1929  24.7966  24.8081  24.8199  25.0534
 25.0721  25.5354  50.4346  50.5225  50.6239
 --------------------------------------------------------------
 
          Ground-State Mulliken Net Atomic Charges

     Atom                 Charge (a.u.)    Spin (a.u.)
  --------------------------------------------------------
      1 C                     0.373505      -0.026164
      2 C                    -0.328066       0.004460
      3 C                    -0.375954      -0.001035
      4 C                    -0.340326       0.001559
      5 C                    -0.828061      -0.000602
      6 C                     0.251594       0.025280
      7 C                    -0.330026       0.000407
      8 H                     0.285177      -0.000006
      9 H                     0.280739       0.000018
     10 H                     0.285541      -0.000043
     11 H                     0.259616       0.000213
     12 O                    -0.336657       0.000243
     13 H                     0.313222       0.002597
     14 H                     0.357049       0.001628
     15 H                     0.280409      -0.000589
     16 O                     0.049861       0.313374
     17 O                    -0.197624       0.678662
  --------------------------------------------------------
  Sum of atomic charges =     0.000000
  Sum of spin   charges =     1.000000

 -----------------------------------------------------------------
                    Cartesian Multipole Moments
 -----------------------------------------------------------------
    Charge (ESU x 10^10)
                 0.0000
    Dipole Moment (Debye)
         X      -2.0345      Y       0.8671      Z       2.5916
       Tot       3.4070
    Quadrupole Moments (Debye-Ang)
        XX     -48.8431     XY      -1.3368     YY     -50.6499
        XZ      -0.2201     YZ      -8.6454     ZZ     -72.0374
    Octopole Moments (Debye-Ang^2)
       XXX     154.8259    XXY      17.2774    XYY      61.3467
       YYY      71.6285    XXZ      47.6930    XYZ       9.3996
       YYZ      46.9979    XZZ      65.4507    YZZ      18.6616
       ZZZ     218.0464
    Hexadecapole Moments (Debye-Ang^3)
      XXXX    -732.0035   XXXY    -145.2495   XXYY    -231.9008
      XYYY    -154.6755   YYYY    -570.0361   XXXZ     -33.3484
      XXYZ      43.9047   XYYZ     -29.6174   YYYZ     154.0171
      XXZZ    -329.9382   XYZZ     -44.7442   YYZZ    -264.8518
      XZZZ     -54.9467   YZZZ     240.4037   ZZZZ   -1534.6108
 -----------------------------------------------------------------
 Calculating analytic gradient of the SCF energy
 Gradient of CDS energy
            1           2           3           4           5           6
    1   0.0002579   0.0003826  -0.0001266  -0.0004949  -0.0001380   0.0001274
    2   0.0001307  -0.0002631  -0.0003609  -0.0000652   0.0002550  -0.0000174
    3  -0.0001446   0.0001942   0.0003525   0.0001249  -0.0001925  -0.0002492
            7           8           9          10          11          12
    1   0.0038330   0.0001484  -0.0000496  -0.0001983  -0.0000909  -0.0039565
    2   0.0028374  -0.0001151  -0.0001439  -0.0000284   0.0001363  -0.0027535
    3   0.0013317   0.0000872   0.0001406   0.0000532  -0.0001027  -0.0012159
           13          14          15          16          17
    1  -0.0001295   0.0002353   0.0001504   0.0000857  -0.0000362
    2  -0.0000213   0.0004215   0.0000878   0.0000118  -0.0001117
    3  -0.0001806  -0.0000222  -0.0000911  -0.0000342  -0.0000514
 Gradient of SCF Energy
            1           2           3           4           5           6
    1  -0.0084374  -0.0033217   0.0026754   0.0049912   0.0090244   0.0041184
    2   0.0029833   0.0050730   0.0039581  -0.0006698  -0.0076926   0.0020142
    3   0.0016252  -0.0042868  -0.0041202  -0.0001424   0.0038308  -0.0028460
            7           8           9          10          11          12
    1   0.0101489   0.0037104  -0.0017136  -0.0072381  -0.0067053   0.0011910
    2  -0.0090177  -0.0032201  -0.0046835  -0.0009094   0.0058422  -0.0113347
    3   0.0006135   0.0025337   0.0046536   0.0019222  -0.0042122   0.0098473
           13          14          15          16          17
    1  -0.0085760  -0.0008974   0.0018404  -0.0005144  -0.0002965
    2   0.0076393   0.0122348  -0.0009859  -0.0000538  -0.0011774
    3  -0.0013705  -0.0070902   0.0002983   0.0011517  -0.0024080
 Max gradient component =       1.223E-02
 RMS gradient           =       5.198E-03
 Computing fast CPCM-SWIG gradient
 Updating gradient with PCM contributions...
 -- total gradient after adding PCM contribution --
---------------------------------------------------
  Atom         X              Y              Z     
---------------------------------------------------
   1      -0.001393       0.000002       0.000094
   2       0.000258       0.000123      -0.000127
   3      -0.000020       0.000073      -0.000061
   4       0.000033      -0.000010       0.000035
   5       0.000123      -0.000006       0.000043
   6       0.000363      -0.000195       0.000141
   7      -0.000054      -0.000045      -0.000042
   8      -0.000023      -0.000038       0.000026
   9       0.000005       0.000009       0.000003
  10      -0.000002       0.000019       0.000010
  11       0.000011       0.000012      -0.000002
  12       0.000104      -0.000004       0.000061
  13       0.000005      -0.000010      -0.000020
  14      -0.000012       0.000054      -0.000029
  15       0.000602       0.000058      -0.000144
  16      -0.000026      -0.000173       0.000178
  17       0.000025       0.000132      -0.000166
---------------------------------------------------
 Number of fixed atoms: 0
 Gradient time:  CPU 249.65 s  wall 35.87 s
 ----------------------------------------------------------------
             Standard Nuclear Orientation (Angstroms)
    I     Atom           X                Y                Z
 ----------------------------------------------------------------
    1      C      -0.1873587235    -0.9262121728    -0.1256294172
    2      C      -0.5229556116    -1.8904036510     0.8130722998
    3      C      -1.8532008719    -2.0837148725     1.1679779317
    4      C      -2.8489326723    -1.3140927829     0.5831552321
    5      C      -2.5153718359    -0.3491196617    -0.3578324894
    6      C      -1.1865638031    -0.1541658210    -0.7091354586
    7      C      -0.8445588915     0.8710398236    -1.7416402783
    8      H       0.2519659481    -2.4913929127     1.2685405933
    9      H      -2.1121829467    -2.8349085563     1.9016707827
   10      H      -3.8835832755    -1.4620657724     0.8606235249
   11      H      -3.2854173629     0.2573215221    -0.8169065556
   12      O       0.3027996171     1.5694314897    -1.4095387576
   13      H      -1.6776378704     1.5269804708    -1.9858314488
   14      H       0.3715844895     2.3430714210    -1.9826727142
   15      H       0.8468882958    -0.7738594863    -0.4032091831
   16      O      -0.5904475336     0.1029550120    -2.9938705408
   17      O      -0.4144477514     0.9115645502    -3.9992777206
 ----------------------------------------------------------------
 Nuclear Repulsion Energy =         503.22200912 hartrees
 There are       37 alpha and       36 beta electrons
 Discretize the solute cavity surface with Lebedev spheres
	Using 110 Lebedev grid points for each H atom
	Using 194 Lebedev grid points for other atoms
	Atomic van der Waals radii will be scaled by 1.20
 Remove points where switching function is < 1.0e-08
 Keep 1302 surface tesserae and discard 1408 interior tesserae
 Molecular Surface Area = 159.165 Angst**2
 Requested basis set is 6-311++G(2df,2p)
 There are 122 shells and 410 basis functions
 A cutoff of  1.0D-12 yielded   6551 shell pairs
 There are     74388 function pairs (     93204 Cartesian)
 Smallest overlap matrix eigenvalue = 8.57E-07
 Linear dependence detected in AO basis
 Tighter screening thresholds may be required for diffuse basis sets
 Use S2THRESH > 14 and THRESH = 14 in case of SCF convergence issues
 Number of orthogonalized atomic orbitals = 409
 Maximum deviation from orthogonality = 1.171E-10
 Guess MOs from SCF MO coefficient file

 -----------------------------------------------------------------------
  General SCF calculation program by
  Eric Jon Sundstrom, Paul Horn, Yuezhi Mao, Dmitri Zuev, Alec White,
  David Stuck, Shaama M.S., Shane Yost, Joonho Lee, David Small,
  Daniel Levine, Susi Lehtola, Hugh Burton, Evgeny Epifanovsky,
  Bang C. Huynh
 -----------------------------------------------------------------------
 Exchange:     0.1500 Hartree-Fock + 1.0000 wB97M-V + LR-HF
 Correlation:  1.0000 wB97M-V
 Using SG-2 standard quadrature grid
 Nonlocal Correlation:  VV10 with C = 0.0100 and b = 6.00 and scale = 1.00000
 Grid used for NLC:  SG-1 standard quadrature
 
 Citation of the SMD model:
 Marenich, A.V.; Cramer, C.J.; Truhlar, D.G.
 J. Phys. Chem. B 2009, 113, 6378-6396.
 iSolventCode=           1
 Solvent: water                                                           
 
 vradii
            1           2           3           4           5           6
    1   1.8500000   1.8500000   1.8500000   1.8500000   1.8500000   1.8500000
            7           8           9          10          11          12
    1   1.8500000   1.2000000   1.2000000   1.2000000   1.2000000   1.5200000
           13          14          15          16          17
    1   1.2000000   1.2000000   1.2000000   1.5200000   1.5200000
 -------------------------------------------------------
 OpenMP BLAS3 based DFT computing Module                
 Release: version 1.0, May 2013, Q-Chem Inc. Pittsburgh 
 -------------------------------------------------------
 A unrestricted SCF calculation will be
 performed using Roothaan-Hall, DIIS, GDM
 SCF converges when RMS gradient is below 1.0e-07
 ---------------------------------------
  Cycle       Energy         DIIS error
 ---------------------------------------
    1    -496.4827402957      1.57e-04  Roothaan Step
 ---------------------------------------
  Cycle       Energy         DIIS error
 ---------------------------------------
    1    -496.5016313419      1.71e-04  
    2    -496.5045402629      1.12e-04  Done DIIS. Switching to GDM
 ---------------------------------------
  Cycle       Energy        RMS Gradient
 ---------------------------------------
    1    -496.5045402629      3.55e-03   Normal BFGS step
    2    -496.5047941177      4.99e-03   Normal BFGS step
    3    -496.5054197816      9.10e-04   Normal BFGS step
    4    -496.5054238212      1.67e-03   Normal BFGS step
    5    -496.5054414106      1.05e-04   Normal BFGS step
    6    -496.5054417969      2.16e-04   Normal BFGS step
    7    -496.5054421462      8.76e-05   Normal BFGS step
    8    -496.5054421888      4.93e-05   Normal BFGS step
    9    -496.5054422088      1.19e-05   Normal BFGS step
   10    -496.5054422118      3.48e-06   Normal BFGS step
   11    -496.5054422121      3.31e-06   Normal BFGS step
   12    -496.5054422122      3.10e-06   Normal BFGS step
   13    -496.5054422122      2.73e-06   Normal BFGS step
   14    -496.5054422123      1.95e-06   Normal BFGS step
   15    -496.5054422123      9.31e-07   Normal BFGS step
   16    -496.5054422123      3.17e-07   Normal BFGS step
   17    -496.5054422123      1.21e-07   Normal BFGS step
   18    -496.5054422122      6.85e-08  Convergence criterion met
 ---------------------------------------
 SCF time:   CPU 1534.27s  wall 193.00s 
<S^2> =          0.753960943
(3)  G-ENP(liq) elect-nuc-pol free energy of system     -496.505442212 a.u.
(4)  G-CDS(liq) cavity-dispersion-solvent structure 
     free energy                                                3.0197 kcal/mol
(6)  G-S(liq) free energy of system                     -496.500630083 a.u.
 SCF   energy in the final basis set =     -496.5006300828
 Total energy in the final basis set =     -496.5006300828
 
 --------------------------------------------------------------
 
                    Orbital Energies (a.u.)
 --------------------------------------------------------------
 
 Alpha MOs
 -- Occupied --
-19.4600 -19.4196 -19.3629 -10.4633 -10.3608 -10.3515 -10.3510 -10.3484
-10.3474 -10.3471  -1.3452  -1.1923  -1.0161  -0.9868  -0.8917  -0.8766
 -0.7973  -0.7345  -0.7108  -0.6759  -0.6525  -0.6446  -0.6137  -0.5909
 -0.5624  -0.5534  -0.5355  -0.5262  -0.4950  -0.4837  -0.4538  -0.4479
 -0.4394  -0.4022  -0.3994  -0.3530  -0.3520
 -- Virtual --
  0.0239   0.0356   0.0370   0.0460   0.0526   0.0557   0.0561   0.0744
  0.0837   0.0896   0.0969   0.1032   0.1146   0.1294   0.1354   0.1462
  0.1511   0.1556   0.1606   0.1620   0.1668   0.1707   0.1726   0.1739
  0.1811   0.1818   0.1920   0.2018   0.2060   0.2164   0.2192   0.2267
  0.2374   0.2440   0.2517   0.2545   0.2600   0.2711   0.2728   0.2810
  0.2838   0.2921   0.3033   0.3080   0.3241   0.3327   0.3411   0.3464
  0.3506   0.3536   0.3590   0.3660   0.3720   0.3829   0.3912   0.3986
  0.4180   0.4266   0.4349   0.4420   0.4585   0.4655   0.4802   0.4836
  0.5503   0.5690   0.5701   0.5930   0.5973   0.6032   0.6073   0.6137
  0.6194   0.6225   0.6338   0.6541   0.6632   0.6761   0.6822   0.6951
  0.7029   0.7212   0.7281   0.7337   0.7379   0.7393   0.7465   0.7480
  0.7649   0.7781   0.7860   0.7897   0.8056   0.8248   0.8313   0.8398
  0.8451   0.8524   0.8714   0.8821   0.8921   0.9027   0.9216   0.9420
  0.9666   0.9967   1.0087   1.0157   1.0438   1.0598   1.0839   1.0911
  1.0986   1.1090   1.1266   1.1405   1.1492   1.1599   1.1792   1.1872
  1.1884   1.1971   1.2016   1.2110   1.2265   1.2398   1.2543   1.2679
  1.2734   1.2967   1.3000   1.3080   1.3452   1.3660   1.3868   1.3912
  1.3980   1.4197   1.4350   1.4435   1.4486   1.4528   1.4663   1.4711
  1.4874   1.4906   1.5111   1.5619   1.5643   1.5689   1.5753   1.5801
  1.5919   1.6114   1.6319   1.6738   1.6910   1.7116   1.7401   1.7699
  1.7788   1.7962   1.8066   1.8205   1.8290   1.8724   1.8893   1.9247
  1.9637   2.0455   2.0703   2.0832   2.0920   2.1153   2.1523   2.1854
  2.2542   2.2904   2.3275   2.3689   2.3739   2.4286   2.4645   2.5915
  2.6013   2.6276   2.6720   2.6752   2.7090   2.7284   2.7338   2.7935
  2.7967   2.8098   2.8270   2.8294   2.8385   2.8577   2.8697   2.8831
  2.9102   2.9137   2.9184   2.9283   2.9463   2.9546   2.9608   2.9631
  2.9898   3.0024   3.0303   3.0423   3.0742   3.1234   3.1597   3.1749
  3.1993   3.2159   3.2175   3.2301   3.2339   3.2571   3.2650   3.2825
  3.2976   3.3133   3.3272   3.3502   3.3656   3.3781   3.4007   3.4179
  3.4306   3.4497   3.4637   3.4760   3.4874   3.5029   3.5166   3.5268
  3.5420   3.5430   3.5785   3.5949   3.6129   3.6271   3.6383   3.6575
  3.6990   3.7135   3.7410   3.7718   3.8039   3.8104   3.8166   3.8359
  3.8586   3.8622   3.8716   3.9045   3.9050   3.9324   3.9326   3.9529
  3.9691   3.9794   3.9995   4.0616   4.0927   4.1248   4.1468   4.1563
  4.1623   4.1765   4.1954   4.2215   4.2602   4.2928   4.3309   4.3764
  4.3860   4.4172   4.4198   4.4466   4.4527   4.4646   4.5200   4.5415
  4.5530   4.5659   4.5746   4.5848   4.5950   4.6110   4.6254   4.6950
  4.7197   4.7329   4.7794   4.8090   4.8175   4.8590   4.8763   4.8984
  4.9596   5.0327   5.0620   5.0765   5.0819   5.0834   5.1261   5.1613
  5.1786   5.1823   5.2148   5.2234   5.2303   5.2457   5.3011   5.3208
  5.3409   5.3539   5.3814   5.4167   5.4949   5.5202   5.5450   5.5809
  5.6151   5.6738   5.7154   5.7380   5.8271   5.8493   5.8886   5.8955
  5.9572   6.0343   6.0897   6.2805   6.3704   6.4754   6.5944   6.6547
  6.6990   6.8368   6.8832   6.9633   7.0821   7.1167   7.1760   7.2308
  7.3013   7.3227   7.3775   7.4268   7.4912   7.6679   7.7868   7.8438
  8.0274   8.0977  24.1935  24.7960  24.8082  24.8200  25.0533  25.0709
 25.5346  50.4218  50.5139  50.6227
 
 Beta MOs
 -- Occupied --
-19.4498 -19.4007 -19.3627 -10.4637 -10.3608 -10.3515 -10.3511 -10.3484
-10.3474 -10.3471  -1.3193  -1.1903  -1.0027  -0.9691  -0.8862  -0.8766
 -0.7912  -0.7338  -0.7090  -0.6697  -0.6409  -0.6341  -0.5968  -0.5593
 -0.5548  -0.5457  -0.5262  -0.5237  -0.4922  -0.4729  -0.4502  -0.4465
 -0.4378  -0.3834  -0.3525  -0.3520
 -- Virtual --
 -0.0331   0.0240   0.0358   0.0371   0.0470   0.0526   0.0563   0.0565
  0.0748   0.0838   0.0900   0.0971   0.1039   0.1150   0.1308   0.1359
  0.1467   0.1516   0.1558   0.1608   0.1628   0.1674   0.1712   0.1730
  0.1746   0.1814   0.1821   0.1942   0.2021   0.2078   0.2169   0.2206
  0.2281   0.2390   0.2446   0.2529   0.2556   0.2620   0.2717   0.2784
  0.2818   0.2903   0.2934   0.3045   0.3088   0.3251   0.3340   0.3417
  0.3482   0.3507   0.3540   0.3601   0.3671   0.3728   0.3848   0.3929
  0.4010   0.4188   0.4267   0.4361   0.4436   0.4593   0.4663   0.4810
  0.4843   0.5505   0.5692   0.5703   0.5931   0.5974   0.6032   0.6074
  0.6139   0.6196   0.6225   0.6340   0.6543   0.6634   0.6765   0.6832
  0.6956   0.7030   0.7212   0.7281   0.7338   0.7380   0.7399   0.7470
  0.7482   0.7652   0.7783   0.7864   0.7906   0.8060   0.8257   0.8314
  0.8402   0.8452   0.8530   0.8717   0.8822   0.8921   0.9027   0.9221
  0.9433   0.9671   0.9982   1.0110   1.0170   1.0445   1.0603   1.0859
  1.0925   1.1008   1.1106   1.1280   1.1431   1.1546   1.1676   1.1892
  1.1897   1.1953   1.2017   1.2107   1.2193   1.2308   1.2454   1.2553
  1.2720   1.2751   1.2999   1.3024   1.3109   1.3460   1.3677   1.3873
  1.3918   1.4001   1.4233   1.4365   1.4443   1.4491   1.4580   1.4679
  1.4730   1.4923   1.4933   1.5150   1.5647   1.5690   1.5703   1.5795
  1.5826   1.5926   1.6222   1.6509   1.6831   1.6921   1.7199   1.7434
  1.7776   1.7877   1.7978   1.8075   1.8213   1.8298   1.8795   1.8935
  1.9300   1.9665   2.0478   2.0731   2.0839   2.0925   2.1176   2.1593
  2.1960   2.2560   2.3081   2.3326   2.3762   2.3806   2.4310   2.4665
  2.5918   2.6015   2.6280   2.6725   2.6818   2.7112   2.7298   2.7344
  2.7937   2.7974   2.8099   2.8272   2.8295   2.8387   2.8578   2.8699
[...]
 Frequency:       970.74                1019.13                1020.81
 Force Cnst:      0.8487                 0.8615                 3.4466
 Red. Mass:       1.5286                 1.4078                 5.6138
 IR Active:          YES                    YES                    YES
 IR Intens:        0.854                  0.167                  1.033
 Raman Active:       YES                    YES                    YES
               X      Y      Z        X      Y      Z        X      Y      Z
 C         -0.015 -0.069 -0.075   -0.040 -0.065 -0.062    0.368  0.013 -0.104
 C         -0.002  0.007  0.002    0.016  0.058  0.068   -0.052  0.054 -0.004
 C          0.011  0.062  0.067    0.007  0.024 -0.010   -0.086 -0.232  0.232
 C         -0.000  0.011  0.013   -0.018 -0.066 -0.070    0.069 -0.023 -0.031
 C         -0.013 -0.075 -0.081    0.033  0.042  0.074   -0.277  0.221 -0.131
 C          0.012  0.061  0.069    0.002  0.004  0.001   -0.017 -0.025  0.032
 C          0.027 -0.050 -0.039    0.002 -0.000 -0.000   -0.010 -0.010 -0.007
 H         -0.001 -0.004 -0.016   -0.031 -0.324 -0.357   -0.109 -0.111 -0.094
 H         -0.038 -0.371 -0.395    0.002 -0.020 -0.058   -0.099 -0.256  0.223
 H         -0.008 -0.053 -0.050    0.040  0.365  0.375    0.096  0.063  0.163
 H          0.054  0.400  0.434   -0.008 -0.317 -0.328   -0.354  0.076 -0.231
 O         -0.011 -0.005  0.003   -0.002 -0.001 -0.000    0.006  0.004  0.002
 H          0.011 -0.062 -0.020   -0.000 -0.001  0.007    0.031  0.026 -0.047
 H         -0.021 -0.004  0.006    0.002 -0.001  0.000   -0.005  0.003 -0.002
 H          0.045  0.375  0.393    0.009  0.344  0.353    0.423  0.094  0.084
 O         -0.010  0.026  0.020   -0.000  0.000 -0.000   -0.002  0.003  0.004
 O          0.003  0.001 -0.012    0.000  0.000 -0.000    0.001  0.001 -0.002
 TransDip   0.017  0.013 -0.021    0.006  0.010 -0.005   -0.019 -0.024  0.011

 Mode:                22                     23                     24
 Frequency:      1039.60                1054.98                1098.52
 Force Cnst:      0.8514                 1.4330                 1.2999
 Red. Mass:       1.3370                 2.1853                 1.8283
 IR Active:          YES                    YES                    YES
 IR Intens:        0.132                 13.255                 87.124
 Raman Active:       YES                    YES                    YES
               X      Y      Z        X      Y      Z        X      Y      Z
 C         -0.005 -0.028 -0.032    0.038 -0.053  0.038   -0.055 -0.058  0.063
 C          0.011  0.061  0.067   -0.169  0.063 -0.030   -0.036  0.044 -0.036
 C         -0.011 -0.075 -0.077    0.036  0.107 -0.107    0.074 -0.009 -0.002
 C          0.005  0.057  0.061    0.187 -0.022 -0.005   -0.077 -0.042  0.050
 C         -0.003 -0.022 -0.024   -0.056 -0.030  0.036   -0.029  0.085 -0.072
 C          0.002  0.005  0.004   -0.012 -0.018  0.020    0.058  0.018 -0.033
 C          0.006 -0.004 -0.005   -0.031  0.002 -0.021    0.101  0.048  0.022
 H         -0.042 -0.345 -0.378   -0.462 -0.146  0.161    0.088  0.138 -0.137
 H          0.055  0.409  0.441    0.028  0.131 -0.110    0.509 -0.115  0.042
 H         -0.051 -0.323 -0.348    0.307 -0.298  0.241    0.009 -0.289  0.269
 H          0.023  0.144  0.152   -0.295 -0.203  0.220    0.191  0.236 -0.266
 O         -0.003 -0.001 -0.000    0.021  0.013  0.004   -0.083 -0.041 -0.024
 H          0.003 -0.008 -0.004   -0.014  0.015 -0.045    0.074  0.011  0.010
 H         -0.001 -0.001  0.001    0.044  0.023  0.019    0.031 -0.018  0.026
 H          0.023  0.184  0.187    0.134 -0.286  0.282    0.066 -0.400  0.344
 O         -0.001  0.003  0.002    0.000 -0.004 -0.001   -0.003  0.011  0.001
 O          0.000 -0.000 -0.001    0.000  0.002 -0.000   -0.003 -0.007  0.011
 TransDip   0.008  0.008 -0.004   -0.060 -0.087  0.048    0.271  0.085  0.093

 Mode:                25                     26                     27
 Frequency:      1129.89                1163.14                1188.28
 Force Cnst:      2.4670                 0.9111                 0.9250
 Red. Mass:       3.2798                 1.1430                 1.1119
 IR Active:          YES                    YES                    YES
 IR Intens:      109.897                  0.993                  3.754
 Raman Active:       YES                    YES                    YES
               X      Y      Z        X      Y      Z        X      Y      Z
 C          0.047  0.052 -0.048   -0.014  0.006 -0.003   -0.018  0.034 -0.029
 C          0.015 -0.058  0.051   -0.039 -0.019  0.024   -0.038 -0.015  0.019
 C         -0.025  0.021 -0.018    0.072 -0.020  0.009   -0.002 -0.008  0.008
 C          0.009 -0.001 -0.001   -0.017  0.037 -0.032    0.021 -0.029  0.024
 C         -0.026 -0.039  0.049   -0.019  0.002  0.001    0.035  0.021 -0.025
 C          0.021  0.062 -0.079    0.012 -0.010  0.008   -0.001 -0.019  0.018
 C          0.304  0.076  0.066   -0.016  0.002 -0.007   -0.001  0.007 -0.006
 H         -0.239 -0.236  0.261   -0.315 -0.212  0.234   -0.318 -0.210  0.238
 H         -0.228  0.072 -0.038    0.693 -0.171  0.074   -0.007 -0.006  0.006
 H         -0.003  0.039 -0.031   -0.135  0.342 -0.303    0.137 -0.335  0.293
 H         -0.362 -0.293  0.277   -0.099 -0.054  0.062    0.366  0.251 -0.276
 O         -0.200 -0.096 -0.051    0.007  0.004  0.000   -0.002  0.002 -0.004
 H          0.368  0.103 -0.066   -0.046 -0.024  0.020   -0.010 -0.002 -0.002
 H         -0.147 -0.108 -0.050    0.060  0.022  0.031    0.062  0.021  0.031
 H         -0.011  0.195 -0.229   -0.053  0.105 -0.091   -0.155  0.387 -0.345
 O         -0.014  0.042  0.010    0.001 -0.004 -0.001    0.000 -0.003  0.000
 O         -0.005 -0.017  0.017    0.000  0.001  0.001    0.000  0.002 -0.001
 TransDip   0.251  0.192  0.112    0.030  0.004 -0.010    0.040  0.043 -0.020

 Mode:                28                     29                     30
 Frequency:      1224.75                1238.05                1266.32
 Force Cnst:      1.2554                 1.5085                10.8940
 Red. Mass:       1.4204                 1.6704                11.5304
 IR Active:          YES                    YES                    YES
 IR Intens:      180.260                 18.274                 31.507
 Raman Active:       YES                    YES                    YES
               X      Y      Z        X      Y      Z        X      Y      Z
 C         -0.019 -0.001  0.005   -0.014  0.045 -0.041   -0.002  0.019 -0.010
 C         -0.031  0.026 -0.021    0.011 -0.050  0.044    0.009 -0.017  0.015
 C          0.008 -0.006  0.004    0.015 -0.003  0.001    0.004 -0.000 -0.001
 C          0.023  0.029 -0.029   -0.063 -0.006  0.014   -0.024 -0.003  0.007
 C         -0.037 -0.019  0.024   -0.023  0.022 -0.018    0.000  0.012 -0.006
 C          0.027 -0.100  0.084    0.109  0.118 -0.113    0.027  0.023 -0.066
 C          0.060  0.040 -0.016   -0.034 -0.041  0.013    0.027  0.038 -0.002
 H          0.154  0.162 -0.166   -0.046 -0.095  0.093   -0.018 -0.042  0.033
 H         -0.098  0.022 -0.008   -0.070  0.014 -0.005   -0.012  0.004  0.001
 H          0.015  0.055 -0.053    0.015 -0.227  0.212   -0.003 -0.074  0.062
 H         -0.033 -0.023  0.018   -0.263 -0.135  0.154   -0.102 -0.066  0.054
 O         -0.052  0.005 -0.051    0.028  0.006  0.009   -0.035 -0.012 -0.012
 H         -0.208 -0.256  0.094   -0.452 -0.361  0.582   -0.050  0.110  0.487
 H          0.730  0.228  0.365    0.156  0.045  0.077    0.079  0.015  0.047
 H         -0.073  0.120 -0.113    0.021 -0.027  0.031    0.024 -0.059  0.030
 O         -0.001 -0.001 -0.001    0.016 -0.001 -0.032   -0.069 -0.398  0.451
 O         -0.001 -0.001  0.005   -0.004 -0.019  0.025    0.078  0.363 -0.436
 TransDip   0.347  0.244  0.071   -0.065 -0.096  0.073    0.034  0.139 -0.109

 Mode:                31                     32                     33
 Frequency:      1321.52                1343.36                1354.13
 Force Cnst:      4.3389                 1.2880                 1.3900
 Red. Mass:       4.2168                 1.2114                 1.2866
 IR Active:          YES                    YES                    YES
 IR Intens:        7.838                 47.108                  4.905
 Raman Active:       YES                    YES                    YES
               X      Y      Z        X      Y      Z        X      Y      Z
 C         -0.046  0.141 -0.126    0.006 -0.033  0.029    0.004 -0.053  0.049
 C         -0.163 -0.096  0.110   -0.002  0.016 -0.016   -0.033 -0.003  0.008
 C          0.206 -0.051  0.022   -0.026  0.009 -0.005   -0.056  0.015 -0.007
 C         -0.059  0.160 -0.142    0.013 -0.008  0.005   -0.020  0.018 -0.015
 C         -0.148 -0.107  0.120    0.007  0.008 -0.012    0.034  0.040 -0.040
 C          0.218 -0.080  0.053   -0.006 -0.018  0.037    0.085 -0.029  0.012
 C         -0.039  0.034 -0.049   -0.002  0.003 -0.087   -0.025  0.022  0.002
 H          0.238  0.185 -0.205    0.053  0.057 -0.059    0.244  0.193 -0.209
 H         -0.245  0.061 -0.024    0.068 -0.013  0.004    0.291 -0.071  0.028
 H          0.075 -0.193  0.170    0.009  0.008 -0.007    0.081 -0.251  0.224
 H          0.169  0.112 -0.121   -0.050 -0.023  0.044   -0.359 -0.233  0.259
 O          0.009 -0.011  0.027   -0.029  0.006  0.004    0.017 -0.007  0.013
 H          0.231  0.373 -0.072    0.196  0.571  0.756    0.014 -0.033 -0.276
 H         -0.353 -0.115 -0.166   -0.023 -0.020 -0.028   -0.163 -0.050 -0.072
 H          0.048 -0.101  0.092   -0.051  0.118 -0.096   -0.160  0.364 -0.323
 O          0.006 -0.009 -0.003    0.028 -0.022 -0.032   -0.006  0.002  0.009
 O         -0.001  0.000  0.005   -0.005 -0.011  0.026    0.001  0.004 -0.006
 TransDip  -0.004 -0.009 -0.089   -0.002  0.089 -0.201   -0.066 -0.014 -0.022

 Mode:                34                     35                     36
 Frequency:      1465.14                1495.66                1544.50
 Force Cnst:      2.1600                 2.9175                 3.6462
 Red. Mass:       1.7079                 2.2135                 2.5942
 IR Active:          YES                    YES                    YES
 IR Intens:       83.607                 22.653                  0.195
 Raman Active:       YES                    YES                    YES
               X      Y      Z        X      Y      Z        X      Y      Z
 C         -0.003 -0.050  0.046    0.080  0.034 -0.043   -0.085  0.060 -0.045
 C         -0.019  0.041 -0.035   -0.020 -0.091  0.087    0.148  0.069 -0.083
 C          0.041  0.006 -0.011   -0.140  0.042 -0.020   -0.042 -0.078  0.078
 C          0.024 -0.048  0.042    0.068  0.074 -0.078   -0.067  0.120 -0.103
 C         -0.059  0.003  0.004    0.004 -0.084  0.078    0.103  0.008 -0.021
 C          0.030 -0.030  0.030   -0.154  0.039 -0.014   -0.042 -0.120  0.121
 C          0.064  0.154 -0.096    0.064  0.048 -0.030    0.034  0.081 -0.062
 H         -0.045  0.033 -0.023    0.327  0.135 -0.168   -0.298 -0.253  0.274
 H         -0.196  0.069 -0.039    0.568 -0.132  0.049   -0.009 -0.105  0.099
 H         -0.078  0.217 -0.191    0.182 -0.171  0.135    0.100 -0.339  0.304
 H          0.064  0.097 -0.099    0.274  0.087 -0.116   -0.206 -0.221  0.234
 O          0.026 -0.039  0.042    0.003 -0.012  0.008    0.006 -0.012  0.013
 H         -0.473 -0.401  0.167   -0.253 -0.257  0.201   -0.143 -0.087  0.054
 H         -0.494 -0.174 -0.228   -0.113 -0.042 -0.054   -0.160 -0.057 -0.078
 H         -0.078  0.137 -0.118    0.143 -0.079  0.056    0.042 -0.310  0.285
 O         -0.001 -0.018 -0.003    0.000 -0.005 -0.004    0.001 -0.006 -0.007
 O         -0.002  0.001  0.010   -0.001 -0.001  0.005   -0.001 -0.001  0.007
 TransDip  -0.041  0.185 -0.223    0.139  0.045 -0.043   -0.003  0.005 -0.013

 Mode:                37                     38                     39
 Frequency:      1661.37                1680.70                3126.87
 Force Cnst:     10.1467                10.1998                 6.2692
 Red. Mass:       6.2394                 6.1286                 1.0883
 IR Active:          YES                    YES                    YES
 IR Intens:        0.110                  5.254                 18.484
 Raman Active:       YES                    YES                    YES
               X      Y      Z        X      Y      Z        X      Y      Z
 C          0.173 -0.145  0.112   -0.002  0.228 -0.212    0.000 -0.000  0.000
 C         -0.202  0.018  0.009   -0.154 -0.177  0.184   -0.000  0.000  0.000
 C          0.353 -0.104  0.050    0.064  0.085 -0.088    0.000 -0.000 -0.000
 C         -0.189  0.135 -0.101   -0.017 -0.194  0.182    0.000  0.000 -0.000
 C          0.210  0.001 -0.029    0.200  0.191 -0.204    0.001 -0.001  0.001
 C         -0.333  0.096 -0.047   -0.105 -0.164  0.170   -0.000 -0.001  0.001
 C          0.040 -0.005  0.004    0.023  0.048 -0.039   -0.064  0.053 -0.021
 H         -0.028  0.165 -0.150    0.259  0.099 -0.125    0.001 -0.000  0.000
 H         -0.421  0.085 -0.025    0.005  0.116 -0.107    0.000 -0.000  0.000
 H         -0.088 -0.189  0.187   -0.168  0.162 -0.129    0.001  0.000 -0.001
 H         -0.036 -0.187  0.180   -0.328 -0.169  0.203   -0.011  0.011 -0.008
 O         -0.002  0.004 -0.005    0.003 -0.003  0.004    0.000 -0.001  0.001
 H         -0.095 -0.124  0.139   -0.073 -0.040  0.032    0.757 -0.606  0.227
 H          0.030  0.012  0.011   -0.056 -0.019 -0.030   -0.003 -0.001 -0.006
 H          0.049  0.221 -0.213    0.196 -0.263  0.221   -0.002 -0.000  0.000
 O          0.000  0.001 -0.003    0.002 -0.002 -0.007    0.000  0.001  0.000
 O         -0.000 -0.001  0.001   -0.001 -0.001  0.004    0.000 -0.000  0.000
 TransDip   0.004  0.005  0.008    0.019  0.054 -0.046   -0.122  0.054 -0.036

 Mode:                40                     41                     42
 Frequency:      3189.60                3194.67                3201.82
 Force Cnst:      6.5171                 6.5475                 6.5927
 Red. Mass:       1.0873                 1.0889                 1.0915
 IR Active:          YES                    YES                    YES
 IR Intens:        1.940                  1.601                 12.209
 Raman Active:       YES                    YES                    YES
               X      Y      Z        X      Y      Z        X      Y      Z
 C         -0.013 -0.001  0.003   -0.030 -0.004  0.007   -0.052 -0.007  0.013
 C          0.018 -0.015  0.011    0.034 -0.026  0.020    0.022 -0.013  0.010
 C          0.009  0.026 -0.026    0.008  0.027 -0.026   -0.013 -0.032  0.031
 C         -0.041 -0.005  0.010    0.007 -0.001  0.000    0.028  0.006 -0.010
 C          0.041 -0.031  0.023   -0.037  0.029 -0.022    0.021 -0.017  0.013
 C         -0.002 -0.001  0.001    0.002 -0.000 -0.000   -0.000 -0.002  0.001
 C          0.001 -0.001  0.000   -0.001  0.001 -0.000   -0.000 -0.000  0.000
 H         -0.222  0.172 -0.131   -0.396  0.308 -0.233   -0.225  0.171 -0.129
 H         -0.107 -0.309  0.301   -0.105 -0.308  0.301    0.128  0.365 -0.356
 H          0.483  0.069 -0.129   -0.079 -0.009  0.019   -0.330 -0.050  0.091
 H         -0.464  0.362 -0.273    0.421 -0.329  0.249   -0.238  0.186 -0.141
 O          0.000  0.000 -0.000    0.000 -0.000  0.000    0.000 -0.000  0.000
 H         -0.008  0.008 -0.004    0.008 -0.007  0.003   -0.002  0.003 -0.002
 H          0.000 -0.000  0.000    0.000 -0.000  0.000    0.001 -0.000  0.000
 H          0.146  0.021 -0.038    0.354  0.051 -0.094    0.597  0.086 -0.158
 O         -0.000  0.000 -0.000    0.000 -0.000  0.000    0.000  0.000 -0.000
 O         -0.000  0.000 -0.000   -0.000 -0.000  0.000    0.000 -0.000 -0.000
 TransDip   0.016 -0.032  0.027    0.002  0.031 -0.026    0.027 -0.081  0.072

 Mode:                43                     44                     45
 Frequency:      3209.87                3216.82                3808.26
 Force Cnst:      6.6505                 6.7001                 9.1108
 Red. Mass:       1.0955                 1.0990                 1.0662
 IR Active:          YES                    YES                    YES
 IR Intens:       25.739                 11.381                178.668
 Raman Active:       YES                    YES                    YES
               X      Y      Z        X      Y      Z        X      Y      Z
 C         -0.047 -0.008  0.014    0.031  0.006 -0.010    0.000  0.000 -0.000
 C         -0.026  0.023 -0.018    0.037 -0.028  0.021    0.000 -0.000 -0.000
 C         -0.000 -0.012  0.011   -0.012 -0.034  0.033   -0.000  0.000 -0.000
 C         -0.053 -0.008  0.015   -0.042 -0.005  0.010   -0.000 -0.000 -0.000
 C         -0.017  0.015 -0.012   -0.011  0.010 -0.008   -0.000 -0.000 -0.000
 C          0.003 -0.001  0.001   -0.000  0.001 -0.001    0.000  0.000 -0.000
 C         -0.001  0.000 -0.000    0.000  0.000 -0.000    0.001 -0.001  0.001
 H          0.309 -0.243  0.185   -0.397  0.307 -0.232   -0.000  0.000 -0.000
 H          0.040  0.127 -0.123    0.130  0.373 -0.365    0.000  0.000 -0.000
 H          0.591  0.085 -0.159    0.459  0.065 -0.122    0.000  0.000 -0.000
 H          0.198 -0.158  0.119    0.128 -0.102  0.077    0.000 -0.000  0.000
 O          0.000 -0.000  0.000   -0.000 -0.000 -0.000   -0.006 -0.051  0.036
 H          0.003 -0.002  0.001    0.001 -0.002  0.002    0.001  0.005 -0.001
 H          0.000 -0.000  0.000   -0.001 -0.000  0.000    0.081  0.806 -0.583
 H          0.532  0.079 -0.143   -0.351 -0.053  0.095    0.000  0.000  0.000
 O          0.000 -0.000  0.000   -0.000 -0.000  0.000    0.000  0.000  0.000
 O         -0.000  0.000 -0.000   -0.000 -0.000  0.000    0.000  0.000 -0.000
 TransDip  -0.162  0.014  0.011   -0.010 -0.077  0.075    0.112  0.368 -0.188

 STANDARD THERMODYNAMIC QUANTITIES AT   298.15 K  AND     1.00 ATM

   This Molecule has  0 Imaginary Frequencies
   Zero point vibrational energy:       81.424 kcal/mol

   Atom    1 Element C  Has Mass   12.00000
   Atom    2 Element C  Has Mass   12.00000
   Atom    3 Element C  Has Mass   12.00000
   Atom    4 Element C  Has Mass   12.00000
   Atom    5 Element C  Has Mass   12.00000
   Atom    6 Element C  Has Mass   12.00000
   Atom    7 Element C  Has Mass   12.00000
   Atom    8 Element H  Has Mass    1.00783
   Atom    9 Element H  Has Mass    1.00783
   Atom   10 Element H  Has Mass    1.00783
   Atom   11 Element H  Has Mass    1.00783
   Atom   12 Element O  Has Mass   15.99491
   Atom   13 Element H  Has Mass    1.00783
   Atom   14 Element H  Has Mass    1.00783
   Atom   15 Element H  Has Mass    1.00783
   Atom   16 Element O  Has Mass   15.99491
   Atom   17 Element O  Has Mass   15.99491
   Molecular Mass:   139.039540 amu
   Principal axes and moments of inertia in amu*Bohr^2:
                             1           2           3
    Eigenvalues --      568.26661  2238.86059  2412.76393
          X              -0.30625     0.93517    -0.17798
          Y              -0.54259    -0.01786     0.83981
          Z               0.78218     0.35376     0.51288
   Rotational Symmetry Number is   1
   The Molecule is an Asymmetric Top
   Translational Enthalpy:        0.889 kcal/mol
   Rotational Enthalpy:           0.889 kcal/mol
   Vibrational Enthalpy:         85.228 kcal/mol
   gas constant (RT):             0.592 kcal/mol
   Translational Entropy:        40.700  cal/mol.K
   Rotational Entropy:           29.508  cal/mol.K
   Vibrational Entropy:          25.141  cal/mol.K

   Total Enthalpy:               87.598 kcal/mol
   Total Entropy:                95.349  cal/mol.K
 Total job time:  27994.63s(wall), 216577.18s(cpu) 
 Thu Apr 27 19:26:04 2023

        *************************************************************
        *                                                           *
        *  Thank you very much for using Q-Chem.  Have a nice day.  *
        *                                                           *
        *************************************************************


