
Running Job 1 of 1 Q_in.in
qchem Q_in.in_73626.0 /scratch/ari.fischer/qChem1516930.hpc-mn1/qchem73626/ 0
/usr/local/qchem-5.4.1/exe/qcprog.exe_s Q_in.in_73626.0 /scratch/ari.fischer/qChem1516930.hpc-mn1/qchem73626/
                  Welcome to Q-Chem
     A Quantum Leap Into The Future Of Chemistry


 Q-Chem 5.4, Q-Chem, Inc., Pleasanton, CA (2021)

 License issued to: Nanyang Technological University (site)

 E. Epifanovsky,  A. T. B. Gilbert,  Xintian Feng,  Joonho Lee,  Yuezhi Mao,  
 N. Mardirossian,  P. Pokhilko,  A. White,  M. Wormit,  M. P. Coons,  
 A. L. Dempwolff,  Zhengting Gan,  D. Hait,  P. R. Horn,  L. D. Jacobson,  
 I. Kaliman,  J. Kussmann,  A. W. Lange,  Ka Un Lao,  D. S. Levine,  Jie Liu,  
 S. C. McKenzie,  A. F. Morrison,  K. Nanda,  F. Plasser,  D. R. Rehn,  
 M. L. Vidal,  Zhi-Qiang You,  Ying Zhu,  B. Alam,  B. Albrecht,  
 A. Aldossary,  E. Alguire,  J. H. Andersen,  D. Barton,  K. Begam,  A. Behn,  
 Y. A. Bernard,  E. J. Berquist,  H. Burton,  A. Carreras,  K. Carter-Fenk,  
 R. Chakraborty,  A. D. Chien,  K. D. Closser,  V. Cofer-Shabica,  
 S. Dasgupta,  Jia Deng,  M. de Wergifosse,  M. Diedenhofen,  Hainam Do,  
 S. Ehlert,  Po-Tung Fang,  S. Fatehi,  Qingguo Feng,  T. Friedhoff,  
 J. Gayvert,  Qinghui Ge,  G. Gidofalvi,  M. Goldey,  J. Gomes,  
 C. Gonzalez-Espinoza,  S. Gulania,  A. Gunina,  M. W. D. Hanson-Heine,  
 P. H. P. Harbach,  A. W. Hauser,  M. F. Herbst,  M. Hernandez Vera,  
 M. Hodecker,  Z. C. Holden,  S. Houck,  Xunkun Huang,  Kerwin Hui,  
 B. C. Huynh,  M. Ivanov,  Hyunjun Ji,  Hanjie Jiang,  B. Kaduk,  S. Kaehler,  
 K. Khistyaev,  Jaehoon Kim,  P. Klunzinger,  Z. Koczor-Benda,  
 Joong Hoon Koh,  D. Kosenkov,  L. Koulias,  T. Kowalczyk,  C. M. Krauter,  
 K. Kue,  A. Kunitsa,  T. Kus,  A. Landau,  K. V. Lawler,  D. Lefrancois,  
 S. Lehtola,  Rain Li,  Yi-Pei Li,  Jiashu Liang,  M. Liebenthal,  
 Hung-Hsuan Lin,  You-Sheng Lin,  Fenglai Liu,  Kuan-Yu Liu,  
 M. Loipersberger,  A. Luenser,  A. Manjanath,  P. Manohar,  E. Mansoor,  
 S. F. Manzer,  Shan-Ping Mao,  A. V. Marenich,  T. Markovich,  S. Mason,  
 S. A. Maurer,  P. F. McLaughlin,  M. F. S. J. Menger,  J.-M. Mewes,  
 S. A. Mewes,  P. Morgante,  J. W. Mullinax,  K. J. Oosterbaan,  G. Paran,  
 Alexander C. Paul,  Suranjan K. Paul,  F. Pavosevic,  Zheng Pei,  S. Prager,  
 E. I. Proynov,  E. Ramos,  B. Rana,  A. E. Rask,  A. Rettig,  R. M. Richard,  
 F. Rob,  E. Rossomme,  T. Scheele,  M. Scheurer,  M. Schneider,  
 N. Sergueev,  S. M. Sharada,  W. Skomorowski,  D. W. Small,  C. J. Stein,  
 Yu-Chuan Su,  E. J. Sundstrom,  Zhen Tao,  J. Thirman,  T. Tsuchimochi,  
 N. M. Tubman,  S. P. Veccham,  O. Vydrov,  J. Wenzel,  J. Witte,  A. Yamada,  
 Kun Yao,  S. Yeganeh,  S. R. Yost,  A. Zech,  Igor Ying Zhang,  Xing Zhang,  
 Yu Zhang,  D. Zuev,  A. Aspuru-Guzik,  A. T. Bell,  N. A. Besley,  
 K. B. Bravaya,  B. R. Brooks,  D. Casanova,  Jeng-Da Chai,  S. Coriani,  
 C. J. Cramer,  A. E. DePrince, III,  R. A. DiStasio Jr.,  A. Dreuw,  
 B. D. Dunietz,  T. R. Furlani,  W. A. Goddard III,  S. Grimme,  
 S. Hammes-Schiffer,  T. Head-Gordon,  W. J. Hehre,  Chao-Ping Hsu,  
 T.-C. Jagau,  Yousung Jung,  A. Klamt,  Jing Kong,  D. S. Lambrecht,  
 WanZhen Liang,  N. J. Mayhall,  C. W. McCurdy,  J. B. Neaton,  
 C. Ochsenfeld,  J. A. Parkhill,  R. Peverati,  V. A. Rassolov,  Yihan Shao,  
 L. V. Slipchenko,  T. Stauch,  R. P. Steele,  J. E. Subotnik,  
 A. J. W. Thom,  A. Tkatchenko,  D. G. Truhlar,  T. Van Voorhis,  
 T. A. Wesolowski,  K. B. Whaley,  H. L. Woodcock III,  P. M. Zimmerman,  
 S. Faraji,  P. M. W. Gill,  M. Head-Gordon,  J. M. Herbert,  A. I. Krylov

 Additional authors for Version 5.4.1: 
 S. Kotaru,  Shaozhi Li,  Xiangyuan Li,  F. Matz,  A. Molle,  Haisheng Ren,  
 Yingli Su,  Hung-Yi Tsai,  C. Utku,  Fang Wang

 Contributors to earlier versions of Q-Chem not listed above: 
 R. D. Adamson,  B. Austin,  R. Baer,  J. Baker,  G. J. O. Beran,  
 K. Brandhorst,  S. T. Brown,  E. F. C. Byrd,  A. K. Chakraborty,  
 G. K. L. Chan,  Chun-Min Chang,  Yunqing Chen,  C.-L. Cheng,  
 Siu Hung Chien,  D. M. Chipman,  D. L. Crittenden,  H. Dachsel,  
 R. J. Doerksen,  A. D. Dutoi,  R. G. Edgar,  J. Fosso-Tande,  
 L. Fusti-Molnar,  D. Ghosh,  A. Ghysels,  A. Golubeva-Zadorozhnaya,  
 J. Gonthier,  M. S. Gordon,  S. R. Gwaltney,  G. Hawkins,  J. E. Herr,  
 A. Heyden,  S. Hirata,  E. G. Hohenstein,  G. Kedziora,  F. J. Keil,  
 C. Kelley,  Jihan Kim,  R. A. King,  R. Z. Khaliullin,  P. P. Korambath,  
 W. Kurlancheek,  A. Laurent,  A. M. Lee,  M. S. Lee,  S. V. Levchenko,  
 Ching Yeh Lin,  D. Liotard,  E. Livshits,  R. C. Lochan,  I. Lotan,  
 L. A. Martinez-Martinez,  P. E. Maslen,  N. Nair,  D. P. O'Neill,  
 D. Neuhauser,  E. Neuscamman,  C. M. Oana,  R. Olivares-Amaya,  R. Olson,  
 T. M. Perrine,  B. Peters,  P. A. Pieniazek,  A. Prociuk,  Y. M. Rhee,  
 J. Ritchie,  M. A. Rohrdanz,  E. Rosta,  N. J. Russ,  H. F. Schaefer III,  
 M. W. Schmidt,  N. E. Schultz,  S. Sharma,  N. Shenvi,  C. D. Sherrill,  
 A. C. Simmonett,  A. Sodt,  T. Stein,  D. Stuck,  K. S. Thanthiriwatte,  
 V. Vanovschi,  L. Vogt,  Tao Wang,  A. Warshel,  M. A. Watson,  
 C. F. Williams,  Q. Wu,  X. Xu,  Jun Yang,  W. Zhang,  Yan Zhao

 Please cite Q-Chem as follows:
 Y. Shao et al., Mol. Phys. 113, 184-215 (2015)
 DOI: 10.1080/00268976.2014.952696

 Q-Chem 5.4.1 for Intel X86 EM64T Linux

 Parts of Q-Chem use Armadillo 9.800.1 (Horizon Scraper).
 http://arma.sourceforge.net/

 Q-Chem begins on Mon Apr 24 09:26:30 2023  

 Host: 
0

     Scratch files written to /scratch/ari.fischer/qChem1516930.hpc-mn1/qchem73626//
 Aug1521 |scratch|qcdevops|jenkins|workspace|build_RNUM 8249   
 Processing $rem in /usr/local/qchem-5.4.1/config/preferences:
 Processing $rem in /home/ari.fischer/.qchemrc:
 Symmetry turned off for PCM/SM12/SMD calculation

 Checking the input file for inconsistencies... 	...done.

--------------------------------------------------------------
User input:
--------------------------------------------------------------
$molecule
0 2
C        -0.1968583282   -0.9225288683   -0.1393773201
C        -0.5194427783   -1.8945929181    0.8018877545
C        -1.8496847751   -2.0924650242    1.1740717649
C        -2.8578661837   -1.3182755787    0.6043649528
C        -2.5372174996   -0.3439701489   -0.3389895566
C        -1.2081859822   -0.1439188213   -0.7074569189
C        -0.8680799184    0.8816984553   -1.7441855288
H         0.2657309739   -2.5000365416    1.2450124155
H        -2.0991170143   -2.8517568267    1.9097556422
H        -3.8932970744   -1.4705091009    0.8947564967
H        -3.3180775928    0.2651756402   -0.7870678253
O         0.2687913319    1.5918996586   -1.3958610304
H        -1.7100219307    1.5283099647   -2.0054726716
H         0.3878911298    2.2896754612   -2.0642748171
H         0.8370150595   -0.7641731725   -0.4335004885
O        -0.5888968514    0.1098441468   -2.9906019348
O        -0.2621033661    0.9370522743   -3.9535651344
$end

$rem
BASIS = 6-311++G(2df,2p)
GUI = 2
JOB_TYPE = Optimization
METHOD = wB97M-V
SCF_ALGORITHM = DIIS_GDM
MAX_SCF_CYCLES = 400
GEOM_OPT_MAX_CYCLES = 150
SCF_CONVERGENCE = 7
THRESH = 12
UNRESTRICTED = 1
Solvent_method = SMD
$end
--------------------------------------------------------------
 ----------------------------------------------------------------
             Standard Nuclear Orientation (Angstroms)
    I     Atom           X                Y                Z
 ----------------------------------------------------------------
    1      C      -0.1968583282    -0.9225288683    -0.1393773201
    2      C      -0.5194427783    -1.8945929181     0.8018877545
    3      C      -1.8496847751    -2.0924650242     1.1740717649
    4      C      -2.8578661837    -1.3182755787     0.6043649528
    5      C      -2.5372174996    -0.3439701489    -0.3389895566
    6      C      -1.2081859822    -0.1439188213    -0.7074569189
    7      C      -0.8680799184     0.8816984553    -1.7441855288
    8      H       0.2657309739    -2.5000365416     1.2450124155
    9      H      -2.0991170143    -2.8517568267     1.9097556422
   10      H      -3.8932970744    -1.4705091009     0.8947564967
   11      H      -3.3180775928     0.2651756402    -0.7870678253
   12      O       0.2687913319     1.5918996586    -1.3958610304
   13      H      -1.7100219307     1.5283099647    -2.0054726716
   14      H       0.3878911298     2.2896754612    -2.0642748171
   15      H       0.8370150595    -0.7641731725    -0.4335004885
   16      O      -0.5888968514     0.1098441468    -2.9906019348
   17      O      -0.2621033661     0.9370522743    -3.9535651344
 ----------------------------------------------------------------
 Nuclear Repulsion Energy =         502.38588505 hartrees
 There are       37 alpha and       36 beta electrons
 Requested basis set is 6-311++G(2df,2p)
 There are 122 shells and 410 basis functions

 Total QAlloc Memory Limit 288000 MB
 Mega-Array Size       188 MB
 MEM_STATIC part       192 MB
 
 Citation of the SMD model:
 Marenich, A.V.; Cramer, C.J.; Truhlar, D.G.
 J. Phys. Chem. B 2009, 113, 6378-6396.
 iSolventCode=           1
 Solvent: water                                                           
 
 vradii
            1           2           3           4           5           6
    1   1.8500000   1.8500000   1.8500000   1.8500000   1.8500000   1.8500000
            7           8           9          10          11          12
    1   1.8500000   1.2000000   1.2000000   1.2000000   1.2000000   1.5200000
           13          14          15          16          17
    1   1.2000000   1.2000000   1.2000000   1.5200000   1.5200000
 Changing PCM_VDW_RADII to SMD_RADIUS
 Discretize the solute cavity surface with Lebedev spheres
	Using 110 Lebedev grid points for each H atom
	Using 194 Lebedev grid points for other atoms
	Atomic van der Waals radii will be scaled by 1.20
 Remove points where switching function is < 1.0e-08
 Keep 1302 surface tesserae and discard 1408 interior tesserae
 Molecular Surface Area = 159.056 Angst**2
 A cutoff of  1.0D-12 yielded   6544 shell pairs
 There are     74292 function pairs (     93076 Cartesian)
 Smallest overlap matrix eigenvalue = 8.82E-07
 Linear dependence detected in AO basis
 Tighter screening thresholds may be required for diffuse basis sets
 Use S2THRESH > 14 and THRESH = 14 in case of SCF convergence issues
 Number of orthogonalized atomic orbitals = 409
 Maximum deviation from orthogonality = 1.580E-10

 Scale SEOQF with 1.000000e-01/1.000000e-01/1.000000e-01

 Standard Electronic Orientation quadrupole field applied
 Nucleus-field energy     =    -0.0000000138 hartrees
 Guess from superposition of atomic densities
 Warning:  Energy on first SCF cycle will be non-variational
 SAD guess density has 73.000000 electrons

 -----------------------------------------------------------------------
  General SCF calculation program by
  Eric Jon Sundstrom, Paul Horn, Yuezhi Mao, Dmitri Zuev, Alec White,
  David Stuck, Shaama M.S., Shane Yost, Joonho Lee, David Small,
  Daniel Levine, Susi Lehtola, Hugh Burton, Evgeny Epifanovsky,
  Bang C. Huynh
 -----------------------------------------------------------------------
 Exchange:     0.1500 Hartree-Fock + 1.0000 wB97M-V + LR-HF
 Correlation:  1.0000 wB97M-V
 Using SG-2 standard quadrature grid
 Nonlocal Correlation:  VV10 with C = 0.0100 and b = 6.00 and scale = 1.00000
 Grid used for NLC:  SG-1 standard quadrature
 
 Citation of the SMD model:
 Marenich, A.V.; Cramer, C.J.; Truhlar, D.G.
 J. Phys. Chem. B 2009, 113, 6378-6396.
 iSolventCode=           1
 Solvent: water                                                           
 
 vradii
            1           2           3           4           5           6
    1   1.8500000   1.8500000   1.8500000   1.8500000   1.8500000   1.8500000
            7           8           9          10          11          12
    1   1.8500000   1.2000000   1.2000000   1.2000000   1.2000000   1.5200000
           13          14          15          16          17
    1   1.2000000   1.2000000   1.2000000   1.5200000   1.5200000
 using 8 threads for integral computing
 -------------------------------------------------------
 OpenMP Integral computing Module                
 Release: version 1.0, May 2013, Q-Chem Inc. Pittsburgh 
 -------------------------------------------------------
 -------------------------------------------------------
 OpenMP BLAS3 based DFT computing Module                
 Release: version 1.0, May 2013, Q-Chem Inc. Pittsburgh 
 -------------------------------------------------------
 A unrestricted SCF calculation will be
 performed using DIIS, GDM
 SCF converges when RMS gradient is below 1.0e-07
 ---------------------------------------
  Cycle       Energy         DIIS error
 ---------------------------------------
    1    -499.1822970421      1.26e-02  
    2    -496.3880065718      1.25e-03  Done DIIS. Switching to GDM
 ---------------------------------------
  Cycle       Energy        RMS Gradient
 ---------------------------------------
    1    -496.3880065718      1.25e-01   Descent step
    2    -496.4878520757      1.82e-02   Normal BFGS step
    3    -496.5001465141      3.31e-02   Normal BFGS step
    4    -496.5038567007      3.31e-03   Normal BFGS step
    5    -496.5045455113      5.83e-03   Normal BFGS step
    6    -496.5047211368      3.60e-03   Normal BFGS step
    7    -496.5047856358      1.67e-03   Normal BFGS step
    8    -496.5048055881      2.14e-04   Normal BFGS step
    9    -496.5048069734      1.64e-04   Normal BFGS step
   10    -496.5048073031      1.32e-04   Normal BFGS step
   11    -496.5048073721      1.22e-04   Normal BFGS step
   12    -496.5048074112      1.02e-04   Normal BFGS step
   13    -496.5048074473      6.70e-05   Normal BFGS step
   14    -496.5048074721      2.73e-05   Normal BFGS step
   15    -496.5048074811      9.86e-06   Normal BFGS step
   16    -496.5048074832      5.33e-06   Normal BFGS step
   17    -496.5048074835      1.76e-06   Normal BFGS step
   18    -496.5048074835      1.46e-06   Normal BFGS step
   19    -496.5048074835      9.04e-07   Normal BFGS step
   20    -496.5048074835      4.23e-07   Normal BFGS step
   21    -496.5048074836      1.71e-07   Normal BFGS step
   22    -496.5048074835      8.47e-08  Convergence criterion met
 ---------------------------------------
 SCF time:   CPU 2192.12s  wall 278.00s 
<S^2> =          0.754010334
(3)  G-ENP(liq) elect-nuc-pol free energy of system     -496.504807484 a.u.
(4)  G-CDS(liq) cavity-dispersion-solvent structure 
     free energy                                                3.0129 kcal/mol
(6)  G-S(liq) free energy of system                     -496.500006133 a.u.
 SCF   energy in the final basis set =     -496.5000061333
 Total energy in the final basis set =     -496.5000061333
 
 --------------------------------------------------------------
 
                    Orbital Energies (a.u.)
 --------------------------------------------------------------
 
 Alpha MOs
 -- Occupied --
-19.4612 -19.4217 -19.3635 -10.4644 -10.3627 -10.3539 -10.3531 -10.3507
-10.3495 -10.3494  -1.3418  -1.1906  -1.0163  -0.9854  -0.8904  -0.8753
 -0.7958  -0.7330  -0.7096  -0.6751  -0.6514  -0.6423  -0.6126  -0.5899
 -0.5619  -0.5512  -0.5345  -0.5254  -0.4953  -0.4854  -0.4526  -0.4471
 -0.4383  -0.4042  -0.4025  -0.3529  -0.3514
 -- Virtual --
  0.0240   0.0356   0.0367   0.0446   0.0526   0.0550   0.0557   0.0744
  0.0833   0.0892   0.0966   0.1036   0.1147   0.1294   0.1353   0.1467
  0.1506   0.1555   0.1602   0.1617   0.1669   0.1708   0.1716   0.1736
  0.1812   0.1824   0.1898   0.2017   0.2064   0.2159   0.2202   0.2259
  0.2368   0.2405   0.2507   0.2550   0.2595   0.2706   0.2715   0.2806
  0.2827   0.2920   0.3028   0.3079   0.3231   0.3320   0.3408   0.3462
  0.3500   0.3515   0.3544   0.3645   0.3688   0.3780   0.3891   0.3977
  0.4145   0.4254   0.4345   0.4394   0.4584   0.4666   0.4768   0.4876
  0.5512   0.5697   0.5707   0.5892   0.5951   0.5996   0.6061   0.6126
  0.6157   0.6195   0.6304   0.6519   0.6602   0.6764   0.6859   0.6916
  0.7019   0.7170   0.7252   0.7319   0.7353   0.7374   0.7439   0.7483
  0.7653   0.7741   0.7840   0.7963   0.7978   0.8240   0.8321   0.8420
  0.8447   0.8487   0.8677   0.8793   0.8883   0.8995   0.9243   0.9396
  0.9643   0.9918   1.0106   1.0129   1.0424   1.0587   1.0811   1.0911
  1.0934   1.1076   1.1245   1.1373   1.1456   1.1600   1.1766   1.1817
  1.1865   1.1986   1.2019   1.2104   1.2239   1.2352   1.2508   1.2599
  1.2715   1.2983   1.3014   1.3080   1.3434   1.3626   1.3817   1.3882
  1.3965   1.4122   1.4281   1.4396   1.4456   1.4467   1.4608   1.4647
  1.4808   1.4915   1.5062   1.5607   1.5626   1.5683   1.5777   1.5813
  1.5927   1.6021   1.6321   1.6728   1.6865   1.7070   1.7403   1.7559
  1.7746   1.7962   1.8045   1.8196   1.8381   1.8622   1.8867   1.9192
  1.9573   2.0403   2.0685   2.0773   2.0878   2.1095   2.1509   2.1880
  2.2523   2.2827   2.3080   2.3613   2.3759   2.4333   2.4696   2.5883
  2.6026   2.6326   2.6662   2.6753   2.7128   2.7292   2.7379   2.7901
  2.8051   2.8112   2.8205   2.8265   2.8345   2.8586   2.8684   2.8800
  2.9116   2.9163   2.9196   2.9269   2.9425   2.9467   2.9569   2.9607
  2.9869   3.0025   3.0256   3.0380   3.0677   3.1094   3.1573   3.1721
  3.1959   3.2117   3.2157   3.2264   3.2355   3.2552   3.2668   3.2789
  3.2893   3.3080   3.3313   3.3469   3.3603   3.3700   3.3962   3.4122
  3.4275   3.4444   3.4553   3.4768   3.4860   3.4996   3.5142   3.5255
  3.5396   3.5424   3.5756   3.5894   3.6100   3.6240   3.6284   3.6581
  3.6957   3.7065   3.7345   3.7669   3.7973   3.8062   3.8142   3.8284
  3.8517   3.8571   3.8692   3.8956   3.9033   3.9226   3.9273   3.9434
  3.9628   3.9719   3.9918   4.0535   4.0833   4.1141   4.1368   4.1485
  4.1551   4.1689   4.1868   4.2207   4.2498   4.2911   4.3245   4.3649
  4.3693   4.4067   4.4150   4.4356   4.4393   4.4507   4.5043   4.5280
  4.5379   4.5503   4.5585   4.5670   4.5798   4.6058   4.6166   4.6780
  4.7078   4.7214   4.7647   4.7973   4.8039   4.8541   4.8614   4.8795
  4.9487   5.0188   5.0415   5.0760   5.0817   5.0836   5.1133   5.1587
  5.1620   5.1685   5.1980   5.2166   5.2257   5.2421   5.2956   5.3102
  5.3397   5.3529   5.3716   5.4301   5.4875   5.5020   5.5382   5.5725
  5.5961   5.6544   5.7040   5.7364   5.8094   5.8258   5.8631   5.8764
  5.9446   6.0135   6.0561   6.2446   6.3586   6.4404   6.5573   6.6173
  6.6951   6.8415   6.8756   6.9595   7.0774   7.1217   7.1779   7.2318
  7.2681   7.3121   7.3925   7.4351   7.4634   7.6581   7.7804   7.8422
  8.0220   8.0778  24.1903  24.7777  24.7877  24.8052  25.0226  25.0413
 25.4971  50.4150  50.5090  50.6186
 
 Beta MOs
 -- Occupied --
-19.4510 -19.4027 -19.3634 -10.4648 -10.3627 -10.3539 -10.3531 -10.3507
-10.3495 -10.3493  -1.3160  -1.1885  -1.0009  -0.9689  -0.8852  -0.8752
 -0.7898  -0.7323  -0.7076  -0.6691  -0.6382  -0.6325  -0.5975  -0.5589
 -0.5537  -0.5426  -0.5256  -0.5244  -0.4903  -0.4745  -0.4485  -0.4467
 -0.4353  -0.3868  -0.3522  -0.3515
 -- Virtual --
 -0.0358   0.0241   0.0359   0.0369   0.0455   0.0527   0.0557   0.0560
  0.0748   0.0835   0.0897   0.0968   0.1042   0.1151   0.1309   0.1358
  0.1472   0.1512   0.1558   0.1605   0.1624   0.1676   0.1713   0.1719
  0.1744   0.1815   0.1826   0.1919   0.2021   0.2080   0.2163   0.2221
  0.2273   0.2397   0.2411   0.2523   0.2566   0.2604   0.2710   0.2783
  0.2815   0.2876   0.2931   0.3041   0.3087   0.3237   0.3332   0.3414
  0.3481   0.3503   0.3518   0.3553   0.3658   0.3694   0.3796   0.3901
  0.4002   0.4155   0.4255   0.4356   0.4406   0.4590   0.4676   0.4777
  0.4883   0.5515   0.5699   0.5708   0.5892   0.5951   0.5997   0.6062
  0.6128   0.6158   0.6196   0.6307   0.6521   0.6604   0.6767   0.6863
  0.6926   0.7020   0.7172   0.7253   0.7322   0.7361   0.7375   0.7442
  0.7485   0.7655   0.7743   0.7845   0.7965   0.7987   0.8246   0.8322
  0.8421   0.8454   0.8493   0.8679   0.8796   0.8884   0.8995   0.9250
  0.9409   0.9648   0.9929   1.0119   1.0152   1.0435   1.0592   1.0828
  1.0922   1.0953   1.1091   1.1260   1.1450   1.1506   1.1667   1.1833
  1.1874   1.1917   1.2008   1.2095   1.2195   1.2290   1.2414   1.2518
  1.2640   1.2724   1.3013   1.3046   1.3118   1.3443   1.3643   1.3827
  1.3884   1.3982   1.4176   1.4292   1.4404   1.4473   1.4509   1.4615
  1.4671   1.4841   1.4938   1.5098   1.5617   1.5643   1.5716   1.5813
  1.5826   1.5956   1.6146   1.6485   1.6825   1.6879   1.7190   1.7445
  1.7686   1.7763   1.7972   1.8049   1.8208   1.8400   1.8708   1.8890
  1.9252   1.9600   2.0424   2.0711   2.0783   2.0882   2.1119   2.1586
  2.1975   2.2542   2.3019   2.3142   2.3683   2.3809   2.4352   2.4717
  2.5886   2.6027   2.6329   2.6665   2.6818   2.7145   2.7315   2.7388
  2.7901   2.8056   2.8115   2.8208   2.8266   2.8349   2.8586   2.8686
  2.8801   2.9117   2.9165   2.9198   2.9270   2.9428   2.9468   2.9572
  2.9607   2.9870   3.0026   3.0257   3.0382   3.0678   3.1098   3.1576
  3.1722   3.1967   3.2119   3.2156   3.2264   3.2354   3.2552   3.2668
  3.2794   3.2900   3.3081   3.3314   3.3470   3.3605   3.3701   3.3963
  3.4124   3.4277   3.4445   3.4553   3.4770   3.4861   3.4997   3.5143
  3.5256   3.5396   3.5426   3.5759   3.5895   3.6099   3.6240   3.6285
  3.6581   3.6956   3.7072   3.7345   3.7677   3.7974   3.8068   3.8145
  3.8286   3.8518   3.8571   3.8694   3.8956   3.9033   3.9229   3.9276
  3.9435   3.9630   3.9722   3.9920   4.0536   4.0837   4.1141   4.1370
  4.1485   4.1553   4.1693   4.1868   4.2212   4.2502   4.2923   4.3245
  4.3653   4.3708   4.4078   4.4156   4.4360   4.4397   4.4510   4.5043
  4.5300   4.5413   4.5543   4.5586   4.5679   4.5805   4.6159   4.6310
  4.6790   4.7102   4.7389   4.7657   4.8030   4.8051   4.8605   4.8757
  4.8871   4.9525   5.0295   5.0444   5.1125   5.1267   5.1325   5.1587
  5.1673   5.1733   5.1912   5.2031   5.2301   5.2575   5.2782   5.3061
  5.3167   5.3464   5.3729   5.3848   5.4384   5.4916   5.5057   5.5473
  5.5876   5.6074   5.6563   5.7102   5.7477   5.8117   5.8262   5.8632
  5.8816   5.9451   6.0207   6.0572   6.2449   6.3711   6.4872   6.5688
  6.6173   6.7027   6.9220   6.9551   7.0180   7.1007   7.1463   7.2053
  7.2573   7.2744   7.3216   7.4280   7.4563   7.4890   7.6609   7.7917
  7.8476   8.0332   8.0983  24.1903  24.7777  24.7877  24.8049  25.0225
 25.0413  25.4971  50.4279  50.5175  50.6198
 --------------------------------------------------------------
 
          Ground-State Mulliken Net Atomic Charges

     Atom                 Charge (a.u.)    Spin (a.u.)
  --------------------------------------------------------
      1 C                     0.330876      -0.031180
      2 C                    -0.318212       0.004873
      3 C                    -0.383008      -0.001562
      4 C                    -0.346648       0.001504
      5 C                    -0.812112       0.004288
      6 C                     0.267742       0.033935
      7 C                    -0.329886      -0.008354
      8 H                     0.285694      -0.000040
      9 H                     0.281128       0.000042
     10 H                     0.285722      -0.000053
     11 H                     0.261036       0.000348
     12 O                    -0.329577      -0.000031
     13 H                     0.313315       0.003508
     14 H                     0.355319       0.000686
     15 H                     0.280541      -0.000072
     16 O                     0.049784       0.310777
     17 O                    -0.191713       0.681329
  --------------------------------------------------------
  Sum of atomic charges =    -0.000000
  Sum of spin   charges =     1.000000

 -----------------------------------------------------------------
                    Cartesian Multipole Moments
 -----------------------------------------------------------------
    Charge (ESU x 10^10)
                -0.0000
    Dipole Moment (Debye)
         X      -2.1087      Y       0.6432      Z       2.2981
       Tot       3.1846
    Quadrupole Moments (Debye-Ang)
        XX     -48.5173     XY      -1.4606     YY     -51.5102
        XZ       0.2040     YZ      -8.8559     ZZ     -70.6028
    Octopole Moments (Debye-Ang^2)
       XXX     153.7340    XXY      17.5342    XYY      61.0558
       YYY      67.4461    XXZ      46.7545    XYZ      10.1851
       YYZ      47.1386    XZZ      62.6309    YZZ      20.0213
       ZZZ     210.2596
    Hexadecapole Moments (Debye-Ang^3)
      XXXX    -734.4589   XXXY    -147.1271   XXYY    -233.2671
      XYYY    -156.4582   YYYY    -585.1858   XXXZ     -23.8309
      XXYZ      42.6980   XYYZ     -25.7930   YYYZ     158.6944
      XXZZ    -326.1878   XYZZ     -47.6441   YYZZ    -261.3637
      XZZZ     -31.7968   YZZZ     235.7089   ZZZZ   -1495.2767
 -----------------------------------------------------------------
 Calculating analytic gradient of the SCF energy
 Gradient of CDS energy
            1           2           3           4           5           6
    1   0.0002593   0.0003881  -0.0001223  -0.0004964  -0.0001424   0.0001352
    2   0.0001310  -0.0002641  -0.0003653  -0.0000673   0.0002591  -0.0000101
    3  -0.0001443   0.0001886   0.0003544   0.0001324  -0.0001953  -0.0002384
            7           8           9          10          11          12
    1   0.0038106   0.0001538  -0.0000489  -0.0002029  -0.0000968  -0.0039410
    2   0.0029356  -0.0001186  -0.0001488  -0.0000298   0.0001387  -0.0028229
    3   0.0013839   0.0000868   0.0001442   0.0000569  -0.0001055  -0.0012596
           13          14          15          16          17
    1  -0.0001432   0.0002459   0.0001514   0.0000922  -0.0000425
    2  -0.0000313   0.0004116   0.0000917   0.0000140  -0.0001236
    3  -0.0001852  -0.0000374  -0.0001002  -0.0000287  -0.0000526
 Gradient of SCF Energy
            1           2           3           4           5           6
    1  -0.0050969  -0.0025298   0.0024777   0.0033695   0.0073508   0.0043983
    2   0.0024696   0.0037681   0.0025415  -0.0006204  -0.0068078   0.0054895
    3   0.0007678  -0.0030697  -0.0028775  -0.0000837   0.0034225  -0.0049615
            7           8           9          10          11          12
    1   0.0128419   0.0061675  -0.0023931  -0.0103718  -0.0091756   0.0016713
    2  -0.0067977  -0.0050279  -0.0070332  -0.0013744   0.0075152  -0.0137399
    3  -0.0016897   0.0037156   0.0068873   0.0028286  -0.0053620   0.0180289
           13          14          15          16          17
    1  -0.0111613  -0.0006742   0.0042792  -0.0030723   0.0019186
    2   0.0087352   0.0139067  -0.0003901  -0.0072946   0.0046602
    3  -0.0027207  -0.0135614  -0.0006386   0.0055260  -0.0062120
 Max gradient component =       1.803E-02
 RMS gradient           =       6.629E-03
 Computing fast CPCM-SWIG gradient
 Updating gradient with PCM contributions...
 -- total gradient after adding PCM contribution --
---------------------------------------------------
  Atom         X              Y              Z     
---------------------------------------------------
   1       0.001845       0.000034      -0.000540
   2       0.001152      -0.000970       0.000799
   3      -0.000244      -0.001291       0.001151
   4      -0.001768      -0.000147       0.000349
   5      -0.001649       0.000515      -0.000280
   6       0.001078       0.002789      -0.001998
   7       0.002308       0.001915      -0.002672
   8       0.002411      -0.001837       0.001298
   9      -0.000737      -0.002290       0.002245
  10      -0.003155      -0.000415       0.000853
  11      -0.002382       0.001750      -0.001262
  12       0.001284      -0.004867       0.007552
  13      -0.002579       0.001588      -0.000873
  14      -0.000410       0.003765      -0.006054
  15       0.003067       0.000688      -0.001028
  16      -0.002399      -0.007456       0.004987
  17       0.002177       0.006230      -0.004526
---------------------------------------------------
 Number of fixed atoms: 0
 Gradient time:  CPU 300.07 s  wall 42.93 s
 Geometry Optimization Parameters
   NAtoms,    NIC,     NZ,  NCons,   NDum,   NFix, NCnnct, MaxDiis
       17     113       0       0       0       0       0       0


** GEOMETRY OPTIMIZATION IN DELOCALIZED INTERNAL COORDINATES **
   Searching for a Minimum

   Optimization Cycle:   1

                       Coordinates (Angstroms)
     ATOM                X               Y               Z
      1  C        -0.1968583282   -0.9225288683   -0.1393773201
      2  C        -0.5194427783   -1.8945929181    0.8018877545
      3  C        -1.8496847751   -2.0924650242    1.1740717649
      4  C        -2.8578661837   -1.3182755787    0.6043649528
      5  C        -2.5372174996   -0.3439701489   -0.3389895566
      6  C        -1.2081859822   -0.1439188213   -0.7074569189
      7  C        -0.8680799184    0.8816984553   -1.7441855288
      8  H         0.2657309739   -2.5000365416    1.2450124155
      9  H        -2.0991170143   -2.8517568267    1.9097556422
     10  H        -3.8932970744   -1.4705091009    0.8947564967
     11  H        -3.3180775928    0.2651756402   -0.7870678253
     12  O         0.2687913319    1.5918996586   -1.3958610304
     13  H        -1.7100219307    1.5283099647   -2.0054726716
     14  H         0.3878911298    2.2896754612   -2.0642748171
     15  H         0.8370150595   -0.7641731725   -0.4335004885
     16  O        -0.5888968514    0.1098441468   -2.9906019348
     17  O        -0.2621033661    0.9370522743   -3.9535651344
   Point Group: c1    Number of degrees of freedom:    45


   Energy is   -496.500006133


 Attempting to generate delocalized internal coordinates
 Initial Hessian constructed with Jon Baker's OPTIMIZE code

 45 Hessian modes will be used to form the next step
  Hessian Eigenvalues:
     0.003423    0.009516    0.017631    0.017674    0.022996    0.023140
     0.023198    0.023253    0.023257    0.023287    0.023304    0.023392
     0.066165    0.079925    0.095047    0.159998    0.160000    0.160000
     0.160000    0.160000    0.160000    0.187466    0.202467    0.219999
     0.220000    0.234817    0.249882    0.250000    0.326459    0.331880
     0.344372    0.351613    0.352204    0.352479    0.352669    0.352778
     0.423001    0.423822    0.463279    0.465369    0.467404    0.469943
     0.482016    0.526526    0.642640

 Minimum search - taking simple RFO step
 Searching for Lamda that Minimizes Along All modes
 Value Taken    Lamda =  -0.00102155
 Step Taken.  Stepsize is  0.151391

                             Maximum     Tolerance    Cnvgd?
         Gradient           0.010736      0.000300      NO
         Displacement       0.071481      0.001200      NO
         Energy change     *********      0.000001      NO


 New Cartesian Coordinates Obtained by Inverse Iteration

 Displacement from previous Coordinates is:  0.215140
 ----------------------------------------------------------------
             Standard Nuclear Orientation (Angstroms)
    I     Atom           X                Y                Z
 ----------------------------------------------------------------
    1      C      -0.1948243320    -0.9262044784    -0.1335059473
    2      C      -0.5234545899    -1.8919352018     0.8039321903
    3      C      -1.8507091327    -2.0854723743     1.1678403127
    4      C      -2.8499417143    -1.3138187750     0.5932808432
    5      C      -2.5233329600    -0.3463781817    -0.3468570498
    6      C      -1.1978810957    -0.1508566462    -0.7067074412
    7      C      -0.8577632888     0.8749539852    -1.7385876885
    8      H       0.2542800363    -2.4950657589     1.2512502131
    9      H      -2.1046950470    -2.8391934517     1.9004317032
   10      H      -3.8824251176    -1.4625594992     0.8775247280
   11      H      -3.2963117168     0.2617468384    -0.7983108533
   12      O       0.2711042813     1.5960505191    -1.3889203334
   13      H      -1.6997223563     1.5148037531    -1.9963800849
   14      H       0.3893183199     2.3105297832    -2.0293516069
   15      H       0.8367560909    -0.7721250447    -0.4196362744
   16      O      -0.5749701083     0.1070787166    -2.9862625696
   17      O      -0.3448480690     0.9198744161    -3.9802443411
 ----------------------------------------------------------------
 Nuclear Repulsion Energy =         503.33544662 hartrees
 There are       37 alpha and       36 beta electrons
 Discretize the solute cavity surface with Lebedev spheres
	Using 110 Lebedev grid points for each H atom
	Using 194 Lebedev grid points for other atoms
	Atomic van der Waals radii will be scaled by 1.20
 Remove points where switching function is < 1.0e-08
 Keep 1309 surface tesserae and discard 1401 interior tesserae
 Molecular Surface Area = 158.943 Angst**2
 Applying Cartesian multipole field
    Component          Value
    ---------          -----
     (2,0,0)        1.00000E-11
     (0,2,0)        2.00000E-11
     (0,0,2)       -3.00000E-11
 Nucleus-field energy     =    -0.0000000140 hartrees
 Requested basis set is 6-311++G(2df,2p)
 There are 122 shells and 410 basis functions
 A cutoff of  1.0D-12 yielded   6550 shell pairs
 There are     74365 function pairs (     93168 Cartesian)
 Smallest overlap matrix eigenvalue = 8.51E-07
 Linear dependence detected in AO basis
 Tighter screening thresholds may be required for diffuse basis sets
 Use S2THRESH > 14 and THRESH = 14 in case of SCF convergence issues
 Number of orthogonalized atomic orbitals = 409
 Maximum deviation from orthogonality = 1.225E-10
 Guess MOs from SCF MO coefficient file

 -----------------------------------------------------------------------
  General SCF calculation program by
  Eric Jon Sundstrom, Paul Horn, Yuezhi Mao, Dmitri Zuev, Alec White,
  David Stuck, Shaama M.S., Shane Yost, Joonho Lee, David Small,
  Daniel Levine, Susi Lehtola, Hugh Burton, Evgeny Epifanovsky,
  Bang C. Huynh
 -----------------------------------------------------------------------
 Exchange:     0.1500 Hartree-Fock + 1.0000 wB97M-V + LR-HF
 Correlation:  1.0000 wB97M-V
 Using SG-2 standard quadrature grid
 Nonlocal Correlation:  VV10 with C = 0.0100 and b = 6.00 and scale = 1.00000
 Grid used for NLC:  SG-1 standard quadrature
 
 Citation of the SMD model:
 Marenich, A.V.; Cramer, C.J.; Truhlar, D.G.
 J. Phys. Chem. B 2009, 113, 6378-6396.
 iSolventCode=           1
 Solvent: water                                                           
 
 vradii
            1           2           3           4           5           6
    1   1.8500000   1.8500000   1.8500000   1.8500000   1.8500000   1.8500000
            7           8           9          10          11          12
    1   1.8500000   1.2000000   1.2000000   1.2000000   1.2000000   1.5200000
           13          14          15          16          17
    1   1.2000000   1.2000000   1.2000000   1.5200000   1.5200000
 -------------------------------------------------------
 OpenMP BLAS3 based DFT computing Module                
 Release: version 1.0, May 2013, Q-Chem Inc. Pittsburgh 
 -------------------------------------------------------
 A unrestricted SCF calculation will be
 performed using Roothaan-Hall, DIIS, GDM
 SCF converges when RMS gradient is below 1.0e-07
 ---------------------------------------
  Cycle       Energy         DIIS error
 ---------------------------------------
    1    -496.4783256965      2.41e-04  Roothaan Step
 ---------------------------------------
  Cycle       Energy         DIIS error
 ---------------------------------------
    1    -496.5010551347      1.70e-04  
    2    -496.5043156966      1.09e-04  Done DIIS. Switching to GDM
 ---------------------------------------
  Cycle       Energy        RMS Gradient
 ---------------------------------------
    1    -496.5043156966      5.20e-03   Normal BFGS step
    2    -496.5046335564      6.11e-03   Normal BFGS step
    3    -496.5052369968      2.07e-03   Normal BFGS step
    4    -496.5052555848      2.08e-03   Normal BFGS step
    5    -496.5052809795      1.66e-03   Normal BFGS step
    6    -496.5052872254      1.37e-03   Normal BFGS step
    7    -496.5052926327      9.33e-04   Normal BFGS step
    8    -496.5052967697      5.11e-04   Normal BFGS step
    9    -496.5052989296      3.44e-04   Normal BFGS step
   10    -496.5052998735      1.14e-04   Normal BFGS step
   11    -496.5053001034      2.18e-05   Normal BFGS step
   12    -496.5053001251      2.02e-05   Normal BFGS step
   13    -496.5053001298      1.26e-05   Normal BFGS step
   14    -496.5053001308      7.70e-06   Normal BFGS step
   15    -496.5053001312      2.72e-06   Normal BFGS step
   16    -496.5053001313      8.40e-07   Normal BFGS step
   17    -496.5053001313      5.09e-07   Normal BFGS step
   18    -496.5053001313      3.88e-07   Normal BFGS step
   19    -496.5053001313      1.76e-07   Normal BFGS step
   20    -496.5053001314      8.51e-08  Convergence criterion met
 ---------------------------------------
 SCF time:   CPU 2168.79s  wall 275.00s 
<S^2> =          0.753977725
(3)  G-ENP(liq) elect-nuc-pol free energy of system     -496.505300131 a.u.
(4)  G-CDS(liq) cavity-dispersion-solvent structure 
     free energy                                                2.9966 kcal/mol
(6)  G-S(liq) free energy of system                     -496.500524751 a.u.
 SCF   energy in the final basis set =     -496.5005247513
 Total energy in the final basis set =     -496.5005247513
 
 --------------------------------------------------------------
 
                    Orbital Energies (a.u.)
 --------------------------------------------------------------
 
 Alpha MOs
 -- Occupied --
-19.4607 -19.4205 -19.3629 -10.4635 -10.3607 -10.3515 -10.3509 -10.3483
-10.3472 -10.3470  -1.3444  -1.1917  -1.0166  -0.9873  -0.8920  -0.8769
 -0.7974  -0.7343  -0.7107  -0.6764  -0.6522  -0.6445  -0.6141  -0.5904
 -0.5625  -0.5526  -0.5354  -0.5264  -0.4961  -0.4861  -0.4532  -0.4474
 -0.4384  -0.4026  -0.4006  -0.3535  -0.3522
 -- Virtual --
  0.0239   0.0357   0.0369   0.0458   0.0527   0.0557   0.0562   0.0744
  0.0835   0.0894   0.0966   0.1036   0.1148   0.1295   0.1354   0.1466
  0.1510   0.1556   0.1605   0.1621   0.1670   0.1710   0.1723   0.1738
  0.1812   0.1824   0.1912   0.2019   0.2065   0.2162   0.2195   0.2263
  0.2381   0.2419   0.2515   0.2544   0.2595   0.2710   0.2725   0.2808
  0.2843   0.2926   0.3034   0.3093   0.3249   0.3332   0.3415   0.3469
  0.3508   0.3534   0.3577   0.3665   0.3705   0.3790   0.3910   0.3991
  0.4167   0.4270   0.4351   0.4414   0.4592   0.4656   0.4799   0.4864
  0.5517   0.5698   0.5703   0.5919   0.5977   0.6014   0.6077   0.6139
  0.6176   0.6219   0.6328   0.6531   0.6628   0.6777   0.6846   0.6938
  0.7032   0.7186   0.7281   0.7349   0.7370   0.7386   0.7465   0.7481
  0.7663   0.7768   0.7858   0.7939   0.8002   0.8244   0.8315   0.8416
  0.8447   0.8518   0.8712   0.8828   0.8923   0.9037   0.9273   0.9428
  0.9667   0.9927   1.0100   1.0151   1.0441   1.0603   1.0829   1.0926
  1.0966   1.1097   1.1273   1.1421   1.1440   1.1611   1.1805   1.1850
  1.1884   1.1991   1.2031   1.2097   1.2270   1.2372   1.2538   1.2628
  1.2734   1.2983   1.3016   1.3097   1.3469   1.3652   1.3863   1.3915
  1.3984   1.4189   1.4330   1.4441   1.4508   1.4520   1.4657   1.4699
  1.4865   1.4934   1.5089   1.5637   1.5664   1.5717   1.5781   1.5815
  1.5916   1.6045   1.6339   1.6747   1.6876   1.7101   1.7390   1.7624
  1.7795   1.7984   1.8089   1.8172   1.8366   1.8690   1.8875   1.9231
  1.9632   2.0470   2.0702   2.0832   2.0922   2.1108   2.1525   2.1875
  2.2537   2.2862   2.3207   2.3686   2.3756   2.4343   2.4665   2.5913
  2.6009   2.6282   2.6723   2.6746   2.7101   2.7297   2.7352   2.7942
  2.8069   2.8117   2.8270   2.8288   2.8338   2.8578   2.8700   2.8797
  2.9120   2.9142   2.9199   2.9284   2.9461   2.9513   2.9567   2.9620
  2.9883   3.0042   3.0310   3.0427   3.0737   3.1159   3.1576   3.1747
  3.1977   3.2160   3.2181   3.2297   3.2327   3.2587   3.2652   3.2814
  3.2941   3.3127   3.3292   3.3488   3.3664   3.3780   3.4011   3.4174
  3.4316   3.4494   3.4628   3.4771   3.4870   3.5019   3.5181   3.5254
  3.5432   3.5467   3.5793   3.5936   3.6128   3.6268   3.6376   3.6602
  3.6974   3.7119   3.7402   3.7720   3.8040   3.8093   3.8164   3.8359
  3.8595   3.8636   3.8713   3.9049   3.9088   3.9317   3.9343   3.9529
  3.9699   3.9793   3.9980   4.0636   4.0933   4.1262   4.1479   4.1566
  4.1641   4.1750   4.1955   4.2253   4.2589   4.3023   4.3334   4.3770
  4.3802   4.4168   4.4210   4.4489   4.4525   4.4647   4.5212   4.5436
  4.5545   4.5663   4.5768   4.5847   4.5959   4.6128   4.6302   4.6959
  4.7185   4.7338   4.7819   4.8105   4.8185   4.8594   4.8781   4.8944
  4.9592   5.0310   5.0629   5.0755   5.0816   5.0838   5.1254   5.1599
  5.1785   5.1844   5.2138   5.2221   5.2307   5.2447   5.3000   5.3146
  5.3407   5.3532   5.3808   5.4296   5.4988   5.5184   5.5391   5.5847
  5.6099   5.6661   5.7184   5.7382   5.8280   5.8519   5.8918   5.8974
  5.9646   6.0245   6.0791   6.2838   6.3649   6.4662   6.5844   6.6586
  6.6971   6.8371   6.8800   6.9613   7.0818   7.1200   7.1800   7.2345
  7.2963   7.3090   7.3837   7.4298   7.4779   7.6707   7.7874   7.8409
  8.0261   8.0925  24.1942  24.7981  24.8092  24.8181  25.0550  25.0744
 25.5381  50.4198  50.5113  50.6222
 
 Beta MOs
 -- Occupied --
-19.4504 -19.4016 -19.3628 -10.4639 -10.3607 -10.3515 -10.3509 -10.3483
-10.3472 -10.3470  -1.3185  -1.1897  -1.0031  -0.9695  -0.8865  -0.8768
 -0.7914  -0.7337  -0.7089  -0.6702  -0.6405  -0.6335  -0.5973  -0.5593
 -0.5549  -0.5442  -0.5265  -0.5249  -0.4923  -0.4748  -0.4492  -0.4470
 -0.4360  -0.3845  -0.3528  -0.3522
 -- Virtual --
 -0.0340   0.0240   0.0359   0.0370   0.0468   0.0528   0.0562   0.0567
  0.0749   0.0837   0.0899   0.0968   0.1042   0.1152   0.1310   0.1359
  0.1471   0.1515   0.1559   0.1607   0.1629   0.1676   0.1716   0.1725
  0.1746   0.1815   0.1827   0.1934   0.2023   0.2081   0.2167   0.2212
  0.2277   0.2403   0.2423   0.2526   0.2558   0.2611   0.2715   0.2787
  0.2816   0.2903   0.2937   0.3045   0.3102   0.3256   0.3345   0.3421
  0.3488   0.3511   0.3538   0.3588   0.3676   0.3712   0.3809   0.3922
  0.4014   0.4177   0.4271   0.4362   0.4428   0.4599   0.4666   0.4807
  0.4871   0.5520   0.5699   0.5706   0.5920   0.5977   0.6014   0.6078
  0.6141   0.6178   0.6220   0.6330   0.6533   0.6630   0.6780   0.6856
  0.6946   0.7034   0.7187   0.7282   0.7350   0.7378   0.7388   0.7469
  0.7483   0.7664   0.7770   0.7863   0.7945   0.8007   0.8251   0.8317
  0.8423   0.8448   0.8524   0.8714   0.8830   0.8923   0.9037   0.9279
  0.9440   0.9672   0.9943   1.0122   1.0162   1.0450   1.0607   1.0847
  1.0937   1.0989   1.1112   1.1287   1.1457   1.1505   1.1689   1.1874
  1.1903   1.1965   1.2018   1.2107   1.2182   1.2307   1.2434   1.2545
  1.2675   1.2746   1.3013   1.3045   1.3130   1.3477   1.3668   1.3870
  1.3918   1.4005   1.4235   1.4340   1.4450   1.4518   1.4573   1.4668
  1.4721   1.4916   1.4951   1.5122   1.5649   1.5694   1.5753   1.5833
  1.5838   1.5933   1.6151   1.6508   1.6845   1.6885   1.7196   1.7434
  1.7768   1.7805   1.7994   1.8096   1.8181   1.8381   1.8771   1.8907
  1.9287   1.9662   2.0492   2.0734   2.0841   2.0926   2.1127   2.1597
  2.1977   2.2555   2.3034   2.3266   2.3777   2.3802   2.4365   2.4687
  2.5916   2.6010   2.6286   2.6726   2.6811   2.7125   2.7314   2.7356
  2.7942   2.8073   2.8121   2.8272   2.8290   2.8342   2.8578   2.8703
  2.8798   2.9121   2.9142   2.9202   2.9284   2.9462   2.9515   2.9570
  2.9620   2.9884   3.0043   3.0311   3.0429   3.0738   3.1163   3.1578
  3.1747   3.1984   3.2161   3.2180   3.2297   3.2327   3.2587   3.2652
  3.2818   3.2949   3.3129   3.3294   3.3489   3.3665   3.3780   3.4012
  3.4176   3.4317   3.4498   3.4628   3.4773   3.4871   3.5019   3.5183
  3.5256   3.5432   3.5468   3.5796   3.5937   3.6128   3.6268   3.6376
  3.6601   3.6973   3.7126   3.7401   3.7728   3.8041   3.8099   3.8166
  3.8361   3.8597   3.8638   3.8715   3.9050   3.9089   3.9318   3.9347
  3.9531   3.9701   3.9796   3.9982   4.0637   4.0937   4.1263   4.1481
  4.1566   4.1643   4.1753   4.1956   4.2258   4.2594   4.3034   4.3335
  4.3773   4.3819   4.4175   4.4221   4.4492   4.4529   4.4649   4.5212
  4.5459   4.5586   4.5712   4.5769   4.5861   4.5970   4.6270   4.6381
  4.6978   4.7283   4.7437   4.7827   4.8174   4.8201   4.8770   4.8799
  4.9017   4.9628   5.0433   5.0657   5.1218   5.1302   5.1328   5.1632
  5.1828   5.1836   5.1943   5.2188   5.2375   5.2584   5.2794   5.3106
  5.3225   5.3467   5.3747   5.3921   5.4388   5.5021   5.5233   5.5477
  5.5986   5.6209   5.6686   5.7245   5.7501   5.8313   5.8522   5.8918
  5.9014   5.9654   6.0315   6.0802   6.2843   6.3774   6.5136   6.5963
  6.6587   6.7059   6.9166   6.9599   7.0184   7.1038   7.1466   7.2098
  7.2612   7.3011   7.3162   7.4189   7.4519   7.5031   7.6735   7.7973
  7.8473   8.0377   8.1128  24.1941  24.7981  24.8092  24.8179  25.0550
 25.0744  25.5381  50.4327  50.5197  50.6234
 --------------------------------------------------------------
 
          Ground-State Mulliken Net Atomic Charges

     Atom                 Charge (a.u.)    Spin (a.u.)
  --------------------------------------------------------
      1 C                     0.366134      -0.027758
      2 C                    -0.309721       0.004621
      3 C                    -0.383024      -0.001244
      4 C                    -0.345680       0.001501
      5 C                    -0.830803       0.001472
      6 C                     0.239967       0.028694
      7 C                    -0.323696      -0.003836
      8 H                     0.285512      -0.000016
      9 H                     0.280721       0.000026
     10 H                     0.285448      -0.000046
     11 H                     0.259146       0.000263
     12 O                    -0.332708       0.000564
     13 H                     0.315220       0.002905
     14 H                     0.355481       0.001181
     15 H                     0.280592      -0.000436
     16 O                     0.050314       0.313044
     17 O                    -0.192903       0.679065
  --------------------------------------------------------
  Sum of atomic charges =    -0.000000
  Sum of spin   charges =     1.000000

 -----------------------------------------------------------------
                    Cartesian Multipole Moments
 -----------------------------------------------------------------
    Charge (ESU x 10^10)
                 0.0000
    Dipole Moment (Debye)
         X      -2.0245      Y       0.6786      Z       2.4096
       Tot       3.2195
    Quadrupole Moments (Debye-Ang)
        XX     -48.6128     XY      -1.2436     YY     -51.2938
        XZ      -0.1427     YZ      -8.6852     ZZ     -71.1591
    Octopole Moments (Debye-Ang^2)
       XXX     154.4355    XXY      17.3845    XYY      61.4508
       YYY      68.4416    XXZ      47.0062    XYZ       9.3683
       YYZ      47.1338    XZZ      64.2908    YZZ      19.3412
       ZZZ     213.6394
    Hexadecapole Moments (Debye-Ang^3)
      XXXX    -731.4279   XXXY    -145.6280   XXYY    -232.1419
      XYYY    -154.2253   YYYY    -579.5311   XXXZ     -28.7308
      XXYZ      43.2459   XYYZ     -28.2661   YYYZ     156.7175
      XXZZ    -326.7383   XYZZ     -45.0830   YYZZ    -263.0787
      XZZZ     -44.0918   YZZZ     237.1960   ZZZZ   -1511.4855
 -----------------------------------------------------------------
 Calculating analytic gradient of the SCF energy
 Gradient of CDS energy
            1           2           3           4           5           6
    1   0.0002570   0.0003831  -0.0001241  -0.0004930  -0.0001391   0.0001332
    2   0.0001291  -0.0002630  -0.0003611  -0.0000654   0.0002544  -0.0000101
    3  -0.0001424   0.0001897   0.0003516   0.0001287  -0.0001945  -0.0002377
            7           8           9          10          11          12
    1   0.0037945   0.0001488  -0.0000486  -0.0001977  -0.0000910  -0.0039265
    2   0.0029762  -0.0001154  -0.0001444  -0.0000285   0.0001363  -0.0028672
    3   0.0013900   0.0000856   0.0001403   0.0000544  -0.0001042  -0.0012673
           13          14          15          16          17
    1  -0.0001383   0.0002470   0.0001488   0.0000868  -0.0000409
    2  -0.0000375   0.0004127   0.0000892   0.0000136  -0.0001190
    3  -0.0001794  -0.0000350  -0.0000963  -0.0000303  -0.0000533
 Gradient of SCF Energy
            1           2           3           4           5           6
    1  -0.0073082  -0.0040114   0.0028394   0.0055328   0.0095604   0.0025316
    2   0.0023225   0.0049721   0.0041511  -0.0004208  -0.0077867   0.0024509
    3   0.0015747  -0.0040754  -0.0043366  -0.0004618   0.0039092  -0.0029780
            7           8           9          10          11          12
    1   0.0109530   0.0036688  -0.0016688  -0.0071009  -0.0066557  -0.0000264
    2  -0.0088514  -0.0031419  -0.0046475  -0.0009027   0.0057341  -0.0090960
    3   0.0012072   0.0024028   0.0045712   0.0019124  -0.0040612   0.0122682
           13          14          15          16          17
    1  -0.0086544   0.0004487   0.0011396  -0.0013495   0.0001010
    2   0.0069685   0.0108858  -0.0010198  -0.0017638   0.0001455
    3  -0.0013133  -0.0086906   0.0003489   0.0018606  -0.0041384
 Max gradient component =       1.227E-02
 RMS gradient           =       5.213E-03
 Computing fast CPCM-SWIG gradient
 Updating gradient with PCM contributions...
 -- total gradient after adding PCM contribution --
---------------------------------------------------
  Atom         X              Y              Z     
---------------------------------------------------
   1      -0.000226      -0.000163       0.000092
   2      -0.000365       0.000253      -0.000189
   3       0.000137       0.000327      -0.000311
   4       0.000473       0.000105      -0.000115
   5       0.000474      -0.000441       0.000276
   6      -0.000939      -0.000155       0.000340
   7       0.000716      -0.000390       0.000175
   8      -0.000099       0.000071      -0.000067
   9       0.000030       0.000094      -0.000090
  10       0.000131       0.000040      -0.000039
  11       0.000095      -0.000030       0.000064
  12      -0.000321       0.000573       0.001694
  13      -0.000137      -0.000139       0.000280
  14       0.000524       0.000143      -0.001106
  15      -0.000180       0.000013      -0.000013
  16      -0.000806      -0.001775       0.001055
  17       0.000491       0.001473      -0.002045
---------------------------------------------------
 Number of fixed atoms: 0
 Gradient time:  CPU 301.51 s  wall 43.30 s
 Geometry Optimization Parameters
   NAtoms,    NIC,     NZ,  NCons,   NDum,   NFix, NCnnct, MaxDiis
       17     113       0       0       0       0       0       0

 Cartesian Hessian Update
 Hessian updated using BFGS update


** GEOMETRY OPTIMIZATION IN DELOCALIZED INTERNAL COORDINATES **
   Searching for a Minimum

   Optimization Cycle:   2

                       Coordinates (Angstroms)
     ATOM                X               Y               Z
      1  C        -0.1948243320   -0.9262044784   -0.1335059473
      2  C        -0.5234545899   -1.8919352018    0.8039321903
      3  C        -1.8507091327   -2.0854723743    1.1678403127
      4  C        -2.8499417143   -1.3138187750    0.5932808432
      5  C        -2.5233329600   -0.3463781817   -0.3468570498
      6  C        -1.1978810957   -0.1508566462   -0.7067074412
      7  C        -0.8577632888    0.8749539852   -1.7385876885
      8  H         0.2542800363   -2.4950657589    1.2512502131
      9  H        -2.1046950470   -2.8391934517    1.9004317032
     10  H        -3.8824251176   -1.4625594992    0.8775247280
     11  H        -3.2963117168    0.2617468384   -0.7983108533
     12  O         0.2711042813    1.5960505191   -1.3889203334
     13  H        -1.6997223563    1.5148037531   -1.9963800849
     14  H         0.3893183199    2.3105297832   -2.0293516069
     15  H         0.8367560909   -0.7721250447   -0.4196362744
     16  O        -0.5749701083    0.1070787166   -2.9862625696
     17  O        -0.3448480690    0.9198744161   -3.9802443411
   Point Group: c1    Number of degrees of freedom:    45


   Energy is   -496.500524751

 Hessian updated using BFGS update

 44 Hessian modes will be used to form the next step
  Hessian Eigenvalues:
     0.003509    0.009521    0.016525    0.017679    0.022997    0.023140
     0.023198    0.023254    0.023257    0.023287    0.023304    0.023392
     0.066364    0.080977    0.095060    0.158698    0.159998    0.160000
     0.160000    0.160096    0.186930    0.202822    0.219984    0.220000
     0.234808    0.246265    0.253518    0.325702    0.330076    0.344664
     0.351726    0.352310    0.352564    0.352732    0.356884    0.422998
     0.423836    0.464400    0.466673    0.467859    0.477339    0.507847
     0.516568    0.621276

 Minimum search - taking simple RFO step
 Searching for Lamda that Minimizes Along All modes
 Value Taken    Lamda =  -0.00007369
 Step Taken.  Stepsize is  0.055399

                             Maximum     Tolerance    Cnvgd?
         Gradient           0.001714      0.000300      NO
         Displacement       0.029355      0.001200      NO
         Energy change     -0.000519      0.000001      NO


 New Cartesian Coordinates Obtained by Inverse Iteration

 Displacement from previous Coordinates is:  0.046883
 ----------------------------------------------------------------
             Standard Nuclear Orientation (Angstroms)
    I     Atom           X                Y                Z
 ----------------------------------------------------------------
    1      C      -0.1928364818    -0.9279781672    -0.1333931905
    2      C      -0.5231679130    -1.8924332412     0.8052482164
    3      C      -1.8512037668    -2.0846564986     1.1683433924
    4      C      -2.8496218764    -1.3128701893     0.5919044235
    5      C      -2.5212932311    -0.3464676740    -0.3491994184
    6      C      -1.1950464804    -0.1527263423    -0.7086537012
    7      C      -0.8566481937     0.8736476687    -1.7402327655
    8      H       0.2536188043    -2.4952976870     1.2542568570
    9      H      -2.1062998706    -2.8370294301     1.9017362852
   10      H      -3.8822852636    -1.4603947659     0.8756702034
   11      H      -3.2933111961     0.2616425709    -0.8019362016
   12      O       0.2753436499     1.5900436428    -1.3942561931
   13      H      -1.6968234509     1.5159295920    -1.9966566888
   14      H       0.3811816937     2.3196340881    -2.0174654440
   15      H       0.8392497785    -0.7751749170    -0.4180580598
   16      O      -0.5744919056     0.1068920469    -2.9869239795
   17      O      -0.3557850965     0.9186679031    -3.9808879353
 ----------------------------------------------------------------
 Nuclear Repulsion Energy =         503.48017515 hartrees
 There are       37 alpha and       36 beta electrons
 Discretize the solute cavity surface with Lebedev spheres
	Using 110 Lebedev grid points for each H atom
	Using 194 Lebedev grid points for other atoms
	Atomic van der Waals radii will be scaled by 1.20
 Remove points where switching function is < 1.0e-08
 Keep 1305 surface tesserae and discard 1405 interior tesserae
 Molecular Surface Area = 158.945 Angst**2
 Applying Cartesian multipole field
    Component          Value
    ---------          -----
     (2,0,0)        1.00000E-11
     (0,2,0)        2.00000E-11
     (0,0,2)       -3.00000E-11
 Nucleus-field energy     =    -0.0000000140 hartrees
 Requested basis set is 6-311++G(2df,2p)
 There are 122 shells and 410 basis functions
 A cutoff of  1.0D-12 yielded   6551 shell pairs
 There are     74400 function pairs (     93228 Cartesian)
 Smallest overlap matrix eigenvalue = 8.53E-07
 Linear dependence detected in AO basis
 Tighter screening thresholds may be required for diffuse basis sets
 Use S2THRESH > 14 and THRESH = 14 in case of SCF convergence issues
 Number of orthogonalized atomic orbitals = 409
 Maximum deviation from orthogonality = 1.113E-10
 Guess MOs from SCF MO coefficient file

 -----------------------------------------------------------------------
  General SCF calculation program by
  Eric Jon Sundstrom, Paul Horn, Yuezhi Mao, Dmitri Zuev, Alec White,
  David Stuck, Shaama M.S., Shane Yost, Joonho Lee, David Small,
  Daniel Levine, Susi Lehtola, Hugh Burton, Evgeny Epifanovsky,
  Bang C. Huynh
 -----------------------------------------------------------------------
 Exchange:     0.1500 Hartree-Fock + 1.0000 wB97M-V + LR-HF
 Correlation:  1.0000 wB97M-V
 Using SG-2 standard quadrature grid
 Nonlocal Correlation:  VV10 with C = 0.0100 and b = 6.00 and scale = 1.00000
 Grid used for NLC:  SG-1 standard quadrature
 
 Citation of the SMD model:
 Marenich, A.V.; Cramer, C.J.; Truhlar, D.G.
 J. Phys. Chem. B 2009, 113, 6378-6396.
 iSolventCode=           1
 Solvent: water                                                           
 
 vradii
            1           2           3           4           5           6
    1   1.8500000   1.8500000   1.8500000   1.8500000   1.8500000   1.8500000
            7           8           9          10          11          12
    1   1.8500000   1.2000000   1.2000000   1.2000000   1.2000000   1.5200000
           13          14          15          16          17
    1   1.2000000   1.2000000   1.2000000   1.5200000   1.5200000
 -------------------------------------------------------
 OpenMP BLAS3 based DFT computing Module                
 Release: version 1.0, May 2013, Q-Chem Inc. Pittsburgh 
 -------------------------------------------------------
 A unrestricted SCF calculation will be
 performed using Roothaan-Hall, DIIS, GDM
 SCF converges when RMS gradient is below 1.0e-07
 ---------------------------------------
  Cycle       Energy         DIIS error
 ---------------------------------------
    1    -496.4831148093      1.59e-04  Roothaan Step
 ---------------------------------------
  Cycle       Energy         DIIS error
 ---------------------------------------
    1    -496.5016498930      1.69e-04  
    2    -496.5044754258      1.11e-04  Done DIIS. Switching to GDM
 ---------------------------------------
  Cycle       Energy        RMS Gradient
 ---------------------------------------
    1    -496.5044754258      3.60e-03   Normal BFGS step
    2    -496.5047194368      5.05e-03   Normal BFGS step
    3    -496.5053446888      9.46e-04   Normal BFGS step
    4    -496.5053487267      1.64e-03   Normal BFGS step
    5    -496.5053668784      2.49e-04   Normal BFGS step
    6    -496.5053673718      2.38e-04   Normal BFGS step
    7    -496.5053677830      2.07e-04   Normal BFGS step
    8    -496.5053679070      1.70e-04   Normal BFGS step
    9    -496.5053680022      1.10e-04   Normal BFGS step
   10    -496.5053680516      6.78e-05   Normal BFGS step
   11    -496.5053680829      3.91e-05   Normal BFGS step
   12    -496.5053681002      1.64e-05   Normal BFGS step
   13    -496.5053681060      6.14e-06   Normal BFGS step
   14    -496.5053681070      2.97e-06   Normal BFGS step
   15    -496.5053681071      1.45e-06   Normal BFGS step
   16    -496.5053681071      6.27e-07   Normal BFGS step
   17    -496.5053681071      2.13e-07   Normal BFGS step
   18    -496.5053681071      1.31e-07   Normal BFGS step
   19    -496.5053681071      5.36e-08  Convergence criterion met
 ---------------------------------------
 SCF time:   CPU 2056.05s  wall 260.00s 
<S^2> =          0.753960578
(3)  G-ENP(liq) elect-nuc-pol free energy of system     -496.505368107 a.u.
(4)  G-CDS(liq) cavity-dispersion-solvent structure 
     free energy                                                3.0064 kcal/mol
(6)  G-S(liq) free energy of system                     -496.500577041 a.u.
 SCF   energy in the final basis set =     -496.5005770405
 Total energy in the final basis set =     -496.5005770405
 
 --------------------------------------------------------------
 
                    Orbital Energies (a.u.)
 --------------------------------------------------------------
 
 Alpha MOs
 -- Occupied --
-19.4606 -19.4200 -19.3627 -10.4633 -10.3607 -10.3515 -10.3510 -10.3484
-10.3473 -10.3470  -1.3461  -1.1922  -1.0164  -0.9870  -0.8918  -0.8768
 -0.7975  -0.7344  -0.7109  -0.6767  -0.6527  -0.6447  -0.6143  -0.5908
 -0.5626  -0.5528  -0.5354  -0.5264  -0.4957  -0.4855  -0.4532  -0.4476
 -0.4388  -0.4021  -0.4000  -0.3533  -0.3521
 -- Virtual --
  0.0239   0.0357   0.0369   0.0459   0.0527   0.0557   0.0561   0.0744
  0.0836   0.0894   0.0966   0.1036   0.1147   0.1296   0.1354   0.1466
  0.1510   0.1556   0.1605   0.1621   0.1670   0.1711   0.1723   0.1738
  0.1812   0.1823   0.1916   0.2019   0.2065   0.2163   0.2195   0.2265
  0.2382   0.2424   0.2517   0.2545   0.2598   0.2710   0.2730   0.2808
  0.2846   0.2928   0.3033   0.3091   0.3251   0.3331   0.3415   0.3469
  0.3507   0.3535   0.3582   0.3665   0.3708   0.3800   0.3914   0.3994
  0.4170   0.4269   0.4351   0.4416   0.4592   0.4658   0.4805   0.4856
  0.5516   0.5698   0.5703   0.5922   0.5976   0.6018   0.6077   0.6139
  0.6181   0.6221   0.6328   0.6533   0.6630   0.6776   0.6841   0.6942
  0.7031   0.7194   0.7281   0.7347   0.7377   0.7388   0.7466   0.7479
  0.7660   0.7773   0.7859   0.7931   0.8015   0.8244   0.8314   0.8412
  0.8448   0.8518   0.8712   0.8825   0.8922   0.9034   0.9260   0.9429
  0.9667   0.9936   1.0099   1.0152   1.0440   1.0600   1.0829   1.0924
  1.0970   1.1096   1.1271   1.1424   1.1446   1.1611   1.1805   1.1856
  1.1879   1.1987   1.2030   1.2096   1.2271   1.2379   1.2538   1.2637
  1.2732   1.2978   1.3016   1.3096   1.3468   1.3649   1.3865   1.3915
  1.3984   1.4192   1.4336   1.4438   1.4506   1.4521   1.4656   1.4702
  1.4867   1.4929   1.5092   1.5639   1.5662   1.5717   1.5783   1.5813
  1.5922   1.6060   1.6339   1.6748   1.6888   1.7103   1.7395   1.7661
  1.7791   1.7979   1.8085   1.8181   1.8347   1.8704   1.8884   1.9238
  1.9631   2.0471   2.0716   2.0833   2.0923   2.1124   2.1548   2.1888
  2.2542   2.2887   2.3234   2.3704   2.3758   2.4337   2.4655   2.5913
  2.6009   2.6281   2.6720   2.6744   2.7097   2.7295   2.7351   2.7941
  2.8055   2.8109   2.8271   2.8289   2.8352   2.8578   2.8701   2.8804
  2.9121   2.9142   2.9200   2.9284   2.9463   2.9527   2.9569   2.9621
  2.9887   3.0040   3.0307   3.0425   3.0737   3.1184   3.1580   3.1749
  3.1989   3.2164   3.2177   3.2297   3.2330   3.2584   3.2650   3.2820
  3.2954   3.3131   3.3290   3.3496   3.3662   3.3784   3.4010   3.4176
  3.4317   3.4497   3.4635   3.4770   3.4870   3.5021   3.5178   3.5259
  3.5431   3.5457   3.5792   3.5939   3.6130   3.6269   3.6378   3.6597
  3.6974   3.7126   3.7402   3.7723   3.8042   3.8099   3.8161   3.8358
  3.8597   3.8634   3.8717   3.9048   3.9078   3.9318   3.9342   3.9530
  3.9700   3.9792   3.9985   4.0633   4.0933   4.1260   4.1481   4.1568
  4.1645   4.1756   4.1958   4.2250   4.2596   4.3010   4.3328   4.3769
  4.3826   4.4170   4.4211   4.4488   4.4530   4.4652   4.5205   4.5431
  4.5540   4.5657   4.5761   4.5847   4.5956   4.6127   4.6293   4.6954
  4.7192   4.7333   4.7814   4.8102   4.8183   4.8593   4.8781   4.8983
  4.9602   5.0324   5.0622   5.0758   5.0816   5.0838   5.1260   5.1604
  5.1786   5.1840   5.2146   5.2233   5.2313   5.2449   5.3010   5.3176
  5.3405   5.3542   5.3817   5.4264   5.4984   5.5196   5.5428   5.5866
  5.6124   5.6696   5.7195   5.7415   5.8295   5.8512   5.8914   5.8987
  5.9632   6.0271   6.0842   6.2834   6.3693   6.4765   6.5944   6.6569
  6.6999   6.8381   6.8819   6.9642   7.0834   7.1211   7.1802   7.2366
  7.3001   7.3153   7.3822   7.4299   7.4831   7.6721   7.7884   7.8413
  8.0288   8.0993  24.1949  24.7977  24.8089  24.8218  25.0540  25.0732
 25.5365  50.4228  50.5137  50.6237
 
 Beta MOs
 -- Occupied --
-19.4503 -19.4011 -19.3625 -10.4636 -10.3607 -10.3515 -10.3510 -10.3484
-10.3473 -10.3470  -1.3202  -1.1902  -1.0030  -0.9694  -0.8864  -0.8768
 -0.7913  -0.7337  -0.7090  -0.6705  -0.6407  -0.6341  -0.5975  -0.5594
 -0.5550  -0.5448  -0.5264  -0.5248  -0.4922  -0.4743  -0.4492  -0.4470
 -0.4366  -0.3840  -0.3527  -0.3521
 -- Virtual --
 -0.0334   0.0240   0.0359   0.0371   0.0468   0.0528   0.0562   0.0566
  0.0748   0.0838   0.0899   0.0968   0.1042   0.1151   0.1310   0.1359
  0.1471   0.1516   0.1559   0.1607   0.1629   0.1676   0.1716   0.1726
  0.1746   0.1814   0.1826   0.1937   0.2022   0.2082   0.2167   0.2211
  0.2279   0.2403   0.2429   0.2527   0.2559   0.2613   0.2715   0.2790
  0.2816   0.2912   0.2940   0.3045   0.3099   0.3258   0.3344   0.3421
  0.3487   0.3509   0.3540   0.3593   0.3676   0.3716   0.3819   0.3927
  0.4018   0.4180   0.4270   0.4363   0.4431   0.4599   0.4667   0.4813
  0.4863   0.5518   0.5699   0.5706   0.5923   0.5976   0.6019   0.6078
  0.6140   0.6183   0.6221   0.6330   0.6534   0.6632   0.6779   0.6851
  0.6949   0.7032   0.7194   0.7281   0.7347   0.7382   0.7392   0.7470
  0.7481   0.7662   0.7774   0.7864   0.7938   0.8020   0.8252   0.8316
  0.8418   0.8449   0.8524   0.8715   0.8827   0.8922   0.9034   0.9266
  0.9442   0.9672   0.9951   1.0121   1.0162   1.0449   1.0605   1.0848
  1.0935   1.0992   1.1112   1.1285   1.1453   1.1513   1.1688   1.1881
  1.1898   1.1964   1.2016   1.2109   1.2185   1.2307   1.2439   1.2545
  1.2685   1.2744   1.3008   1.3045   1.3128   1.3476   1.3666   1.3871
  1.3918   1.4005   1.4236   1.4347   1.4447   1.4513   1.4575   1.4668
  1.4724   1.4921   1.4947   1.5126   1.5651   1.5695   1.5751   1.5828
  1.5841   1.5934   1.6171   1.6512   1.6844   1.6896   1.7197   1.7437
  1.7792   1.7815   1.7990   1.8093   1.8189   1.8359   1.8782   1.8920
  1.9294   1.9660   2.0493   2.0746   2.0842   2.0926   2.1145   2.1619
  2.1990   2.2559   2.3060   2.3290   2.3799   2.3803   2.4359   2.4677
  2.5916   2.6010   2.6285   2.6723   2.6811   2.7120   2.7311   2.7355
  2.7941   2.8061   2.8111   2.8273   2.8290   2.8355   2.8578   2.8703
  2.8805   2.9122   2.9143   2.9202   2.9284   2.9465   2.9529   2.9573
  2.9622   2.9888   3.0041   3.0308   3.0427   3.0738   3.1187   3.1582
  3.1750   3.1997   3.2165   3.2176   3.2297   3.2330   3.2584   3.2649
  3.2823   3.2963   3.3133   3.3291   3.3497   3.3663   3.3785   3.4011
  3.4178   3.4318   3.4501   3.4636   3.4772   3.4872   3.5021   3.5179
  3.5261   3.5432   3.5458   3.5794   3.5940   3.6129   3.6269   3.6378
  3.6597   3.6973   3.7133   3.7402   3.7732   3.8043   3.8105   3.8164
  3.8360   3.8598   3.8636   3.8719   3.9049   3.9079   3.9320   3.9346
  3.9532   3.9702   3.9795   3.9987   4.0635   4.0936   4.1260   4.1483
  4.1568   4.1646   4.1758   4.1958   4.2255   4.2601   4.3022   4.3328
  4.3772   4.3842   4.4177   4.4222   4.4491   4.4535   4.4654   4.5206
  4.5450   4.5580   4.5706   4.5762   4.5862   4.5967   4.6265   4.6381
  4.6974   4.7280   4.7441   4.7822   4.8171   4.8198   4.8770   4.8796
  4.9057   4.9639   5.0447   5.0652   5.1212   5.1301   5.1333   5.1634
  5.1826   5.1836   5.1945   5.2189   5.2385   5.2600   5.2800   5.3110
  5.3251   5.3471   5.3754   5.3931   5.4358   5.5017   5.5242   5.5519
  5.5985   5.6251   5.6721   5.7246   5.7547   5.8326   5.8515   5.8914
  5.9030   5.9640   6.0340   6.0853   6.2839   6.3818   6.5240   6.6064
  6.6570   6.7089   6.9176   6.9617   7.0210   7.1042   7.1484   7.2105
  7.2629   7.3058   7.3216   7.4178   7.4525   7.5077   7.6748   7.7982
  7.8478   8.0406   8.1197  24.1949  24.7977  24.8089  24.8216  25.0540
 25.0732  25.5365  50.4356  50.5222  50.6250
 --------------------------------------------------------------
 
          Ground-State Mulliken Net Atomic Charges

     Atom                 Charge (a.u.)    Spin (a.u.)
  --------------------------------------------------------
      1 C                     0.371811      -0.027375
      2 C                    -0.312662       0.004576
      3 C                    -0.383158      -0.001198
      4 C                    -0.343793       0.001506
      5 C                    -0.833974       0.001024
      6 C                     0.234991       0.027798
      7 C                    -0.319431      -0.002643
      8 H                     0.285573      -0.000014
      9 H                     0.280728       0.000023
     10 H                     0.285565      -0.000045
     11 H                     0.258920       0.000256
     12 O                    -0.333337       0.000484
     13 H                     0.315418       0.002792
     14 H                     0.355614       0.001292
     15 H                     0.280676      -0.000469
     16 O                     0.051462       0.313972
     17 O                    -0.194403       0.678021
  --------------------------------------------------------
  Sum of atomic charges =    -0.000000
  Sum of spin   charges =     1.000000

 -----------------------------------------------------------------
                    Cartesian Multipole Moments
 -----------------------------------------------------------------
    Charge (ESU x 10^10)
                 0.0000
    Dipole Moment (Debye)
         X      -2.0405      Y       0.7203      Z       2.4477
       Tot       3.2671
    Quadrupole Moments (Debye-Ang)
        XX     -48.6478     XY      -1.2906     YY     -51.1426
        XZ      -0.1070     YZ      -8.6628     ZZ     -71.3361
    Octopole Moments (Debye-Ang^2)
       XXX     154.4376    XXY      17.4047    XYY      61.4020
       YYY      69.2542    XXZ      47.1175    XYZ       9.4322
       YYZ      47.0853    XZZ      64.2939    YZZ      19.1204
       ZZZ     214.5295
    Hexadecapole Moments (Debye-Ang^3)
      XXXX    -731.2263   XXXY    -145.5714   XXYY    -232.1201
      XYYY    -154.3397   YYYY    -577.3158   XXXZ     -29.3484
      XXYZ      43.3663   XYYZ     -28.3209   YYYZ     156.0334
      XXZZ    -327.0206   XYZZ     -45.0950   YYZZ    -263.3652
      XZZZ     -45.2954   YZZZ     238.1843   ZZZZ   -1515.2926
 -----------------------------------------------------------------
 Calculating analytic gradient of the SCF energy
 Gradient of CDS energy
            1           2           3           4           5           6
    1   0.0002577   0.0003833  -0.0001249  -0.0004940  -0.0001393   0.0001326
    2   0.0001287  -0.0002635  -0.0003612  -0.0000651   0.0002540  -0.0000105
    3  -0.0001434   0.0001908   0.0003524   0.0001284  -0.0001950  -0.0002387
            7           8           9          10          11          12
    1   0.0038010   0.0001485  -0.0000488  -0.0001976  -0.0000905  -0.0039325
    2   0.0029472  -0.0001153  -0.0001439  -0.0000282   0.0001362  -0.0028456
    3   0.0013771   0.0000858   0.0001403   0.0000543  -0.0001038  -0.0012586
           13          14          15          16          17
    1  -0.0001348   0.0002421   0.0001488   0.0000879  -0.0000395
    2  -0.0000325   0.0004154   0.0000886   0.0000132  -0.0001175
    3  -0.0001793  -0.0000318  -0.0000960  -0.0000299  -0.0000527
 Gradient of SCF Energy
            1           2           3           4           5           6
    1  -0.0071274  -0.0036472   0.0027101   0.0051572   0.0092964   0.0033431
    2   0.0024845   0.0048110   0.0039075  -0.0005476  -0.0074465   0.0023561
    3   0.0015911  -0.0039831  -0.0041008  -0.0003266   0.0036657  -0.0033327
            7           8           9          10          11          12
    1   0.0102639   0.0035901  -0.0016607  -0.0070226  -0.0065993  -0.0000061
    2  -0.0085597  -0.0030916  -0.0045635  -0.0008840   0.0056902  -0.0095297
    3   0.0009761   0.0023874   0.0045145   0.0018971  -0.0040582   0.0104929
           13          14          15          16          17
    1  -0.0085129   0.0000494   0.0010777  -0.0005714  -0.0003403
    2   0.0071429   0.0105151  -0.0010672   0.0000452  -0.0012628
    3  -0.0013960  -0.0076097   0.0004231   0.0009240  -0.0020648
 Max gradient component =       1.052E-02
 RMS gradient           =       4.978E-03
 Computing fast CPCM-SWIG gradient
 Updating gradient with PCM contributions...
 -- total gradient after adding PCM contribution --
---------------------------------------------------
  Atom         X              Y              Z     
---------------------------------------------------
   1       0.000005      -0.000103       0.000039
   2      -0.000014       0.000044      -0.000036
   3       0.000002       0.000076      -0.000060
   4       0.000112       0.000013      -0.000007
   5       0.000154       0.000014       0.000032
   6      -0.000165      -0.000171      -0.000063
   7       0.000011      -0.000004      -0.000005
   8      -0.000166       0.000114      -0.000089
   9       0.000043       0.000160      -0.000146
  10       0.000212       0.000049      -0.000053
  11       0.000156      -0.000100       0.000093
  12      -0.000508       0.000543       0.000135
  13       0.000046      -0.000098       0.000164
  14       0.000336      -0.000579      -0.000189
  15      -0.000217      -0.000031       0.000039
  16      -0.000030       0.000007       0.000059
  17       0.000021       0.000065       0.000086
---------------------------------------------------
 Number of fixed atoms: 0
 Gradient time:  CPU 300.94 s  wall 43.08 s
 Geometry Optimization Parameters
   NAtoms,    NIC,     NZ,  NCons,   NDum,   NFix, NCnnct, MaxDiis
       17     113       0       0       0       0       0       0

 Cartesian Hessian Update
 Hessian updated using BFGS update


** GEOMETRY OPTIMIZATION IN DELOCALIZED INTERNAL COORDINATES **
   Searching for a Minimum

   Optimization Cycle:   3

                       Coordinates (Angstroms)
     ATOM                X               Y               Z
      1  C        -0.1928364818   -0.9279781672   -0.1333931905
      2  C        -0.5231679130   -1.8924332412    0.8052482164
      3  C        -1.8512037668   -2.0846564986    1.1683433924
      4  C        -2.8496218764   -1.3128701893    0.5919044235
      5  C        -2.5212932311   -0.3464676740   -0.3491994184
      6  C        -1.1950464804   -0.1527263423   -0.7086537012
      7  C        -0.8566481937    0.8736476687   -1.7402327655
      8  H         0.2536188043   -2.4952976870    1.2542568570
      9  H        -2.1062998706   -2.8370294301    1.9017362852
     10  H        -3.8822852636   -1.4603947659    0.8756702034
     11  H        -3.2933111961    0.2616425709   -0.8019362016
     12  O         0.2753436499    1.5900436428   -1.3942561931
     13  H        -1.6968234509    1.5159295920   -1.9966566888
     14  H         0.3811816937    2.3196340881   -2.0174654440
     15  H         0.8392497785   -0.7751749170   -0.4180580598
     16  O        -0.5744919056    0.1068920469   -2.9869239795
     17  O        -0.3557850965    0.9186679031   -3.9808879353
   Point Group: c1    Number of degrees of freedom:    45


   Energy is   -496.500577041

 Hessian updated using BFGS update

 45 Hessian modes will be used to form the next step
  Hessian Eigenvalues:
     0.003199    0.007342    0.009892    0.017716    0.022997    0.023140
     0.023198    0.023254    0.023259    0.023287    0.023304    0.023393
     0.066825    0.086933    0.096265    0.159460    0.159998    0.160000
     0.160000    0.160009    0.160106    0.189587    0.202762    0.219923
     0.220003    0.234857    0.245212    0.260146    0.326851    0.344631
     0.346406    0.351771    0.352315    0.352565    0.352732    0.357039
     0.423002    0.423795    0.464304    0.466645    0.467847    0.481916
     0.498193    0.537930    0.693780

 Minimum search - taking simple RFO step
 Searching for Lamda that Minimizes Along All modes
 Value Taken    Lamda =  -0.00006277
 Step Taken.  Stepsize is  0.102187

                             Maximum     Tolerance    Cnvgd?
         Gradient           0.000628      0.000300      NO
         Displacement       0.055195      0.001200      NO
         Energy change     -0.000052      0.000001      NO


 New Cartesian Coordinates Obtained by Inverse Iteration

 Displacement from previous Coordinates is:  0.104580
 ----------------------------------------------------------------
             Standard Nuclear Orientation (Angstroms)
    I     Atom           X                Y                Z
 ----------------------------------------------------------------
    1      C      -0.1890708785    -0.9302818695    -0.1310994885
    2      C      -0.5230782314    -1.8929685943     0.8088663196
    3      C      -1.8526314443    -2.0835260293     1.1691972777
    4      C      -2.8492602459    -1.3117707442     0.5885177858
    5      C      -2.5172294918    -0.3470594810    -0.3537948659
    6      C      -1.1891954773    -0.1551151333    -0.7106305939
    7      C      -0.8499714964     0.8709617719    -1.7428329953
    8      H       0.2522396204    -2.4956130787     1.2613388367
    9      H      -2.1101821406    -2.8343181638     1.9037507595
   10      H      -3.8830229348    -1.4578118808     0.8701320121
   11      H      -3.2877187121     0.2609590945    -0.8097987460
   12      O       0.2865117556     1.5816315509    -1.4004155747
   13      H      -1.6879809417     1.5177059188    -1.9949872462
   14      H       0.3691657681     2.3386224505    -1.9927445830
   15      H       0.8444221337    -0.7791843078    -0.4126824943
   16      O      -0.5752612681     0.1052903012    -2.9913909507
   17      O      -0.3871568150     0.9139067947    -3.9919296528
 ----------------------------------------------------------------
 Nuclear Repulsion Energy =         503.30735484 hartrees
 There are       37 alpha and       36 beta electrons
 Discretize the solute cavity surface with Lebedev spheres
	Using 110 Lebedev grid points for each H atom
	Using 194 Lebedev grid points for other atoms
	Atomic van der Waals radii will be scaled by 1.20
 Remove points where switching function is < 1.0e-08
 Keep 1304 surface tesserae and discard 1406 interior tesserae
 Molecular Surface Area = 159.100 Angst**2
 Applying Cartesian multipole field
    Component          Value
    ---------          -----
     (2,0,0)        1.00000E-11
     (0,2,0)        2.00000E-11
     (0,0,2)       -3.00000E-11
 Nucleus-field energy     =    -0.0000000142 hartrees
 Requested basis set is 6-311++G(2df,2p)
 There are 122 shells and 410 basis functions
 A cutoff of  1.0D-12 yielded   6550 shell pairs
 There are     74372 function pairs (     93188 Cartesian)
 Smallest overlap matrix eigenvalue = 8.56E-07
 Linear dependence detected in AO basis
 Tighter screening thresholds may be required for diffuse basis sets
 Use S2THRESH > 14 and THRESH = 14 in case of SCF convergence issues
 Number of orthogonalized atomic orbitals = 409
 Maximum deviation from orthogonality = 6.413E-11
 Guess MOs from SCF MO coefficient file

 -----------------------------------------------------------------------
  General SCF calculation program by
  Eric Jon Sundstrom, Paul Horn, Yuezhi Mao, Dmitri Zuev, Alec White,
  David Stuck, Shaama M.S., Shane Yost, Joonho Lee, David Small,
  Daniel Levine, Susi Lehtola, Hugh Burton, Evgeny Epifanovsky,
  Bang C. Huynh
 -----------------------------------------------------------------------
 Exchange:     0.1500 Hartree-Fock + 1.0000 wB97M-V + LR-HF
 Correlation:  1.0000 wB97M-V
 Using SG-2 standard quadrature grid
 Nonlocal Correlation:  VV10 with C = 0.0100 and b = 6.00 and scale = 1.00000
 Grid used for NLC:  SG-1 standard quadrature
 
 Citation of the SMD model:
 Marenich, A.V.; Cramer, C.J.; Truhlar, D.G.
 J. Phys. Chem. B 2009, 113, 6378-6396.
 iSolventCode=           1
 Solvent: water                                                           
 
 vradii
[...]
     14 H                     0.357065       0.001627
     15 H                     0.280779      -0.000593
     16 O                     0.049853       0.313376
     17 O                    -0.197631       0.678657
  --------------------------------------------------------
  Sum of atomic charges =     0.000000
  Sum of spin   charges =     1.000000

 -----------------------------------------------------------------
                    Cartesian Multipole Moments
 -----------------------------------------------------------------
    Charge (ESU x 10^10)
                 0.0000
    Dipole Moment (Debye)
         X      -2.0344      Y       0.8670      Z       2.5917
       Tot       3.4069
    Quadrupole Moments (Debye-Ang)
        XX     -48.8379     XY      -1.3355     YY     -50.6528
        XZ      -0.2224     YZ      -8.6442     ZZ     -72.0403
    Octopole Moments (Debye-Ang^2)
       XXX     154.7962    XXY      17.2718    XYY      61.3398
       YYY      71.6339    XXZ      47.6953    XYZ       9.4022
       YYZ      46.9979    XZZ      65.4469    YZZ      18.6611
       ZZZ     218.0523
    Hexadecapole Moments (Debye-Ang^3)
      XXXX    -731.9182   XXXY    -145.2215   XXYY    -231.8901
      XYYY    -154.6513   YYYY    -570.0624   XXXZ     -33.3543
      XXYZ      43.9022   XYYZ     -29.6265   YYYZ     154.0244
      XXZZ    -329.9336   XYZZ     -44.7344   YYZZ    -264.8600
      XZZZ     -54.9563   YZZZ     240.4113   ZZZZ   -1534.6416
 -----------------------------------------------------------------
 Calculating analytic gradient of the SCF energy
 Gradient of CDS energy
            1           2           3           4           5           6
    1   0.0002605   0.0003819  -0.0001266  -0.0004949  -0.0001381   0.0001267
    2   0.0001305  -0.0002634  -0.0003609  -0.0000652   0.0002550  -0.0000171
    3  -0.0001446   0.0001945   0.0003525   0.0001249  -0.0001925  -0.0002494
            7           8           9          10          11          12
    1   0.0038329   0.0001484  -0.0000496  -0.0001983  -0.0000909  -0.0039564
    2   0.0028374  -0.0001151  -0.0001439  -0.0000284   0.0001363  -0.0027535
    3   0.0013316   0.0000872   0.0001406   0.0000532  -0.0001027  -0.0012160
           13          14          15          16          17
    1  -0.0001295   0.0002353   0.0001492   0.0000856  -0.0000362
    2  -0.0000213   0.0004215   0.0000879   0.0000118  -0.0001117
    3  -0.0001806  -0.0000222  -0.0000910  -0.0000342  -0.0000514
 Gradient of SCF Energy
            1           2           3           4           5           6
    1  -0.0070573  -0.0035912   0.0026954   0.0049855   0.0089278   0.0036638
    2   0.0029358   0.0049517   0.0039054  -0.0006394  -0.0076721   0.0022228
    3   0.0015114  -0.0041544  -0.0040708  -0.0001724   0.0038333  -0.0029932
            7           8           9          10          11          12
    1   0.0101804   0.0037262  -0.0017248  -0.0072394  -0.0067148   0.0011867
    2  -0.0090158  -0.0031856  -0.0046838  -0.0009089   0.0058409  -0.0113333
    3   0.0006086   0.0025005   0.0046573   0.0019216  -0.0042081   0.0098459
           13          14          15          16          17
    1  -0.0085757  -0.0008972   0.0012476  -0.0005159  -0.0002972
    2   0.0076336   0.0122339  -0.0010531  -0.0000547  -0.0011775
    3  -0.0013648  -0.0070894   0.0004272   0.0011527  -0.0024053
 Max gradient component =       1.223E-02
 RMS gradient           =       5.144E-03
 Computing fast CPCM-SWIG gradient
 Updating gradient with PCM contributions...
 -- total gradient after adding PCM contribution --
---------------------------------------------------
  Atom         X              Y              Z     
---------------------------------------------------
   1      -0.000008      -0.000030      -0.000023
   2      -0.000015       0.000010      -0.000002
   3       0.000002       0.000017      -0.000010
   4       0.000021       0.000023       0.000004
   5       0.000024       0.000005       0.000049
   6      -0.000082       0.000009      -0.000009
   7      -0.000024      -0.000049      -0.000043
   8      -0.000005      -0.000007      -0.000004
   9      -0.000005       0.000009       0.000007
  10      -0.000002       0.000020       0.000009
  11       0.000003       0.000010       0.000002
  12       0.000101      -0.000005       0.000061
  13       0.000003      -0.000014      -0.000015
  14      -0.000012       0.000054      -0.000028
  15       0.000003      -0.000010      -0.000013
  16      -0.000028      -0.000173       0.000180
  17       0.000024       0.000131      -0.000164
---------------------------------------------------
 Number of fixed atoms: 0
 Gradient time:  CPU 303.69 s  wall 44.00 s
 Geometry Optimization Parameters
   NAtoms,    NIC,     NZ,  NCons,   NDum,   NFix, NCnnct, MaxDiis
       17     113       0       0       0       0       0       0

 Cartesian Hessian Update
 Hessian updated using BFGS update


** GEOMETRY OPTIMIZATION IN DELOCALIZED INTERNAL COORDINATES **
   Searching for a Minimum

   Optimization Cycle:   7

                       Coordinates (Angstroms)
     ATOM                X               Y               Z
      1  C        -0.1873587235   -0.9272121728   -0.1256294172
      2  C        -0.5229556116   -1.8904036510    0.8130722998
      3  C        -1.8532008719   -2.0837148725    1.1679779317
      4  C        -2.8489326723   -1.3140927829    0.5831552321
      5  C        -2.5153718359   -0.3491196617   -0.3578324894
      6  C        -1.1865638031   -0.1541658210   -0.7091354586
      7  C        -0.8445588915    0.8710398236   -1.7416402783
      8  H         0.2519659481   -2.4913929127    1.2685405933
      9  H        -2.1121829467   -2.8349085563    1.9016707827
     10  H        -3.8835832755   -1.4620657724    0.8606235249
     11  H        -3.2854173629    0.2573215221   -0.8169065556
     12  O         0.3027996171    1.5694314897   -1.4095387576
     13  H        -1.6776378704    1.5269804708   -1.9858314488
     14  H         0.3715844895    2.3430714210   -1.9826727142
     15  H         0.8468882958   -0.7738594863   -0.4032091831
     16  O        -0.5904475336    0.1029550120   -2.9938705408
     17  O        -0.4144477514    0.9115645502   -3.9992777206
   Point Group: c1    Number of degrees of freedom:    45


   Energy is   -496.500630798

 Hessian updated using BFGS update

 45 Hessian modes will be used to form the next step
  Hessian Eigenvalues:
     0.001569    0.003160    0.006149    0.017664    0.022948    0.023152
     0.023224    0.023255    0.023283    0.023303    0.023369    0.023420
     0.066839    0.086822    0.097450    0.159987    0.160000    0.160005
     0.160009    0.160101    0.161781    0.191417    0.209583    0.219993
     0.220245    0.235052    0.258326    0.271215    0.330680    0.340911
     0.344848    0.351716    0.352285    0.352564    0.352737    0.357008
     0.423029    0.424122    0.465306    0.466759    0.467826    0.482097
     0.503262    0.538749    0.861094

 Minimum search - taking simple RFO step
 Searching for Lamda that Minimizes Along All modes
 Value Taken    Lamda =  -0.00000224
 Step Taken.  Stepsize is  0.035358

                             Maximum     Tolerance    Cnvgd?
         Gradient           0.000124      0.000300     YES
         Displacement       0.025178      0.001200      NO
         Energy change     -0.000001      0.000001     YES

 Final energy is   -496.500630797658     


 ******************************
 **  OPTIMIZATION CONVERGED  **
 ******************************

                       Coordinates (Angstroms)
     ATOM                X               Y               Z
      1  C        -0.1873587235   -0.9272121728   -0.1256294172
      2  C        -0.5229556116   -1.8904036510    0.8130722998
      3  C        -1.8532008719   -2.0837148725    1.1679779317
      4  C        -2.8489326723   -1.3140927829    0.5831552321
      5  C        -2.5153718359   -0.3491196617   -0.3578324894
      6  C        -1.1865638031   -0.1541658210   -0.7091354586
      7  C        -0.8445588915    0.8710398236   -1.7416402783
      8  H         0.2519659481   -2.4913929127    1.2685405933
      9  H        -2.1121829467   -2.8349085563    1.9016707827
     10  H        -3.8835832755   -1.4620657724    0.8606235249
     11  H        -3.2854173629    0.2573215221   -0.8169065556
     12  O         0.3027996171    1.5694314897   -1.4095387576
     13  H        -1.6776378704    1.5269804708   -1.9858314488
     14  H         0.3715844895    2.3430714210   -1.9826727142
     15  H         0.8468882958   -0.7738594863   -0.4032091831
     16  O        -0.5904475336    0.1029550120   -2.9938705408
     17  O        -0.4144477514    0.9115645502   -3.9992777206

Z-matrix Print:
$molecule
0 2
O 
O  1 1.302179
C  1 1.490841 2 110.587369
H  3 1.088075 1 104.630501 2 53.956738 0
O  3 1.383645 1 108.681698 2 -66.555900 0
H  5 0.965263 3 108.730853 1 77.065855 0
C  3 1.494684 1 105.417279 2 173.539224 0
C  7 1.388219 3 119.350843 1 -101.885067 0
H  8 1.082354 7 119.668926 3 -1.416688 0
C  8 1.388486 7 119.937344 3 178.898637 0
H  10 1.081382 8 119.923418 7 179.666179 0
C  10 1.387738 8 119.911137 7 -0.153782 0
H  12 1.081512 10 119.951997 8 179.943820 0
C  12 1.390280 10 120.122198 8 -0.017786 0
H  14 1.081269 12 120.060571 10 -179.930393 0
C  14 1.386190 12 120.074718 10 0.049062 0
H  16 1.081774 14 120.246957 12 179.946685 0
$end

 
 --------------------------------------------------------------
 
                    Orbital Energies (a.u.)
 --------------------------------------------------------------
 
 Alpha MOs
 -- Occupied --
-19.4600 -19.4196 -19.3629 -10.4633 -10.3609 -10.3515 -10.3510 -10.3484
-10.3473 -10.3471  -1.3452  -1.1923  -1.0161  -0.9868  -0.8917  -0.8767
 -0.7973  -0.7345  -0.7109  -0.6759  -0.6525  -0.6446  -0.6137  -0.5909
 -0.5623  -0.5534  -0.5355  -0.5263  -0.4950  -0.4837  -0.4538  -0.4479
 -0.4394  -0.4022  -0.3994  -0.3530  -0.3520
 -- Virtual --
  0.0239   0.0356   0.0370   0.0459   0.0526   0.0558   0.0561   0.0744
  0.0837   0.0895   0.0969   0.1032   0.1146   0.1294   0.1354   0.1462
  0.1511   0.1555   0.1606   0.1621   0.1668   0.1707   0.1726   0.1739
  0.1811   0.1818   0.1920   0.2018   0.2060   0.2164   0.2192   0.2267
  0.2374   0.2440   0.2517   0.2545   0.2600   0.2711   0.2729   0.2810
  0.2837   0.2921   0.3033   0.3079   0.3241   0.3327   0.3412   0.3465
  0.3505   0.3536   0.3590   0.3660   0.3720   0.3830   0.3912   0.3985
  0.4180   0.4267   0.4349   0.4420   0.4585   0.4655   0.4802   0.4836
  0.5503   0.5690   0.5700   0.5930   0.5973   0.6031   0.6073   0.6137
  0.6194   0.6225   0.6337   0.6541   0.6632   0.6761   0.6822   0.6950
  0.7029   0.7212   0.7281   0.7337   0.7378   0.7393   0.7465   0.7480
  0.7649   0.7781   0.7860   0.7897   0.8056   0.8248   0.8313   0.8398
  0.8451   0.8524   0.8715   0.8820   0.8921   0.9027   0.9216   0.9420
  0.9667   0.9967   1.0087   1.0157   1.0438   1.0598   1.0839   1.0910
  1.0986   1.1090   1.1266   1.1405   1.1492   1.1598   1.1792   1.1872
  1.1884   1.1971   1.2016   1.2110   1.2266   1.2398   1.2543   1.2679
  1.2734   1.2967   1.3000   1.3078   1.3453   1.3659   1.3868   1.3911
  1.3980   1.4197   1.4351   1.4436   1.4486   1.4528   1.4663   1.4710
  1.4873   1.4905   1.5111   1.5620   1.5643   1.5688   1.5754   1.5801
  1.5919   1.6114   1.6319   1.6738   1.6910   1.7117   1.7402   1.7699
  1.7787   1.7962   1.8065   1.8205   1.8291   1.8723   1.8893   1.9247
  1.9638   2.0455   2.0703   2.0831   2.0921   2.1155   2.1524   2.1854
  2.2542   2.2904   2.3277   2.3689   2.3738   2.4286   2.4645   2.5915
  2.6014   2.6276   2.6721   2.6753   2.7090   2.7283   2.7337   2.7936
  2.7968   2.8099   2.8270   2.8294   2.8384   2.8578   2.8697   2.8831
  2.9102   2.9136   2.9185   2.9282   2.9461   2.9547   2.9608   2.9632
  2.9896   3.0024   3.0303   3.0423   3.0742   3.1232   3.1596   3.1750
  3.1994   3.2159   3.2175   3.2300   3.2340   3.2572   3.2650   3.2825
  3.2976   3.3133   3.3273   3.3501   3.3655   3.3780   3.4008   3.4178
  3.4305   3.4497   3.4637   3.4760   3.4873   3.5028   3.5166   3.5268
  3.5420   3.5432   3.5784   3.5949   3.6129   3.6272   3.6381   3.6576
  3.6991   3.7135   3.7409   3.7718   3.8040   3.8104   3.8165   3.8360
  3.8586   3.8621   3.8716   3.9045   3.9050   3.9323   3.9327   3.9525
  3.9693   3.9796   3.9995   4.0617   4.0926   4.1249   4.1468   4.1564
  4.1622   4.1765   4.1953   4.2215   4.2603   4.2928   4.3309   4.3763
  4.3859   4.4174   4.4197   4.4466   4.4527   4.4647   4.5201   4.5413
  4.5530   4.5657   4.5752   4.5850   4.5947   4.6109   4.6253   4.6950
  4.7197   4.7327   4.7796   4.8089   4.8173   4.8590   4.8765   4.8984
  4.9597   5.0327   5.0621   5.0764   5.0819   5.0834   5.1262   5.1613
  5.1784   5.1824   5.2148   5.2233   5.2303   5.2457   5.3010   5.3208
  5.3409   5.3539   5.3814   5.4165   5.4947   5.5205   5.5449   5.5809
  5.6151   5.6738   5.7153   5.7379   5.8272   5.8492   5.8890   5.8953
  5.9572   6.0342   6.0897   6.2806   6.3704   6.4754   6.5944   6.6549
  6.6990   6.8368   6.8832   6.9633   7.0821   7.1167   7.1760   7.2308
  7.3013   7.3227   7.3775   7.4268   7.4912   7.6679   7.7868   7.8438
  8.0274   8.0977  24.1934  24.7966  24.8078  24.8200  25.0526  25.0717
 25.5347  50.4218  50.5139  50.6227
 
 Beta MOs
 -- Occupied --
-19.4498 -19.4007 -19.3627 -10.4637 -10.3609 -10.3515 -10.3510 -10.3484
-10.3473 -10.3471  -1.3193  -1.1903  -1.0027  -0.9691  -0.8862  -0.8766
 -0.7912  -0.7338  -0.7090  -0.6697  -0.6409  -0.6341  -0.5968  -0.5592
 -0.5548  -0.5457  -0.5262  -0.5237  -0.4922  -0.4729  -0.4502  -0.4465
 -0.4378  -0.3834  -0.3525  -0.3520
 -- Virtual --
 -0.0331   0.0240   0.0358   0.0371   0.0469   0.0526   0.0563   0.0565
  0.0748   0.0838   0.0900   0.0971   0.1039   0.1150   0.1308   0.1359
  0.1467   0.1516   0.1558   0.1608   0.1629   0.1674   0.1712   0.1730
  0.1746   0.1814   0.1821   0.1942   0.2021   0.2078   0.2169   0.2206
  0.2281   0.2390   0.2446   0.2529   0.2556   0.2620   0.2717   0.2784
  0.2818   0.2903   0.2933   0.3044   0.3088   0.3251   0.3339   0.3417
  0.3483   0.3507   0.3540   0.3601   0.3671   0.3728   0.3848   0.3929
  0.4009   0.4189   0.4268   0.4361   0.4436   0.4593   0.4663   0.4811
  0.4843   0.5505   0.5692   0.5702   0.5930   0.5974   0.6032   0.6075
  0.6139   0.6196   0.6225   0.6340   0.6543   0.6634   0.6765   0.6832
  0.6956   0.7030   0.7213   0.7281   0.7338   0.7380   0.7400   0.7469
  0.7483   0.7652   0.7783   0.7863   0.7906   0.8060   0.8258   0.8314
  0.8403   0.8452   0.8530   0.8718   0.8822   0.8921   0.9027   0.9221
  0.9434   0.9671   0.9982   1.0110   1.0169   1.0445   1.0602   1.0859
  1.0924   1.1008   1.1106   1.1280   1.1430   1.1546   1.1675   1.1892
  1.1897   1.1953   1.2018   1.2106   1.2193   1.2308   1.2454   1.2552
  1.2720   1.2751   1.3000   1.3024   1.3108   1.3460   1.3676   1.3873
  1.3918   1.4001   1.4233   1.4365   1.4444   1.4491   1.4580   1.4679
  1.4730   1.4922   1.4933   1.5151   1.5647   1.5690   1.5703   1.5795
  1.5826   1.5926   1.6222   1.6509   1.6831   1.6921   1.7200   1.7435
  1.7775   1.7877   1.7978   1.8075   1.8213   1.8298   1.8795   1.8935
  1.9300   1.9665   2.0478   2.0731   2.0839   2.0925   2.1177   2.1594
  2.1960   2.2561   2.3081   2.3327   2.3762   2.3805   2.4311   2.4666
  2.5918   2.6015   2.6280   2.6726   2.6818   2.7113   2.7298   2.7343
  2.7938   2.7974   2.8100   2.8272   2.8296   2.8386   2.8579   2.8699
  2.8832   2.9104   2.9136   2.9187   2.9283   2.9463   2.9549   2.9610
  2.9634   2.9897   3.0025   3.0304   3.0424   3.0743   3.1236   3.1598
  3.1751   3.2000   3.2160   3.2174   3.2300   3.2340   3.2572   3.2650
  3.2828   3.2984   3.3137   3.3274   3.3503   3.3657   3.3781   3.4009
  3.4180   3.4307   3.4500   3.4638   3.4762   3.4874   3.5028   3.5167
  3.5270   3.5422   3.5432   3.5786   3.5950   3.6129   3.6272   3.6381
  3.6575   3.6991   3.7141   3.7409   3.7727   3.8042   3.8107   3.8170
  3.8362   3.8587   3.8623   3.8719   3.9045   3.9051   3.9324   3.9330
  3.9526   3.9694   3.9800   3.9997   4.0618   4.0929   4.1250   4.1470
  4.1564   4.1624   4.1767   4.1954   4.2219   4.2608   4.2939   4.3310
  4.3766   4.3875   4.4181   4.4207   4.4469   4.4532   4.4650   4.5201
  4.5428   4.5565   4.5702   4.5753   4.5865   4.5961   4.6233   4.6367
  4.6967   4.7272   4.7450   4.7803   4.8147   4.8195   4.8759   4.8795
  4.9058   4.9634   5.0448   5.0652   5.1199   5.1305   5.1347   5.1635
  5.1816   5.1836   5.1948   5.2195   5.2392   5.2615   5.2793   5.3092
  5.3274   5.3470   5.3773   5.3919   5.4258   5.4986   5.5250   5.5542
  5.5899   5.6302   5.6763   5.7199   5.7523   5.8302   5.8496   5.8891
  5.8993   5.9582   6.0407   6.0909   6.2811   6.3828   6.5229   6.6064
  6.6549   6.7083   6.9167   6.9633   7.0195   7.1004   7.1462   7.2066
  7.2564   7.3067   7.3292   7.4136   7.4506   7.5150   7.6705   7.7960
  7.8508   8.0392   8.1180  24.1934  24.7966  24.8078  24.8197  25.0526
 25.0717  25.5347  50.4346  50.5225  50.6239
 --------------------------------------------------------------
 
          Ground-State Mulliken Net Atomic Charges

     Atom                 Charge (a.u.)    Spin (a.u.)
  --------------------------------------------------------
      1 C                     0.371172      -0.026178
      2 C                    -0.327690       0.004465
      3 C                    -0.376174      -0.001038
      4 C                    -0.340354       0.001560
      5 C                    -0.827314      -0.000612
      6 C                     0.252322       0.025331
      7 C                    -0.329626       0.000387
      8 H                     0.285180      -0.000005
      9 H                     0.280751       0.000018
     10 H                     0.285490      -0.000043
     11 H                     0.259662       0.000213
     12 O                    -0.336681       0.000240
     13 H                     0.313197       0.002597
     14 H                     0.357065       0.001627
     15 H                     0.280779      -0.000593
     16 O                     0.049853       0.313376
     17 O                    -0.197631       0.678657
  --------------------------------------------------------
  Sum of atomic charges =     0.000000
  Sum of spin   charges =     1.000000

 -----------------------------------------------------------------
                    Cartesian Multipole Moments
 -----------------------------------------------------------------
    Charge (ESU x 10^10)
                 0.0000
    Dipole Moment (Debye)
         X      -2.0344      Y       0.8670      Z       2.5917
       Tot       3.4069
    Quadrupole Moments (Debye-Ang)
        XX     -48.8379     XY      -1.3355     YY     -50.6528
        XZ      -0.2224     YZ      -8.6442     ZZ     -72.0403
    Octopole Moments (Debye-Ang^2)
       XXX     154.7962    XXY      17.2718    XYY      61.3398
       YYY      71.6339    XXZ      47.6953    XYZ       9.4022
       YYZ      46.9979    XZZ      65.4469    YZZ      18.6611
       ZZZ     218.0523
    Hexadecapole Moments (Debye-Ang^3)
      XXXX    -731.9182   XXXY    -145.2215   XXYY    -231.8901
      XYYY    -154.6513   YYYY    -570.0624   XXXZ     -33.3543
      XXYZ      43.9022   XYYZ     -29.6265   YYYZ     154.0244
      XXZZ    -329.9336   XYZZ     -44.7344   YYZZ    -264.8600
      XZZZ     -54.9563   YZZZ     240.4113   ZZZZ   -1534.6416
 -----------------------------------------------------------------
 Total job time:  2131.31s(wall), 16548.82s(cpu) 
 Mon Apr 24 10:02:02 2023

        *************************************************************
        *                                                           *
        *  Thank you very much for using Q-Chem.  Have a nice day.  *
        *                                                           *
        *************************************************************


