
Running Job 1 of 1 Q_in.in
qchem Q_in.in_162330.0 /scratch/ari.fischer/qChem1994724.hpc-mn1/qchem162330/ 0
/usr/local/qchem-5.4.1/exe/qcprog.exe_s Q_in.in_162330.0 /scratch/ari.fischer/qChem1994724.hpc-mn1/qchem162330/
                  Welcome to Q-Chem
     A Quantum Leap Into The Future Of Chemistry


 Q-Chem 5.4, Q-Chem, Inc., Pleasanton, CA (2021)

 License issued to: Nanyang Technological University (site)

 E. Epifanovsky,  A. T. B. Gilbert,  Xintian Feng,  Joonho Lee,  Yuezhi Mao,  
 N. Mardirossian,  P. Pokhilko,  A. White,  M. Wormit,  M. P. Coons,  
 A. L. Dempwolff,  Zhengting Gan,  D. Hait,  P. R. Horn,  L. D. Jacobson,  
 I. Kaliman,  J. Kussmann,  A. W. Lange,  Ka Un Lao,  D. S. Levine,  Jie Liu,  
 S. C. McKenzie,  A. F. Morrison,  K. Nanda,  F. Plasser,  D. R. Rehn,  
 M. L. Vidal,  Zhi-Qiang You,  Ying Zhu,  B. Alam,  B. Albrecht,  
 A. Aldossary,  E. Alguire,  J. H. Andersen,  D. Barton,  K. Begam,  A. Behn,  
 Y. A. Bernard,  E. J. Berquist,  H. Burton,  A. Carreras,  K. Carter-Fenk,  
 R. Chakraborty,  A. D. Chien,  K. D. Closser,  V. Cofer-Shabica,  
 S. Dasgupta,  Jia Deng,  M. de Wergifosse,  M. Diedenhofen,  Hainam Do,  
 S. Ehlert,  Po-Tung Fang,  S. Fatehi,  Qingguo Feng,  T. Friedhoff,  
 J. Gayvert,  Qinghui Ge,  G. Gidofalvi,  M. Goldey,  J. Gomes,  
 C. Gonzalez-Espinoza,  S. Gulania,  A. Gunina,  M. W. D. Hanson-Heine,  
 P. H. P. Harbach,  A. W. Hauser,  M. F. Herbst,  M. Hernandez Vera,  
 M. Hodecker,  Z. C. Holden,  S. Houck,  Xunkun Huang,  Kerwin Hui,  
 B. C. Huynh,  M. Ivanov,  Hyunjun Ji,  Hanjie Jiang,  B. Kaduk,  S. Kaehler,  
 K. Khistyaev,  Jaehoon Kim,  P. Klunzinger,  Z. Koczor-Benda,  
 Joong Hoon Koh,  D. Kosenkov,  L. Koulias,  T. Kowalczyk,  C. M. Krauter,  
 K. Kue,  A. Kunitsa,  T. Kus,  A. Landau,  K. V. Lawler,  D. Lefrancois,  
 S. Lehtola,  Rain Li,  Yi-Pei Li,  Jiashu Liang,  M. Liebenthal,  
 Hung-Hsuan Lin,  You-Sheng Lin,  Fenglai Liu,  Kuan-Yu Liu,  
 M. Loipersberger,  A. Luenser,  A. Manjanath,  P. Manohar,  E. Mansoor,  
 S. F. Manzer,  Shan-Ping Mao,  A. V. Marenich,  T. Markovich,  S. Mason,  
 S. A. Maurer,  P. F. McLaughlin,  M. F. S. J. Menger,  J.-M. Mewes,  
 S. A. Mewes,  P. Morgante,  J. W. Mullinax,  K. J. Oosterbaan,  G. Paran,  
 Alexander C. Paul,  Suranjan K. Paul,  F. Pavosevic,  Zheng Pei,  S. Prager,  
 E. I. Proynov,  E. Ramos,  B. Rana,  A. E. Rask,  A. Rettig,  R. M. Richard,  
 F. Rob,  E. Rossomme,  T. Scheele,  M. Scheurer,  M. Schneider,  
 N. Sergueev,  S. M. Sharada,  W. Skomorowski,  D. W. Small,  C. J. Stein,  
 Yu-Chuan Su,  E. J. Sundstrom,  Zhen Tao,  J. Thirman,  T. Tsuchimochi,  
 N. M. Tubman,  S. P. Veccham,  O. Vydrov,  J. Wenzel,  J. Witte,  A. Yamada,  
 Kun Yao,  S. Yeganeh,  S. R. Yost,  A. Zech,  Igor Ying Zhang,  Xing Zhang,  
 Yu Zhang,  D. Zuev,  A. Aspuru-Guzik,  A. T. Bell,  N. A. Besley,  
 K. B. Bravaya,  B. R. Brooks,  D. Casanova,  Jeng-Da Chai,  S. Coriani,  
 C. J. Cramer,  A. E. DePrince, III,  R. A. DiStasio Jr.,  A. Dreuw,  
 B. D. Dunietz,  T. R. Furlani,  W. A. Goddard III,  S. Grimme,  
 S. Hammes-Schiffer,  T. Head-Gordon,  W. J. Hehre,  Chao-Ping Hsu,  
 T.-C. Jagau,  Yousung Jung,  A. Klamt,  Jing Kong,  D. S. Lambrecht,  
 WanZhen Liang,  N. J. Mayhall,  C. W. McCurdy,  J. B. Neaton,  
 C. Ochsenfeld,  J. A. Parkhill,  R. Peverati,  V. A. Rassolov,  Yihan Shao,  
 L. V. Slipchenko,  T. Stauch,  R. P. Steele,  J. E. Subotnik,  
 A. J. W. Thom,  A. Tkatchenko,  D. G. Truhlar,  T. Van Voorhis,  
 T. A. Wesolowski,  K. B. Whaley,  H. L. Woodcock III,  P. M. Zimmerman,  
 S. Faraji,  P. M. W. Gill,  M. Head-Gordon,  J. M. Herbert,  A. I. Krylov

 Additional authors for Version 5.4.1: 
 S. Kotaru,  Shaozhi Li,  Xiangyuan Li,  F. Matz,  A. Molle,  Haisheng Ren,  
 Yingli Su,  Hung-Yi Tsai,  C. Utku,  Fang Wang

 Contributors to earlier versions of Q-Chem not listed above: 
 R. D. Adamson,  B. Austin,  R. Baer,  J. Baker,  G. J. O. Beran,  
 K. Brandhorst,  S. T. Brown,  E. F. C. Byrd,  A. K. Chakraborty,  
 G. K. L. Chan,  Chun-Min Chang,  Yunqing Chen,  C.-L. Cheng,  
 Siu Hung Chien,  D. M. Chipman,  D. L. Crittenden,  H. Dachsel,  
 R. J. Doerksen,  A. D. Dutoi,  R. G. Edgar,  J. Fosso-Tande,  
 L. Fusti-Molnar,  D. Ghosh,  A. Ghysels,  A. Golubeva-Zadorozhnaya,  
 J. Gonthier,  M. S. Gordon,  S. R. Gwaltney,  G. Hawkins,  J. E. Herr,  
 A. Heyden,  S. Hirata,  E. G. Hohenstein,  G. Kedziora,  F. J. Keil,  
 C. Kelley,  Jihan Kim,  R. A. King,  R. Z. Khaliullin,  P. P. Korambath,  
 W. Kurlancheek,  A. Laurent,  A. M. Lee,  M. S. Lee,  S. V. Levchenko,  
 Ching Yeh Lin,  D. Liotard,  E. Livshits,  R. C. Lochan,  I. Lotan,  
 L. A. Martinez-Martinez,  P. E. Maslen,  N. Nair,  D. P. O'Neill,  
 D. Neuhauser,  E. Neuscamman,  C. M. Oana,  R. Olivares-Amaya,  R. Olson,  
 T. M. Perrine,  B. Peters,  P. A. Pieniazek,  A. Prociuk,  Y. M. Rhee,  
 J. Ritchie,  M. A. Rohrdanz,  E. Rosta,  N. J. Russ,  H. F. Schaefer III,  
 M. W. Schmidt,  N. E. Schultz,  S. Sharma,  N. Shenvi,  C. D. Sherrill,  
 A. C. Simmonett,  A. Sodt,  T. Stein,  D. Stuck,  K. S. Thanthiriwatte,  
 V. Vanovschi,  L. Vogt,  Tao Wang,  A. Warshel,  M. A. Watson,  
 C. F. Williams,  Q. Wu,  X. Xu,  Jun Yang,  W. Zhang,  Yan Zhao

 Please cite Q-Chem as follows:
 Y. Shao et al., Mol. Phys. 113, 184-215 (2015)
 DOI: 10.1080/00268976.2014.952696

 Q-Chem 5.4.1 for Intel X86 EM64T Linux

 Parts of Q-Chem use Armadillo 9.800.1 (Horizon Scraper).
 http://arma.sourceforge.net/

 Q-Chem begins on Thu Mar  7 22:57:46 2024  

 Host: 
0

     Scratch files written to /scratch/ari.fischer/qChem1994724.hpc-mn1/qchem162330//
 Aug1521 |scratch|qcdevops|jenkins|workspace|build_RNUM 8249   
 Processing $rem in /usr/local/qchem-5.4.1/config/preferences:
 Processing $rem in /home/ari.fischer/.qchemrc:
 Symmetry turned off for PCM/SM12/SMD calculation


!!********************************************.
!!******************Warning*******************.
!!Desired Analytical derivatives not available.
!!Finite difference job might take a long time.
!!********************************************.
!!********************************************.


 2-order derivative to be evaluated numerically with 1-order analytical derivatives

 Checking the input file for inconsistencies... 	...done.

--------------------------------------------------------------
User input:
--------------------------------------------------------------
$molecule
0 1
C         0.6577412246   -0.7568490746   -0.0096139290
C        -0.6701156037   -0.6838368670   -0.1000838746
C        -1.4324432050    0.5817270245   -0.1643395068
C         1.5481813523    0.4140574228    0.0925204336
O        -1.0330251109    1.5829476068   -0.7237663859
O         2.7459442998    0.3212729499   -0.1022268890
H         1.1522162581   -1.7200477685    0.0170106400
H        -1.2665065116   -1.5878134749   -0.0993892462
H        -2.4174951740    0.5679754932    0.3220117904
H         1.1052501706    1.3737271877    0.3810697676
$end

$rem
BASIS = 6-311++G(2df,2p)
GUI = 2
JOB_TYPE = Frequency
METHOD = wB97M-V
SOLVENT_METHOD = SMD
SCF_ALGORITHM = DIIS_GDM
MAX_SCF_CYCLES = 400
SCF_CONVERGENCE = 7
THRESH = 12
$end
--------------------------------------------------------------
 ----------------------------------------------------------------
             Standard Nuclear Orientation (Angstroms)
    I     Atom           X                Y                Z
 ----------------------------------------------------------------
    1      C       0.6577412246    -0.7568490746    -0.0096139290
    2      C      -0.6701156037    -0.6838368670    -0.1000838746
    3      C      -1.4324432050     0.5817270245    -0.1643395068
    4      C       1.5481813523     0.4140574228     0.0925204336
    5      O      -1.0330251109     1.5829476068    -0.7237663859
    6      O       2.7459442998     0.3212729499    -0.1022268890
    7      H       1.1522162581    -1.7200477685     0.0170106400
    8      H      -1.2665065116    -1.5878134749    -0.0993892462
    9      H      -2.4174951740     0.5679754932     0.3220117904
   10      H       1.1052501706     1.3737271877     0.3810697676
 ----------------------------------------------------------------
 Nuclear Repulsion Energy =         202.91806315 hartrees
 There are       22 alpha and       22 beta electrons
 Requested basis set is 6-311++G(2df,2p)
 There are 72 shells and 244 basis functions

 Total QAlloc Memory Limit 288000 MB
 Mega-Array Size       188 MB
 MEM_STATIC part       192 MB
 
 Citation of the SMD model:
 Marenich, A.V.; Cramer, C.J.; Truhlar, D.G.
 J. Phys. Chem. B 2009, 113, 6378-6396.
 iSolventCode=           1
 Solvent: water                                                           
 
 vradii
            1           2           3           4           5           6
    1   1.8500000   1.8500000   1.8500000   1.8500000   1.5200000   1.5200000
            7           8           9          10
    1   1.2000000   1.2000000   1.2000000   1.2000000
 Changing PCM_VDW_RADII to SMD_RADIUS
 Discretize the solute cavity surface with Lebedev spheres
	Using 110 Lebedev grid points for each H atom
	Using 194 Lebedev grid points for other atoms
	Atomic van der Waals radii will be scaled by 1.20
 Remove points where switching function is < 1.0e-08
 Keep 871 surface tesserae and discard 733 interior tesserae
 Molecular Surface Area = 109.721 Angst**2

                       Distance Matrix (Angstroms)
             C (  1)   C (  2)   C (  3)   C (  4)   O (  5)   O (  6)
   C (  2)  1.332936
   C (  3)  2.486885  1.478825
   C (  4)  1.474563  2.482601  2.996367
   O (  5)  2.973778  2.378864  1.214469  2.948772
   O (  6)  2.351918  3.560859  4.186958  1.217034  4.032213
   H (  7)  1.083036  2.099604  3.465764  2.171841  4.029120  2.592523
   H (  8)  2.097925  1.082985  2.176846  3.459304  3.240075  4.443465
   H (  9)  3.364850  2.190556  1.098660  3.975292  2.010119  5.186709
   H ( 10)  2.211844  2.759892  2.713784  1.095634  2.415917  2.008261
             H (  7)   H (  8)   H (  9)
   H (  8)  2.425130
   H (  9)  4.250990  2.479875
   H ( 10)  3.115476  3.824499  3.614202
 
 A cutoff of  1.0D-12 yielded   2475 shell pairs
 There are     28624 function pairs (     36083 Cartesian)
 Smallest overlap matrix eigenvalue = 1.31E-05
 Guess from superposition of atomic densities
 Warning:  Energy on first SCF cycle will be non-variational
 SAD guess density has 44.000000 electrons

 -----------------------------------------------------------------------
  General SCF calculation program by
  Eric Jon Sundstrom, Paul Horn, Yuezhi Mao, Dmitri Zuev, Alec White,
  David Stuck, Shaama M.S., Shane Yost, Joonho Lee, David Small,
  Daniel Levine, Susi Lehtola, Hugh Burton, Evgeny Epifanovsky,
  Bang C. Huynh
 -----------------------------------------------------------------------
 Exchange:     0.1500 Hartree-Fock + 1.0000 wB97M-V + LR-HF
 Correlation:  1.0000 wB97M-V
 Using SG-2 standard quadrature grid
 Nonlocal Correlation:  VV10 with C = 0.0100 and b = 6.00 and scale = 1.00000
 Grid used for NLC:  SG-1 standard quadrature
 using 16 threads for integral computing
 -------------------------------------------------------
 OpenMP Integral computing Module                
 Release: version 1.0, May 2013, Q-Chem Inc. Pittsburgh 
 -------------------------------------------------------
 
 Citation of the SMD model:
 Marenich, A.V.; Cramer, C.J.; Truhlar, D.G.
 J. Phys. Chem. B 2009, 113, 6378-6396.
 iSolventCode=           1
 Solvent: water                                                           
 
 vradii
            1           2           3           4           5           6
    1   1.8500000   1.8500000   1.8500000   1.8500000   1.5200000   1.5200000
            7           8           9          10
    1   1.2000000   1.2000000   1.2000000   1.2000000
 -------------------------------------------------------
 OpenMP BLAS3 based DFT computing Module                
 Release: version 1.0, May 2013, Q-Chem Inc. Pittsburgh 
 -------------------------------------------------------
 A restricted SCF calculation will be
 performed using DIIS, GDM
 SCF converges when RMS gradient is below 1.0e-07
 ---------------------------------------
  Cycle       Energy         DIIS error
 ---------------------------------------
    1    -306.5163198071      3.25e-02  
    2    -305.1168567732      4.48e-03  Done DIIS. Switching to GDM
 ---------------------------------------
  Cycle       Energy        RMS Gradient
 ---------------------------------------
    1    -305.1168567732      1.60e-01   Descent step
    2    -305.2054672559      7.79e-02   Normal BFGS step
    3    -305.2401135655      1.48e-02   Normal BFGS step
    4    -305.2409696098      3.66e-03   Normal BFGS step
    5    -305.2412436307      8.82e-04   Normal BFGS step
    6    -305.2412531003      3.24e-04   Normal BFGS step
    7    -305.2412542501      1.56e-04   Normal BFGS step
    8    -305.2412544051      8.64e-05   Normal BFGS step
    9    -305.2412544634      1.75e-05   Normal BFGS step
   10    -305.2412544699      1.16e-05   Normal BFGS step
   11    -305.2412544707      5.76e-06   Normal BFGS step
   12    -305.2412544710      1.76e-06   Normal BFGS step
   13    -305.2412544710      1.18e-06   Normal BFGS step
   14    -305.2412544710      2.74e-07   Normal BFGS step
   15    -305.2412544710      5.37e-08  Convergence criterion met
 ---------------------------------------
 SCF time:   CPU 435.77s  wall 28.00s 
(3)  G-ENP(liq) elect-nuc-pol free energy of system     -305.241254471 a.u.
(4)  G-CDS(liq) cavity-dispersion-solvent structure 
     free energy                                                5.0981 kcal/mol
(6)  G-S(liq) free energy of system                     -305.233130147 a.u.
 SCF   energy in the final basis set =     -305.2331301472
 Total energy in the final basis set =     -305.2331301472
 
 --------------------------------------------------------------
 
                    Orbital Energies (a.u.)
 --------------------------------------------------------------
 
 Alpha MOs
 -- Occupied --
-19.3528 -19.3474 -10.4494 -10.4449 -10.3746 -10.3722  -1.1988  -1.1923
 -0.9437  -0.8138  -0.7300  -0.6742  -0.6209  -0.5996  -0.5784  -0.5413
 -0.5287  -0.5158  -0.5100  -0.3968  -0.3912  -0.3725
 -- Virtual --
 -0.0185   0.0279   0.0446   0.0450   0.0559   0.0671   0.0795   0.0879
  0.1117   0.1144   0.1209   0.1316   0.1336   0.1533   0.1592   0.1616
  0.1687   0.1747   0.1881   0.1896   0.1972   0.2026   0.2401   0.2451
  0.2621   0.2743   0.2918   0.3108   0.3251   0.3336   0.3479   0.3529
  0.3536   0.3645   0.3761   0.4012   0.4344   0.4498   0.4961   0.5140
  0.5524   0.5564   0.5850   0.5917   0.6145   0.6254   0.6426   0.6440
  0.6554   0.6664   0.6839   0.6920   0.7179   0.7320   0.7538   0.7700
  0.7786   0.7852   0.8047   0.8357   0.8448   0.8555   0.8819   0.9248
  0.9566   1.0038   1.0396   1.0587   1.0849   1.0924   1.1136   1.1275
  1.1434   1.1616   1.1806   1.1936   1.2025   1.2079   1.2317   1.2644
  1.2792   1.3083   1.3263   1.3765   1.3915   1.4187   1.4223   1.4785
  1.4829   1.5075   1.5150   1.5687   1.6155   1.6564   1.6764   1.7099
  1.7664   1.7800   1.8248   1.8527   1.8968   1.9800   2.0549   2.0800
  2.0911   2.1150   2.3498   2.4037   2.4830   2.5405   2.5729   2.6026
  2.6388   2.6866   2.7390   2.7635   2.7995   2.8106   2.8241   2.8300
  2.8805   2.8927   2.8971   2.9161   2.9787   3.0178   3.0296   3.0443
  3.0818   3.1243   3.1331   3.1562   3.2024   3.2264   3.2419   3.2898
  3.2951   3.3213   3.3308   3.3670   3.3972   3.4026   3.4210   3.4437
  3.4664   3.5021   3.5065   3.5274   3.5771   3.6258   3.6406   3.6803
  3.7104   3.7263   3.7755   3.8053   3.8500   3.8547   3.8705   3.9067
  3.9547   4.0217   4.0589   4.1398   4.1823   4.1840   4.2250   4.2502
  4.2747   4.3292   4.3834   4.4458   4.5360   4.5711   4.6253   4.6690
  4.7707   4.8223   4.9018   4.9253   5.1142   5.1690   5.1734   5.1824
  5.1986   5.2108   5.2147   5.2409   5.3804   5.4014   5.4960   5.5189
  5.5702   5.5752   5.5973   5.6345   5.7964   5.8527   5.9270   6.0591
  6.3379   6.3504   6.7220   6.8126   6.9361   6.9733   6.9966   7.0191
  7.1375   7.1825   7.3123   7.3369   7.5103   7.5392   7.7201   7.7363
 24.3731  24.9394  24.9751  25.2254  50.6939  50.7044
 --------------------------------------------------------------
 
          Ground-State Mulliken Net Atomic Charges

     Atom                 Charge (a.u.)
  ----------------------------------------
      1 C                     0.066606
      2 C                    -0.047535
      3 C                    -0.093766
      4 C                    -0.078687
      5 O                    -0.359620
      6 O                    -0.407758
      7 H                     0.270389
      8 H                     0.271300
      9 H                     0.173495
     10 H                     0.205574
  ----------------------------------------
  Sum of atomic charges =     0.000000

 -----------------------------------------------------------------
                    Cartesian Multipole Moments
 -----------------------------------------------------------------
    Charge (ESU x 10^10)
                -0.0000
    Dipole Moment (Debye)
         X      -4.9736      Y      -3.5717      Z       2.1796
       Tot       6.4995
    Quadrupole Moments (Debye-Ang)
        XX     -44.2207     XY       1.5701     YY     -36.5281
        XZ      -0.1537     YZ       3.3390     ZZ     -36.2623
    Octopole Moments (Debye-Ang^2)
       XXX     -88.1714    XXY     -16.0225    XYY      -3.9453
       YYY     -38.0937    XXZ      10.4147    XYZ      -2.9780
       YYZ      10.7588    XZZ      -8.6130    YZZ      -8.3916
       ZZZ      17.0033
    Hexadecapole Moments (Debye-Ang^3)
      XXXX    -662.1776   XXXY      -0.6181   XXYY    -128.6984
      XYYY      29.3857   YYYY    -211.6498   XXXZ      -9.8427
      XXYZ      10.3262   XYYZ      -8.8829   YYYZ      28.1962
      XXZZ     -98.7663   XYZZ       7.4934   YYZZ     -48.5047
      XZZZ     -14.0488   YZZZ      20.1684   ZZZZ     -58.1393
 -----------------------------------------------------------------
 Calculating analytic gradient of the SCF energy
 Gradient of CDS energy
            1           2           3           4           5           6
    1  -0.0000982   0.0000434  -0.0004008   0.0027081  -0.0004588  -0.0015410
    2  -0.0006019  -0.0006169   0.0021009   0.0007179  -0.0010583   0.0000057
    3  -0.0000637   0.0000137  -0.0007464   0.0000168   0.0006181   0.0002290
            7           8           9          10
    1   0.0000951  -0.0000852  -0.0000715  -0.0001911
    2  -0.0001667  -0.0001800  -0.0000958  -0.0001049
    3   0.0000044   0.0000015   0.0000680  -0.0001413
 Gradient of SCF Energy
            1           2           3           4           5           6
    1   0.0107446  -0.0040253   0.0101318   0.0009939   0.0020040   0.0023937
    2   0.0107404   0.0059573   0.0021829  -0.0027922   0.0062799   0.0011476
    3  -0.0006458   0.0025351  -0.0053317   0.0004344  -0.0051743  -0.0018203
            7           8           9          10
    1   0.0029040  -0.0102730  -0.0122448  -0.0026290
    2  -0.0097938  -0.0139959  -0.0016633   0.0019370
    3   0.0001054   0.0009719   0.0064974   0.0024278
 Max gradient component =       1.400E-02
 RMS gradient           =       6.145E-03
 Computing fast CPCM-SWIG gradient
 Updating gradient with PCM contributions...
 -- total gradient after adding PCM contribution --
---------------------------------------------------
  Atom         X              Y              Z     
---------------------------------------------------
   1       0.000004       0.000020      -0.000004
   2      -0.000019      -0.000010      -0.000006
   3      -0.000003      -0.000003       0.000029
   4      -0.000040      -0.000025      -0.000001
   5       0.000042      -0.000019      -0.000015
   6       0.000017       0.000021       0.000026
   7       0.000006       0.000008      -0.000007
   8       0.000003       0.000001      -0.000007
   9      -0.000004      -0.000004      -0.000017
  10      -0.000006       0.000011       0.000003
---------------------------------------------------
 Number of fixed atoms: 0
 Gradient time:  CPU 73.84 s  wall 6.18 s
 ######################################################
 ######################################################
 # Starting finite difference calculation for IDERIV  #
 Finite diff step size:  1.88973e-03 a.u.
 ----------------------------------------------------------------
             Standard Nuclear Orientation (Angstroms)
    I     Atom           X                Y                Z
 ----------------------------------------------------------------
    1      C       0.6587412246    -0.7568490746    -0.0096139290
    2      C      -0.6701156037    -0.6838368670    -0.1000838746
    3      C      -1.4324432050     0.5817270245    -0.1643395068
    4      C       1.5481813523     0.4140574228     0.0925204336
    5      O      -1.0330251109     1.5829476068    -0.7237663859
    6      O       2.7459442998     0.3212729499    -0.1022268890
    7      H       1.1522162581    -1.7200477685     0.0170106400
    8      H      -1.2665065116    -1.5878134749    -0.0993892462
    9      H      -2.4174951740     0.5679754932     0.3220117904
   10      H       1.1052501706     1.3737271877     0.3810697676
 ----------------------------------------------------------------
 Nuclear Repulsion Energy =         202.91298680 hartrees
 There are       22 alpha and       22 beta electrons
 Discretize the solute cavity surface with Lebedev spheres
	Using 110 Lebedev grid points for each H atom
	Using 194 Lebedev grid points for other atoms
	Atomic van der Waals radii will be scaled by 1.20
 Remove points where switching function is < 1.0e-08
 Keep 872 surface tesserae and discard 732 interior tesserae
 Molecular Surface Area = 109.722 Angst**2

                       Distance Matrix (Angstroms)
             C (  1)   C (  2)   C (  3)   C (  4)   O (  5)   O (  6)
   C (  2)  1.333933
   C (  3)  2.487726  1.478825
   C (  4)  1.473960  2.482601  2.996367
   O (  5)  2.974346  2.378864  1.214469  2.948772
   O (  6)  2.351030  3.560859  4.186958  1.217034  4.032213
   H (  7)  1.082579  2.099604  3.465764  2.171841  4.029120  2.592523
   H (  8)  2.098843  1.082985  2.176846  3.459304  3.240075  4.443465
   H (  9)  3.365764  2.190556  1.098660  3.975292  2.010119  5.186709
   H ( 10)  2.211642  2.759892  2.713784  1.095634  2.415917  2.008261
             H (  7)   H (  8)   H (  9)
   H (  8)  2.425130
   H (  9)  4.250990  2.479875
   H ( 10)  3.115476  3.824499  3.614202
 
 Requested basis set is 6-311++G(2df,2p)
 There are 72 shells and 244 basis functions
 A cutoff of  1.0D-12 yielded   2475 shell pairs
 There are     28624 function pairs (     36083 Cartesian)
 Smallest overlap matrix eigenvalue = 1.31E-05
 Guess MOs from SCF MO coefficient file

 -----------------------------------------------------------------------
  General SCF calculation program by
  Eric Jon Sundstrom, Paul Horn, Yuezhi Mao, Dmitri Zuev, Alec White,
  David Stuck, Shaama M.S., Shane Yost, Joonho Lee, David Small,
  Daniel Levine, Susi Lehtola, Hugh Burton, Evgeny Epifanovsky,
  Bang C. Huynh
 -----------------------------------------------------------------------
 Exchange:     0.1500 Hartree-Fock + 1.0000 wB97M-V + LR-HF
 Correlation:  1.0000 wB97M-V
 Using SG-2 standard quadrature grid
 Nonlocal Correlation:  VV10 with C = 0.0100 and b = 6.00 and scale = 1.00000
 Grid used for NLC:  SG-1 standard quadrature
 
 Citation of the SMD model:
 Marenich, A.V.; Cramer, C.J.; Truhlar, D.G.
 J. Phys. Chem. B 2009, 113, 6378-6396.
 iSolventCode=           1
 Solvent: water                                                           
 
 vradii
            1           2           3           4           5           6
    1   1.8500000   1.8500000   1.8500000   1.8500000   1.5200000   1.5200000
            7           8           9          10
    1   1.2000000   1.2000000   1.2000000   1.2000000
 -------------------------------------------------------
 OpenMP BLAS3 based DFT computing Module                
 Release: version 1.0, May 2013, Q-Chem Inc. Pittsburgh 
 -------------------------------------------------------
 A restricted SCF calculation will be
 performed using Roothaan-Hall, DIIS, GDM
 SCF converges when RMS gradient is below 1.0e-07
 ---------------------------------------
  Cycle       Energy         DIIS error
 ---------------------------------------
    1    -305.2145532213      6.42e-04  Roothaan Step
 ---------------------------------------
  Cycle       Energy         DIIS error
 ---------------------------------------
    1    -305.2322128104      9.44e-04  
    2    -305.2331347184      1.28e-03  Done DIIS. Switching to GDM
 ---------------------------------------
  Cycle       Energy        RMS Gradient
 ---------------------------------------
    1    -305.2331347184      3.58e-02   Normal BFGS step
    2    -305.2278161171      5.57e-02  Line search: overstep
    3    -305.2409229462      2.20e-03   Normal BFGS step
    4    -305.2412126812      2.13e-03   Normal BFGS step
    5    -305.2412442983      9.47e-04   Normal BFGS step
    6    -305.2412521601      3.22e-04   Normal BFGS step
    7    -305.2412527153      1.26e-04   Normal BFGS step
    8    -305.2412527737      2.53e-05   Normal BFGS step
    9    -305.2412527834      1.60e-05   Normal BFGS step
   10    -305.2412527847      8.36e-06   Normal BFGS step
   11    -305.2412527854      2.69e-06   Normal BFGS step
   12    -305.2412527854      1.06e-06   Normal BFGS step
   13    -305.2412527854      5.06e-07   Normal BFGS step
   14    -305.2412527854      2.44e-07   Normal BFGS step
   15    -305.2412527854      7.09e-08  Convergence criterion met
 ---------------------------------------
 SCF time:   CPU 469.72s  wall 30.00s 
(3)  G-ENP(liq) elect-nuc-pol free energy of system     -305.241252785 a.u.
(4)  G-CDS(liq) cavity-dispersion-solvent structure 
     free energy                                                5.0980 kcal/mol
(6)  G-S(liq) free energy of system                     -305.233128645 a.u.
 SCF   energy in the final basis set =     -305.2331286450
 Total energy in the final basis set =     -305.2331286450
 
 --------------------------------------------------------------
 
                    Orbital Energies (a.u.)
 --------------------------------------------------------------
 
 Alpha MOs
 -- Occupied --
-19.3528 -19.3474 -10.4494 -10.4449 -10.3748 -10.3722  -1.1988  -1.1923
 -0.9436  -0.8139  -0.7300  -0.6743  -0.6209  -0.5996  -0.5784  -0.5412
 -0.5288  -0.5160  -0.5100  -0.3967  -0.3911  -0.3726
 -- Virtual --
 -0.0186   0.0279   0.0446   0.0450   0.0559   0.0671   0.0795   0.0879
  0.1117   0.1144   0.1209   0.1316   0.1336   0.1533   0.1592   0.1616
  0.1687   0.1747   0.1881   0.1896   0.1972   0.2026   0.2401   0.2450
  0.2621   0.2744   0.2918   0.3108   0.3251   0.3337   0.3479   0.3529
  0.3535   0.3645   0.3761   0.4012   0.4343   0.4497   0.4962   0.5139
  0.5525   0.5566   0.5850   0.5916   0.6144   0.6254   0.6425   0.6440
  0.6554   0.6663   0.6839   0.6919   0.7178   0.7319   0.7538   0.7700
  0.7784   0.7852   0.8047   0.8357   0.8445   0.8555   0.8819   0.9248
  0.9566   1.0038   1.0395   1.0587   1.0849   1.0923   1.1136   1.1275
  1.1434   1.1616   1.1806   1.1936   1.2024   1.2079   1.2317   1.2644
  1.2791   1.3084   1.3264   1.3763   1.3915   1.4186   1.4223   1.4785
  1.4828   1.5075   1.5151   1.5687   1.6155   1.6564   1.6763   1.7098
  1.7665   1.7802   1.8250   1.8527   1.8968   1.9799   2.0549   2.0799
  2.0910   2.1149   2.3498   2.4034   2.4829   2.5405   2.5727   2.6025
  2.6390   2.6866   2.7389   2.7634   2.7994   2.8106   2.8243   2.8298
  2.8805   2.8928   2.8971   2.9160   2.9788   3.0177   3.0296   3.0444
  3.0818   3.1242   3.1332   3.1562   3.2025   3.2262   3.2418   3.2898
  3.2951   3.3212   3.3309   3.3672   3.3971   3.4026   3.4211   3.4437
  3.4665   3.5019   3.5064   3.5274   3.5773   3.6259   3.6404   3.6804
  3.7104   3.7263   3.7753   3.8051   3.8498   3.8545   3.8703   3.9067
  3.9546   4.0220   4.0590   4.1403   4.1822   4.1839   4.2251   4.2503
  4.2745   4.3293   4.3834   4.4461   4.5355   4.5708   4.6251   4.6677
  4.7709   4.8207   4.9020   4.9246   5.1141   5.1690   5.1734   5.1822
  5.1983   5.2104   5.2145   5.2409   5.3803   5.4015   5.4958   5.5189
  5.5702   5.5753   5.5972   5.6354   5.7960   5.8525   5.9269   6.0586
  6.3379   6.3504   6.7222   6.8125   6.9361   6.9733   6.9966   7.0192
  7.1376   7.1823   7.3123   7.3369   7.5103   7.5392   7.7201   7.7364
 24.3743  24.9395  24.9742  25.2234  50.6939  50.7045
 --------------------------------------------------------------
 
          Ground-State Mulliken Net Atomic Charges

     Atom                 Charge (a.u.)
  ----------------------------------------
      1 C                     0.065834
      2 C                    -0.046689
      3 C                    -0.093897
      4 C                    -0.078813
      5 O                    -0.359598
      6 O                    -0.407912
      7 H                     0.270576
      8 H                     0.271350
      9 H                     0.173519
     10 H                     0.205631
  ----------------------------------------
  Sum of atomic charges =     0.000000

 -----------------------------------------------------------------
                    Cartesian Multipole Moments
 -----------------------------------------------------------------
    Charge (ESU x 10^10)
                -0.0000
    Dipole Moment (Debye)
         X      -4.9755      Y      -3.5729      Z       2.1797
       Tot       6.5017
    Quadrupole Moments (Debye-Ang)
        XX     -44.2256     XY       1.5690     YY     -36.5250
        XZ      -0.1533     YZ       3.3395     ZZ     -36.2643
    Octopole Moments (Debye-Ang^2)
       XXX     -88.2082    XXY     -16.0272    XYY      -3.9495
       YYY     -38.0982    XXZ      10.4160    XYZ      -2.9774
       YYZ      10.7595    XZZ      -8.6183    YZZ      -8.3908
       ZZZ      17.0037
    Hexadecapole Moments (Debye-Ang^3)
      XXXX    -662.2830   XXXY      -0.6213   XXYY    -128.7039
      XYYY      29.3919   YYYY    -211.6286   XXXZ      -9.8406
      XXYZ      10.3280   XYYZ      -8.8815   YYYZ      28.1971
      XXZZ     -98.7759   XYZZ       7.4960   YYZZ     -48.5048
      XZZZ     -14.0480   YZZZ      20.1685   ZZZZ     -58.1466
 -----------------------------------------------------------------
 Calculating analytic gradient of the SCF energy
 Gradient of CDS energy
            1           2           3           4           5           6
    1  -0.0000959   0.0000424  -0.0004008   0.0027071  -0.0004588  -0.0015410
    2  -0.0006018  -0.0006174   0.0021011   0.0007175  -0.0010583   0.0000057
    3  -0.0000636   0.0000136  -0.0007464   0.0000167   0.0006181   0.0002290
            7           8           9          10
    1   0.0000948  -0.0000852  -0.0000715  -0.0001911
    2  -0.0001663  -0.0001799  -0.0000958  -0.0001049
    3   0.0000044   0.0000015   0.0000680  -0.0001412
 Gradient of SCF Energy
            1           2           3           4           5           6
    1   0.0123302  -0.0050137   0.0100992   0.0008008   0.0020041   0.0022593
    2   0.0106135   0.0059891   0.0022090  -0.0028723   0.0062674   0.0010718
    3  -0.0005691   0.0024693  -0.0053397   0.0004104  -0.0051698  -0.0018122
            7           8           9          10
    1   0.0026840  -0.0103081  -0.0122476  -0.0026082
    2  -0.0095860  -0.0139896  -0.0016589   0.0019559
    3   0.0001002   0.0009705   0.0064982   0.0024422
 Max gradient component =       1.399E-02
 RMS gradient           =       6.244E-03
 Computing fast CPCM-SWIG gradient
 Updating gradient with PCM contributions...
 -- total gradient after adding PCM contribution --
---------------------------------------------------
  Atom         X              Y              Z     
---------------------------------------------------
   1       0.001585      -0.000108       0.000070
   2      -0.001024       0.000015      -0.000073
   3      -0.000035       0.000023       0.000025
   4      -0.000228      -0.000111      -0.000026
   5       0.000041      -0.000030      -0.000010
   6      -0.000120      -0.000055       0.000036
   7      -0.000204       0.000227      -0.000012
   8      -0.000026       0.000010      -0.000008
   9      -0.000004       0.000000      -0.000017
  10       0.000015       0.000029       0.000016
---------------------------------------------------
 Number of fixed atoms: 0
 Gradient time:  CPU 74.04 s  wall 6.09 s
 ----------------------------------------------------------------
             Standard Nuclear Orientation (Angstroms)
    I     Atom           X                Y                Z
 ----------------------------------------------------------------
    1      C       0.6567412246    -0.7568490746    -0.0096139290
    2      C      -0.6701156037    -0.6838368670    -0.1000838746
    3      C      -1.4324432050     0.5817270245    -0.1643395068
    4      C       1.5481813523     0.4140574228     0.0925204336
    5      O      -1.0330251109     1.5829476068    -0.7237663859
    6      O       2.7459442998     0.3212729499    -0.1022268890
    7      H       1.1522162581    -1.7200477685     0.0170106400
    8      H      -1.2665065116    -1.5878134749    -0.0993892462
    9      H      -2.4174951740     0.5679754932     0.3220117904
   10      H       1.1052501706     1.3737271877     0.3810697676
 ----------------------------------------------------------------
 Nuclear Repulsion Energy =         202.92315944 hartrees
 There are       22 alpha and       22 beta electrons
 Discretize the solute cavity surface with Lebedev spheres
	Using 110 Lebedev grid points for each H atom
	Using 194 Lebedev grid points for other atoms
	Atomic van der Waals radii will be scaled by 1.20
 Remove points where switching function is < 1.0e-08
 Keep 871 surface tesserae and discard 733 interior tesserae
 Molecular Surface Area = 109.719 Angst**2

                       Distance Matrix (Angstroms)
             C (  1)   C (  2)   C (  3)   C (  4)   O (  5)   O (  6)
   C (  2)  1.331940
   C (  3)  2.486045  1.478825
   C (  4)  1.475167  2.482601  2.996367
   O (  5)  2.973209  2.378864  1.214469  2.948772
   O (  6)  2.352806  3.560859  4.186958  1.217034  4.032213
   H (  7)  1.083493  2.099604  3.465764  2.171841  4.029120  2.592523
   H (  8)  2.097008  1.082985  2.176846  3.459304  3.240075  4.443465
   H (  9)  3.363936  2.190556  1.098660  3.975292  2.010119  5.186709
   H ( 10)  2.212046  2.759892  2.713784  1.095634  2.415917  2.008261
             H (  7)   H (  8)   H (  9)
   H (  8)  2.425130
   H (  9)  4.250990  2.479875
   H ( 10)  3.115476  3.824499  3.614202
 
 Requested basis set is 6-311++G(2df,2p)
 There are 72 shells and 244 basis functions
 A cutoff of  1.0D-12 yielded   2475 shell pairs
 There are     28624 function pairs (     36083 Cartesian)
 Smallest overlap matrix eigenvalue = 1.31E-05
 Guess MOs from SCF MO coefficient file

 -----------------------------------------------------------------------
  General SCF calculation program by
  Eric Jon Sundstrom, Paul Horn, Yuezhi Mao, Dmitri Zuev, Alec White,
  David Stuck, Shaama M.S., Shane Yost, Joonho Lee, David Small,
  Daniel Levine, Susi Lehtola, Hugh Burton, Evgeny Epifanovsky,
  Bang C. Huynh
 -----------------------------------------------------------------------
 Exchange:     0.1500 Hartree-Fock + 1.0000 wB97M-V + LR-HF
 Correlation:  1.0000 wB97M-V
 Using SG-2 standard quadrature grid
 Nonlocal Correlation:  VV10 with C = 0.0100 and b = 6.00 and scale = 1.00000
 Grid used for NLC:  SG-1 standard quadrature
 
 Citation of the SMD model:
 Marenich, A.V.; Cramer, C.J.; Truhlar, D.G.
 J. Phys. Chem. B 2009, 113, 6378-6396.
 iSolventCode=           1
 Solvent: water                                                           
 
 vradii
            1           2           3           4           5           6
    1   1.8500000   1.8500000   1.8500000   1.8500000   1.5200000   1.5200000
            7           8           9          10
    1   1.2000000   1.2000000   1.2000000   1.2000000
 -------------------------------------------------------
 OpenMP BLAS3 based DFT computing Module                
 Release: version 1.0, May 2013, Q-Chem Inc. Pittsburgh 
 -------------------------------------------------------
 A restricted SCF calculation will be
 performed using Roothaan-Hall, DIIS, GDM
 SCF converges when RMS gradient is below 1.0e-07
 ---------------------------------------
  Cycle       Energy         DIIS error
 ---------------------------------------
    1    -305.2145518713      6.42e-04  Roothaan Step
 ---------------------------------------
  Cycle       Energy         DIIS error
 ---------------------------------------
    1    -305.2322205597      9.43e-04  
    2    -305.2331480171      1.27e-03  Done DIIS. Switching to GDM
 ---------------------------------------
  Cycle       Energy        RMS Gradient
 ---------------------------------------
    1    -305.2331480171      3.57e-02   Normal BFGS step
    2    -305.2278451360      5.57e-02  Line search: overstep
    3    -305.2409244163      2.18e-03   Normal BFGS step
    4    -305.2412131130      2.16e-03   Normal BFGS step
    5    -305.2412445838      9.49e-04   Normal BFGS step
    6    -305.2412525708      3.17e-04   Normal BFGS step
    7    -305.2412530969      1.25e-04   Normal BFGS step
    8    -305.2412531547      2.40e-05   Normal BFGS step
    9    -305.2412531644      1.63e-05   Normal BFGS step
   10    -305.2412531657      8.14e-06   Normal BFGS step
   11    -305.2412531664      2.72e-06   Normal BFGS step
   12    -305.2412531664      1.02e-06   Normal BFGS step
   13    -305.2412531664      4.90e-07   Normal BFGS step
   14    -305.2412531664      2.44e-07   Normal BFGS step
   15    -305.2412531664      7.11e-08  Convergence criterion met
 ---------------------------------------
 SCF time:   CPU 469.67s  wall 30.00s 
(3)  G-ENP(liq) elect-nuc-pol free energy of system     -305.241253166 a.u.
(4)  G-CDS(liq) cavity-dispersion-solvent structure 
     free energy                                                5.0982 kcal/mol
(6)  G-S(liq) free energy of system                     -305.233128655 a.u.
 SCF   energy in the final basis set =     -305.2331286548
 Total energy in the final basis set =     -305.2331286548
 
 --------------------------------------------------------------
 
                    Orbital Energies (a.u.)
 --------------------------------------------------------------
 
 Alpha MOs
 -- Occupied --
-19.3528 -19.3475 -10.4494 -10.4450 -10.3745 -10.3721  -1.1988  -1.1923
 -0.9438  -0.8137  -0.7301  -0.6742  -0.6209  -0.5996  -0.5784  -0.5414
 -0.5287  -0.5157  -0.5100  -0.3969  -0.3913  -0.3725
 -- Virtual --
 -0.0184   0.0279   0.0446   0.0450   0.0558   0.0671   0.0795   0.0879
  0.1117   0.1144   0.1209   0.1316   0.1336   0.1533   0.1592   0.1616
  0.1686   0.1748   0.1881   0.1896   0.1973   0.2026   0.2401   0.2451
  0.2622   0.2742   0.2918   0.3108   0.3251   0.3335   0.3479   0.3529
  0.3536   0.3645   0.3761   0.4011   0.4345   0.4498   0.4961   0.5142
  0.5524   0.5562   0.5849   0.5918   0.6145   0.6253   0.6426   0.6440
  0.6555   0.6664   0.6839   0.6920   0.7179   0.7320   0.7538   0.7700
  0.7787   0.7853   0.8048   0.8357   0.8451   0.8555   0.8820   0.9248
  0.9566   1.0038   1.0396   1.0587   1.0849   1.0925   1.1136   1.1276
  1.1434   1.1615   1.1806   1.1937   1.2025   1.2079   1.2317   1.2644
  1.2792   1.3083   1.3263   1.3767   1.3915   1.4187   1.4222   1.4786
  1.4830   1.5076   1.5150   1.5687   1.6154   1.6565   1.6766   1.7099
  1.7664   1.7798   1.8246   1.8527   1.8967   1.9801   2.0549   2.0801
  2.0912   2.1151   2.3498   2.4039   2.4831   2.5405   2.5730   2.6027
  2.6386   2.6866   2.7391   2.7636   2.7995   2.8106   2.8239   2.8301
  2.8806   2.8927   2.8971   2.9161   2.9787   3.0180   3.0297   3.0442
  3.0819   3.1243   3.1330   3.1561   3.2022   3.2266   3.2420   3.2897
  3.2951   3.3214   3.3308   3.3668   3.3973   3.4026   3.4210   3.4436
  3.4664   3.5022   3.5066   3.5274   3.5769   3.6258   3.6407   3.6803
  3.7104   3.7264   3.7757   3.8055   3.8502   3.8550   3.8708   3.9067
  3.9547   4.0214   4.0587   4.1392   4.1824   4.1841   4.2249   4.2501
  4.2748   4.3291   4.3834   4.4455   4.5364   4.5714   4.6256   4.6703
  4.7705   4.8239   4.9016   4.9259   5.1143   5.1689   5.1734   5.1825
  5.1989   5.2111   5.2148   5.2409   5.3804   5.4012   5.4963   5.5188
  5.5703   5.5752   5.5975   5.6335   5.7969   5.8528   5.9271   6.0597
  6.3378   6.3505   6.7218   6.8127   6.9360   6.9733   6.9966   7.0191
  7.1374   7.1827   7.3123   7.3369   7.5103   7.5392   7.7201   7.7363
 24.3719  24.9392  24.9760  25.2275  50.6939  50.7044
 --------------------------------------------------------------
 
          Ground-State Mulliken Net Atomic Charges

     Atom                 Charge (a.u.)
  ----------------------------------------
      1 C                     0.067381
      2 C                    -0.048383
      3 C                    -0.093634
      4 C                    -0.078561
      5 O                    -0.359641
      6 O                    -0.407605
      7 H                     0.270203
      8 H                     0.271251
      9 H                     0.173472
     10 H                     0.205516
  ----------------------------------------
  Sum of atomic charges =     0.000000

 -----------------------------------------------------------------
                    Cartesian Multipole Moments
 -----------------------------------------------------------------
    Charge (ESU x 10^10)
                -0.0000
    Dipole Moment (Debye)
         X      -4.9716      Y      -3.5705      Z       2.1796
       Tot       6.4973
    Quadrupole Moments (Debye-Ang)
        XX     -44.2159     XY       1.5712     YY     -36.5312
        XZ      -0.1540     YZ       3.3386     ZZ     -36.2604
    Octopole Moments (Debye-Ang^2)
       XXX     -88.1347    XXY     -16.0178    XYY      -3.9412
       YYY     -38.0892    XXZ      10.4134    XYZ      -2.9786
       YYZ      10.7581    XZZ      -8.6077    YZZ      -8.3924
       ZZZ      17.0030
    Hexadecapole Moments (Debye-Ang^3)
      XXXX    -662.0723   XXXY      -0.6150   XXYY    -128.6930
      XYYY      29.3795   YYYY    -211.6711   XXXZ      -9.8448
      XXYZ      10.3245   XYYZ      -8.8843   YYYZ      28.1953
      XXZZ     -98.7568   XYZZ       7.4908   YYZZ     -48.5047
      XZZZ     -14.0496   YZZZ      20.1683   ZZZZ     -58.1319
 -----------------------------------------------------------------
 Calculating analytic gradient of the SCF energy
 Gradient of CDS energy
            1           2           3           4           5           6
    1  -0.0001005   0.0000444  -0.0004007   0.0027091  -0.0004588  -0.0015410
    2  -0.0006020  -0.0006165   0.0021007   0.0007183  -0.0010583   0.0000058
    3  -0.0000639   0.0000138  -0.0007464   0.0000169   0.0006181   0.0002290
            7           8           9          10
    1   0.0000954  -0.0000852  -0.0000715  -0.0001912
    2  -0.0001671  -0.0001801  -0.0000958  -0.0001050
    3   0.0000044   0.0000015   0.0000680  -0.0001413
 Gradient of SCF Energy
            1           2           3           4           5           6
    1   0.0091534  -0.0030309   0.0101645   0.0011866   0.0020039   0.0025279
    2   0.0108681   0.0059251   0.0021567  -0.0027129   0.0062924   0.0012233
    3  -0.0007229   0.0026015  -0.0053236   0.0004582  -0.0051788  -0.0018284
            7           8           9          10
    1   0.0031241  -0.0102378  -0.0122419  -0.0026498
    2  -0.0100011  -0.0140022  -0.0016677   0.0019182
    3   0.0001106   0.0009734   0.0064966   0.0024135
 Max gradient component =       1.400E-02
 RMS gradient           =       6.065E-03
 Computing fast CPCM-SWIG gradient
 Updating gradient with PCM contributions...
 -- total gradient after adding PCM contribution --
---------------------------------------------------
  Atom         X              Y              Z     
---------------------------------------------------
   1      -0.001584       0.000148      -0.000079
   2       0.000993      -0.000036       0.000062
   3       0.000030      -0.000029       0.000033
   4       0.000148       0.000060       0.000023
   5       0.000042      -0.000007      -0.000019
   6       0.000154       0.000097       0.000016
   7       0.000217      -0.000210      -0.000003
   8       0.000031      -0.000008      -0.000006
   9      -0.000003      -0.000009      -0.000016
  10      -0.000027      -0.000008      -0.000011
---------------------------------------------------
 Number of fixed atoms: 0
 Gradient time:  CPU 74.11 s  wall 6.16 s
 ----------------------------------------------------------------
             Standard Nuclear Orientation (Angstroms)
    I     Atom           X                Y                Z
 ----------------------------------------------------------------
    1      C       0.6577412246    -0.7558490746    -0.0096139290
    2      C      -0.6701156037    -0.6838368670    -0.1000838746
    3      C      -1.4324432050     0.5817270245    -0.1643395068
    4      C       1.5481813523     0.4140574228     0.0925204336
    5      O      -1.0330251109     1.5829476068    -0.7237663859
    6      O       2.7459442998     0.3212729499    -0.1022268890
    7      H       1.1522162581    -1.7200477685     0.0170106400
    8      H      -1.2665065116    -1.5878134749    -0.0993892462
    9      H      -2.4174951740     0.5679754932     0.3220117904
   10      H       1.1052501706     1.3737271877     0.3810697676
 ----------------------------------------------------------------
 Nuclear Repulsion Energy =         202.92967352 hartrees
 There are       22 alpha and       22 beta electrons
 Discretize the solute cavity surface with Lebedev spheres
	Using 110 Lebedev grid points for each H atom
	Using 194 Lebedev grid points for other atoms
	Atomic van der Waals radii will be scaled by 1.20
 Remove points where switching function is < 1.0e-08
 Keep 871 surface tesserae and discard 733 interior tesserae
 Molecular Surface Area = 109.719 Angst**2

                       Distance Matrix (Angstroms)
             C (  1)   C (  2)   C (  3)   C (  4)   O (  5)   O (  6)
   C (  2)  1.332882
   C (  3)  2.486347  1.478825
   C (  4)  1.473769  2.482601  2.996367
   O (  5)  2.972991  2.378864  1.214469  2.948772
   O (  6)  2.351459  3.560859  4.186958  1.217034  4.032213
   H (  7)  1.083925  2.099604  3.465764  2.171841  4.029120  2.592523
   H (  8)  2.098322  1.082985  2.176846  3.459304  3.240075  4.443465
   H (  9)  3.364456  2.190556  1.098660  3.975292  2.010119  5.186709
   H ( 10)  2.210881  2.759892  2.713784  1.095634  2.415917  2.008261
             H (  7)   H (  8)   H (  9)
   H (  8)  2.425130
   H (  9)  4.250990  2.479875
   H ( 10)  3.115476  3.824499  3.614202
 
 Requested basis set is 6-311++G(2df,2p)
 There are 72 shells and 244 basis functions
 A cutoff of  1.0D-12 yielded   2475 shell pairs
 There are     28624 function pairs (     36083 Cartesian)
 Smallest overlap matrix eigenvalue = 1.31E-05
 Guess MOs from SCF MO coefficient file

 -----------------------------------------------------------------------
  General SCF calculation program by
  Eric Jon Sundstrom, Paul Horn, Yuezhi Mao, Dmitri Zuev, Alec White,
  David Stuck, Shaama M.S., Shane Yost, Joonho Lee, David Small,
  Daniel Levine, Susi Lehtola, Hugh Burton, Evgeny Epifanovsky,
  Bang C. Huynh
 -----------------------------------------------------------------------
 Exchange:     0.1500 Hartree-Fock + 1.0000 wB97M-V + LR-HF
 Correlation:  1.0000 wB97M-V
 Using SG-2 standard quadrature grid
 Nonlocal Correlation:  VV10 with C = 0.0100 and b = 6.00 and scale = 1.00000
 Grid used for NLC:  SG-1 standard quadrature
 
 Citation of the SMD model:
 Marenich, A.V.; Cramer, C.J.; Truhlar, D.G.
 J. Phys. Chem. B 2009, 113, 6378-6396.
 iSolventCode=           1
 Solvent: water                                                           
 
 vradii
            1           2           3           4           5           6
    1   1.8500000   1.8500000   1.8500000   1.8500000   1.5200000   1.5200000
            7           8           9          10
    1   1.2000000   1.2000000   1.2000000   1.2000000
 -------------------------------------------------------
 OpenMP BLAS3 based DFT computing Module                
 Release: version 1.0, May 2013, Q-Chem Inc. Pittsburgh 
 -------------------------------------------------------
 A restricted SCF calculation will be
 performed using Roothaan-Hall, DIIS, GDM
 SCF converges when RMS gradient is below 1.0e-07
 ---------------------------------------
  Cycle       Energy         DIIS error
 ---------------------------------------
    1    -305.2145608054      6.42e-04  Roothaan Step
 ---------------------------------------
  Cycle       Energy         DIIS error
 ---------------------------------------
    1    -305.2322153125      9.44e-04  
    2    -305.2331352166      1.28e-03  Done DIIS. Switching to GDM
 ---------------------------------------
  Cycle       Energy        RMS Gradient
 ---------------------------------------
    1    -305.2331352166      3.58e-02   Normal BFGS step
    2    -305.2278165201      5.57e-02  Line search: overstep
    3    -305.2409223818      2.18e-03   Normal BFGS step
    4    -305.2412121046      2.15e-03   Normal BFGS step
    5    -305.2412437356      9.46e-04   Normal BFGS step
    6    -305.2412515824      3.24e-04   Normal BFGS step
    7    -305.2412521380      1.27e-04   Normal BFGS step
    8    -305.2412521961      2.50e-05   Normal BFGS step
    9    -305.2412522059      1.67e-05   Normal BFGS step
   10    -305.2412522073      8.18e-06   Normal BFGS step
   11    -305.2412522079      2.70e-06   Normal BFGS step
   12    -305.2412522080      1.06e-06   Normal BFGS step
   13    -305.2412522080      5.07e-07   Normal BFGS step
   14    -305.2412522080      2.41e-07   Normal BFGS step
   15    -305.2412522080      6.93e-08  Convergence criterion met
 ---------------------------------------
 SCF time:   CPU 469.65s  wall 31.00s 
(3)  G-ENP(liq) elect-nuc-pol free energy of system     -305.241252208 a.u.
(4)  G-CDS(liq) cavity-dispersion-solvent structure 
     free energy                                                5.0974 kcal/mol
(6)  G-S(liq) free energy of system                     -305.233129019 a.u.
 SCF   energy in the final basis set =     -305.2331290185
 Total energy in the final basis set =     -305.2331290185
 
 --------------------------------------------------------------
 
                    Orbital Energies (a.u.)
 --------------------------------------------------------------
 
 Alpha MOs
 -- Occupied --
-19.3528 -19.3474 -10.4494 -10.4449 -10.3747 -10.3722  -1.1988  -1.1923
 -0.9437  -0.8139  -0.7301  -0.6742  -0.6209  -0.5996  -0.5784  -0.5413
 -0.5288  -0.5157  -0.5100  -0.3968  -0.3912  -0.3725
 -- Virtual --
 -0.0186   0.0279   0.0446   0.0450   0.0559   0.0671   0.0795   0.0879
  0.1117   0.1144   0.1209   0.1316   0.1336   0.1533   0.1592   0.1616
  0.1687   0.1747   0.1881   0.1896   0.1973   0.2026   0.2401   0.2451
  0.2621   0.2742   0.2918   0.3108   0.3251   0.3338   0.3479   0.3529
  0.3536   0.3645   0.3761   0.4012   0.4344   0.4498   0.4963   0.5141
  0.5524   0.5564   0.5849   0.5917   0.6143   0.6254   0.6425   0.6440
  0.6555   0.6664   0.6839   0.6920   0.7179   0.7320   0.7537   0.7701
  0.7785   0.7852   0.8047   0.8357   0.8449   0.8555   0.8819   0.9248
  0.9568   1.0037   1.0396   1.0587   1.0849   1.0924   1.1136   1.1275
  1.1435   1.1615   1.1806   1.1937   1.2025   1.2079   1.2317   1.2644
  1.2792   1.3084   1.3264   1.3764   1.3915   1.4189   1.4223   1.4785
  1.4829   1.5075   1.5150   1.5685   1.6154   1.6563   1.6764   1.7099
  1.7664   1.7800   1.8247   1.8528   1.8968   1.9801   2.0548   2.0806
  2.0914   2.1151   2.3498   2.4038   2.4830   2.5406   2.5730   2.6029
  2.6387   2.6869   2.7390   2.7637   2.7995   2.8105   2.8240   2.8299
  2.8805   2.8927   2.8971   2.9160   2.9788   3.0179   3.0295   3.0444
  3.0819   3.1241   3.1332   3.1562   3.2022   3.2264   3.2418   3.2900
  3.2951   3.3213   3.3310   3.3670   3.3972   3.4027   3.4210   3.4435
  3.4665   3.5021   3.5064   3.5274   3.5771   3.6260   3.6405   3.6805
  3.7104   3.7265   3.7757   3.8053   3.8501   3.8547   3.8708   3.9068
  3.9546   4.0221   4.0592   4.1401   4.1824   4.1839   4.2249   4.2501
  4.2748   4.3297   4.3830   4.4457   4.5362   4.5712   4.6255   4.6688
  4.7710   4.8227   4.9020   4.9251   5.1143   5.1691   5.1735   5.1823
  5.1985   5.2105   5.2146   5.2409   5.3803   5.4016   5.4959   5.5189
  5.5704   5.5754   5.5973   5.6344   5.7963   5.8526   5.9265   6.0592
  6.3380   6.3505   6.7224   6.8128   6.9361   6.9733   6.9966   7.0193
  7.1378   7.1826   7.3124   7.3369   7.5104   7.5392   7.7201   7.7364
 24.3727  24.9397  24.9754  25.2258  50.6939  50.7045
 --------------------------------------------------------------
 
          Ground-State Mulliken Net Atomic Charges

     Atom                 Charge (a.u.)
  ----------------------------------------
      1 C                     0.067673
      2 C                    -0.047975
      3 C                    -0.093503
      4 C                    -0.079176
      5 O                    -0.359631
      6 O                    -0.407867
      7 H                     0.270068
      8 H                     0.271449
      9 H                     0.173462
     10 H                     0.205502
  ----------------------------------------
  Sum of atomic charges =     0.000000

 -----------------------------------------------------------------
                    Cartesian Multipole Moments
 -----------------------------------------------------------------
    Charge (ESU x 10^10)
                 0.0000
    Dipole Moment (Debye)
         X      -4.9763      Y      -3.5725      Z       2.1793
       Tot       6.5019
    Quadrupole Moments (Debye-Ang)
        XX     -44.2233     XY       1.5736     YY     -36.5297
        XZ      -0.1535     YZ       3.3388     ZZ     -36.2618
    Octopole Moments (Debye-Ang^2)
       XXX     -88.1819    XXY     -16.0276    XYY      -3.9539
       YYY     -38.1092    XXZ      10.4139    XYZ      -2.9786
       YYZ      10.7575    XZZ      -8.6148    YZZ      -8.3967
       ZZZ      17.0027
    Hexadecapole Moments (Debye-Ang^3)
      XXXX    -662.1988   XXXY      -0.6112   XXYY    -128.6964
      XYYY      29.3878   YYYY    -211.6164   XXXZ      -9.8404
      XXYZ      10.3247   XYYZ      -8.8827   YYYZ      28.1953
      XXZZ     -98.7675   XYZZ       7.4930   YYZZ     -48.4982
      XZZZ     -14.0482   YZZZ      20.1684   ZZZZ     -58.1370
 -----------------------------------------------------------------
 Calculating analytic gradient of the SCF energy
 Gradient of CDS energy
            1           2           3           4           5           6
    1  -0.0000981   0.0000438  -0.0004008   0.0027072  -0.0004588  -0.0015411
    2  -0.0005987  -0.0006175   0.0021010   0.0007162  -0.0010583   0.0000058
    3  -0.0000638   0.0000138  -0.0007464   0.0000167   0.0006181   0.0002290
            7           8           9          10
    1   0.0000954  -0.0000852  -0.0000715  -0.0001910
    2  -0.0001679  -0.0001800  -0.0000958  -0.0001049
    3   0.0000044   0.0000015   0.0000680  -0.0001412
 Gradient of SCF Energy
            1           2           3           4           5           6
    1   0.0106322  -0.0039491   0.0102005   0.0009040   0.0019973   0.0023542
    2   0.0119205   0.0057136   0.0021951  -0.0032011   0.0062835   0.0011783
    3  -0.0006334   0.0025489  -0.0053214   0.0004092  -0.0051786  -0.0018164
            7           8           9          10
    1   0.0031063  -0.0103415  -0.0122442  -0.0026597
    2  -0.0103241  -0.0139947  -0.0016728   0.0019017
    3   0.0001173   0.0009656   0.0064928   0.0024160
 Max gradient component =       1.399E-02
 RMS gradient           =       6.247E-03
 Computing fast CPCM-SWIG gradient
 Updating gradient with PCM contributions...
 -- total gradient after adding PCM contribution --
---------------------------------------------------
  Atom         X              Y              Z     
---------------------------------------------------
   1      -0.000123       0.001174       0.000011
   2       0.000045      -0.000232       0.000006
   3       0.000060       0.000003       0.000039
   4      -0.000125      -0.000436      -0.000030
   5       0.000034      -0.000017      -0.000019
   6      -0.000022       0.000054       0.000031
   7       0.000221      -0.000529       0.000005
   8      -0.000051       0.000014      -0.000013
   9      -0.000000      -0.000013      -0.000022
  10      -0.000037      -0.000020      -0.000007
---------------------------------------------------
 Number of fixed atoms: 0
 Gradient time:  CPU 73.23 s  wall 6.04 s
 ----------------------------------------------------------------
             Standard Nuclear Orientation (Angstroms)
    I     Atom           X                Y                Z
 ----------------------------------------------------------------
    1      C       0.6577412246    -0.7578490746    -0.0096139290
    2      C      -0.6701156037    -0.6838368670    -0.1000838746
    3      C      -1.4324432050     0.5817270245    -0.1643395068
    4      C       1.5481813523     0.4140574228     0.0925204336
    5      O      -1.0330251109     1.5829476068    -0.7237663859
    6      O       2.7459442998     0.3212729499    -0.1022268890
    7      H       1.1522162581    -1.7200477685     0.0170106400
    8      H      -1.2665065116    -1.5878134749    -0.0993892462
    9      H      -2.4174951740     0.5679754932     0.3220117904
   10      H       1.1052501706     1.3737271877     0.3810697676
 ----------------------------------------------------------------
 Nuclear Repulsion Energy =         202.90645377 hartrees
 There are       22 alpha and       22 beta electrons
 Discretize the solute cavity surface with Lebedev spheres
	Using 110 Lebedev grid points for each H atom
	Using 194 Lebedev grid points for other atoms
	Atomic van der Waals radii will be scaled by 1.20
 Remove points where switching function is < 1.0e-08
 Keep 872 surface tesserae and discard 732 interior tesserae
 Molecular Surface Area = 109.723 Angst**2

                       Distance Matrix (Angstroms)
             C (  1)   C (  2)   C (  3)   C (  4)   O (  5)   O (  6)
   C (  2)  1.332992
   C (  3)  2.487423  1.478825
   C (  4)  1.475358  2.482601  2.996367
   O (  5)  2.974564  2.378864  1.214469  2.948772
   O (  6)  2.352376  3.560859  4.186958  1.217034  4.032213
   H (  7)  1.082146  2.099604  3.465764  2.171841  4.029120  2.592523
   H (  8)  2.097529  1.082985  2.176846  3.459304  3.240075  4.443465
   H (  9)  3.365244  2.190556  1.098660  3.975292  2.010119  5.186709
   H ( 10)  2.212807  2.759892  2.713784  1.095634  2.415917  2.008261
             H (  7)   H (  8)   H (  9)
   H (  8)  2.425130
   H (  9)  4.250990  2.479875
   H ( 10)  3.115476  3.824499  3.614202
 
 Requested basis set is 6-311++G(2df,2p)
 There are 72 shells and 244 basis functions
 A cutoff of  1.0D-12 yielded   2475 shell pairs
 There are     28624 function pairs (     36083 Cartesian)
 Smallest overlap matrix eigenvalue = 1.31E-05
 Guess MOs from SCF MO coefficient file

 -----------------------------------------------------------------------
  General SCF calculation program by
  Eric Jon Sundstrom, Paul Horn, Yuezhi Mao, Dmitri Zuev, Alec White,
  David Stuck, Shaama M.S., Shane Yost, Joonho Lee, David Small,
  Daniel Levine, Susi Lehtola, Hugh Burton, Evgeny Epifanovsky,
  Bang C. Huynh
 -----------------------------------------------------------------------
 Exchange:     0.1500 Hartree-Fock + 1.0000 wB97M-V + LR-HF
 Correlation:  1.0000 wB97M-V
 Using SG-2 standard quadrature grid
 Nonlocal Correlation:  VV10 with C = 0.0100 and b = 6.00 and scale = 1.00000
 Grid used for NLC:  SG-1 standard quadrature
 
 Citation of the SMD model:
 Marenich, A.V.; Cramer, C.J.; Truhlar, D.G.
 J. Phys. Chem. B 2009, 113, 6378-6396.
 iSolventCode=           1
 Solvent: water                                                           
 
 vradii
            1           2           3           4           5           6
    1   1.8500000   1.8500000   1.8500000   1.8500000   1.5200000   1.5200000
            7           8           9          10
    1   1.2000000   1.2000000   1.2000000   1.2000000
 -------------------------------------------------------
 OpenMP BLAS3 based DFT computing Module                
 Release: version 1.0, May 2013, Q-Chem Inc. Pittsburgh 
 -------------------------------------------------------
 A restricted SCF calculation will be
 performed using Roothaan-Hall, DIIS, GDM
 SCF converges when RMS gradient is below 1.0e-07
 ---------------------------------------
  Cycle       Energy         DIIS error
 ---------------------------------------
    1    -305.2145575285      6.42e-04  Roothaan Step
 ---------------------------------------
  Cycle       Energy         DIIS error
 ---------------------------------------
    1    -305.2322197258      9.43e-04  
    2    -305.2331476267      1.27e-03  Done DIIS. Switching to GDM
 ---------------------------------------
  Cycle       Energy        RMS Gradient
 ---------------------------------------
    1    -305.2331476267      3.57e-02   Normal BFGS step
    2    -305.2278403920      5.56e-02  Line search: overstep
    3    -305.2409254780      2.20e-03   Normal BFGS step
    4    -305.2412145565      2.14e-03   Normal BFGS step
    5    -305.2412460510      9.44e-04   Normal BFGS step
    6    -305.2412539489      3.19e-04   Normal BFGS step
    7    -305.2412544879      1.25e-04   Normal BFGS step
    8    -305.2412545457      2.49e-05   Normal BFGS step
    9    -305.2412545554      1.57e-05   Normal BFGS step
   10    -305.2412545566      8.34e-06   Normal BFGS step
   11    -305.2412545573      2.72e-06   Normal BFGS step
   12    -305.2412545573      1.06e-06   Normal BFGS step
   13    -305.2412545573      4.95e-07   Normal BFGS step
   14    -305.2412545573      2.45e-07   Normal BFGS step
   15    -305.2412545573      7.39e-08  Convergence criterion met
 ---------------------------------------
 SCF time:   CPU 469.22s  wall 30.00s 
(3)  G-ENP(liq) elect-nuc-pol free energy of system     -305.241254557 a.u.
(4)  G-CDS(liq) cavity-dispersion-solvent structure 
     free energy                                                5.0988 kcal/mol
(6)  G-S(liq) free energy of system                     -305.233129093 a.u.
 SCF   energy in the final basis set =     -305.2331290930
 Total energy in the final basis set =     -305.2331290930
 
 --------------------------------------------------------------
 
                    Orbital Energies (a.u.)
 --------------------------------------------------------------
 
 Alpha MOs
 -- Occupied --
-19.3528 -19.3474 -10.4494 -10.4449 -10.3746 -10.3722  -1.1988  -1.1923
 -0.9436  -0.8137  -0.7300  -0.6743  -0.6209  -0.5996  -0.5783  -0.5414
 -0.5287  -0.5160  -0.5100  -0.3968  -0.3912  -0.3725
 -- Virtual --
 -0.0184   0.0279   0.0446   0.0450   0.0558   0.0671   0.0795   0.0879
  0.1117   0.1144   0.1209   0.1315   0.1336   0.1533   0.1592   0.1616
  0.1687   0.1748   0.1881   0.1896   0.1972   0.2026   0.2401   0.2450
  0.2622   0.2743   0.2918   0.3108   0.3252   0.3335   0.3479   0.3529
  0.3536   0.3645   0.3762   0.4011   0.4344   0.4497   0.4960   0.5139
  0.5525   0.5564   0.5850   0.5917   0.6146   0.6253   0.6426   0.6440
  0.6554   0.6664   0.6839   0.6920   0.7178   0.7319   0.7539   0.7699
  0.7786   0.7853   0.8048   0.8357   0.8447   0.8555   0.8819   0.9248
  0.9565   1.0039   1.0396   1.0587   1.0849   1.0924   1.1136   1.1275
  1.1434   1.1616   1.1806   1.1936   1.2024   1.2079   1.2317   1.2644
  1.2792   1.3083   1.3262   1.3766   1.3915   1.4184   1.4222   1.4786
  1.4829   1.5075   1.5151   1.5688   1.6155   1.6565   1.6764   1.7098
  1.7664   1.7799   1.8249   1.8526   1.8967   1.9800   2.0550   2.0794
  2.0909   2.1150   2.3498   2.4035   2.4830   2.5404   2.5727   2.6024
  2.6389   2.6863   2.7390   2.7634   2.7995   2.8107   2.8242   2.8300
  2.8805   2.8928   2.8971   2.9161   2.9787   3.0178   3.0298   3.0442
  3.0818   3.1244   3.1331   3.1561   3.2025   3.2264   3.2419   3.2895
  3.2951   3.3214   3.3307   3.3670   3.3972   3.4025   3.4211   3.4438
  3.4664   3.5020   3.5065   3.5274   3.5771   3.6256   3.6407   3.6802
  3.7104   3.7262   3.7754   3.8053   3.8498   3.8548   3.8703   3.9066
  3.9548   4.0213   4.0586   4.1394   4.1823   4.1840   4.2251   4.2503
  4.2745   4.3287   4.3839   4.4460   4.5357   4.5711   4.6252   4.6692
  4.7704   4.8219   4.9016   4.9255   5.1141   5.1689   5.1734   5.1824
  5.1986   5.2110   5.2148   5.2409   5.3805   5.4012   5.4962   5.5188
  5.5701   5.5750   5.5973   5.6346   5.7966   5.8527   5.9275   6.0590
  6.3378   6.3504   6.7216   6.8123   6.9360   6.9733   6.9966   7.0190
  7.1373   7.1823   7.3123   7.3369   7.5102   7.5392   7.7201   7.7363
 24.3735  24.9391  24.9747  25.2250  50.6939  50.7044
 --------------------------------------------------------------
 
          Ground-State Mulliken Net Atomic Charges

     Atom                 Charge (a.u.)
  ----------------------------------------
      1 C                     0.065538
      2 C                    -0.047092
      3 C                    -0.094028
      4 C                    -0.078197
      5 O                    -0.359609
      6 O                    -0.407650
      7 H                     0.270710
      8 H                     0.271152
      9 H                     0.173529
     10 H                     0.205646
  ----------------------------------------
  Sum of atomic charges =     0.000000

 -----------------------------------------------------------------
                    Cartesian Multipole Moments
 -----------------------------------------------------------------
    Charge (ESU x 10^10)
                 0.0000
    Dipole Moment (Debye)
         X      -4.9708      Y      -3.5709      Z       2.1799
       Tot       6.4971
    Quadrupole Moments (Debye-Ang)
        XX     -44.2182     XY       1.5666     YY     -36.5265
        XZ      -0.1539     YZ       3.3393     ZZ     -36.2628
    Octopole Moments (Debye-Ang^2)
       XXX     -88.1609    XXY     -16.0175    XYY      -3.9367
       YYY     -38.0782    XXZ      10.4155    XYZ      -2.9774
       YYZ      10.7601    XZZ      -8.6111    YZZ      -8.3865
       ZZZ      17.0040
    Hexadecapole Moments (Debye-Ang^3)
      XXXX    -662.1564   XXXY      -0.6251   XXYY    -128.7005
      XYYY      29.3836   YYYY    -211.6834   XXXZ      -9.8450
      XXYZ      10.3277   XYYZ      -8.8830   YYYZ      28.1971
      XXZZ     -98.7652   XYZZ       7.4938   YYZZ     -48.5112
      XZZZ     -14.0493   YZZZ      20.1684   ZZZZ     -58.1416
 -----------------------------------------------------------------
 Calculating analytic gradient of the SCF energy
 Gradient of CDS energy
            1           2           3           4           5           6
    1  -0.0000983   0.0000429  -0.0004007   0.0027090  -0.0004589  -0.0015410
    2  -0.0006051  -0.0006164   0.0021008   0.0007196  -0.0010583   0.0000056
    3  -0.0000637   0.0000136  -0.0007464   0.0000168   0.0006181   0.0002290
            7           8           9          10
    1   0.0000948  -0.0000852  -0.0000715  -0.0001912
    2  -0.0001655  -0.0001800  -0.0000958  -0.0001050
    3   0.0000043   0.0000015   0.0000680  -0.0001413
 Gradient of SCF Energy
            1           2           3           4           5           6
    1   0.0108606  -0.0041021   0.0100630   0.0010827   0.0020107   0.0024332
    2   0.0095589   0.0062013   0.0021706  -0.0023845   0.0062762   0.0011169
    3  -0.0006579   0.0025213  -0.0053420   0.0004594  -0.0051701  -0.0018243
            7           8           9          10
    1   0.0027000  -0.0102045  -0.0122454  -0.0025983
    2  -0.0092609  -0.0139971  -0.0016538   0.0019723
    3   0.0000935   0.0009782   0.0065020   0.0024397
 Max gradient component =       1.400E-02
 RMS gradient           =       6.053E-03
 Computing fast CPCM-SWIG gradient
 Updating gradient with PCM contributions...
 -- total gradient after adding PCM contribution --
---------------------------------------------------
  Atom         X              Y              Z     
---------------------------------------------------
   1       0.000133      -0.001136      -0.000020
   2      -0.000083       0.000211      -0.000018
   3      -0.000065      -0.000009       0.000019
   4       0.000044       0.000385       0.000027
   5       0.000049      -0.000020      -0.000011
   6       0.000057      -0.000012       0.000021
   7      -0.000210       0.000548      -0.000020
   8       0.000056      -0.000012      -0.000000
   9      -0.000007       0.000004      -0.000012
  10       0.000025       0.000041       0.000012
---------------------------------------------------
 Number of fixed atoms: 0
 Gradient time:  CPU 73.79 s  wall 6.10 s
 ----------------------------------------------------------------
             Standard Nuclear Orientation (Angstroms)
    I     Atom           X                Y                Z
 ----------------------------------------------------------------
    1      C       0.6577412246    -0.7568490746    -0.0086139290
    2      C      -0.6701156037    -0.6838368670    -0.1000838746
    3      C      -1.4324432050     0.5817270245    -0.1643395068
    4      C       1.5481813523     0.4140574228     0.0925204336
    5      O      -1.0330251109     1.5829476068    -0.7237663859
    6      O       2.7459442998     0.3212729499    -0.1022268890
    7      H       1.1522162581    -1.7200477685     0.0170106400
    8      H      -1.2665065116    -1.5878134749    -0.0993892462
    9      H      -2.4174951740     0.5679754932     0.3220117904
   10      H       1.1052501706     1.3737271877     0.3810697676
 ----------------------------------------------------------------
 Nuclear Repulsion Energy =         202.91704749 hartrees
 There are       22 alpha and       22 beta electrons
 Discretize the solute cavity surface with Lebedev spheres
	Using 110 Lebedev grid points for each H atom
	Using 194 Lebedev grid points for other atoms
	Atomic van der Waals radii will be scaled by 1.20
 Remove points where switching function is < 1.0e-08
 Keep 872 surface tesserae and discard 732 interior tesserae
 Molecular Surface Area = 109.720 Angst**2

                       Distance Matrix (Angstroms)
             C (  1)   C (  2)   C (  3)   C (  4)   O (  5)   O (  6)
   C (  2)  1.333005
   C (  3)  2.486947  1.478825
   C (  4)  1.474494  2.482601  2.996367
   O (  5)  2.974018  2.378864  1.214469  2.948772
   O (  6)  2.351957  3.560859  4.186958  1.217034  4.032213
   H (  7)  1.083011  2.099604  3.465764  2.171841  4.029120  2.592523
   H (  8)  2.097968  1.082985  2.176846  3.459304  3.240075  4.443465
   H (  9)  3.364751  2.190556  1.098660  3.975292  2.010119  5.186709
   H ( 10)  2.211667  2.759892  2.713784  1.095634  2.415917  2.008261
             H (  7)   H (  8)   H (  9)
   H (  8)  2.425130
   H (  9)  4.250990  2.479875
   H ( 10)  3.115476  3.824499  3.614202
 
 Requested basis set is 6-311++G(2df,2p)
 There are 72 shells and 244 basis functions
 A cutoff of  1.0D-12 yielded   2475 shell pairs
 There are     28624 function pairs (     36083 Cartesian)
 Smallest overlap matrix eigenvalue = 1.31E-05
 Guess MOs from SCF MO coefficient file

 -----------------------------------------------------------------------
  General SCF calculation program by
  Eric Jon Sundstrom, Paul Horn, Yuezhi Mao, Dmitri Zuev, Alec White,
  David Stuck, Shaama M.S., Shane Yost, Joonho Lee, David Small,
  Daniel Levine, Susi Lehtola, Hugh Burton, Evgeny Epifanovsky,
  Bang C. Huynh
 -----------------------------------------------------------------------
 Exchange:     0.1500 Hartree-Fock + 1.0000 wB97M-V + LR-HF
 Correlation:  1.0000 wB97M-V
 Using SG-2 standard quadrature grid
 Nonlocal Correlation:  VV10 with C = 0.0100 and b = 6.00 and scale = 1.00000
 Grid used for NLC:  SG-1 standard quadrature
 
 Citation of the SMD model:
 Marenich, A.V.; Cramer, C.J.; Truhlar, D.G.
 J. Phys. Chem. B 2009, 113, 6378-6396.
 iSolventCode=           1
 Solvent: water                                                           
 
 vradii
            1           2           3           4           5           6
    1   1.8500000   1.8500000   1.8500000   1.8500000   1.5200000   1.5200000
            7           8           9          10
    1   1.2000000   1.2000000   1.2000000   1.2000000
 -------------------------------------------------------
 OpenMP BLAS3 based DFT computing Module                
 Release: version 1.0, May 2013, Q-Chem Inc. Pittsburgh 
 -------------------------------------------------------
 A restricted SCF calculation will be
 performed using Roothaan-Hall, DIIS, GDM
 SCF converges when RMS gradient is below 1.0e-07
 ---------------------------------------
  Cycle       Energy         DIIS error
 ---------------------------------------
    1    -305.2145631703      6.42e-04  Roothaan Step
 ---------------------------------------
  Cycle       Energy         DIIS error
 ---------------------------------------
    1    -305.2322230799      9.43e-04  
    2    -305.2331442463      1.27e-03  Done DIIS. Switching to GDM
 ---------------------------------------
  Cycle       Energy        RMS Gradient
 ---------------------------------------
    1    -305.2331442463      3.58e-02   Normal BFGS step
    2    -305.2278317507      5.57e-02  Line search: overstep
    3    -305.2409246603      2.18e-03   Normal BFGS step
    4    -305.2412140515      2.15e-03   Normal BFGS step
    5    -305.2412456485      9.44e-04   Normal BFGS step
    6    -305.2412535117      3.24e-04   Normal BFGS step
    7    -305.2412540634      1.28e-04   Normal BFGS step
    8    -305.2412541218      2.55e-05   Normal BFGS step
    9    -305.2412541316      1.64e-05   Normal BFGS step
   10    -305.2412541330      8.28e-06   Normal BFGS step
   11    -305.2412541337      2.74e-06   Normal BFGS step
   12    -305.2412541337      1.11e-06   Normal BFGS step
   13    -305.2412541337      5.25e-07   Normal BFGS step
   14    -305.2412541337      2.46e-07   Normal BFGS step
   15    -305.2412541337      6.99e-08  Convergence criterion met
 ---------------------------------------
 SCF time:   CPU 467.35s  wall 30.00s 
(3)  G-ENP(liq) elect-nuc-pol free energy of system     -305.241254134 a.u.
(4)  G-CDS(liq) cavity-dispersion-solvent structure 
     free energy                                                5.0980 kcal/mol
(6)  G-S(liq) free energy of system                     -305.233129929 a.u.
 SCF   energy in the final basis set =     -305.2331299292
 Total energy in the final basis set =     -305.2331299292
 
 --------------------------------------------------------------
 
                    Orbital Energies (a.u.)
 --------------------------------------------------------------
 
 Alpha MOs
 -- Occupied --
-19.3528 -19.3474 -10.4494 -10.4449 -10.3747 -10.3722  -1.1988  -1.1923
 -0.9437  -0.8138  -0.7300  -0.6742  -0.6209  -0.5996  -0.5784  -0.5413
 -0.5287  -0.5159  -0.5100  -0.3968  -0.3912  -0.3725
 -- Virtual --
 -0.0185   0.0279   0.0446   0.0450   0.0559   0.0671   0.0795   0.0879
  0.1117   0.1143   0.1209   0.1316   0.1336   0.1533   0.1592   0.1616
  0.1686   0.1747   0.1881   0.1896   0.1972   0.2026   0.2401   0.2452
  0.2621   0.2743   0.2917   0.3108   0.3251   0.3336   0.3479   0.3529
  0.3536   0.3645   0.3760   0.4012   0.4344   0.4499   0.4962   0.5140
  0.5524   0.5564   0.5850   0.5917   0.6144   0.6253   0.6425   0.6440
  0.6554   0.6664   0.6839   0.6920   0.7179   0.7319   0.7538   0.7700
  0.7786   0.7854   0.8046   0.8356   0.8448   0.8555   0.8819   0.9248
  0.9567   1.0037   1.0396   1.0588   1.0848   1.0925   1.1136   1.1276
  1.1434   1.1615   1.1806   1.1937   1.2024   1.2079   1.2317   1.2644
  1.2791   1.3084   1.3263   1.3765   1.3915   1.4186   1.4223   1.4786
  1.4829   1.5075   1.5151   1.5686   1.6154   1.6565   1.6763   1.7099
  1.7664   1.7801   1.8247   1.8527   1.8968   1.9801   2.0547   2.0802
  2.0909   2.1150   2.3498   2.4037   2.4830   2.5404   2.5729   2.6028
  2.6387   2.6866   2.7388   2.7638   2.7998   2.8106   2.8241   2.8298
  2.8807   2.8930   2.8970   2.9159   2.9788   3.0177   3.0295   3.0443
  3.0817   3.1242   3.1330   3.1562   3.2024   3.2265   3.2418   3.2899
  3.2951   3.3214   3.3310   3.3670   3.3973   3.4027   3.4210   3.4437
  3.4665   3.5021   3.5064   3.5274   3.5772   3.6258   3.6407   3.6803
  3.7103   3.7262   3.7754   3.8055   3.8504   3.8546   3.8706   3.9066
  3.9544   4.0219   4.0588   4.1395   4.1823   4.1841   4.2250   4.2504
  4.2748   4.3292   4.3835   4.4457   4.5361   4.5709   4.6253   4.6688
  4.7706   4.8224   4.9019   4.9253   5.1142   5.1690   5.1734   5.1823
  5.1986   5.2108   5.2147   5.2409   5.3805   5.4013   5.4961   5.5189
  5.5703   5.5752   5.5973   5.6346   5.7965   5.8527   5.9268   6.0590
  6.3378   6.3504   6.7221   6.8125   6.9361   6.9733   6.9967   7.0191
  7.1375   7.1825   7.3123   7.3369   7.5103   7.5392   7.7200   7.7363
 24.3731  24.9393  24.9750  25.2252  50.6939  50.7045
 --------------------------------------------------------------
 
          Ground-State Mulliken Net Atomic Charges

     Atom                 Charge (a.u.)
  ----------------------------------------
      1 C                     0.067803
      2 C                    -0.048757
      3 C                    -0.092672
      4 C                    -0.079573
      5 O                    -0.359588
      6 O                    -0.407835
      7 H                     0.270519
      8 H                     0.271128
      9 H                     0.173445
     10 H                     0.205530
  ----------------------------------------
  Sum of atomic charges =     0.000000

 -----------------------------------------------------------------
                    Cartesian Multipole Moments
 -----------------------------------------------------------------
    Charge (ESU x 10^10)
                -0.0000
    Dipole Moment (Debye)
         X      -4.9745      Y      -3.5718      Z       2.1789
       Tot       6.5001
    Quadrupole Moments (Debye-Ang)
        XX     -44.2208     XY       1.5701     YY     -36.5283
        XZ      -0.1535     YZ       3.3404     ZZ     -36.2623
    Octopole Moments (Debye-Ang^2)
       XXX     -88.1744    XXY     -16.0223    XYY      -3.9471
       YYY     -38.0942    XXZ      10.4100    XYZ      -2.9761
       YYZ      10.7515    XZZ      -8.6133    YZZ      -8.3914
       ZZZ      16.9852
    Hexadecapole Moments (Debye-Ang^3)
      XXXX    -662.1760   XXXY      -0.6169   XXYY    -128.6992
      XYYY      29.3846   YYYY    -211.6496   XXXZ      -9.8490
      XXYZ      10.3349   XYYZ      -8.8878   YYYZ      28.2127
      XXZZ     -98.7657   XYZZ       7.4933   YYZZ     -48.5045
      XZZZ     -14.0583   YZZZ      20.1831   ZZZZ     -58.1387
 -----------------------------------------------------------------
 Calculating analytic gradient of the SCF energy
 Gradient of CDS energy
            1           2           3           4           5           6
    1  -0.0000981   0.0000434  -0.0004008   0.0027081  -0.0004589  -0.0015410
    2  -0.0006020  -0.0006169   0.0021009   0.0007179  -0.0010583   0.0000057
[...]
     6   -4.742374324992506e-04  -5.330167704293041e-04  -2.716844835284241e-03
     7    5.739728139214821e-04   2.389211565946630e-04  -8.135563244884670e-03
     8    3.097947704732340e-04  -5.625897851977730e-04   2.513429188521476e-02
     9   -7.714523303601545e-04   4.369106797806593e-05  -8.183602402272378e-04
    10    4.271972850339552e-04   6.523169320657482e-04  -1.657038868539373e-03


     9 Order 1, Length 30
    Atom      X          Y          Z
     1   -2.634804559457887e-04   1.631770286752245e-03   5.514393240238582e-04
     2   -7.906655247349154e-03   6.589123894096389e-04   1.215536847600282e-02
     3   -2.537086604244355e-01   1.798823338614347e-02   8.815266012576339e-02
     4    1.691335564304226e-03   1.194286772923137e-03   1.015848536943819e-03
     5   -4.792982912318056e-03  -1.658983298924398e-02   1.766586019526333e-02
     6   -1.183809940852574e-03  -3.585052703103293e-04  -9.273234156600898e-05
     7   -6.144128715896711e-04  -1.143570321383276e-04  -1.121103976006696e-03
     8   -3.547990744055789e-04   1.149364206748415e-03  -7.714523303601545e-04
     9    2.670621760743100e-01  -5.391002583097351e-03  -1.173912236615186e-01
    10    7.133845751124326e-05  -1.688913639728172e-04  -1.646659076334286e-04

Order 1, Length 30
    Atom      X          Y          Z
     1    2.385944342299162e-03  -4.479360938742360e-03   7.930334702511855e-04
     2    2.613071048531078e-02   4.541090232374282e-03  -6.757626269769118e-03
     3    1.364055289589238e-02  -6.134795953430290e-02  -9.592453603896555e-03
     4   -1.302979758355204e-03  -1.081860118313781e-03  -1.533790835780076e-04
     5   -3.614620077452309e-02  -3.330728790374464e-03   2.665152432844666e-02
     6    8.467022921469236e-04   2.768763550506549e-04  -7.376996647116668e-05
     7    1.216679198135424e-03  -4.705173462845512e-06   6.958962483081177e-04
     8   -1.377179738094574e-03   9.572758279179684e-04   4.369106797806593e-05
     9   -5.391002583097351e-03   6.430440478354203e-02  -1.159192377448811e-02
    10   -3.204970213513484e-06   1.649597060309829e-04  -1.496855260935020e-05

Order 1, Length 30
    Atom      X          Y          Z
     1   -2.632302912058292e-04  -2.698587874594805e-03   4.045631395628232e-04
     2    6.004709766715119e-03   5.690479370498992e-03   1.632020404036871e-02
     3    8.617199386283218e-02  -1.076232062380067e-02  -9.981692408162063e-02
     4    3.096057582253171e-04   1.266806274014412e-03   1.623844254055317e-03
     5    2.513407245466147e-02   1.808212663358778e-02   7.931666960224598e-04
     6   -3.252360985221495e-04  -3.612855670657896e-04  -2.894904345901606e-04
     7    5.549978450088186e-04   1.137099900376922e-04  -1.943515805468430e-03
     8   -2.948028394335464e-04   6.006667698125146e-04  -8.183602402272378e-04
     9   -1.173912236615186e-01  -1.159192377448811e-02   8.382107342054573e-02
    10    9.914478809658772e-05  -3.396632474930538e-04  -9.447906075603668e-05


    10 Order 1, Length 30
    Atom      X          Y          Z
     1    1.101858917203335e-02  -1.633107025980516e-02  -2.784830404982396e-03
     2   -3.816772023346964e-04   1.591631830446838e-03  -3.326264972681170e-05
     3   -1.633290087547819e-03  -2.007536542447040e-03  -6.010664740938232e-04
     4   -8.281312339423069e-02   7.223616400911212e-02   2.079602137502076e-02
     5   -2.535279015157431e-03   1.566444832157597e-03  -1.453668243789427e-03
     6   -3.173302539214147e-02   3.682982878842879e-02   1.581658814934337e-02
     7   -2.165182694720536e-03  -2.880418532938957e-03   3.190498233090670e-04
     8   -1.288626718154844e-04   1.985779118540512e-04   4.271972850339552e-04
     9    7.133845751124326e-05  -3.204970213513484e-06   9.914478809658772e-05
    10    1.103004630086993e-01  -9.120038193857677e-02  -3.258516837603415e-02

Order 1, Length 30
    Atom      X          Y          Z
     1    9.830654764356555e-03  -1.591712367400459e-02  -7.834177401228036e-03
     2   -6.410276339424498e-04  -2.551045220503517e-04   5.608395353394733e-04
     3   -3.557160693800958e-04  -2.048166783155282e-03   3.067162655110554e-04
     4    6.879860413881342e-02  -2.611837713576568e-01  -5.814725239703100e-02
     5    3.244708381115221e-03   1.477751390381260e-03   8.333382463951321e-04
     6    1.328656186429919e-02   1.058922671046224e-02  -3.561212445856670e-03
     7   -2.325936123441236e-03  -2.195673490577659e-03  -1.104484598788120e-03
     8   -4.684753818275141e-04   2.122078006129210e-04   6.523169320657482e-04
     9   -1.688913639728172e-04   1.649597060309829e-04  -3.396632474930538e-04
    10   -9.120038193857677e-02   2.691556573818499e-01   6.863356714012164e-02

Order 1, Length 30
    Atom      X          Y          Z
     1    7.121879235819722e-03  -5.017969225987340e-03   1.686074289800071e-02
     2   -2.494088454449665e-05   1.802689001264298e-03  -6.189125918409429e-04
     3   -6.291362107445936e-04   5.339457936400391e-04   1.369697809816886e-03
     4    1.741184784074347e-02  -5.667423714676181e-02  -7.511977745876572e-02
     5   -2.237642151392892e-03   2.940678202333559e-04  -8.548736424248134e-04
     6    1.187459531733951e-02  -8.768919673963482e-03   1.630276613674066e-02
     7   -8.149157898675033e-04  -6.563313117501454e-04   1.118707017264624e-03
     8    4.811687218058105e-05  -1.318442364308824e-04  -1.657038868539373e-03
     9   -1.646659076334286e-04  -1.496855260935020e-05  -9.447906075603668e-05
    10   -3.258516837603415e-02   6.863356714012164e-02   4.269322893720783e-02




 # Finishing finite difference calculation for IDERIV #
 ######################################################
 ######################################################
 Requested basis set is 6-311++G(2df,2p)
 There are 72 shells and 244 basis functions
 **********************************************************************
 **                                                                  **
 **                       VIBRATIONAL ANALYSIS                       **
 **                       --------------------                       **
 **                                                                  **
 **        VIBRATIONAL FREQUENCIES (CM**-1) AND NORMAL MODES         **
 **     FORCE CONSTANTS (mDYN/ANGSTROM) AND REDUCED MASSES (AMU)     **
 **                  INFRARED INTENSITIES (KM/MOL)                   **
 **                                                                  **
 **********************************************************************
 

 Mode:                 1                      2                      3
 Frequency:        57.49                 145.67                 211.46
 Force Cnst:      0.0092                 0.0331                 0.1166
 Red. Mass:       4.7447                 2.6460                 4.4257
 IR Active:          YES                    YES                    YES
 IR Intens:        6.552                 18.242                 21.320
 Raman Active:       YES                    YES                    YES
               X      Y      Z        X      Y      Z        X      Y      Z
 C         -0.048 -0.040  0.146   -0.012 -0.069 -0.115   -0.053 -0.023 -0.125
 C         -0.038 -0.061 -0.004   -0.013 -0.007 -0.012   -0.073 -0.080  0.090
 C          0.027 -0.037 -0.137    0.122  0.083  0.182    0.047 -0.018  0.020
 C         -0.083 -0.008  0.194   -0.064 -0.051  0.091   -0.148  0.070 -0.276
 O          0.267 -0.007  0.081    0.035 -0.071 -0.156    0.271 -0.061  0.098
 O         -0.146  0.132 -0.250   -0.067  0.096  0.011   -0.078  0.087  0.149
 H         -0.025 -0.027  0.175   -0.010 -0.072 -0.307    0.015  0.016 -0.011
 H         -0.041 -0.058 -0.082   -0.087  0.040 -0.101   -0.092 -0.063  0.340
 H         -0.127 -0.021 -0.451    0.335  0.307  0.618   -0.007  0.113 -0.090
 H         -0.047 -0.132  0.664   -0.115 -0.150  0.353   -0.276  0.126 -0.701
 TransDip  -0.014 -0.050  0.063   -0.031 -0.008  0.133   -0.085  0.007 -0.121

 Mode:                 4                      5                      6
 Frequency:       319.77                 371.37                 554.41
 Force Cnst:      0.1915                 0.2798                 0.9765
 Red. Mass:       3.1788                 3.4435                 5.3921
 IR Active:          YES                    YES                    YES
 IR Intens:        8.016                 23.493                 15.813
 Raman Active:       YES                    YES                    YES
               X      Y      Z        X      Y      Z        X      Y      Z
 C          0.042 -0.178  0.222    0.052 -0.211 -0.112   -0.187 -0.033  0.099
 C          0.079 -0.034 -0.153    0.030  0.061  0.215   -0.234 -0.011 -0.164
 C          0.139  0.040 -0.003   -0.040  0.052 -0.088   -0.179  0.017  0.049
 C         -0.082 -0.077 -0.086    0.024 -0.198 -0.017    0.208 -0.107 -0.044
 O         -0.071  0.133  0.021   -0.065  0.105 -0.015    0.065 -0.107  0.023
 O         -0.061  0.067 -0.006    0.056  0.155  0.026    0.266  0.212 -0.000
 H          0.001 -0.190  0.492   -0.106 -0.295 -0.199   -0.464 -0.175  0.345
 H         -0.043  0.045 -0.222   -0.100  0.143  0.387   -0.187 -0.046 -0.163
 H          0.267 -0.038  0.263   -0.233 -0.109 -0.484   -0.051  0.267  0.317
 H         -0.251 -0.027 -0.526   -0.191 -0.343  0.149    0.121 -0.114 -0.138
 TransDip   0.015 -0.086 -0.025   -0.015 -0.148 -0.044   -0.124 -0.023  0.018

 Mode:                 7                      8                      9
 Frequency:       665.80                 821.36                 942.88
 Force Cnst:      0.3722                 1.2152                 1.3979
 Red. Mass:       1.4250                 3.0572                 2.6688
 IR Active:          YES                    YES                    YES
 IR Intens:      109.466                 27.480                 87.219
 Raman Active:       YES                    YES                    YES
               X      Y      Z        X      Y      Z        X      Y      Z
 C         -0.036  0.025 -0.082    0.076  0.036 -0.050   -0.141  0.055  0.009
 C         -0.045 -0.089 -0.031    0.129  0.290 -0.131   -0.058  0.151  0.022
 C          0.075 -0.032 -0.059   -0.102 -0.025  0.044    0.268 -0.153  0.005
 C          0.017  0.024 -0.000   -0.056 -0.098 -0.015    0.015 -0.003 -0.007
 O         -0.035  0.062  0.010    0.046 -0.130  0.030   -0.043 -0.043  0.014
 O          0.013 -0.003  0.008   -0.065 -0.012  0.006    0.017  0.019  0.002
 H         -0.013  0.052  0.523   -0.216 -0.088  0.607   -0.393 -0.070 -0.168
 H         -0.064 -0.074  0.677    0.223  0.238  0.442   -0.367  0.365 -0.122
 H          0.210  0.002  0.218   -0.078 -0.115  0.089    0.138 -0.532 -0.273
 H          0.082 -0.043  0.345   -0.166 -0.182  0.100    0.043  0.020 -0.040
 TransDip   0.225 -0.088  0.232   -0.095  0.001  0.139    0.236 -0.172 -0.064

 Mode:                10                     11                     12
 Frequency:      1020.26                1030.28                1053.48
 Force Cnst:      0.8777                 1.1403                 1.0602
 Red. Mass:       1.4311                 1.8234                 1.6213
 IR Active:          YES                    YES                    YES
 IR Intens:       17.400                 27.552                  4.044
 Raman Active:       YES                    YES                    YES
               X      Y      Z        X      Y      Z        X      Y      Z
 C          0.012 -0.072 -0.062   -0.011  0.071  0.087   -0.000 -0.062  0.118
 C         -0.010 -0.028  0.003    0.022  0.011  0.051    0.003 -0.009 -0.140
 C          0.017  0.058  0.121   -0.002 -0.020 -0.047   -0.000  0.043  0.083
 C          0.006  0.078 -0.045   -0.044 -0.053 -0.217   -0.002  0.061 -0.068
 O         -0.009 -0.018 -0.027   -0.001  0.008  0.010   -0.002 -0.016 -0.016
 O          0.007 -0.012  0.010    0.007  0.002  0.051    0.008 -0.008  0.016
 H          0.132  0.005  0.610    0.005  0.079 -0.061    0.146 -0.011 -0.538
 H         -0.224  0.108 -0.379    0.166 -0.079 -0.366   -0.156  0.091  0.619
 H         -0.265 -0.106 -0.449    0.110  0.043  0.179   -0.183 -0.094 -0.292
 H          0.100  0.033  0.269    0.047 -0.307  0.779    0.090 -0.000  0.288
 TransDip   0.061  0.100  0.064   -0.118 -0.081 -0.088    0.027  0.052  0.026

 Mode:                13                     14                     15
 Frequency:      1106.04                1210.02                1377.64
 Force Cnst:      1.7039                 1.0353                 1.4634
 Red. Mass:       2.3639                 1.2001                 1.3087
 IR Active:          YES                    YES                    YES
 IR Intens:       46.505                 27.168                 20.716
 Raman Active:       YES                    YES                    YES
               X      Y      Z        X      Y      Z        X      Y      Z
 C         -0.038  0.201  0.004    0.027  0.056  0.008   -0.088 -0.092 -0.011
 C          0.002 -0.098 -0.042   -0.036  0.007 -0.006   -0.033  0.084  0.008
 C          0.081  0.054  0.133   -0.013 -0.004 -0.021    0.009  0.003  0.000
 C         -0.022 -0.193  0.012   -0.014 -0.102  0.010   -0.013 -0.030 -0.001
 O         -0.016  0.028 -0.042    0.002 -0.016  0.010    0.010  0.007 -0.009
 O         -0.002  0.030 -0.004    0.013  0.014 -0.004   -0.013  0.028  0.008
 H         -0.068  0.199  0.069    0.693  0.396  0.034    0.427  0.169  0.028
 H          0.461 -0.393  0.114   -0.479  0.294 -0.001    0.478 -0.245  0.010
 H         -0.241 -0.084 -0.536    0.030 -0.046  0.072    0.049 -0.287  0.067
 H         -0.141 -0.197 -0.196   -0.051 -0.098 -0.089    0.568  0.244 -0.036
 TransDip  -0.144 -0.164 -0.009   -0.162 -0.030 -0.027    0.137 -0.050  0.012

 Mode:                16                     17                     18
 Frequency:      1420.36                1436.54                1696.59
 Force Cnst:      1.4494                 1.7206                15.9495
 Red. Mass:       1.2194                 1.4151                 9.4047
 IR Active:          YES                    YES                    YES
 IR Intens:       45.047                 15.206                284.595
 Raman Active:       YES                    YES                    YES
               X      Y      Z        X      Y      Z        X      Y      Z
 C          0.000 -0.010 -0.001    0.045  0.064 -0.002   -0.469 -0.024 -0.040
 C          0.011  0.030 -0.012    0.073 -0.082  0.004    0.499 -0.117  0.028
 C          0.066 -0.044 -0.024   -0.049  0.032  0.002   -0.018  0.214 -0.097
 C         -0.002 -0.030 -0.007   -0.007 -0.082 -0.017   -0.298  0.034  0.068
 O         -0.054 -0.042  0.043    0.017  0.008 -0.010   -0.037 -0.120  0.069
 O         -0.023  0.016  0.007   -0.065  0.035  0.017    0.266 -0.013 -0.046
 H          0.050  0.017  0.012   -0.347 -0.130 -0.020   -0.000  0.291  0.027
 H          0.011  0.040  0.016   -0.350  0.190  0.002   -0.113  0.351  0.046
 H         -0.048  0.887 -0.274   -0.013 -0.202  0.096    0.035  0.064  0.038
 H          0.318  0.115 -0.017    0.742  0.256 -0.043   -0.145  0.138  0.000
 TransDip   0.204  0.025 -0.063   -0.122 -0.018 -0.019   -0.449  0.298 -0.043

 Mode:                19                     20                     21
 Frequency:      1739.56                1752.70                3025.86
 Force Cnst:     13.9391                15.4797                 5.8606
 Red. Mass:       7.8182                 8.5526                 1.0864
 IR Active:          YES                    YES                    YES
 IR Intens:      517.777                278.572                 93.207
 Raman Active:       YES                    YES                    YES
               X      Y      Z        X      Y      Z        X      Y      Z
 C         -0.300 -0.027 -0.009    0.150  0.021  0.006   -0.000  0.000  0.000
 C          0.240 -0.047  0.012   -0.172 -0.021  0.009    0.003  0.001  0.000
 C         -0.034  0.035 -0.011    0.188  0.533 -0.261   -0.076  0.002  0.036
 C          0.551  0.015 -0.066    0.075  0.002 -0.009    0.001  0.000 -0.000
 O          0.003 -0.013  0.007   -0.135 -0.345  0.188    0.000 -0.000 -0.000
 O         -0.336  0.024  0.053   -0.065 -0.002  0.009   -0.000 -0.000  0.000
 H          0.243  0.263 -0.008   -0.085 -0.132 -0.035   -0.001 -0.002  0.002
 H         -0.026  0.157 -0.017    0.143 -0.261  0.004   -0.026 -0.027 -0.000
 H         -0.018  0.038  0.044    0.276 -0.427 -0.053    0.896 -0.004 -0.435
 H         -0.353 -0.366 -0.081   -0.028 -0.043  0.003    0.001 -0.001 -0.000
 TransDip   0.709  0.156 -0.066    0.025  0.463 -0.266   -0.284 -0.034  0.118

 Mode:                22                     23                     24
 Frequency:      3056.67                3188.31                3204.09
 Force Cnst:      5.9871                 6.5072                 6.6395
 Red. Mass:       1.0876                 1.0865                 1.0977
 IR Active:          YES                    YES                    YES
 IR Intens:       34.010                  1.617                  0.071
 Raman Active:       YES                    YES                    YES
               X      Y      Z        X      Y      Z        X      Y      Z
 C          0.001  0.003  0.000    0.028 -0.057  0.001    0.032 -0.051  0.002
 C         -0.001 -0.001  0.000    0.029  0.047 -0.000   -0.041 -0.053 -0.000
 C         -0.000 -0.001  0.000    0.002 -0.001 -0.001   -0.003  0.002  0.001
 C          0.031 -0.076 -0.022    0.002 -0.000 -0.000    0.002  0.001 -0.000
 O          0.001  0.000  0.000    0.000 -0.000  0.000   -0.000 -0.000 -0.000
 O         -0.000  0.001  0.000   -0.000 -0.000  0.000   -0.001 -0.000  0.000
 H          0.009 -0.013 -0.002   -0.337  0.667 -0.017   -0.299  0.586 -0.018
 H         -0.000  0.003 -0.001   -0.358 -0.553  0.002    0.409  0.625 -0.001
 H          0.000  0.001 -0.002   -0.020  0.003  0.010    0.025 -0.005 -0.011
 H         -0.394  0.879  0.254   -0.005  0.013  0.005   -0.003  0.008  0.002
 TransDip   0.061 -0.157 -0.081    0.039 -0.011 -0.003    0.006 -0.006  0.003

 STANDARD THERMODYNAMIC QUANTITIES AT   298.15 K  AND     1.00 ATM

   This Molecule has  0 Imaginary Frequencies
   Zero point vibrational energy:       44.901 kcal/mol

   Atom    1 Element C  Has Mass   12.00000
   Atom    2 Element C  Has Mass   12.00000
   Atom    3 Element C  Has Mass   12.00000
   Atom    4 Element C  Has Mass   12.00000
   Atom    5 Element O  Has Mass   15.99491
   Atom    6 Element O  Has Mass   15.99491
   Atom    7 Element H  Has Mass    1.00783
   Atom    8 Element H  Has Mass    1.00783
   Atom    9 Element H  Has Mass    1.00783
   Atom   10 Element H  Has Mass    1.00783
   Molecular Mass:    84.021140 amu
   Principal axes and moments of inertia in amu*Bohr^2:
                             1           2           3
    Eigenvalues --      224.47706   753.53756   957.81565
          X               0.98279     0.17411    -0.06179
          Y              -0.15835     0.96615     0.20367
          Z               0.09515    -0.19038     0.97709
   Rotational Symmetry Number is   1
   The Molecule is an Asymmetric Top
   Translational Enthalpy:        0.889 kcal/mol
   Rotational Enthalpy:           0.889 kcal/mol
   Vibrational Enthalpy:         46.999 kcal/mol
   gas constant (RT):             0.592 kcal/mol
   Translational Entropy:        39.199  cal/mol.K
   Rotational Entropy:           26.585  cal/mol.K
   Vibrational Entropy:          13.289  cal/mol.K

   Total Enthalpy:               49.369 kcal/mol
   Total Entropy:                79.072  cal/mol.K
 Total job time:  2268.32s(wall), 33663.18s(cpu) 
 Thu Mar  7 23:35:34 2024

        *************************************************************
        *                                                           *
        *  Thank you very much for using Q-Chem.  Have a nice day.  *
        *                                                           *
        *************************************************************


