
Running Job 1 of 1 Q_in.in
qchem Q_in.in_401367.0 /scratch/ari.fischer/qChem1382090.hpc-mn1/qchem401367/ 0
/usr/local/qchem-5.4.1/exe/qcprog.exe_s Q_in.in_401367.0 /scratch/ari.fischer/qChem1382090.hpc-mn1/qchem401367/
                  Welcome to Q-Chem
     A Quantum Leap Into The Future Of Chemistry


 Q-Chem 5.4, Q-Chem, Inc., Pleasanton, CA (2021)

 License issued to: Nanyang Technological University (site)

 E. Epifanovsky,  A. T. B. Gilbert,  Xintian Feng,  Joonho Lee,  Yuezhi Mao,  
 N. Mardirossian,  P. Pokhilko,  A. White,  M. Wormit,  M. P. Coons,  
 A. L. Dempwolff,  Zhengting Gan,  D. Hait,  P. R. Horn,  L. D. Jacobson,  
 I. Kaliman,  J. Kussmann,  A. W. Lange,  Ka Un Lao,  D. S. Levine,  Jie Liu,  
 S. C. McKenzie,  A. F. Morrison,  K. Nanda,  F. Plasser,  D. R. Rehn,  
 M. L. Vidal,  Zhi-Qiang You,  Ying Zhu,  B. Alam,  B. Albrecht,  
 A. Aldossary,  E. Alguire,  J. H. Andersen,  D. Barton,  K. Begam,  A. Behn,  
 Y. A. Bernard,  E. J. Berquist,  H. Burton,  A. Carreras,  K. Carter-Fenk,  
 R. Chakraborty,  A. D. Chien,  K. D. Closser,  V. Cofer-Shabica,  
 S. Dasgupta,  Jia Deng,  M. de Wergifosse,  M. Diedenhofen,  Hainam Do,  
 S. Ehlert,  Po-Tung Fang,  S. Fatehi,  Qingguo Feng,  T. Friedhoff,  
 J. Gayvert,  Qinghui Ge,  G. Gidofalvi,  M. Goldey,  J. Gomes,  
 C. Gonzalez-Espinoza,  S. Gulania,  A. Gunina,  M. W. D. Hanson-Heine,  
 P. H. P. Harbach,  A. W. Hauser,  M. F. Herbst,  M. Hernandez Vera,  
 M. Hodecker,  Z. C. Holden,  S. Houck,  Xunkun Huang,  Kerwin Hui,  
 B. C. Huynh,  M. Ivanov,  Hyunjun Ji,  Hanjie Jiang,  B. Kaduk,  S. Kaehler,  
 K. Khistyaev,  Jaehoon Kim,  P. Klunzinger,  Z. Koczor-Benda,  
 Joong Hoon Koh,  D. Kosenkov,  L. Koulias,  T. Kowalczyk,  C. M. Krauter,  
 K. Kue,  A. Kunitsa,  T. Kus,  A. Landau,  K. V. Lawler,  D. Lefrancois,  
 S. Lehtola,  Rain Li,  Yi-Pei Li,  Jiashu Liang,  M. Liebenthal,  
 Hung-Hsuan Lin,  You-Sheng Lin,  Fenglai Liu,  Kuan-Yu Liu,  
 M. Loipersberger,  A. Luenser,  A. Manjanath,  P. Manohar,  E. Mansoor,  
 S. F. Manzer,  Shan-Ping Mao,  A. V. Marenich,  T. Markovich,  S. Mason,  
 S. A. Maurer,  P. F. McLaughlin,  M. F. S. J. Menger,  J.-M. Mewes,  
 S. A. Mewes,  P. Morgante,  J. W. Mullinax,  K. J. Oosterbaan,  G. Paran,  
 Alexander C. Paul,  Suranjan K. Paul,  F. Pavosevic,  Zheng Pei,  S. Prager,  
 E. I. Proynov,  E. Ramos,  B. Rana,  A. E. Rask,  A. Rettig,  R. M. Richard,  
 F. Rob,  E. Rossomme,  T. Scheele,  M. Scheurer,  M. Schneider,  
 N. Sergueev,  S. M. Sharada,  W. Skomorowski,  D. W. Small,  C. J. Stein,  
 Yu-Chuan Su,  E. J. Sundstrom,  Zhen Tao,  J. Thirman,  T. Tsuchimochi,  
 N. M. Tubman,  S. P. Veccham,  O. Vydrov,  J. Wenzel,  J. Witte,  A. Yamada,  
 Kun Yao,  S. Yeganeh,  S. R. Yost,  A. Zech,  Igor Ying Zhang,  Xing Zhang,  
 Yu Zhang,  D. Zuev,  A. Aspuru-Guzik,  A. T. Bell,  N. A. Besley,  
 K. B. Bravaya,  B. R. Brooks,  D. Casanova,  Jeng-Da Chai,  S. Coriani,  
 C. J. Cramer,  A. E. DePrince, III,  R. A. DiStasio Jr.,  A. Dreuw,  
 B. D. Dunietz,  T. R. Furlani,  W. A. Goddard III,  S. Grimme,  
 S. Hammes-Schiffer,  T. Head-Gordon,  W. J. Hehre,  Chao-Ping Hsu,  
 T.-C. Jagau,  Yousung Jung,  A. Klamt,  Jing Kong,  D. S. Lambrecht,  
 WanZhen Liang,  N. J. Mayhall,  C. W. McCurdy,  J. B. Neaton,  
 C. Ochsenfeld,  J. A. Parkhill,  R. Peverati,  V. A. Rassolov,  Yihan Shao,  
 L. V. Slipchenko,  T. Stauch,  R. P. Steele,  J. E. Subotnik,  
 A. J. W. Thom,  A. Tkatchenko,  D. G. Truhlar,  T. Van Voorhis,  
 T. A. Wesolowski,  K. B. Whaley,  H. L. Woodcock III,  P. M. Zimmerman,  
 S. Faraji,  P. M. W. Gill,  M. Head-Gordon,  J. M. Herbert,  A. I. Krylov

 Additional authors for Version 5.4.1: 
 S. Kotaru,  Shaozhi Li,  Xiangyuan Li,  F. Matz,  A. Molle,  Haisheng Ren,  
 Yingli Su,  Hung-Yi Tsai,  C. Utku,  Fang Wang

 Contributors to earlier versions of Q-Chem not listed above: 
 R. D. Adamson,  B. Austin,  R. Baer,  J. Baker,  G. J. O. Beran,  
 K. Brandhorst,  S. T. Brown,  E. F. C. Byrd,  A. K. Chakraborty,  
 G. K. L. Chan,  Chun-Min Chang,  Yunqing Chen,  C.-L. Cheng,  
 Siu Hung Chien,  D. M. Chipman,  D. L. Crittenden,  H. Dachsel,  
 R. J. Doerksen,  A. D. Dutoi,  R. G. Edgar,  J. Fosso-Tande,  
 L. Fusti-Molnar,  D. Ghosh,  A. Ghysels,  A. Golubeva-Zadorozhnaya,  
 J. Gonthier,  M. S. Gordon,  S. R. Gwaltney,  G. Hawkins,  J. E. Herr,  
 A. Heyden,  S. Hirata,  E. G. Hohenstein,  G. Kedziora,  F. J. Keil,  
 C. Kelley,  Jihan Kim,  R. A. King,  R. Z. Khaliullin,  P. P. Korambath,  
 W. Kurlancheek,  A. Laurent,  A. M. Lee,  M. S. Lee,  S. V. Levchenko,  
 Ching Yeh Lin,  D. Liotard,  E. Livshits,  R. C. Lochan,  I. Lotan,  
 L. A. Martinez-Martinez,  P. E. Maslen,  N. Nair,  D. P. O'Neill,  
 D. Neuhauser,  E. Neuscamman,  C. M. Oana,  R. Olivares-Amaya,  R. Olson,  
 T. M. Perrine,  B. Peters,  P. A. Pieniazek,  A. Prociuk,  Y. M. Rhee,  
 J. Ritchie,  M. A. Rohrdanz,  E. Rosta,  N. J. Russ,  H. F. Schaefer III,  
 M. W. Schmidt,  N. E. Schultz,  S. Sharma,  N. Shenvi,  C. D. Sherrill,  
 A. C. Simmonett,  A. Sodt,  T. Stein,  D. Stuck,  K. S. Thanthiriwatte,  
 V. Vanovschi,  L. Vogt,  Tao Wang,  A. Warshel,  M. A. Watson,  
 C. F. Williams,  Q. Wu,  X. Xu,  Jun Yang,  W. Zhang,  Yan Zhao

 Please cite Q-Chem as follows:
 Y. Shao et al., Mol. Phys. 113, 184-215 (2015)
 DOI: 10.1080/00268976.2014.952696

 Q-Chem 5.4.1 for Intel X86 EM64T Linux

 Parts of Q-Chem use Armadillo 9.800.1 (Horizon Scraper).
 http://arma.sourceforge.net/

 Q-Chem begins on Mon Dec 26 18:41:48 2022  

 Host: 
0

     Scratch files written to /scratch/ari.fischer/qChem1382090.hpc-mn1/qchem401367//
 Aug1521 |scratch|qcdevops|jenkins|workspace|build_RNUM 8249   
 Processing $rem in /usr/local/qchem-5.4.1/config/preferences:
 Processing $rem in /home/ari.fischer/.qchemrc:
 Symmetry turned off for PCM/SM12/SMD calculation

 Checking the input file for inconsistencies... 	...done.

--------------------------------------------------------------
User input:
--------------------------------------------------------------
$molecule
0 1
C         0.6665910915   -0.7297538152    0.0064554640
C        -0.6719181649   -0.6525333364   -0.0340336703
C        -1.4945883553    0.5826330814   -0.1040317547
C         1.6145835781    0.4090218206   -0.0094261068
O        -1.0603014350    1.7215497729   -0.1539757043
O         2.8198516685    0.2120091204    0.0261505045
H         1.1434970676   -1.7064865530    0.0581098675
H        -1.2488203458   -1.5737037738   -0.0127035354
H        -2.5833821459    0.4044442097   -0.1097646888
H         1.2042347413    1.4259799733   -0.0535875757
$end

$rem
BASIS = 6-311++G(2df,2p)
GUI = 2
JOB_TYPE = Optimization
METHOD = wB97M-V
SCF_ALGORITHM = DIIS_GDM
MAX_SCF_CYCLES = 400
GEOM_OPT_MAX_CYCLES = 150
SCF_CONVERGENCE = 7
THRESH = 12
Solvent_method = SMD
$end
--------------------------------------------------------------
 ----------------------------------------------------------------
             Standard Nuclear Orientation (Angstroms)
    I     Atom           X                Y                Z
 ----------------------------------------------------------------
    1      C       0.6665910915    -0.7297538152     0.0064554640
    2      C      -0.6719181649    -0.6525333364    -0.0340336703
    3      C      -1.4945883553     0.5826330814    -0.1040317547
    4      C       1.6145835781     0.4090218206    -0.0094261068
    5      O      -1.0603014350     1.7215497729    -0.1539757043
    6      O       2.8198516685     0.2120091204     0.0261505045
    7      H       1.1434970676    -1.7064865530     0.0581098675
    8      H      -1.2488203458    -1.5737037738    -0.0127035354
    9      H      -2.5833821459     0.4044442097    -0.1097646888
   10      H       1.2042347413     1.4259799733    -0.0535875757
 ----------------------------------------------------------------
 Nuclear Repulsion Energy =         201.03526507 hartrees
 There are       22 alpha and       22 beta electrons
 Requested basis set is 6-311++G(2df,2p)
 There are 72 shells and 244 basis functions

 Total QAlloc Memory Limit 288000 MB
 Mega-Array Size       188 MB
 MEM_STATIC part       192 MB
 
 Citation of the SMD model:
 Marenich, A.V.; Cramer, C.J.; Truhlar, D.G.
 J. Phys. Chem. B 2009, 113, 6378-6396.
 iSolventCode=           1
 Solvent: water                                                           
 
 vradii
            1           2           3           4           5           6
    1   1.8500000   1.8500000   1.8500000   1.8500000   1.5200000   1.5200000
            7           8           9          10
    1   1.2000000   1.2000000   1.2000000   1.2000000
 Changing PCM_VDW_RADII to SMD_RADIUS
 Discretize the solute cavity surface with Lebedev spheres
	Using 110 Lebedev grid points for each H atom
	Using 194 Lebedev grid points for other atoms
	Atomic van der Waals radii will be scaled by 1.20
 Remove points where switching function is < 1.0e-08
 Keep 869 surface tesserae and discard 735 interior tesserae
 Molecular Surface Area = 110.043 Angst**2
 A cutoff of  1.0D-12 yielded   2463 shell pairs
 There are     28494 function pairs (     35917 Cartesian)
 Smallest overlap matrix eigenvalue = 1.24E-05

 Scale SEOQF with 1.000000e-01/1.000000e-01/1.000000e-01

 Standard Electronic Orientation quadrupole field applied
 Nucleus-field energy     =     0.0000000071 hartrees
 Guess from superposition of atomic densities
 Warning:  Energy on first SCF cycle will be non-variational
 SAD guess density has 44.000000 electrons

 -----------------------------------------------------------------------
  General SCF calculation program by
  Eric Jon Sundstrom, Paul Horn, Yuezhi Mao, Dmitri Zuev, Alec White,
  David Stuck, Shaama M.S., Shane Yost, Joonho Lee, David Small,
  Daniel Levine, Susi Lehtola, Hugh Burton, Evgeny Epifanovsky,
  Bang C. Huynh
 -----------------------------------------------------------------------
 Exchange:     0.1500 Hartree-Fock + 1.0000 wB97M-V + LR-HF
 Correlation:  1.0000 wB97M-V
 Using SG-2 standard quadrature grid
 Nonlocal Correlation:  VV10 with C = 0.0100 and b = 6.00 and scale = 1.00000
 Grid used for NLC:  SG-1 standard quadrature
 
 Citation of the SMD model:
 Marenich, A.V.; Cramer, C.J.; Truhlar, D.G.
 J. Phys. Chem. B 2009, 113, 6378-6396.
 iSolventCode=           1
 Solvent: water                                                           
 
 vradii
            1           2           3           4           5           6
    1   1.8500000   1.8500000   1.8500000   1.8500000   1.5200000   1.5200000
            7           8           9          10
    1   1.2000000   1.2000000   1.2000000   1.2000000
 using 8 threads for integral computing
 -------------------------------------------------------
 OpenMP Integral computing Module                
 Release: version 1.0, May 2013, Q-Chem Inc. Pittsburgh 
 -------------------------------------------------------
 -------------------------------------------------------
 OpenMP BLAS3 based DFT computing Module                
 Release: version 1.0, May 2013, Q-Chem Inc. Pittsburgh 
 -------------------------------------------------------
 A restricted SCF calculation will be
 performed using DIIS, GDM
 SCF converges when RMS gradient is below 1.0e-07
 ---------------------------------------
  Cycle       Energy         DIIS error
 ---------------------------------------
    1    -306.4493292788      3.20e-02  
    2    -305.1153421826      4.47e-03  Done DIIS. Switching to GDM
 ---------------------------------------
  Cycle       Energy        RMS Gradient
 ---------------------------------------
    1    -305.1153421826      1.73e-01   Descent step
    2    -305.2029707962      9.80e-02   Normal BFGS step
    3    -305.2384245278      1.62e-02   Normal BFGS step
    4    -305.2392571084      3.94e-03   Normal BFGS step
    5    -305.2395182159      9.12e-04   Normal BFGS step
    6    -305.2395269514      3.79e-04   Normal BFGS step
    7    -305.2395279052      1.15e-04   Normal BFGS step
    8    -305.2395279986      9.04e-05   Normal BFGS step
    9    -305.2395280313      2.39e-05   Normal BFGS step
   10    -305.2395280355      6.13e-06   Normal BFGS step
   11    -305.2395280358      6.39e-06   Normal BFGS step
   12    -305.2395280359      1.16e-06   Normal BFGS step
   13    -305.2395280359      5.19e-07   Normal BFGS step
   14    -305.2395280359      1.46e-07   Normal BFGS step
   15    -305.2395280360      6.09e-08  Convergence criterion met
 ---------------------------------------
 SCF time:   CPU 355.70s  wall 45.00s 
(3)  G-ENP(liq) elect-nuc-pol free energy of system     -305.239528036 a.u.
(4)  G-CDS(liq) cavity-dispersion-solvent structure 
     free energy                                                5.2197 kcal/mol
(6)  G-S(liq) free energy of system                     -305.231209835 a.u.
 SCF   energy in the final basis set =     -305.2312098353
 Total energy in the final basis set =     -305.2312098353
 
 --------------------------------------------------------------
 
                    Orbital Energies (a.u.)
 --------------------------------------------------------------
 
 Alpha MOs
 -- Occupied --
-19.3502 -19.3501 -10.4502 -10.4454 -10.3764 -10.3754  -1.1937  -1.1909
 -0.9389  -0.8147  -0.7282  -0.6744  -0.6185  -0.5930  -0.5746  -0.5339
 -0.5307  -0.5139  -0.5115  -0.3981  -0.3929  -0.3681
 -- Virtual --
 -0.0327   0.0282   0.0431   0.0462   0.0642   0.0675   0.0857   0.0886
  0.1128   0.1147   0.1220   0.1280   0.1373   0.1457   0.1585   0.1626
  0.1750   0.1761   0.1895   0.1933   0.1988   0.2054   0.2435   0.2513
  0.2608   0.2733   0.3022   0.3125   0.3139   0.3177   0.3490   0.3604
  0.3627   0.3686   0.3991   0.4119   0.4385   0.4757   0.4879   0.5224
  0.5644   0.5677   0.5884   0.5902   0.6137   0.6143   0.6314   0.6400
  0.6642   0.6791   0.6808   0.7025   0.7224   0.7356   0.7679   0.7697
  0.7817   0.7878   0.8199   0.8386   0.8406   0.8634   0.8916   0.8968
  0.9814   0.9849   1.0401   1.0477   1.0749   1.0826   1.0993   1.1231
  1.1374   1.1462   1.1655   1.1717   1.1957   1.2114   1.2264   1.2798
  1.2905   1.3047   1.3235   1.3873   1.4002   1.4255   1.4359   1.4671
  1.4776   1.4813   1.5037   1.5687   1.6169   1.6710   1.6941   1.7474
  1.7926   1.7963   1.8108   1.8210   1.9077   2.0233   2.0541   2.0935
  2.1042   2.2077   2.4039   2.4371   2.5177   2.5319   2.5793   2.5993
  2.6460   2.6667   2.7537   2.7702   2.7892   2.8069   2.8218   2.8401
  2.8606   2.8654   2.8892   2.9273   2.9781   2.9890   3.0014   3.0519
  3.1035   3.1098   3.1413   3.1514   3.1657   3.1984   3.2164   3.2829
  3.2967   3.3020   3.3245   3.3672   3.3826   3.4035   3.4385   3.4472
  3.4590   3.5119   3.5276   3.5285   3.5619   3.5706   3.6424   3.6674
  3.7148   3.7216   3.7699   3.8012   3.8336   3.8398   3.8555   3.9043
  3.9537   4.0325   4.0869   4.1018   4.1479   4.2079   4.2115   4.2337
  4.2717   4.3688   4.3711   4.3990   4.5201   4.5448   4.5912   4.6743
  4.7779   4.7796   4.9329   4.9410   5.1030   5.1620   5.1709   5.1800
  5.1956   5.1972   5.2095   5.2103   5.3838   5.4080   5.4887   5.5525
  5.5543   5.5756   5.5963   5.6297   5.7706   5.8131   5.9221   6.0855
  6.2994   6.3283   6.7043   6.8288   6.9307   6.9410   6.9988   7.0543
  7.1345   7.2396   7.3079   7.3163   7.5296   7.5736   7.7296   7.7572
 24.3780  24.9179  24.9651  25.2070  50.6963  50.7092
 --------------------------------------------------------------
 
          Ground-State Mulliken Net Atomic Charges

     Atom                 Charge (a.u.)
  ----------------------------------------
      1 C                     0.144236
      2 C                    -0.123430
      3 C                    -0.122831
      4 C                    -0.103963
      5 O                    -0.388834
      6 O                    -0.402243
      7 H                     0.282184
      8 H                     0.279845
      9 H                     0.199241
     10 H                     0.235795
  ----------------------------------------
  Sum of atomic charges =     0.000000

 -----------------------------------------------------------------
                    Cartesian Multipole Moments
 -----------------------------------------------------------------
    Charge (ESU x 10^10)
                 0.0000
    Dipole Moment (Debye)
         X      -4.8095      Y      -3.5843      Z       0.0731
       Tot       5.9986
    Quadrupole Moments (Debye-Ang)
        XX     -44.6196     XY       3.0323     YY     -37.7579
        XZ      -0.2134     YZ       0.4281     ZZ     -34.9824
    Octopole Moments (Debye-Ang^2)
       XXX     -92.6549    XXY     -14.7382    XYY      -1.8073
       YYY     -41.4126    XXZ       0.6250    XYZ      -0.7330
       YYZ       2.8316    XZZ      -9.5546    YZZ      -6.6280
       ZZZ       4.4697
    Hexadecapole Moments (Debye-Ang^3)
      XXXX    -704.9403   XXXY      14.5929   XXYY    -138.1159
      XYYY      42.1473   YYYY    -229.7521   XXXZ      -8.1545
      XXYZ       2.3282   XYYZ      -3.7561   YYYZ       7.4978
      XXZZ     -99.9601   XYZZ       7.9411   YYZZ     -43.5712
      XZZZ      -7.1615   YZZZ       5.5846   ZZZZ     -36.9137
 -----------------------------------------------------------------
 Calculating analytic gradient of the SCF energy
 Gradient of CDS energy
            1           2           3           4           5           6
    1  -0.0001293   0.0001196  -0.0003133   0.0027871  -0.0004876  -0.0016187
    2  -0.0006218  -0.0006264   0.0023160   0.0006680  -0.0011999   0.0001449
    3   0.0000188   0.0000275  -0.0001223   0.0000501   0.0000547  -0.0000437
            7           8           9          10
    1   0.0000763  -0.0001331  -0.0000860  -0.0002151
    2  -0.0001784  -0.0001748  -0.0001596  -0.0001679
    3   0.0000091   0.0000040   0.0000060  -0.0000043
 Gradient of SCF Energy
            1           2           3           4           5           6
    1   0.0150269  -0.0118990   0.0121307  -0.0032305   0.0044437   0.0109194
    2   0.0123982   0.0051070  -0.0027726  -0.0003147   0.0162274  -0.0006803
    3  -0.0002677  -0.0003284   0.0003120   0.0000057  -0.0007541   0.0002393
            7           8           9          10
    1   0.0039990  -0.0119000  -0.0156759  -0.0038143
    2  -0.0122763  -0.0165306  -0.0046512   0.0034932
    3   0.0006241   0.0004378  -0.0000500  -0.0002187
 Max gradient component =       1.653E-02
 RMS gradient           =       8.150E-03
 Computing fast CPCM-SWIG gradient
 Updating gradient with PCM contributions...
 -- total gradient after adding PCM contribution --
---------------------------------------------------
  Atom         X              Y              Z     
---------------------------------------------------
   1       0.003278       0.000617       0.000016
   2      -0.005544       0.000336      -0.000107
   3      -0.001097      -0.006211       0.000273
   4      -0.002668       0.001040      -0.000078
   5       0.003757       0.008994      -0.000316
   6       0.007559      -0.001491       0.000242
   7       0.001548      -0.002604       0.000163
   8      -0.001729      -0.002723       0.000091
   9      -0.002902      -0.000776      -0.000070
  10      -0.002203       0.002818      -0.000215
---------------------------------------------------
 Number of fixed atoms: 0
 Gradient time:  CPU 66.49 s  wall 9.96 s
 Geometry Optimization Parameters
   NAtoms,    NIC,     NZ,  NCons,   NDum,   NFix, NCnnct, MaxDiis
       10      53       0       0       0       0       0       0


** GEOMETRY OPTIMIZATION IN DELOCALIZED INTERNAL COORDINATES **
   Searching for a Minimum

   Optimization Cycle:   1

                       Coordinates (Angstroms)
     ATOM                X               Y               Z
      1  C         0.6665910915   -0.7297538152    0.0064554640
      2  C        -0.6719181649   -0.6525333364   -0.0340336703
      3  C        -1.4945883553    0.5826330814   -0.1040317547
      4  C         1.6145835781    0.4090218206   -0.0094261068
      5  O        -1.0603014350    1.7215497729   -0.1539757043
      6  O         2.8198516685    0.2120091204    0.0261505045
      7  H         1.1434970676   -1.7064865530    0.0581098675
      8  H        -1.2488203458   -1.5737037738   -0.0127035354
      9  H        -2.5833821459    0.4044442097   -0.1097646888
     10  H         1.2042347413    1.4259799733   -0.0535875757
   Point Group: c1    Number of degrees of freedom:    24


   Energy is   -305.231209835


 Attempting to generate delocalized internal coordinates
 Initial Hessian constructed with Jon Baker's OPTIMIZE code

 24 Hessian modes will be used to form the next step
  Hessian Eigenvalues:
     0.011070    0.011070    0.011585    0.011585    0.020983    0.021299
     0.030166    0.160000    0.160000    0.160000    0.160000    0.220000
     0.220000    0.220000    0.220000    0.333205    0.339245    0.339584
     0.343635    0.350250    0.351478    0.569044    0.945981    0.954140

 Minimum search - taking simple RFO step
 Searching for Lamda that Minimizes Along All modes
 Value Taken    Lamda =  -0.00046360
 Step Taken.  Stepsize is  0.034909

                             Maximum     Tolerance    Cnvgd?
         Gradient           0.010286      0.000300      NO
         Displacement       0.020867      0.001200      NO
         Energy change     *********      0.000001      NO


 New Cartesian Coordinates Obtained by Inverse Iteration

 Displacement from previous Coordinates is:  0.056387
 ----------------------------------------------------------------
             Standard Nuclear Orientation (Angstroms)
    I     Atom           X                Y                Z
 ----------------------------------------------------------------
    1      C       0.6649596373    -0.7259439347     0.0054390864
    2      C      -0.6664834665    -0.6467502174    -0.0345349200
    3      C      -1.4951352941     0.5810303256    -0.1044707245
    4      C       1.6122787743     0.4063093283    -0.0088569036
    5      O      -1.0709840540     1.7176274717    -0.1621382620
    6      O       2.8125386302     0.2052635968     0.0258231924
    7      H       1.1362129510    -1.7004047157     0.0559730976
    8      H      -1.2387543678    -1.5650752233    -0.0125061563
    9      H      -2.5784558277     0.3987483286    -0.1042834478
   10      H       1.2135707174     1.4223555401    -0.0472521620
 ----------------------------------------------------------------
 Nuclear Repulsion Energy =         201.60225708 hartrees
 There are       22 alpha and       22 beta electrons
 Discretize the solute cavity surface with Lebedev spheres
	Using 110 Lebedev grid points for each H atom
	Using 194 Lebedev grid points for other atoms
	Atomic van der Waals radii will be scaled by 1.20
 Remove points where switching function is < 1.0e-08
 Keep 870 surface tesserae and discard 734 interior tesserae
 Molecular Surface Area = 109.760 Angst**2
 Applying Cartesian multipole field
    Component          Value
    ---------          -----
     (2,0,0)        1.00000E-11
     (0,2,0)        2.00000E-11
     (0,0,2)       -3.00000E-11
 Nucleus-field energy     =     0.0000000070 hartrees
 Requested basis set is 6-311++G(2df,2p)
 There are 72 shells and 244 basis functions
 A cutoff of  1.0D-12 yielded   2465 shell pairs
 There are     28504 function pairs (     35933 Cartesian)
 Smallest overlap matrix eigenvalue = 1.21E-05
 Guess MOs from SCF MO coefficient file

 -----------------------------------------------------------------------
  General SCF calculation program by
  Eric Jon Sundstrom, Paul Horn, Yuezhi Mao, Dmitri Zuev, Alec White,
  David Stuck, Shaama M.S., Shane Yost, Joonho Lee, David Small,
  Daniel Levine, Susi Lehtola, Hugh Burton, Evgeny Epifanovsky,
  Bang C. Huynh
 -----------------------------------------------------------------------
 Exchange:     0.1500 Hartree-Fock + 1.0000 wB97M-V + LR-HF
 Correlation:  1.0000 wB97M-V
 Using SG-2 standard quadrature grid
 Nonlocal Correlation:  VV10 with C = 0.0100 and b = 6.00 and scale = 1.00000
 Grid used for NLC:  SG-1 standard quadrature
 
 Citation of the SMD model:
 Marenich, A.V.; Cramer, C.J.; Truhlar, D.G.
 J. Phys. Chem. B 2009, 113, 6378-6396.
 iSolventCode=           1
 Solvent: water                                                           
 
 vradii
            1           2           3           4           5           6
    1   1.8500000   1.8500000   1.8500000   1.8500000   1.5200000   1.5200000
            7           8           9          10
    1   1.2000000   1.2000000   1.2000000   1.2000000
 -------------------------------------------------------
 OpenMP BLAS3 based DFT computing Module                
 Release: version 1.0, May 2013, Q-Chem Inc. Pittsburgh 
 -------------------------------------------------------
 A restricted SCF calculation will be
 performed using Roothaan-Hall, DIIS, GDM
 SCF converges when RMS gradient is below 1.0e-07
 ---------------------------------------
  Cycle       Energy         DIIS error
 ---------------------------------------
    1    -305.2156583014      6.18e-04  Roothaan Step
 ---------------------------------------
  Cycle       Energy         DIIS error
 ---------------------------------------
    1    -305.2318164787      8.93e-04  
    2    -305.2322805282      1.22e-03  Done DIIS. Switching to GDM
 ---------------------------------------
  Cycle       Energy        RMS Gradient
 ---------------------------------------
    1    -305.2322805282      3.74e-02   Normal BFGS step
    2    -305.2273253083      5.90e-02  Line search: overstep
    3    -305.2394612114      2.93e-03   Normal BFGS step
    4    -305.2397188459      2.36e-03   Normal BFGS step
    5    -305.2397468508      1.07e-03   Normal BFGS step
    6    -305.2397538492      3.77e-04   Normal BFGS step
    7    -305.2397543468      1.29e-04   Normal BFGS step
    8    -305.2397544127      2.25e-05   Normal BFGS step
    9    -305.2397544253      2.42e-05   Normal BFGS step
   10    -305.2397544285      5.98e-06   Normal BFGS step
   11    -305.2397544292      4.43e-06   Normal BFGS step
   12    -305.2397544293      2.36e-06   Normal BFGS step
   13    -305.2397544294      7.92e-07   Normal BFGS step
   14    -305.2397544294      3.73e-07   Normal BFGS step
   15    -305.2397544294      5.72e-08  Convergence criterion met
 ---------------------------------------
 SCF time:   CPU 383.47s  wall 49.00s 
(3)  G-ENP(liq) elect-nuc-pol free energy of system     -305.239754429 a.u.
(4)  G-CDS(liq) cavity-dispersion-solvent structure 
     free energy                                                5.2172 kcal/mol
(6)  G-S(liq) free energy of system                     -305.231440298 a.u.
 SCF   energy in the final basis set =     -305.2314402982
 Total energy in the final basis set =     -305.2314402982
 
 --------------------------------------------------------------
 
                    Orbital Energies (a.u.)
 --------------------------------------------------------------
 
 Alpha MOs
 -- Occupied --
-19.3498 -19.3493 -10.4484 -10.4436 -10.3740 -10.3731  -1.1963  -1.1931
 -0.9407  -0.8152  -0.7292  -0.6757  -0.6198  -0.5947  -0.5752  -0.5354
 -0.5318  -0.5154  -0.5115  -0.3975  -0.3937  -0.3680
 -- Virtual --
 -0.0314   0.0281   0.0432   0.0462   0.0652   0.0676   0.0858   0.0888
  0.1129   0.1146   0.1220   0.1283   0.1382   0.1458   0.1586   0.1627
  0.1754   0.1760   0.1896   0.1933   0.2001   0.2058   0.2440   0.2517
  0.2614   0.2739   0.3036   0.3126   0.3150   0.3184   0.3503   0.3616
  0.3635   0.3704   0.3992   0.4134   0.4401   0.4761   0.4915   0.5248
  0.5662   0.5680   0.5889   0.5918   0.6143   0.6153   0.6321   0.6400
  0.6655   0.6812   0.6823   0.7034   0.7241   0.7379   0.7674   0.7707
  0.7835   0.7880   0.8221   0.8419   0.8440   0.8653   0.8929   0.9000
  0.9840   0.9859   1.0420   1.0495   1.0774   1.0844   1.1000   1.1241
  1.1377   1.1478   1.1674   1.1724   1.1960   1.2121   1.2290   1.2817
  1.2941   1.3064   1.3259   1.3928   1.4052   1.4295   1.4396   1.4698
  1.4798   1.4836   1.5078   1.5722   1.6196   1.6724   1.6978   1.7504
  1.7941   1.7985   1.8160   1.8289   1.9085   2.0324   2.0573   2.1003
  2.1082   2.2078   2.4066   2.4360   2.5188   2.5348   2.5824   2.5979
  2.6462   2.6678   2.7570   2.7707   2.7925   2.8071   2.8208   2.8434
  2.8593   2.8673   2.8919   2.9297   2.9792   2.9906   3.0019   3.0560
  3.1056   3.1124   3.1406   3.1611   3.1628   3.1949   3.2195   3.2861
  3.2959   3.3075   3.3198   3.3697   3.3852   3.4039   3.4394   3.4483
  3.4605   3.5203   3.5323   3.5331   3.5631   3.5758   3.6456   3.6734
  3.7191   3.7254   3.7773   3.8120   3.8436   3.8473   3.8625   3.9103
  3.9613   4.0394   4.0892   4.1084   4.1565   4.2184   4.2239   4.2443
  4.2808   4.3837   4.3850   4.4076   4.5327   4.5552   4.6057   4.6922
  4.7857   4.8013   4.9530   4.9603   5.1104   5.1647   5.1723   5.1825
  5.1972   5.2057   5.2120   5.2199   5.3935   5.4154   5.5079   5.5598
  5.5627   5.5868   5.6049   5.6468   5.7898   5.8278   5.9408   6.1184
  6.3156   6.3484   6.7279   6.8542   6.9328   6.9423   7.0020   7.0567
  7.1494   7.2605   7.3088   7.3175   7.5316   7.5775   7.7324   7.7599
 24.3896  24.9393  24.9915  25.2438  50.7044  50.7188
 --------------------------------------------------------------
 
          Ground-State Mulliken Net Atomic Charges

     Atom                 Charge (a.u.)
  ----------------------------------------
      1 C                     0.145009
      2 C                    -0.120653
      3 C                    -0.127105
      4 C                    -0.103289
      5 O                    -0.387077
      6 O                    -0.402091
      7 H                     0.282599
      8 H                     0.278830
      9 H                     0.198834
     10 H                     0.234943
  ----------------------------------------
  Sum of atomic charges =     0.000000

 -----------------------------------------------------------------
                    Cartesian Multipole Moments
 -----------------------------------------------------------------
    Charge (ESU x 10^10)
                 0.0000
    Dipole Moment (Debye)
         X      -4.7560      Y      -3.5451      Z       0.0977
       Tot       5.9327
    Quadrupole Moments (Debye-Ang)
        XX     -44.5947     XY       3.0949     YY     -37.7228
        XZ      -0.2345     YZ       0.4730     ZZ     -34.9046
    Octopole Moments (Debye-Ang^2)
       XXX     -91.7269    XXY     -14.5123    XYY      -1.6426
       YYY     -41.1131    XXZ       0.7338    XYZ      -0.7692
       YYZ       2.9480    XZZ      -9.4570    YZZ      -6.6116
       ZZZ       4.6082
    Hexadecapole Moments (Debye-Ang^3)
      XXXX    -702.4400   XXXY      15.9044   XXYY    -137.6682
      XYYY      42.7623   YYYY    -228.1199   XXXZ      -8.3600
      XXYZ       2.4519   XYYZ      -3.8790   YYYZ       7.8300
      XXZZ     -99.5613   XYZZ       8.1532   YYZZ     -43.2514
      XZZZ      -7.2912   YZZZ       5.7624   ZZZZ     -36.8064
 -----------------------------------------------------------------
 Calculating analytic gradient of the SCF energy
 Gradient of CDS energy
            1           2           3           4           5           6
    1  -0.0001303   0.0001257  -0.0003545   0.0027092  -0.0004583  -0.0015468
    2  -0.0006117  -0.0006195   0.0022454   0.0006638  -0.0011400   0.0001395
    3   0.0000174   0.0000272  -0.0001287   0.0000505   0.0000614  -0.0000408
            7           8           9          10
    1   0.0000702  -0.0001269  -0.0000760  -0.0002124
    2  -0.0001758  -0.0001724  -0.0001593  -0.0001702
    3   0.0000087   0.0000047   0.0000065  -0.0000069
 Gradient of SCF Energy
            1           2           3           4           5           6
    1   0.0115005  -0.0064129   0.0130500  -0.0008839   0.0007876   0.0035185
    2   0.0118480   0.0048743   0.0016880  -0.0006544   0.0082598   0.0003587
    3  -0.0002303  -0.0001429   0.0001834  -0.0003033  -0.0005189   0.0001421
            7           8           9          10
    1   0.0022922  -0.0097961  -0.0124598  -0.0015963
    2  -0.0096604  -0.0136001  -0.0036079   0.0004940
    3   0.0004378   0.0004171  -0.0000773   0.0000923
 Max gradient component =       1.360E-02
 RMS gradient           =       6.177E-03
 Computing fast CPCM-SWIG gradient
 Updating gradient with PCM contributions...
 -- total gradient after adding PCM contribution --
---------------------------------------------------
  Atom         X              Y              Z     
---------------------------------------------------
   1      -0.000178       0.000032       0.000070
   2      -0.000122       0.000066       0.000034
   3      -0.000084      -0.001541       0.000186
   4      -0.000113       0.000681      -0.000382
   5       0.000145       0.001002      -0.000007
   6      -0.000025      -0.000357       0.000158
   7      -0.000077       0.000031      -0.000009
   8       0.000235       0.000147       0.000041
   9       0.000190       0.000235      -0.000158
  10       0.000030      -0.000295       0.000066
---------------------------------------------------
 Number of fixed atoms: 0
 Gradient time:  CPU 65.92 s  wall 9.67 s
 Geometry Optimization Parameters
   NAtoms,    NIC,     NZ,  NCons,   NDum,   NFix, NCnnct, MaxDiis
       10      53       0       0       0       0       0       0

 Cartesian Hessian Update
 Hessian updated using BFGS update


** GEOMETRY OPTIMIZATION IN DELOCALIZED INTERNAL COORDINATES **
   Searching for a Minimum

   Optimization Cycle:   2

                       Coordinates (Angstroms)
     ATOM                X               Y               Z
      1  C         0.6649596373   -0.7259439347    0.0054390864
      2  C        -0.6664834665   -0.6467502174   -0.0345349200
      3  C        -1.4951352941    0.5810303256   -0.1044707245
      4  C         1.6122787743    0.4063093283   -0.0088569036
      5  O        -1.0709840540    1.7176274717   -0.1621382620
      6  O         2.8125386302    0.2052635968    0.0258231924
      7  H         1.1362129510   -1.7004047157    0.0559730976
      8  H        -1.2387543678   -1.5650752233   -0.0125061563
      9  H        -2.5784558277    0.3987483286   -0.1042834478
     10  H         1.2135707174    1.4223555401   -0.0472521620
   Point Group: c1    Number of degrees of freedom:    24


   Energy is   -305.231440298

 Hessian updated using BFGS update

 20 Hessian modes will be used to form the next step
  Hessian Eigenvalues:
     0.010953    0.011078    0.011564    0.011629    0.020982    0.021295
     0.030125    0.158601    0.161064    0.217589    0.223868    0.334137
     0.338676    0.341503    0.346247    0.350327    0.361360    0.581117
     0.904953    0.952633

 Minimum search - taking simple RFO step
 Searching for Lamda that Minimizes Along All modes
 Value Taken    Lamda =  -0.00001368
 Step Taken.  Stepsize is  0.026987

                             Maximum     Tolerance    Cnvgd?
         Gradient           0.000937      0.000300      NO
         Displacement       0.020279      0.001200      NO
         Energy change     -0.000230      0.000001      NO


 New Cartesian Coordinates Obtained by Inverse Iteration

 Displacement from previous Coordinates is:  0.026674
 ----------------------------------------------------------------
             Standard Nuclear Orientation (Angstroms)
    I     Atom           X                Y                Z
 ----------------------------------------------------------------
    1      C       0.6650972087    -0.7270049052     0.0063870039
    2      C      -0.6663632752    -0.6471519505    -0.0362194546
    3      C      -1.4944598175     0.5815889581    -0.1070963831
    4      C       1.6115266635     0.4059215796    -0.0027053805
    5      O      -1.0688257102     1.7166876004    -0.1685133090
    6      O       2.8124037668     0.2079696835     0.0217218165
    7      H       1.1366414442    -1.7012984933     0.0565515312
    8      H      -1.2400171664    -1.5649114503    -0.0154677825
    9      H      -2.5780063012     0.3996407124    -0.0969581735
   10      H       1.2117508876     1.4217187653    -0.0445070683
 ----------------------------------------------------------------
 Nuclear Repulsion Energy =         201.62675594 hartrees
 There are       22 alpha and       22 beta electrons
 Discretize the solute cavity surface with Lebedev spheres
	Using 110 Lebedev grid points for each H atom
	Using 194 Lebedev grid points for other atoms
	Atomic van der Waals radii will be scaled by 1.20
 Remove points where switching function is < 1.0e-08
 Keep 872 surface tesserae and discard 732 interior tesserae
 Molecular Surface Area = 109.746 Angst**2
 Applying Cartesian multipole field
    Component          Value
    ---------          -----
     (2,0,0)        1.00000E-11
     (0,2,0)        2.00000E-11
     (0,0,2)       -3.00000E-11
 Nucleus-field energy     =     0.0000000070 hartrees
 Requested basis set is 6-311++G(2df,2p)
 There are 72 shells and 244 basis functions
 A cutoff of  1.0D-12 yielded   2465 shell pairs
 There are     28504 function pairs (     35933 Cartesian)
 Smallest overlap matrix eigenvalue = 1.21E-05
 Guess MOs from SCF MO coefficient file

 -----------------------------------------------------------------------
  General SCF calculation program by
  Eric Jon Sundstrom, Paul Horn, Yuezhi Mao, Dmitri Zuev, Alec White,
  David Stuck, Shaama M.S., Shane Yost, Joonho Lee, David Small,
  Daniel Levine, Susi Lehtola, Hugh Burton, Evgeny Epifanovsky,
  Bang C. Huynh
 -----------------------------------------------------------------------
 Exchange:     0.1500 Hartree-Fock + 1.0000 wB97M-V + LR-HF
 Correlation:  1.0000 wB97M-V
 Using SG-2 standard quadrature grid
 Nonlocal Correlation:  VV10 with C = 0.0100 and b = 6.00 and scale = 1.00000
 Grid used for NLC:  SG-1 standard quadrature
 
 Citation of the SMD model:
 Marenich, A.V.; Cramer, C.J.; Truhlar, D.G.
 J. Phys. Chem. B 2009, 113, 6378-6396.
 iSolventCode=           1
 Solvent: water                                                           
 
 vradii
            1           2           3           4           5           6
    1   1.8500000   1.8500000   1.8500000   1.8500000   1.5200000   1.5200000
            7           8           9          10
    1   1.2000000   1.2000000   1.2000000   1.2000000
 -------------------------------------------------------
 OpenMP BLAS3 based DFT computing Module                
 Release: version 1.0, May 2013, Q-Chem Inc. Pittsburgh 
 -------------------------------------------------------
 A restricted SCF calculation will be
 performed using Roothaan-Hall, DIIS, GDM
 SCF converges when RMS gradient is below 1.0e-07
 ---------------------------------------
  Cycle       Energy         DIIS error
 ---------------------------------------
    1    -305.2158574312      5.94e-04  Roothaan Step
 ---------------------------------------
  Cycle       Energy         DIIS error
 ---------------------------------------
    1    -305.2320437827      8.76e-04  
    2    -305.2325672791      1.20e-03  Done DIIS. Switching to GDM
 ---------------------------------------
  Cycle       Energy        RMS Gradient
 ---------------------------------------
    1    -305.2325672791      3.64e-02   Normal BFGS step
    2    -305.2278300596      5.76e-02  Line search: overstep
    3    -305.2394690537      2.89e-03   Normal BFGS step
    4    -305.2397196008      2.34e-03   Normal BFGS step
    5    -305.2397470459      1.06e-03   Normal BFGS step
    6    -305.2397540614      3.58e-04   Normal BFGS step
    7    -305.2397545449      1.35e-04   Normal BFGS step
    8    -305.2397546025      2.68e-05   Normal BFGS step
    9    -305.2397546164      2.46e-05   Normal BFGS step
   10    -305.2397546198      5.55e-06   Normal BFGS step
   11    -305.2397546204      3.90e-06   Normal BFGS step
   12    -305.2397546205      1.96e-06   Normal BFGS step
   13    -305.2397546205      7.05e-07   Normal BFGS step
   14    -305.2397546205      3.71e-07   Normal BFGS step
   15    -305.2397546205      6.29e-08  Convergence criterion met
 ---------------------------------------
 SCF time:   CPU 380.99s  wall 48.00s 
(3)  G-ENP(liq) elect-nuc-pol free energy of system     -305.239754621 a.u.
(4)  G-CDS(liq) cavity-dispersion-solvent structure 
     free energy                                                5.2187 kcal/mol
(6)  G-S(liq) free energy of system                     -305.231438064 a.u.
 SCF   energy in the final basis set =     -305.2314380638
 Total energy in the final basis set =     -305.2314380638
 
 --------------------------------------------------------------
 
                    Orbital Energies (a.u.)
 --------------------------------------------------------------
 
 Alpha MOs
 -- Occupied --
-19.3498 -19.3492 -10.4484 -10.4435 -10.3740 -10.3732  -1.1966  -1.1931
 -0.9406  -0.8151  -0.7290  -0.6757  -0.6198  -0.5946  -0.5753  -0.5355
 -0.5319  -0.5155  -0.5116  -0.3975  -0.3937  -0.3678
 -- Virtual --
 -0.0313   0.0281   0.0432   0.0462   0.0653   0.0676   0.0857   0.0889
  0.1129   0.1146   0.1220   0.1283   0.1382   0.1458   0.1586   0.1627
  0.1754   0.1760   0.1896   0.1933   0.2001   0.2058   0.2440   0.2517
  0.2615   0.2738   0.3037   0.3126   0.3151   0.3186   0.3504   0.3614
  0.3634   0.3702   0.3992   0.4133   0.4402   0.4760   0.4915   0.5248
  0.5657   0.5685   0.5887   0.5920   0.6143   0.6153   0.6323   0.6402
  0.6656   0.6814   0.6822   0.7033   0.7241   0.7380   0.7674   0.7706
  0.7836   0.7882   0.8222   0.8418   0.8442   0.8655   0.8930   0.8999
  0.9839   0.9857   1.0413   1.0501   1.0773   1.0845   1.0999   1.1239
  1.1378   1.1476   1.1674   1.1724   1.1960   1.2120   1.2288   1.2813
  1.2941   1.3068   1.3257   1.3927   1.4048   1.4293   1.4394   1.4700
  1.4801   1.4844   1.5079   1.5726   1.6197   1.6725   1.6977   1.7503
  1.7938   1.7992   1.8157   1.8283   1.9091   2.0318   2.0575   2.1012
  2.1074   2.2084   2.4066   2.4370   2.5192   2.5353   2.5827   2.5979
  2.6459   2.6676   2.7570   2.7710   2.7921   2.8072   2.8210   2.8434
  2.8592   2.8675   2.8920   2.9297   2.9798   2.9906   3.0017   3.0561
  3.1048   3.1132   3.1403   3.1607   3.1631   3.1956   3.2194   3.2858
  3.2959   3.3074   3.3201   3.3696   3.3852   3.4040   3.4395   3.4482
  3.4605   3.5201   3.5317   3.5342   3.5628   3.5768   3.6452   3.6740
  3.7190   3.7254   3.7770   3.8116   3.8433   3.8475   3.8628   3.9102
  3.9615   4.0392   4.0888   4.1086   4.1560   4.2192   4.2228   4.2439
  4.2806   4.3829   4.3853   4.4073   4.5328   4.5543   4.6061   4.6925
  4.7857   4.8005   4.9515   4.9593   5.1101   5.1647   5.1724   5.1826
  5.1974   5.2055   5.2122   5.2199   5.3937   5.4151   5.5071   5.5604
  5.5631   5.5878   5.6051   5.6466   5.7904   5.8288   5.9405   6.1169
  6.3167   6.3503   6.7287   6.8563   6.9330   6.9425   7.0023   7.0572
  7.1506   7.2608   7.3089   7.3175   7.5319   7.5776   7.7326   7.7600
 24.3894  24.9396  24.9916  25.2432  50.7048  50.7197
 --------------------------------------------------------------
 
          Ground-State Mulliken Net Atomic Charges

     Atom                 Charge (a.u.)
  ----------------------------------------
      1 C                     0.144029
      2 C                    -0.120099
      3 C                    -0.126479
      4 C                    -0.103605
      5 O                    -0.386204
      6 O                    -0.402356
      7 H                     0.282670
      8 H                     0.278662
      9 H                     0.198510
     10 H                     0.234872
  ----------------------------------------
  Sum of atomic charges =     0.000000

 -----------------------------------------------------------------
                    Cartesian Multipole Moments
 -----------------------------------------------------------------
    Charge (ESU x 10^10)
                 0.0000
    Dipole Moment (Debye)
         X      -4.7695      Y      -3.5452      Z       0.1313
       Tot       5.9442
    Quadrupole Moments (Debye-Ang)
        XX     -44.5942     XY       3.0556     YY     -37.7133
        XZ      -0.1984     YZ       0.5069     ZZ     -34.9090
    Octopole Moments (Debye-Ang^2)
       XXX     -91.8080    XXY     -14.5441    XYY      -1.7045
       YYY     -41.0878    XXZ       0.9277    XYZ      -0.7901
       YYZ       3.0349    XZZ      -9.4673    YZZ      -6.6182
       ZZZ       4.7357
    Hexadecapole Moments (Debye-Ang^3)
      XXXX    -702.1576   XXXY      15.5440   XXYY    -137.5780
      XYYY      42.4776   YYYY    -228.0561   XXXZ      -8.2686
      XXYZ       2.5621   XYYZ      -3.9495   YYYZ       8.0877
      XXZZ     -99.5288   XYZZ       8.0998   YYZZ     -43.2801
      XZZZ      -7.3901   YZZZ       5.9233   ZZZZ     -36.8844
 -----------------------------------------------------------------
 Calculating analytic gradient of the SCF energy
 Gradient of CDS energy
            1           2           3           4           5           6
    1  -0.0001299   0.0001242  -0.0003546   0.0027080  -0.0004565  -0.0015458
    2  -0.0006123  -0.0006213   0.0022383   0.0006683  -0.0011294   0.0001355
    3   0.0000141   0.0000275  -0.0001363   0.0000447   0.0000648  -0.0000287
            7           8           9          10
    1   0.0000708  -0.0001273  -0.0000763  -0.0002126
    2  -0.0001756  -0.0001721  -0.0001606  -0.0001708
    3   0.0000086   0.0000050   0.0000077  -0.0000074
 Gradient of SCF Energy
            1           2           3           4           5           6
    1   0.0115750  -0.0063219   0.0131046  -0.0007139   0.0007526   0.0033382
    2   0.0117913   0.0049743   0.0027377  -0.0012455   0.0073365   0.0007461
    3  -0.0009867   0.0002333  -0.0010132   0.0018845  -0.0001804  -0.0006009
            7           8           9          10
    1   0.0023532  -0.0099896  -0.0125564  -0.0015418
    2  -0.0096025  -0.0136465  -0.0037390   0.0006476
    3   0.0004000   0.0005420   0.0003645  -0.0006431
 Max gradient component =       1.365E-02
 RMS gradient           =       6.192E-03
 Computing fast CPCM-SWIG gradient
 Updating gradient with PCM contributions...
 -- total gradient after adding PCM contribution --
---------------------------------------------------
  Atom         X              Y              Z     
---------------------------------------------------
   1      -0.000129      -0.000004      -0.000656
   2      -0.000035       0.000135       0.000336
   3      -0.000024      -0.000463      -0.000815
   4       0.000059       0.000064       0.001724
   5       0.000075       0.000084       0.000382
   6      -0.000190       0.000024      -0.000540
   7      -0.000031       0.000088      -0.000039
   8       0.000071       0.000080       0.000156
   9       0.000110       0.000104       0.000133
  10       0.000095      -0.000110      -0.000681
---------------------------------------------------
 Number of fixed atoms: 0
 Gradient time:  CPU 66.06 s  wall 9.81 s
 Geometry Optimization Parameters
   NAtoms,    NIC,     NZ,  NCons,   NDum,   NFix, NCnnct, MaxDiis
       10      53       0       0       0       0       0       0

 Cartesian Hessian Update
 Hessian updated using BFGS update


** GEOMETRY OPTIMIZATION IN DELOCALIZED INTERNAL COORDINATES **
   Searching for a Minimum

   Optimization Cycle:   3

                       Coordinates (Angstroms)
     ATOM                X               Y               Z
      1  C         0.6650972087   -0.7270049052    0.0063870039
      2  C        -0.6663632752   -0.6471519505   -0.0362194546
      3  C        -1.4944598175    0.5815889581   -0.1070963831
      4  C         1.6115266635    0.4059215796   -0.0027053805
      5  O        -1.0688257102    1.7166876004   -0.1685133090
      6  O         2.8124037668    0.2079696835    0.0217218165
      7  H         1.1366414442   -1.7012984933    0.0565515312
      8  H        -1.2400171664   -1.5649114503   -0.0154677825
      9  H        -2.5780063012    0.3996407124   -0.0969581735
     10  H         1.2117508876    1.4217187653   -0.0445070683
   Point Group: c1    Number of degrees of freedom:    24


   Energy is   -305.231438064

 Hessian updated using BFGS update

 22 Hessian modes will be used to form the next step
  Hessian Eigenvalues:
     0.005698    0.011150    0.011512    0.020960    0.021183    0.029246
     0.069069    0.149560    0.160068    0.160424    0.202608    0.220062
     0.226032    0.328388    0.334415    0.340288    0.344260    0.350516
     0.351808    0.570479    0.872391    0.947726

 Minimum search - taking simple RFO step
 Searching for Lamda that Minimizes Along All modes
 Value Taken    Lamda =  -0.00003232
 Step Taken.  Stepsize is  0.043846

                             Maximum     Tolerance    Cnvgd?
         Gradient           0.000989      0.000300      NO
         Displacement       0.027988      0.001200      NO
         Energy change      0.000002      0.000001      NO


 New Cartesian Coordinates Obtained by Inverse Iteration

 Displacement from previous Coordinates is:  0.063540
 ----------------------------------------------------------------
             Standard Nuclear Orientation (Angstroms)
    I     Atom           X                Y                Z
 ----------------------------------------------------------------
    1      C       0.6656157784    -0.7289082286     0.0038056878
    2      C      -0.6662239402    -0.6476430017    -0.0375121464
    3      C      -1.4936215690     0.5829618045    -0.1073484877
    4      C       1.6109090803     0.4049412352    -0.0025410893
    5      O      -1.0660672388     1.7147467768    -0.1915973637
    6      O       2.8125672180     0.2124137940     0.0211565113
    7      H       1.1376446052    -1.7031303118     0.0523739778
    8      H      -1.2423814228    -1.5644127438    -0.0155727664
    9      H      -2.5774588295     0.4011724858    -0.0818468439
   10      H       1.2087640185     1.4210186895    -0.0277246796
 ----------------------------------------------------------------
 Nuclear Repulsion Energy =         201.63244208 hartrees
 There are       22 alpha and       22 beta electrons
 Discretize the solute cavity surface with Lebedev spheres
	Using 110 Lebedev grid points for each H atom
	Using 194 Lebedev grid points for other atoms
	Atomic van der Waals radii will be scaled by 1.20
 Remove points where switching function is < 1.0e-08
 Keep 873 surface tesserae and discard 731 interior tesserae
 Molecular Surface Area = 109.728 Angst**2
 Applying Cartesian multipole field
    Component          Value
    ---------          -----
     (2,0,0)        1.00000E-11
     (0,2,0)        2.00000E-11
     (0,0,2)       -3.00000E-11
 Nucleus-field energy     =     0.0000000070 hartrees
 Requested basis set is 6-311++G(2df,2p)
 There are 72 shells and 244 basis functions
 A cutoff of  1.0D-12 yielded   2466 shell pairs
 There are     28520 function pairs (     35949 Cartesian)
 Smallest overlap matrix eigenvalue = 1.21E-05
 Guess MOs from SCF MO coefficient file

 -----------------------------------------------------------------------
  General SCF calculation program by
  Eric Jon Sundstrom, Paul Horn, Yuezhi Mao, Dmitri Zuev, Alec White,
  David Stuck, Shaama M.S., Shane Yost, Joonho Lee, David Small,
  Daniel Levine, Susi Lehtola, Hugh Burton, Evgeny Epifanovsky,
  Bang C. Huynh
 -----------------------------------------------------------------------
 Exchange:     0.1500 Hartree-Fock + 1.0000 wB97M-V + LR-HF
 Correlation:  1.0000 wB97M-V
 Using SG-2 standard quadrature grid
 Nonlocal Correlation:  VV10 with C = 0.0100 and b = 6.00 and scale = 1.00000
 Grid used for NLC:  SG-1 standard quadrature
 
 Citation of the SMD model:
 Marenich, A.V.; Cramer, C.J.; Truhlar, D.G.
 J. Phys. Chem. B 2009, 113, 6378-6396.
 iSolventCode=           1
 Solvent: water                                                           
 
 vradii
            1           2           3           4           5           6
    1   1.8500000   1.8500000   1.8500000   1.8500000   1.5200000   1.5200000
            7           8           9          10
    1   1.2000000   1.2000000   1.2000000   1.2000000
 -------------------------------------------------------
 OpenMP BLAS3 based DFT computing Module                
 Release: version 1.0, May 2013, Q-Chem Inc. Pittsburgh 
 -------------------------------------------------------
 A restricted SCF calculation will be
 performed using Roothaan-Hall, DIIS, GDM
 SCF converges when RMS gradient is below 1.0e-07
 ---------------------------------------
  Cycle       Energy         DIIS error
 ---------------------------------------
    1    -305.2156172431      6.12e-04  Roothaan Step
 ---------------------------------------
  Cycle       Energy         DIIS error
 ---------------------------------------
    1    -305.2320498841      8.75e-04  
    2    -305.2326161970      1.20e-03  Done DIIS. Switching to GDM
 ---------------------------------------
  Cycle       Energy        RMS Gradient
 ---------------------------------------
    1    -305.2326161970      3.62e-02   Normal BFGS step
    2    -305.2279195269      5.73e-02  Line search: overstep
    3    -305.2394906290      2.84e-03   Normal BFGS step
    4    -305.2397433833      2.37e-03   Normal BFGS step
    5    -305.2397719212      1.06e-03   Normal BFGS step
    6    -305.2397791618      3.59e-04   Normal BFGS step
    7    -305.2397797346      1.40e-04   Normal BFGS step
    8    -305.2397798230      5.91e-05   Normal BFGS step
    9    -305.2397798490      3.17e-05   Normal BFGS step
   10    -305.2397798559      1.12e-05   Normal BFGS step
   11    -305.2397798573      6.74e-06   Normal BFGS step
   12    -305.2397798575      1.88e-06   Normal BFGS step
   13    -305.2397798576      9.04e-07   Normal BFGS step
   14    -305.2397798576      3.38e-07   Normal BFGS step
   15    -305.2397798576      5.89e-08  Convergence criterion met
 ---------------------------------------
 SCF time:   CPU 382.94s  wall 48.00s 
(3)  G-ENP(liq) elect-nuc-pol free energy of system     -305.239779858 a.u.
(4)  G-CDS(liq) cavity-dispersion-solvent structure 
     free energy                                                5.2214 kcal/mol
(6)  G-S(liq) free energy of system                     -305.231459006 a.u.
 SCF   energy in the final basis set =     -305.2314590063
 Total energy in the final basis set =     -305.2314590063
 
 --------------------------------------------------------------
 
                    Orbital Energies (a.u.)
 --------------------------------------------------------------
 
 Alpha MOs
 -- Occupied --
-19.3499 -19.3491 -10.4484 -10.4434 -10.3741 -10.3733  -1.1972  -1.1931
 -0.9405  -0.8150  -0.7287  -0.6756  -0.6197  -0.5946  -0.5754  -0.5356
 -0.5319  -0.5156  -0.5117  -0.3976  -0.3937  -0.3676
 -- Virtual --
 -0.0311   0.0281   0.0432   0.0462   0.0653   0.0676   0.0857   0.0889
  0.1129   0.1146   0.1219   0.1283   0.1381   0.1459   0.1586   0.1627
  0.1753   0.1759   0.1896   0.1932   0.2000   0.2057   0.2441   0.2518
  0.2615   0.2735   0.3038   0.3127   0.3153   0.3187   0.3505   0.3610
  0.3634   0.3697   0.3990   0.4131   0.4401   0.4756   0.4913   0.5247
  0.5651   0.5687   0.5878   0.5928   0.6146   0.6153   0.6327   0.6403
  0.6655   0.6808   0.6827   0.7029   0.7239   0.7379   0.7657   0.7719
  0.7834   0.7881   0.8215   0.8431   0.8443   0.8656   0.8918   0.9006
  0.9836   0.9850   1.0391   1.0517   1.0772   1.0849   1.0999   1.1234
  1.1379   1.1479   1.1668   1.1728   1.1961   1.2117   1.2285   1.2806
  1.2939   1.3072   1.3252   1.3923   1.4039   1.4288   1.4393   1.4706
  1.4785   1.4864   1.5079   1.5727   1.6197   1.6725   1.6971   1.7499
  1.7927   1.7999   1.8167   1.8263   1.9097   2.0302   2.0581   2.0985
  2.1103   2.2080   2.4063   2.4385   2.5195   2.5355   2.5834   2.5977
  2.6451   2.6674   2.7571   2.7707   2.7918   2.8072   2.8210   2.8434
  2.8596   2.8678   2.8921   2.9294   2.9803   2.9906   3.0011   3.0564
  3.1052   3.1128   3.1403   3.1597   3.1634   3.1961   3.2193   3.2850
  3.2961   3.3067   3.3210   3.3695   3.3850   3.4040   3.4396   3.4484
  3.4602   3.5200   3.5313   3.5348   3.5627   3.5775   3.6447   3.6737
  3.7188   3.7247   3.7763   3.8105   3.8430   3.8470   3.8629   3.9098
  3.9614   4.0387   4.0879   4.1087   4.1548   4.2174   4.2238   4.2428
  4.2800   4.3817   4.3846   4.4058   4.5325   4.5523   4.6063   4.6922
  4.7844   4.7993   4.9482   4.9570   5.1093   5.1647   5.1728   5.1826
  5.1976   5.2045   5.2126   5.2194   5.3935   5.4143   5.5057   5.5605
  5.5632   5.5890   5.6052   5.6454   5.7910   5.8299   5.9392   6.1137
  6.3179   6.3533   6.7294   6.8590   6.9335   6.9430   7.0026   7.0575
  7.1521   7.2600   7.3091   7.3177   7.5325   7.5770   7.7328   7.7598
 24.3886  24.9396  24.9908  25.2409  50.7054  50.7207
 --------------------------------------------------------------
 
          Ground-State Mulliken Net Atomic Charges

     Atom                 Charge (a.u.)
  ----------------------------------------
      1 C                     0.142138
      2 C                    -0.118594
      3 C                    -0.125598
      4 C                    -0.103657
      5 O                    -0.384678
      6 O                    -0.402905
      7 H                     0.282724
      8 H                     0.278407
      9 H                     0.197895
     10 H                     0.234268
  ----------------------------------------
  Sum of atomic charges =     0.000000

 -----------------------------------------------------------------
                    Cartesian Multipole Moments
 -----------------------------------------------------------------
    Charge (ESU x 10^10)
                 0.0000
    Dipole Moment (Debye)
         X      -4.7913      Y      -3.5449      Z       0.2002
       Tot       5.9635
    Quadrupole Moments (Debye-Ang)
        XX     -44.5958     XY       2.9907     YY     -37.6920
        XZ      -0.2479     YZ       0.6280     ZZ     -34.9353
    Octopole Moments (Debye-Ang^2)
       XXX     -91.9569    XXY     -14.6049    XYY      -1.8087
       YYY     -41.0297    XXZ       1.1907    XYZ      -0.8957
       YYZ       3.3815    XZZ      -9.4743    YZZ      -6.6539
       ZZZ       5.1501
    Hexadecapole Moments (Debye-Ang^3)
      XXXX    -702.0056   XXXY      14.9984   XXYY    -137.4725
      XYYY      42.0386   YYYY    -227.8823   XXXZ      -8.6906
      XXYZ       2.8569   XYYZ      -4.2272   YYYZ       9.0661
      XXZZ     -99.5644   XYZZ       8.0480   YYZZ     -43.3976
      XZZZ      -7.7008   YZZZ       6.4866   ZZZZ     -37.1646
 -----------------------------------------------------------------
 Calculating analytic gradient of the SCF energy
 Gradient of CDS energy
            1           2           3           4           5           6
    1  -0.0001294   0.0001222  -0.0003552   0.0027078  -0.0004541  -0.0015458
    2  -0.0006134  -0.0006243   0.0022276   0.0006749  -0.0011130   0.0001289
    3   0.0000121   0.0000278  -0.0001627   0.0000520   0.0000914  -0.0000281
            7           8           9          10
    1   0.0000721  -0.0001285  -0.0000771  -0.0002121
    2  -0.0001754  -0.0001715  -0.0001629  -0.0001709
    3   0.0000084   0.0000057   0.0000095  -0.0000161
 Gradient of SCF Energy
            1           2           3           4           5           6
    1   0.0117901  -0.0063102   0.0131770  -0.0003903   0.0006962   0.0032495
    2   0.0117427   0.0050703   0.0045983  -0.0023149   0.0059779   0.0013503
    3  -0.0005220   0.0002116  -0.0004157   0.0002904  -0.0004998  -0.0001147
            7           8           9          10
    1   0.0024968  -0.0103507  -0.0128099  -0.0015485
    2  -0.0095988  -0.0138179  -0.0040519   0.0010439
    3   0.0003753   0.0005473   0.0001672  -0.0000395
 Max gradient component =       1.382E-02
 RMS gradient           =       6.253E-03
 Computing fast CPCM-SWIG gradient
 Updating gradient with PCM contributions...
 -- total gradient after adding PCM contribution --
---------------------------------------------------
  Atom         X              Y              Z     
---------------------------------------------------
   1       0.000043      -0.000013      -0.000145
   2      -0.000029       0.000172       0.000165
   3       0.000066       0.001428      -0.000109
   4       0.000373      -0.001035       0.000139
   5      -0.000044      -0.001266       0.000281
   6      -0.000253       0.000618       0.000007
   7       0.000086       0.000093      -0.000040
   8      -0.000239      -0.000125       0.000106
   9      -0.000117      -0.000196      -0.000213
  10       0.000113       0.000324      -0.000191
---------------------------------------------------
 Number of fixed atoms: 0
 Gradient time:  CPU 65.92 s  wall 9.68 s
 Geometry Optimization Parameters
   NAtoms,    NIC,     NZ,  NCons,   NDum,   NFix, NCnnct, MaxDiis
       10      53       0       0       0       0       0       0

 Cartesian Hessian Update
 Hessian updated using BFGS update


** GEOMETRY OPTIMIZATION IN DELOCALIZED INTERNAL COORDINATES **
   Searching for a Minimum

   Optimization Cycle:   4

                       Coordinates (Angstroms)
     ATOM                X               Y               Z
      1  C         0.6656157784   -0.7289082286    0.0038056878
      2  C        -0.6662239402   -0.6476430017   -0.0375121464
      3  C        -1.4936215690    0.5829618045   -0.1073484877
      4  C         1.6109090803    0.4049412352   -0.0025410893
      5  O        -1.0660672388    1.7147467768   -0.1915973637
      6  O         2.8125672180    0.2124137940    0.0211565113
      7  H         1.1376446052   -1.7031303118    0.0523739778
      8  H        -1.2423814228   -1.5644127438   -0.0155727664
      9  H        -2.5774588295    0.4011724858   -0.0818468439
     10  H         1.2087640185    1.4210186895   -0.0277246796
   Point Group: c1    Number of degrees of freedom:    24


   Energy is   -305.231459006

 Hessian updated using BFGS update

 24 Hessian modes will be used to form the next step
  Hessian Eigenvalues:
     0.002270    0.011228    0.011508    0.020933    0.021146    0.028756
     0.077984    0.158653    0.159999    0.160053    0.164432    0.215460
     0.219992    0.220368    0.260473    0.332766    0.334328    0.341703
     0.346552    0.350301    0.365093    0.586039    0.941587    0.952528

 Minimum search - taking simple RFO step
 Searching for Lamda that Minimizes Along All modes
 Value Taken    Lamda =  -0.00005955
 Step Taken.  Stepsize is  0.145946

                             Maximum     Tolerance    Cnvgd?
         Gradient           0.001140      0.000300      NO
         Displacement       0.093161      0.001200      NO
         Energy change     -0.000021      0.000001      NO


 New Cartesian Coordinates Obtained by Inverse Iteration

 Displacement from previous Coordinates is:  0.209851
 ----------------------------------------------------------------
             Standard Nuclear Orientation (Angstroms)
    I     Atom           X                Y                Z
 ----------------------------------------------------------------
    1      C       0.6672171393    -0.7312537472    -0.0031083197
    2      C      -0.6648507637    -0.6473097392    -0.0448441589
    3      C      -1.4930010842     0.5856595649    -0.1147847529
    4      C       1.6107957858     0.4035849547     0.0048743427
    5      O      -1.0692388437     1.7100276891    -0.2675037376
    6      O       2.8134372828     0.2165246213     0.0158542267
    7      H       1.1389021837    -1.7060376883     0.0417189594
    8      H      -1.2443389694    -1.5626212799    -0.0195954682
    9      H      -2.5744580415     0.4053373023    -0.0251566851
   10      H       1.2052830111     1.4192488222     0.0257383936
 ----------------------------------------------------------------
 Nuclear Repulsion Energy =         201.54865932 hartrees
 There are       22 alpha and       22 beta electrons
 Discretize the solute cavity surface with Lebedev spheres
	Using 110 Lebedev grid points for each H atom
	Using 194 Lebedev grid points for other atoms
	Atomic van der Waals radii will be scaled by 1.20
 Remove points where switching function is < 1.0e-08
 Keep 872 surface tesserae and discard 732 interior tesserae
 Molecular Surface Area = 109.766 Angst**2
 Applying Cartesian multipole field
    Component          Value
    ---------          -----
     (2,0,0)        1.00000E-11
     (0,2,0)        2.00000E-11
     (0,0,2)       -3.00000E-11
 Nucleus-field energy     =     0.0000000070 hartrees
 Requested basis set is 6-311++G(2df,2p)
 There are 72 shells and 244 basis functions
 A cutoff of  1.0D-12 yielded   2465 shell pairs
 There are     28504 function pairs (     35933 Cartesian)
 Smallest overlap matrix eigenvalue = 1.22E-05
 Guess MOs from SCF MO coefficient file

 -----------------------------------------------------------------------
  General SCF calculation program by
  Eric Jon Sundstrom, Paul Horn, Yuezhi Mao, Dmitri Zuev, Alec White,
  David Stuck, Shaama M.S., Shane Yost, Joonho Lee, David Small,
  Daniel Levine, Susi Lehtola, Hugh Burton, Evgeny Epifanovsky,
  Bang C. Huynh
 -----------------------------------------------------------------------
 Exchange:     0.1500 Hartree-Fock + 1.0000 wB97M-V + LR-HF
 Correlation:  1.0000 wB97M-V
 Using SG-2 standard quadrature grid
 Nonlocal Correlation:  VV10 with C = 0.0100 and b = 6.00 and scale = 1.00000
 Grid used for NLC:  SG-1 standard quadrature
 
 Citation of the SMD model:
 Marenich, A.V.; Cramer, C.J.; Truhlar, D.G.
 J. Phys. Chem. B 2009, 113, 6378-6396.
 iSolventCode=           1
 Solvent: water                                                           
 
 vradii
            1           2           3           4           5           6
    1   1.8500000   1.8500000   1.8500000   1.8500000   1.5200000   1.5200000
            7           8           9          10
    1   1.2000000   1.2000000   1.2000000   1.2000000
 -------------------------------------------------------
 OpenMP BLAS3 based DFT computing Module                
 Release: version 1.0, May 2013, Q-Chem Inc. Pittsburgh 
 -------------------------------------------------------
 A restricted SCF calculation will be
 performed using Roothaan-Hall, DIIS, GDM
 SCF converges when RMS gradient is below 1.0e-07
 ---------------------------------------
  Cycle       Energy         DIIS error
 ---------------------------------------
    1    -305.2127545072      7.80e-04  Roothaan Step
 ---------------------------------------
  Cycle       Energy         DIIS error
 ---------------------------------------
    1    -305.2316760098      8.90e-04  
    2    -305.2324980591      1.21e-03  Done DIIS. Switching to GDM
 ---------------------------------------
  Cycle       Energy        RMS Gradient
 ---------------------------------------
    1    -305.2324980591      3.60e-02   Normal BFGS step
    2    -305.2277816480      5.74e-02  Line search: overstep
    3    -305.2395166905      2.58e-03   Normal BFGS step
    4    -305.2398064736      2.34e-03   Normal BFGS step
    5    -305.2398480964      1.03e-03   Normal BFGS step
    6    -305.2398578397      4.60e-04   Normal BFGS step
    7    -305.2398594302      3.14e-04   Normal BFGS step
    8    -305.2398598377      1.03e-04   Normal BFGS step
    9    -305.2398599164      7.66e-05   Normal BFGS step
   10    -305.2398599452      1.99e-05   Normal BFGS step
   11    -305.2398599483      6.34e-06   Normal BFGS step
   12    -305.2398599488      3.10e-06   Normal BFGS step
   13    -305.2398599488      8.14e-07   Normal BFGS step
   14    -305.2398599488      2.92e-07   Normal BFGS step
   15    -305.2398599488      6.89e-08  Convergence criterion met
 ---------------------------------------
 SCF time:   CPU 381.48s  wall 48.00s 
(3)  G-ENP(liq) elect-nuc-pol free energy of system     -305.239859949 a.u.
(4)  G-CDS(liq) cavity-dispersion-solvent structure 
     free energy                                                5.2252 kcal/mol
(6)  G-S(liq) free energy of system                     -305.231533107 a.u.
 SCF   energy in the final basis set =     -305.2315331065
 Total energy in the final basis set =     -305.2315331065
 
 --------------------------------------------------------------
 
                    Orbital Energies (a.u.)
 --------------------------------------------------------------
 
 Alpha MOs
 -- Occupied --
-19.3503 -19.3490 -10.4487 -10.4435 -10.3743 -10.3735  -1.1982  -1.1931
 -0.9403  -0.8147  -0.7286  -0.6753  -0.6195  -0.5948  -0.5757  -0.5354
 -0.5324  -0.5159  -0.5118  -0.3973  -0.3937  -0.3678
 -- Virtual --
 -0.0305   0.0282   0.0433   0.0462   0.0651   0.0676   0.0854   0.0887
  0.1130   0.1147   0.1215   0.1286   0.1378   0.1467   0.1587   0.1626
  0.1749   0.1757   0.1896   0.1928   0.1998   0.2057   0.2442   0.2518
  0.2613   0.2706   0.3042   0.3133   0.3159   0.3191   0.3503   0.3582
  0.3633   0.3684   0.3970   0.4121   0.4386   0.4730   0.4905   0.5239
  0.5628   0.5695   0.5846   0.5944   0.6152   0.6167   0.6343   0.6399
  0.6651   0.6786   0.6840   0.6994   0.7235   0.7377   0.7605   0.7741
  0.7809   0.7886   0.8187   0.8432   0.8505   0.8647   0.8878   0.9019
  0.9805   0.9850   1.0322   1.0568   1.0772   1.0897   1.0997   1.1214
  1.1372   1.1493   1.1665   1.1755   1.1959   1.2110   1.2283   1.2789
  1.2933   1.3076   1.3231   1.3912   1.4014   1.4287   1.4402   1.4690
  1.4731   1.4880   1.5086   1.5701   1.6178   1.6706   1.6952   1.7478
  1.7876   1.7984   1.8195   1.8272   1.9079   2.0266   2.0598   2.0915
  2.1170   2.2007   2.4031   2.4370   2.5171   2.5341   2.5872   2.5960
  2.6421   2.6671   2.7586   2.7678   2.7899   2.8070   2.8201   2.8441
  2.8605   2.8694   2.8932   2.9282   2.9770   2.9911   3.0008   3.0562
  3.1029   3.1144   3.1411   3.1553   3.1657   3.1992   3.2187   3.2834
  3.2962   3.3055   3.3248   3.3686   3.3833   3.4023   3.4396   3.4487
  3.4596   3.5171   3.5301   3.5355   3.5631   3.5812   3.6416   3.6722
  3.7192   3.7212   3.7737   3.8096   3.8414   3.8456   3.8629   3.9093
  3.9600   4.0373   4.0841   4.1115   4.1525   4.2126   4.2310   4.2404
  4.2782   4.3793   4.3840   4.3996   4.5309   4.5488   4.6063   4.6896
  4.7778   4.8020   4.9409   4.9534   5.1085   5.1648   5.1749   5.1822
  5.1989   5.2020   5.2138   5.2188   5.3922   5.4125   5.5027   5.5567
  5.5649   5.5908   5.6038   5.6423   5.7921   5.8307   5.9351   6.1095
  6.3196   6.3583   6.7296   6.8608   6.9358   6.9453   7.0023   7.0538
  7.1524   7.2551   7.3096   7.3192   7.5324   7.5721   7.7327   7.7570
 24.3866  24.9384  24.9892  25.2361  50.7052  50.7210
 --------------------------------------------------------------
 
          Ground-State Mulliken Net Atomic Charges

     Atom                 Charge (a.u.)
  ----------------------------------------
      1 C                     0.137032
      2 C                    -0.112535
      3 C                    -0.123882
      4 C                    -0.100923
      5 O                    -0.381622
      6 O                    -0.403357
      7 H                     0.282249
      8 H                     0.277835
      9 H                     0.194611
     10 H                     0.230593
  ----------------------------------------
  Sum of atomic charges =     0.000000

 -----------------------------------------------------------------
                    Cartesian Multipole Moments
 -----------------------------------------------------------------
    Charge (ESU x 10^10)
                 0.0000
    Dipole Moment (Debye)
         X      -4.8098      Y      -3.5356      Z       0.4396
       Tot       5.9856
    Quadrupole Moments (Debye-Ang)
        XX     -44.6290     XY       2.9245     YY     -37.6310
        XZ      -0.3635     YZ       1.0216     ZZ     -35.0363
    Octopole Moments (Debye-Ang^2)
       XXX     -92.0486    XXY     -14.6889    XYY      -1.9102
       YYY     -40.8626    XXZ       2.2141    XYZ      -1.2387
       YYZ       4.5329    XZZ      -9.4113    YZZ      -6.8094
       ZZZ       6.6039
    Hexadecapole Moments (Debye-Ang^3)
      XXXX    -702.7561   XXXY      14.7245   XXYY    -137.4323
      XYYY      41.7334   YYYY    -227.1459   XXXZ     -10.1546
      XXYZ       3.8807   XYYZ      -5.2060   YYYZ      12.2626
      XXZZ     -99.9292   XYZZ       8.1934   YYZZ     -43.8554
      XZZZ      -8.9181   YZZZ       8.3801   ZZZZ     -38.4452
 -----------------------------------------------------------------
 Calculating analytic gradient of the SCF energy
 Gradient of CDS energy
            1           2           3           4           5           6
    1  -0.0001278   0.0001151  -0.0003610   0.0027070  -0.0004468  -0.0015469
    2  -0.0006135  -0.0006295   0.0022175   0.0006772  -0.0010923   0.0001223
    3   0.0000024   0.0000303  -0.0002506   0.0000684   0.0001705  -0.0000139
            7           8           9          10
    1   0.0000732  -0.0001273  -0.0000777  -0.0002079
    2  -0.0001755  -0.0001716  -0.0001685  -0.0001661
    3   0.0000078   0.0000090   0.0000176  -0.0000414
 Gradient of SCF Energy
            1           2           3           4           5           6
    1   0.0121693  -0.0058973   0.0132215   0.0000183   0.0000150   0.0032453
    2   0.0115049   0.0048923   0.0075284  -0.0030996   0.0043229   0.0016465
    3   0.0000093   0.0009985  -0.0015952  -0.0020956  -0.0006561   0.0005754
            7           8           9          10
    1   0.0026581  -0.0107037  -0.0131435  -0.0015831
    2  -0.0097280  -0.0140036  -0.0044746   0.0014107
    3   0.0002225   0.0007678   0.0007672   0.0010061
 Max gradient component =       1.400E-02
 RMS gradient           =       6.410E-03
 Computing fast CPCM-SWIG gradient
 Updating gradient with PCM contributions...
 -- total gradient after adding PCM contribution --
---------------------------------------------------
  Atom         X              Y              Z     
---------------------------------------------------
   1       0.000421      -0.000130       0.000543
   2       0.000285      -0.000166       0.000448
   3       0.000251       0.004435      -0.000546
   4       0.000706      -0.001779      -0.002292
   5      -0.000798      -0.002885       0.000802
   6      -0.000215       0.000916       0.000917
   7       0.000220      -0.000018      -0.000120
   8      -0.000552      -0.000363       0.000134
   9      -0.000457      -0.000618      -0.000400
  10       0.000140       0.000609       0.000515
---------------------------------------------------
 Number of fixed atoms: 0
 Gradient time:  CPU 65.76 s  wall 9.79 s
 Geometry Optimization Parameters
   NAtoms,    NIC,     NZ,  NCons,   NDum,   NFix, NCnnct, MaxDiis
       10      53       0       0       0       0       0       0

 Cartesian Hessian Update
 Hessian updated using BFGS update
**WARNING** Hereditary positive definiteness endangered
 due to small product of step size times gradient change


** GEOMETRY OPTIMIZATION IN DELOCALIZED INTERNAL COORDINATES **
   Searching for a Minimum

   Optimization Cycle:   5

                       Coordinates (Angstroms)
     ATOM                X               Y               Z
      1  C         0.6672171393   -0.7312537472   -0.0031083197
      2  C        -0.6648507637   -0.6473097392   -0.0448441589
      3  C        -1.4930010842    0.5856595649   -0.1147847529
      4  C         1.6107957858    0.4035849547    0.0048743427
      5  O        -1.0692388437    1.7100276891   -0.2675037376
      6  O         2.8134372828    0.2165246213    0.0158542267
      7  H         1.1389021837   -1.7060376883    0.0417189594
      8  H        -1.2443389694   -1.5626212799   -0.0195954682
      9  H        -2.5744580415    0.4053373023   -0.0251566851
     10  H         1.2052830111    1.4192488222    0.0257383936
   Point Group: c1    Number of degrees of freedom:    24


   Energy is   -305.231533107

 Hessian updated using BFGS update
**WARNING** Hereditary positive definiteness endangered
 due to small product of step size times gradient change

 24 Hessian modes will be used to form the next step
  Hessian Eigenvalues:
    -0.150264    0.000560    0.011504    0.020861    0.021130    0.025121
     0.029847    0.120305    0.159771    0.160030    0.160139    0.179052
     0.217195    0.219955    0.241233    0.301798    0.334227    0.341212
     0.345644    0.350144    0.356643    0.559868    0.829736    0.944170
**WARNING** Hessian does not have the desired local structure
**WARNING** Hessian does not have the desired local structure

 Minimum search - taking simple RFO step
 Searching for Lamda that Minimizes Along All modes
 Value Taken    Lamda =  -0.15032674
 Calculated Step too Large.  Step scaled by  0.006146
 Step Taken.  Stepsize is  0.300000

                             Maximum     Tolerance    Cnvgd?
         Gradient           0.002581      0.000300      NO
         Displacement       0.137070      0.001200      NO
         Energy change     -0.000074      0.000001      NO


 New Cartesian Coordinates Obtained by Inverse Iteration

 Displacement from previous Coordinates is:  0.777605
 ----------------------------------------------------------------
             Standard Nuclear Orientation (Angstroms)
    I     Atom           X                Y                Z
 ----------------------------------------------------------------
    1      C       0.6366357223    -0.7518704238     0.0062083210
    2      C      -0.6772653736    -0.7003243260    -0.0460879140
    3      C      -1.3935521958     0.5479594549    -0.0971033182
    4      C       1.5036116711     0.4376542267     0.0651612067
    5      O      -0.8292674051     1.6329610113    -0.2870647907
    6      O       2.7084102320     0.3054081667    -0.0412828388
    7      H       1.1436454136    -1.7035002455     0.0348985317
    8      H      -1.2607011779    -1.6007922550    -0.0361476319
    9      H      -2.4774276925     0.5076036086    -0.0118104025
   10      H       1.0356585060     1.4180612820     0.0264216366
 ----------------------------------------------------------------
 Nuclear Repulsion Energy =         206.79857042 hartrees
 There are       22 alpha and       22 beta electrons
 Discretize the solute cavity surface with Lebedev spheres
	Using 110 Lebedev grid points for each H atom
	Using 194 Lebedev grid points for other atoms
	Atomic van der Waals radii will be scaled by 1.20
 Remove points where switching function is < 1.0e-08
 Keep 837 surface tesserae and discard 767 interior tesserae
 Molecular Surface Area = 106.763 Angst**2
 Applying Cartesian multipole field
    Component          Value
    ---------          -----
     (2,0,0)        1.00000E-11
     (0,2,0)        2.00000E-11
     (0,0,2)       -3.00000E-11
 Nucleus-field energy     =     0.0000000064 hartrees
 Requested basis set is 6-311++G(2df,2p)
 There are 72 shells and 244 basis functions
 A cutoff of  1.0D-12 yielded   2491 shell pairs
 There are     28884 function pairs (     36429 Cartesian)
 Smallest overlap matrix eigenvalue = 1.03E-05
 Guess MOs from SCF MO coefficient file

 -----------------------------------------------------------------------
  General SCF calculation program by
  Eric Jon Sundstrom, Paul Horn, Yuezhi Mao, Dmitri Zuev, Alec White,
  David Stuck, Shaama M.S., Shane Yost, Joonho Lee, David Small,
  Daniel Levine, Susi Lehtola, Hugh Burton, Evgeny Epifanovsky,
  Bang C. Huynh
 -----------------------------------------------------------------------
 Exchange:     0.1500 Hartree-Fock + 1.0000 wB97M-V + LR-HF
 Correlation:  1.0000 wB97M-V
 Using SG-2 standard quadrature grid
 Nonlocal Correlation:  VV10 with C = 0.0100 and b = 6.00 and scale = 1.00000
 Grid used for NLC:  SG-1 standard quadrature
 
 Citation of the SMD model:
[...]
    5      O      -1.0330251109     1.5829476068    -0.7237663859
    6      O       2.7459442998     0.3212729499    -0.1022268890
    7      H       1.1522162581    -1.7200477685     0.0170106400
    8      H      -1.2665065116    -1.5878134749    -0.0993892462
    9      H      -2.4174951740     0.5679754932     0.3220117904
   10      H       1.1052501706     1.3737271877     0.3810697676
 ----------------------------------------------------------------
 Nuclear Repulsion Energy =         202.91806315 hartrees
 There are       22 alpha and       22 beta electrons
 Discretize the solute cavity surface with Lebedev spheres
	Using 110 Lebedev grid points for each H atom
	Using 194 Lebedev grid points for other atoms
	Atomic van der Waals radii will be scaled by 1.20
 Remove points where switching function is < 1.0e-08
 Keep 871 surface tesserae and discard 733 interior tesserae
 Molecular Surface Area = 109.721 Angst**2
 Applying Cartesian multipole field
    Component          Value
    ---------          -----
     (2,0,0)        1.00000E-11
     (0,2,0)        2.00000E-11
     (0,0,2)       -3.00000E-11
 Nucleus-field energy     =     0.0000000061 hartrees
 Requested basis set is 6-311++G(2df,2p)
 There are 72 shells and 244 basis functions
 A cutoff of  1.0D-12 yielded   2475 shell pairs
 There are     28624 function pairs (     36083 Cartesian)
 Smallest overlap matrix eigenvalue = 1.31E-05
 Guess MOs from SCF MO coefficient file

 -----------------------------------------------------------------------
  General SCF calculation program by
  Eric Jon Sundstrom, Paul Horn, Yuezhi Mao, Dmitri Zuev, Alec White,
  David Stuck, Shaama M.S., Shane Yost, Joonho Lee, David Small,
  Daniel Levine, Susi Lehtola, Hugh Burton, Evgeny Epifanovsky,
  Bang C. Huynh
 -----------------------------------------------------------------------
 Exchange:     0.1500 Hartree-Fock + 1.0000 wB97M-V + LR-HF
 Correlation:  1.0000 wB97M-V
 Using SG-2 standard quadrature grid
 Nonlocal Correlation:  VV10 with C = 0.0100 and b = 6.00 and scale = 1.00000
 Grid used for NLC:  SG-1 standard quadrature
 
 Citation of the SMD model:
 Marenich, A.V.; Cramer, C.J.; Truhlar, D.G.
 J. Phys. Chem. B 2009, 113, 6378-6396.
 iSolventCode=           1
 Solvent: water                                                           
 
 vradii
            1           2           3           4           5           6
    1   1.8500000   1.8500000   1.8500000   1.8500000   1.5200000   1.5200000
            7           8           9          10
    1   1.2000000   1.2000000   1.2000000   1.2000000
 -------------------------------------------------------
 OpenMP BLAS3 based DFT computing Module                
 Release: version 1.0, May 2013, Q-Chem Inc. Pittsburgh 
 -------------------------------------------------------
 A restricted SCF calculation will be
 performed using Roothaan-Hall, DIIS, GDM
 SCF converges when RMS gradient is below 1.0e-07
 ---------------------------------------
  Cycle       Energy         DIIS error
 ---------------------------------------
    1    -305.2145093477      6.44e-04  Roothaan Step
 ---------------------------------------
  Cycle       Energy         DIIS error
 ---------------------------------------
    1    -305.2322166865      9.44e-04  
    2    -305.2331466952      1.27e-03  Done DIIS. Switching to GDM
 ---------------------------------------
  Cycle       Energy        RMS Gradient
 ---------------------------------------
    1    -305.2331466952      3.57e-02   Normal BFGS step
    2    -305.2278388373      5.57e-02  Line search: overstep
    3    -305.2409255067      2.19e-03   Normal BFGS step
    4    -305.2412145308      2.09e-03   Normal BFGS step
    5    -305.2412459639      9.53e-04   Normal BFGS step
    6    -305.2412538715      3.04e-04   Normal BFGS step
    7    -305.2412544041      1.15e-04   Normal BFGS step
    8    -305.2412544600      2.01e-05   Normal BFGS step
    9    -305.2412544692      1.57e-05   Normal BFGS step
   10    -305.2412544705      8.13e-06   Normal BFGS step
   11    -305.2412544711      2.19e-06   Normal BFGS step
   12    -305.2412544711      9.06e-07   Normal BFGS step
   13    -305.2412544711      4.14e-07   Normal BFGS step
   14    -305.2412544711      1.84e-07   Normal BFGS step
   15    -305.2412544711      6.57e-08  Convergence criterion met
 ---------------------------------------
 SCF time:   CPU 382.72s  wall 48.00s 
(3)  G-ENP(liq) elect-nuc-pol free energy of system     -305.241254471 a.u.
(4)  G-CDS(liq) cavity-dispersion-solvent structure 
     free energy                                                5.0981 kcal/mol
(6)  G-S(liq) free energy of system                     -305.233130147 a.u.
 SCF   energy in the final basis set =     -305.2331301473
 Total energy in the final basis set =     -305.2331301473
 
 --------------------------------------------------------------
 
                    Orbital Energies (a.u.)
 --------------------------------------------------------------
 
 Alpha MOs
 -- Occupied --
-19.3528 -19.3474 -10.4494 -10.4449 -10.3746 -10.3722  -1.1988  -1.1923
 -0.9437  -0.8138  -0.7300  -0.6742  -0.6209  -0.5996  -0.5784  -0.5413
 -0.5287  -0.5158  -0.5100  -0.3968  -0.3912  -0.3725
 -- Virtual --
 -0.0185   0.0279   0.0446   0.0450   0.0559   0.0671   0.0795   0.0879
  0.1117   0.1144   0.1209   0.1316   0.1336   0.1533   0.1592   0.1616
  0.1687   0.1747   0.1881   0.1896   0.1972   0.2026   0.2401   0.2451
  0.2621   0.2743   0.2918   0.3108   0.3251   0.3336   0.3479   0.3529
  0.3536   0.3645   0.3761   0.4012   0.4344   0.4498   0.4961   0.5140
  0.5524   0.5564   0.5850   0.5917   0.6145   0.6254   0.6426   0.6440
  0.6554   0.6664   0.6839   0.6920   0.7179   0.7320   0.7538   0.7700
  0.7786   0.7852   0.8047   0.8357   0.8448   0.8555   0.8819   0.9248
  0.9566   1.0038   1.0396   1.0587   1.0849   1.0924   1.1136   1.1275
  1.1434   1.1616   1.1806   1.1936   1.2025   1.2079   1.2317   1.2644
  1.2792   1.3083   1.3263   1.3765   1.3915   1.4187   1.4223   1.4785
  1.4829   1.5075   1.5150   1.5687   1.6155   1.6564   1.6764   1.7099
  1.7664   1.7800   1.8248   1.8527   1.8968   1.9800   2.0549   2.0800
  2.0911   2.1150   2.3498   2.4037   2.4830   2.5405   2.5729   2.6026
  2.6388   2.6866   2.7390   2.7635   2.7995   2.8106   2.8241   2.8300
  2.8805   2.8927   2.8971   2.9161   2.9787   3.0178   3.0296   3.0443
  3.0818   3.1243   3.1331   3.1562   3.2024   3.2264   3.2419   3.2898
  3.2951   3.3213   3.3308   3.3670   3.3972   3.4026   3.4210   3.4437
  3.4664   3.5021   3.5065   3.5274   3.5771   3.6258   3.6406   3.6803
  3.7104   3.7263   3.7755   3.8053   3.8500   3.8547   3.8705   3.9067
  3.9547   4.0217   4.0589   4.1398   4.1823   4.1840   4.2250   4.2502
  4.2747   4.3292   4.3834   4.4458   4.5360   4.5711   4.6253   4.6690
  4.7707   4.8223   4.9018   4.9253   5.1142   5.1690   5.1734   5.1824
  5.1986   5.2108   5.2147   5.2409   5.3804   5.4014   5.4960   5.5189
  5.5702   5.5752   5.5973   5.6345   5.7964   5.8527   5.9270   6.0591
  6.3379   6.3504   6.7220   6.8126   6.9361   6.9733   6.9966   7.0191
  7.1375   7.1825   7.3123   7.3369   7.5103   7.5392   7.7201   7.7363
 24.3731  24.9394  24.9751  25.2254  50.6939  50.7044
 --------------------------------------------------------------
 
          Ground-State Mulliken Net Atomic Charges

     Atom                 Charge (a.u.)
  ----------------------------------------
      1 C                     0.066606
      2 C                    -0.047534
      3 C                    -0.093766
      4 C                    -0.078687
      5 O                    -0.359620
      6 O                    -0.407758
      7 H                     0.270389
      8 H                     0.271300
      9 H                     0.173495
     10 H                     0.205574
  ----------------------------------------
  Sum of atomic charges =     0.000000

 -----------------------------------------------------------------
                    Cartesian Multipole Moments
 -----------------------------------------------------------------
    Charge (ESU x 10^10)
                 0.0000
    Dipole Moment (Debye)
         X      -4.9736      Y      -3.5717      Z       2.1796
       Tot       6.4995
    Quadrupole Moments (Debye-Ang)
        XX     -44.2207     XY       1.5701     YY     -36.5281
        XZ      -0.1537     YZ       3.3390     ZZ     -36.2623
    Octopole Moments (Debye-Ang^2)
       XXX     -88.1714    XXY     -16.0225    XYY      -3.9453
       YYY     -38.0937    XXZ      10.4147    XYZ      -2.9780
       YYZ      10.7588    XZZ      -8.6130    YZZ      -8.3916
       ZZZ      17.0033
    Hexadecapole Moments (Debye-Ang^3)
      XXXX    -662.1776   XXXY      -0.6181   XXYY    -128.6984
      XYYY      29.3857   YYYY    -211.6498   XXXZ      -9.8427
      XXYZ      10.3262   XYYZ      -8.8829   YYYZ      28.1962
      XXZZ     -98.7663   XYZZ       7.4934   YYZZ     -48.5047
      XZZZ     -14.0488   YZZZ      20.1684   ZZZZ     -58.1393
 -----------------------------------------------------------------
 Calculating analytic gradient of the SCF energy
 Gradient of CDS energy
            1           2           3           4           5           6
    1  -0.0000982   0.0000434  -0.0004008   0.0027081  -0.0004588  -0.0015410
    2  -0.0006019  -0.0006169   0.0021009   0.0007179  -0.0010583   0.0000057
    3  -0.0000637   0.0000137  -0.0007464   0.0000168   0.0006181   0.0002290
            7           8           9          10
    1   0.0000951  -0.0000852  -0.0000715  -0.0001911
    2  -0.0001667  -0.0001800  -0.0000958  -0.0001049
    3   0.0000044   0.0000015   0.0000680  -0.0001413
 Gradient of SCF Energy
            1           2           3           4           5           6
    1   0.0107446  -0.0040253   0.0101318   0.0009939   0.0020040   0.0023937
    2   0.0107404   0.0059573   0.0021829  -0.0027922   0.0062799   0.0011476
    3  -0.0006458   0.0025351  -0.0053317   0.0004344  -0.0051743  -0.0018203
            7           8           9          10
    1   0.0029040  -0.0102730  -0.0122448  -0.0026290
    2  -0.0097938  -0.0139959  -0.0016633   0.0019370
    3   0.0001054   0.0009719   0.0064974   0.0024278
 Max gradient component =       1.400E-02
 RMS gradient           =       6.145E-03
 Computing fast CPCM-SWIG gradient
 Updating gradient with PCM contributions...
 -- total gradient after adding PCM contribution --
---------------------------------------------------
  Atom         X              Y              Z     
---------------------------------------------------
   1       0.000004       0.000020      -0.000004
   2      -0.000019      -0.000010      -0.000006
   3      -0.000003      -0.000003       0.000029
   4      -0.000040      -0.000025      -0.000001
   5       0.000042      -0.000019      -0.000015
   6       0.000017       0.000021       0.000026
   7       0.000006       0.000008      -0.000007
   8       0.000003       0.000001      -0.000007
   9      -0.000004      -0.000004      -0.000017
  10      -0.000006       0.000011       0.000003
---------------------------------------------------
 Number of fixed atoms: 0
 Gradient time:  CPU 66.89 s  wall 9.79 s
 Geometry Optimization Parameters
   NAtoms,    NIC,     NZ,  NCons,   NDum,   NFix, NCnnct, MaxDiis
       10      53       0       0       0       0       0       0

 Cartesian Hessian Update
 Hessian updated using BFGS update


** GEOMETRY OPTIMIZATION IN DELOCALIZED INTERNAL COORDINATES **
   Searching for a Minimum

   Optimization Cycle:  17

                       Coordinates (Angstroms)
     ATOM                X               Y               Z
      1  C         0.6577412246   -0.7568490746   -0.0096139290
      2  C        -0.6701156037   -0.6838368670   -0.1000838746
      3  C        -1.4324432050    0.5817270245   -0.1643395068
      4  C         1.5481813523    0.4140574228    0.0925204336
      5  O        -1.0330251109    1.5829476068   -0.7237663859
      6  O         2.7459442998    0.3212729499   -0.1022268890
      7  H         1.1522162581   -1.7200477685    0.0170106400
      8  H        -1.2665065116   -1.5878134749   -0.0993892462
      9  H        -2.4174951740    0.5679754932    0.3220117904
     10  H         1.1052501706    1.3737271877    0.3810697676
   Point Group: c1    Number of degrees of freedom:    24


   Energy is   -305.233130147

 Hessian updated using BFGS update

 24 Hessian modes will be used to form the next step
  Hessian Eigenvalues:
     0.001564    0.004948    0.020844    0.021793    0.029863    0.070297
     0.084950    0.146307    0.159570    0.160092    0.165514    0.195666
     0.220583    0.246615    0.282646    0.331839    0.336038    0.346916
     0.351725    0.354317    0.416508    0.634111    0.842418    0.950671

 Minimum search - taking simple RFO step
 Searching for Lamda that Minimizes Along All modes
 Value Taken    Lamda =  -0.00000013
 Step Taken.  Stepsize is  0.003868

                             Maximum     Tolerance    Cnvgd?
         Gradient           0.000165      0.000300     YES
         Displacement       0.002980      0.001200      NO
         Energy change     -0.000000      0.000001     YES


                       Distance Matrix (Angstroms)
             C (  1)   C (  2)   C (  3)   C (  4)   O (  5)   O (  6)
   C (  2)  1.332936
   C (  3)  2.486885  1.478825
   C (  4)  1.474563  2.482601  2.996367
   O (  5)  2.973778  2.378864  1.214469  2.948772
   O (  6)  2.351918  3.560859  4.186958  1.217034  4.032213
   H (  7)  1.083036  2.099604  3.465764  2.171841  4.029120  2.592523
   H (  8)  2.097925  1.082985  2.176846  3.459304  3.240075  4.443465
   H (  9)  3.364850  2.190556  1.098660  3.975292  2.010119  5.186709
   H ( 10)  2.211844  2.759892  2.713784  1.095634  2.415917  2.008261
             H (  7)   H (  8)   H (  9)
   H (  8)  2.425130
   H (  9)  4.250990  2.479875
   H ( 10)  3.115476  3.824499  3.614202
 
 Final energy is   -305.233130147269     


 ******************************
 **  OPTIMIZATION CONVERGED  **
 ******************************

                       Coordinates (Angstroms)
     ATOM                X               Y               Z
      1  C         0.6577412246   -0.7568490746   -0.0096139290
      2  C        -0.6701156037   -0.6838368670   -0.1000838746
      3  C        -1.4324432050    0.5817270245   -0.1643395068
      4  C         1.5481813523    0.4140574228    0.0925204336
      5  O        -1.0330251109    1.5829476068   -0.7237663859
      6  O         2.7459442998    0.3212729499   -0.1022268890
      7  H         1.1522162581   -1.7200477685    0.0170106400
      8  H        -1.2665065116   -1.5878134749   -0.0993892462
      9  H        -2.4174951740    0.5679754932    0.3220117904
     10  H         1.1052501706    1.3737271877    0.3810697676

Z-matrix Print:
$molecule
0 1
O 
C  1 1.214469
H  2 1.098660 1 120.604264
C  2 1.478825 1 123.779550 3 179.058476 0
H  4 1.082985 2 115.498274 1 -147.142000 0
C  4 1.332936 2 124.288230 1 34.723737 0
H  6 1.083036 4 120.345110 2 -178.991656 0
C  6 1.474563 4 124.247674 2 2.521301 0
H  8 1.095634 6 118.011275 4 17.202111 0
O  8 1.217034 6 121.512405 4 -164.652730 0
$end

 
 --------------------------------------------------------------
 
                    Orbital Energies (a.u.)
 --------------------------------------------------------------
 
 Alpha MOs
 -- Occupied --
-19.3528 -19.3474 -10.4494 -10.4449 -10.3746 -10.3722  -1.1988  -1.1923
 -0.9437  -0.8138  -0.7300  -0.6742  -0.6209  -0.5996  -0.5784  -0.5413
 -0.5287  -0.5158  -0.5100  -0.3968  -0.3912  -0.3725
 -- Virtual --
 -0.0185   0.0279   0.0446   0.0450   0.0559   0.0671   0.0795   0.0879
  0.1117   0.1144   0.1209   0.1316   0.1336   0.1533   0.1592   0.1616
  0.1687   0.1747   0.1881   0.1896   0.1972   0.2026   0.2401   0.2451
  0.2621   0.2743   0.2918   0.3108   0.3251   0.3336   0.3479   0.3529
  0.3536   0.3645   0.3761   0.4012   0.4344   0.4498   0.4961   0.5140
  0.5524   0.5564   0.5850   0.5917   0.6145   0.6254   0.6426   0.6440
  0.6554   0.6664   0.6839   0.6920   0.7179   0.7320   0.7538   0.7700
  0.7786   0.7852   0.8047   0.8357   0.8448   0.8555   0.8819   0.9248
  0.9566   1.0038   1.0396   1.0587   1.0849   1.0924   1.1136   1.1275
  1.1434   1.1616   1.1806   1.1936   1.2025   1.2079   1.2317   1.2644
  1.2792   1.3083   1.3263   1.3765   1.3915   1.4187   1.4223   1.4785
  1.4829   1.5075   1.5150   1.5687   1.6155   1.6564   1.6764   1.7099
  1.7664   1.7800   1.8248   1.8527   1.8968   1.9800   2.0549   2.0800
  2.0911   2.1150   2.3498   2.4037   2.4830   2.5405   2.5729   2.6026
  2.6388   2.6866   2.7390   2.7635   2.7995   2.8106   2.8241   2.8300
  2.8805   2.8927   2.8971   2.9161   2.9787   3.0178   3.0296   3.0443
  3.0818   3.1243   3.1331   3.1562   3.2024   3.2264   3.2419   3.2898
  3.2951   3.3213   3.3308   3.3670   3.3972   3.4026   3.4210   3.4437
  3.4664   3.5021   3.5065   3.5274   3.5771   3.6258   3.6406   3.6803
  3.7104   3.7263   3.7755   3.8053   3.8500   3.8547   3.8705   3.9067
  3.9547   4.0217   4.0589   4.1398   4.1823   4.1840   4.2250   4.2502
  4.2747   4.3292   4.3834   4.4458   4.5360   4.5711   4.6253   4.6690
  4.7707   4.8223   4.9018   4.9253   5.1142   5.1690   5.1734   5.1824
  5.1986   5.2108   5.2147   5.2409   5.3804   5.4014   5.4960   5.5189
  5.5702   5.5752   5.5973   5.6345   5.7964   5.8527   5.9270   6.0591
  6.3379   6.3504   6.7220   6.8126   6.9361   6.9733   6.9966   7.0191
  7.1375   7.1825   7.3123   7.3369   7.5103   7.5392   7.7201   7.7363
 24.3731  24.9394  24.9751  25.2254  50.6939  50.7044
 --------------------------------------------------------------
 
          Ground-State Mulliken Net Atomic Charges

     Atom                 Charge (a.u.)
  ----------------------------------------
      1 C                     0.066606
      2 C                    -0.047534
      3 C                    -0.093766
      4 C                    -0.078687
      5 O                    -0.359620
      6 O                    -0.407758
      7 H                     0.270389
      8 H                     0.271300
      9 H                     0.173495
     10 H                     0.205574
  ----------------------------------------
  Sum of atomic charges =     0.000000

 -----------------------------------------------------------------
                    Cartesian Multipole Moments
 -----------------------------------------------------------------
    Charge (ESU x 10^10)
                 0.0000
    Dipole Moment (Debye)
         X      -4.9736      Y      -3.5717      Z       2.1796
       Tot       6.4995
    Quadrupole Moments (Debye-Ang)
        XX     -44.2207     XY       1.5701     YY     -36.5281
        XZ      -0.1537     YZ       3.3390     ZZ     -36.2623
    Octopole Moments (Debye-Ang^2)
       XXX     -88.1714    XXY     -16.0225    XYY      -3.9453
       YYY     -38.0937    XXZ      10.4147    XYZ      -2.9780
       YYZ      10.7588    XZZ      -8.6130    YZZ      -8.3916
       ZZZ      17.0033
    Hexadecapole Moments (Debye-Ang^3)
      XXXX    -662.1776   XXXY      -0.6181   XXYY    -128.6984
      XYYY      29.3857   YYYY    -211.6498   XXXZ      -9.8427
      XXYZ      10.3262   XYYZ      -8.8829   YYYZ      28.1962
      XXZZ     -98.7663   XYZZ       7.4934   YYZZ     -48.5047
      XZZZ     -14.0488   YZZZ      20.1684   ZZZZ     -58.1393
 -----------------------------------------------------------------
 Total job time:  1005.17s(wall), 7751.16s(cpu) 
 Mon Dec 26 18:58:33 2022

        *************************************************************
        *                                                           *
        *  Thank you very much for using Q-Chem.  Have a nice day.  *
        *                                                           *
        *************************************************************


