
Running Job 1 of 1 Q_in.in
qchem Q_in.in_317654.0 /scratch/ari.fischer/qChem1516506.hpc-mn1/qchem317654/ 0
/usr/local/qchem-5.4.1/exe/qcprog.exe_s Q_in.in_317654.0 /scratch/ari.fischer/qChem1516506.hpc-mn1/qchem317654/
                  Welcome to Q-Chem
     A Quantum Leap Into The Future Of Chemistry


 Q-Chem 5.4, Q-Chem, Inc., Pleasanton, CA (2021)

 License issued to: Nanyang Technological University (site)

 E. Epifanovsky,  A. T. B. Gilbert,  Xintian Feng,  Joonho Lee,  Yuezhi Mao,  
 N. Mardirossian,  P. Pokhilko,  A. White,  M. Wormit,  M. P. Coons,  
 A. L. Dempwolff,  Zhengting Gan,  D. Hait,  P. R. Horn,  L. D. Jacobson,  
 I. Kaliman,  J. Kussmann,  A. W. Lange,  Ka Un Lao,  D. S. Levine,  Jie Liu,  
 S. C. McKenzie,  A. F. Morrison,  K. Nanda,  F. Plasser,  D. R. Rehn,  
 M. L. Vidal,  Zhi-Qiang You,  Ying Zhu,  B. Alam,  B. Albrecht,  
 A. Aldossary,  E. Alguire,  J. H. Andersen,  D. Barton,  K. Begam,  A. Behn,  
 Y. A. Bernard,  E. J. Berquist,  H. Burton,  A. Carreras,  K. Carter-Fenk,  
 R. Chakraborty,  A. D. Chien,  K. D. Closser,  V. Cofer-Shabica,  
 S. Dasgupta,  Jia Deng,  M. de Wergifosse,  M. Diedenhofen,  Hainam Do,  
 S. Ehlert,  Po-Tung Fang,  S. Fatehi,  Qingguo Feng,  T. Friedhoff,  
 J. Gayvert,  Qinghui Ge,  G. Gidofalvi,  M. Goldey,  J. Gomes,  
 C. Gonzalez-Espinoza,  S. Gulania,  A. Gunina,  M. W. D. Hanson-Heine,  
 P. H. P. Harbach,  A. W. Hauser,  M. F. Herbst,  M. Hernandez Vera,  
 M. Hodecker,  Z. C. Holden,  S. Houck,  Xunkun Huang,  Kerwin Hui,  
 B. C. Huynh,  M. Ivanov,  Hyunjun Ji,  Hanjie Jiang,  B. Kaduk,  S. Kaehler,  
 K. Khistyaev,  Jaehoon Kim,  P. Klunzinger,  Z. Koczor-Benda,  
 Joong Hoon Koh,  D. Kosenkov,  L. Koulias,  T. Kowalczyk,  C. M. Krauter,  
 K. Kue,  A. Kunitsa,  T. Kus,  A. Landau,  K. V. Lawler,  D. Lefrancois,  
 S. Lehtola,  Rain Li,  Yi-Pei Li,  Jiashu Liang,  M. Liebenthal,  
 Hung-Hsuan Lin,  You-Sheng Lin,  Fenglai Liu,  Kuan-Yu Liu,  
 M. Loipersberger,  A. Luenser,  A. Manjanath,  P. Manohar,  E. Mansoor,  
 S. F. Manzer,  Shan-Ping Mao,  A. V. Marenich,  T. Markovich,  S. Mason,  
 S. A. Maurer,  P. F. McLaughlin,  M. F. S. J. Menger,  J.-M. Mewes,  
 S. A. Mewes,  P. Morgante,  J. W. Mullinax,  K. J. Oosterbaan,  G. Paran,  
 Alexander C. Paul,  Suranjan K. Paul,  F. Pavosevic,  Zheng Pei,  S. Prager,  
 E. I. Proynov,  E. Ramos,  B. Rana,  A. E. Rask,  A. Rettig,  R. M. Richard,  
 F. Rob,  E. Rossomme,  T. Scheele,  M. Scheurer,  M. Schneider,  
 N. Sergueev,  S. M. Sharada,  W. Skomorowski,  D. W. Small,  C. J. Stein,  
 Yu-Chuan Su,  E. J. Sundstrom,  Zhen Tao,  J. Thirman,  T. Tsuchimochi,  
 N. M. Tubman,  S. P. Veccham,  O. Vydrov,  J. Wenzel,  J. Witte,  A. Yamada,  
 Kun Yao,  S. Yeganeh,  S. R. Yost,  A. Zech,  Igor Ying Zhang,  Xing Zhang,  
 Yu Zhang,  D. Zuev,  A. Aspuru-Guzik,  A. T. Bell,  N. A. Besley,  
 K. B. Bravaya,  B. R. Brooks,  D. Casanova,  Jeng-Da Chai,  S. Coriani,  
 C. J. Cramer,  A. E. DePrince, III,  R. A. DiStasio Jr.,  A. Dreuw,  
 B. D. Dunietz,  T. R. Furlani,  W. A. Goddard III,  S. Grimme,  
 S. Hammes-Schiffer,  T. Head-Gordon,  W. J. Hehre,  Chao-Ping Hsu,  
 T.-C. Jagau,  Yousung Jung,  A. Klamt,  Jing Kong,  D. S. Lambrecht,  
 WanZhen Liang,  N. J. Mayhall,  C. W. McCurdy,  J. B. Neaton,  
 C. Ochsenfeld,  J. A. Parkhill,  R. Peverati,  V. A. Rassolov,  Yihan Shao,  
 L. V. Slipchenko,  T. Stauch,  R. P. Steele,  J. E. Subotnik,  
 A. J. W. Thom,  A. Tkatchenko,  D. G. Truhlar,  T. Van Voorhis,  
 T. A. Wesolowski,  K. B. Whaley,  H. L. Woodcock III,  P. M. Zimmerman,  
 S. Faraji,  P. M. W. Gill,  M. Head-Gordon,  J. M. Herbert,  A. I. Krylov

 Additional authors for Version 5.4.1: 
 S. Kotaru,  Shaozhi Li,  Xiangyuan Li,  F. Matz,  A. Molle,  Haisheng Ren,  
 Yingli Su,  Hung-Yi Tsai,  C. Utku,  Fang Wang

 Contributors to earlier versions of Q-Chem not listed above: 
 R. D. Adamson,  B. Austin,  R. Baer,  J. Baker,  G. J. O. Beran,  
 K. Brandhorst,  S. T. Brown,  E. F. C. Byrd,  A. K. Chakraborty,  
 G. K. L. Chan,  Chun-Min Chang,  Yunqing Chen,  C.-L. Cheng,  
 Siu Hung Chien,  D. M. Chipman,  D. L. Crittenden,  H. Dachsel,  
 R. J. Doerksen,  A. D. Dutoi,  R. G. Edgar,  J. Fosso-Tande,  
 L. Fusti-Molnar,  D. Ghosh,  A. Ghysels,  A. Golubeva-Zadorozhnaya,  
 J. Gonthier,  M. S. Gordon,  S. R. Gwaltney,  G. Hawkins,  J. E. Herr,  
 A. Heyden,  S. Hirata,  E. G. Hohenstein,  G. Kedziora,  F. J. Keil,  
 C. Kelley,  Jihan Kim,  R. A. King,  R. Z. Khaliullin,  P. P. Korambath,  
 W. Kurlancheek,  A. Laurent,  A. M. Lee,  M. S. Lee,  S. V. Levchenko,  
 Ching Yeh Lin,  D. Liotard,  E. Livshits,  R. C. Lochan,  I. Lotan,  
 L. A. Martinez-Martinez,  P. E. Maslen,  N. Nair,  D. P. O'Neill,  
 D. Neuhauser,  E. Neuscamman,  C. M. Oana,  R. Olivares-Amaya,  R. Olson,  
 T. M. Perrine,  B. Peters,  P. A. Pieniazek,  A. Prociuk,  Y. M. Rhee,  
 J. Ritchie,  M. A. Rohrdanz,  E. Rosta,  N. J. Russ,  H. F. Schaefer III,  
 M. W. Schmidt,  N. E. Schultz,  S. Sharma,  N. Shenvi,  C. D. Sherrill,  
 A. C. Simmonett,  A. Sodt,  T. Stein,  D. Stuck,  K. S. Thanthiriwatte,  
 V. Vanovschi,  L. Vogt,  Tao Wang,  A. Warshel,  M. A. Watson,  
 C. F. Williams,  Q. Wu,  X. Xu,  Jun Yang,  W. Zhang,  Yan Zhao

 Please cite Q-Chem as follows:
 Y. Shao et al., Mol. Phys. 113, 184-215 (2015)
 DOI: 10.1080/00268976.2014.952696

 Q-Chem 5.4.1 for Intel X86 EM64T Linux

 Parts of Q-Chem use Armadillo 9.800.1 (Horizon Scraper).
 http://arma.sourceforge.net/

 Q-Chem begins on Fri Apr 21 21:43:37 2023  

 Host: 
0

     Scratch files written to /scratch/ari.fischer/qChem1516506.hpc-mn1/qchem317654//
 Aug1521 |scratch|qcdevops|jenkins|workspace|build_RNUM 8249   
 Processing $rem in /usr/local/qchem-5.4.1/config/preferences:
 Processing $rem in /home/ari.fischer/.qchemrc:
 Symmetry turned off for PCM/SM12/SMD calculation


!!********************************************.
!!******************Warning*******************.
!!Desired Analytical derivatives not available.
!!Finite difference job might take a long time.
!!********************************************.
!!********************************************.


 2-order derivative to be evaluated numerically with 1-order analytical derivatives

 Checking the input file for inconsistencies... 	...done.

--------------------------------------------------------------
User input:
--------------------------------------------------------------
$molecule
0 2
C        -0.0600066222   -0.3135205577    0.7955608055
C        -0.9784822494   -1.0537090034    1.7582108051
C        -1.7173499139   -2.1575665840    1.0712008585
C        -2.1565599186   -1.9374071279   -0.2206154243
C        -1.8926611525   -0.7332631784   -0.8448707863
C        -1.1583472874    0.3191545082   -0.0691578154
C        -0.6574678257    1.4818044130   -0.9091164815
H         0.4781628576    0.4745166757    1.3260267429
H        -0.4970126816   -1.3571814269    2.6836387448
H        -1.9169013808   -3.0795800365    1.5959972619
H        -2.7100131592   -2.7068360177   -0.7429988464
H        -2.2294102727   -0.5183762414   -1.8501743493
H        -1.4745251722    1.9310078550   -1.4750878685
O         0.3793760951    1.0326470500   -1.7780388714
H        -0.2230516320    2.2335649805   -0.2537698973
H        -0.0204667307    0.5583792750   -2.5157755311
O         0.8221532288   -1.1724563506    0.1134175498
H         1.1670151671   -0.6721216768   -0.6388700494
O        -1.8866771859    0.0079235374    2.1290650003
O        -2.0280605637    0.8637318063    0.9469641518
$end

$rem
BASIS = 6-311++G(2df,2p)
GUI = 2
JOB_TYPE = Frequency
METHOD = wB97M-V
SOLVENT_METHOD = SMD
SCF_ALGORITHM = DIIS_GDM
MAX_SCF_CYCLES = 400
SCF_CONVERGENCE = 7
THRESH = 12
UNRESTRICTED = 1
SYMMETRY_IGNORE = 1
$end
--------------------------------------------------------------
 ----------------------------------------------------------------
             Standard Nuclear Orientation (Angstroms)
    I     Atom           X                Y                Z
 ----------------------------------------------------------------
    1      C      -0.0600066222    -0.3135205577     0.7955608055
    2      C      -0.9784822494    -1.0537090034     1.7582108051
    3      C      -1.7173499139    -2.1575665840     1.0712008585
    4      C      -2.1565599186    -1.9374071279    -0.2206154243
    5      C      -1.8926611525    -0.7332631784    -0.8448707863
    6      C      -1.1583472874     0.3191545082    -0.0691578154
    7      C      -0.6574678257     1.4818044130    -0.9091164815
    8      H       0.4781628576     0.4745166757     1.3260267429
    9      H      -0.4970126816    -1.3571814269     2.6836387448
   10      H      -1.9169013808    -3.0795800365     1.5959972619
   11      H      -2.7100131592    -2.7068360177    -0.7429988464
   12      H      -2.2294102727    -0.5183762414    -1.8501743493
   13      H      -1.4745251722     1.9310078550    -1.4750878685
   14      O       0.3793760951     1.0326470500    -1.7780388714
   15      H      -0.2230516320     2.2335649805    -0.2537698973
   16      H      -0.0204667307     0.5583792750    -2.5157755311
   17      O       0.8221532288    -1.1724563506     0.1134175498
   18      H       1.1670151671    -0.6721216768    -0.6388700494
   19      O      -1.8866771859     0.0079235374     2.1290650003
   20      O      -2.0280605637     0.8637318063     0.9469641518
 ----------------------------------------------------------------
 Nuclear Repulsion Energy =         681.52910688 hartrees
 There are       42 alpha and       41 beta electrons
 Requested basis set is 6-311++G(2df,2p)
 There are 142 shells and 464 basis functions

 Total QAlloc Memory Limit 288000 MB
 Mega-Array Size       188 MB
 MEM_STATIC part       192 MB
 
 Citation of the SMD model:
 Marenich, A.V.; Cramer, C.J.; Truhlar, D.G.
 J. Phys. Chem. B 2009, 113, 6378-6396.
 iSolventCode=           1
 Solvent: water                                                           
 
 vradii
            1           2           3           4           5           6
    1   1.8500000   1.8500000   1.8500000   1.8500000   1.8500000   1.8500000
            7           8           9          10          11          12
    1   1.8500000   1.2000000   1.2000000   1.2000000   1.2000000   1.2000000
           13          14          15          16          17          18
    1   1.2000000   1.5200000   1.2000000   1.2000000   1.5200000   1.2000000
           19          20
    1   1.5200000   1.5200000
 Changing PCM_VDW_RADII to SMD_RADIUS
 Discretize the solute cavity surface with Lebedev spheres
	Using 110 Lebedev grid points for each H atom
	Using 194 Lebedev grid points for other atoms
	Atomic van der Waals radii will be scaled by 1.20
 Remove points where switching function is < 1.0e-08
 Keep 1419 surface tesserae and discard 1705 interior tesserae
 Molecular Surface Area = 161.013 Angst**2
 A cutoff of  1.0D-12 yielded   9272 shell pairs
 There are    100413 function pairs (    125640 Cartesian)
 Smallest overlap matrix eigenvalue = 1.98E-06
 Guess from superposition of atomic densities
 Warning:  Energy on first SCF cycle will be non-variational
 SAD guess density has 83.000000 electrons

 -----------------------------------------------------------------------
  General SCF calculation program by
  Eric Jon Sundstrom, Paul Horn, Yuezhi Mao, Dmitri Zuev, Alec White,
  David Stuck, Shaama M.S., Shane Yost, Joonho Lee, David Small,
  Daniel Levine, Susi Lehtola, Hugh Burton, Evgeny Epifanovsky,
  Bang C. Huynh
 -----------------------------------------------------------------------
 Exchange:     0.1500 Hartree-Fock + 1.0000 wB97M-V + LR-HF
 Correlation:  1.0000 wB97M-V
 Using SG-2 standard quadrature grid
 Nonlocal Correlation:  VV10 with C = 0.0100 and b = 6.00 and scale = 1.00000
 Grid used for NLC:  SG-1 standard quadrature
 using 8 threads for integral computing
 -------------------------------------------------------
 OpenMP Integral computing Module                
 Release: version 1.0, May 2013, Q-Chem Inc. Pittsburgh 
 -------------------------------------------------------
 
 Citation of the SMD model:
 Marenich, A.V.; Cramer, C.J.; Truhlar, D.G.
 J. Phys. Chem. B 2009, 113, 6378-6396.
 iSolventCode=           1
 Solvent: water                                                           
 
 vradii
            1           2           3           4           5           6
    1   1.8500000   1.8500000   1.8500000   1.8500000   1.8500000   1.8500000
            7           8           9          10          11          12
    1   1.8500000   1.2000000   1.2000000   1.2000000   1.2000000   1.2000000
           13          14          15          16          17          18
    1   1.2000000   1.5200000   1.2000000   1.2000000   1.5200000   1.2000000
           19          20
    1   1.5200000   1.5200000
 -------------------------------------------------------
 OpenMP BLAS3 based DFT computing Module                
 Release: version 1.0, May 2013, Q-Chem Inc. Pittsburgh 
 -------------------------------------------------------
 A unrestricted SCF calculation will be
 performed using DIIS, GDM
 SCF converges when RMS gradient is below 1.0e-07
 ---------------------------------------
  Cycle       Energy         DIIS error
 ---------------------------------------
    1    -575.9847840809      1.17e-02  
    2    -572.7967724027      1.10e-03  Done DIIS. Switching to GDM
 ---------------------------------------
  Cycle       Energy        RMS Gradient
 ---------------------------------------
    1    -572.7967724027      3.64e-02   Descent step
    2    -572.8943421871      1.65e-02   Normal BFGS step
    3    -572.9095849531      9.61e-03   Normal BFGS step
    4    -572.9114661061      5.82e-03   Normal BFGS step
    5    -572.9118356133      2.86e-03   Normal BFGS step
    6    -572.9119379457      6.15e-04   Normal BFGS step
    7    -572.9119519959      4.14e-04   Normal BFGS step
    8    -572.9119607611      1.45e-04   Normal BFGS step
    9    -572.9119610900      7.99e-05   Normal BFGS step
   10    -572.9119611893      3.44e-05   Normal BFGS step
   11    -572.9119612004      1.36e-05   Normal BFGS step
   12    -572.9119612041      7.52e-06   Normal BFGS step
   13    -572.9119612055      4.76e-06   Normal BFGS step
   14    -572.9119612059      2.50e-06   Normal BFGS step
   15    -572.9119612059      1.04e-06   Normal BFGS step
   16    -572.9119612059      4.80e-07   Normal BFGS step
   17    -572.9119612059      1.15e-07   Normal BFGS step
   18    -572.9119612059      5.55e-08  Convergence criterion met
 ---------------------------------------
 SCF time:   CPU 3249.33s  wall 414.00s 
<S^2> =          0.780619185
(3)  G-ENP(liq) elect-nuc-pol free energy of system     -572.911961206 a.u.
(4)  G-CDS(liq) cavity-dispersion-solvent structure 
     free energy                                                2.9930 kcal/mol
(6)  G-S(liq) free energy of system                     -572.907191620 a.u.
 SCF   energy in the final basis set =     -572.9071916197
 Total energy in the final basis set =     -572.9071916197
 
 --------------------------------------------------------------
 
                    Orbital Energies (a.u.)
 --------------------------------------------------------------
 
 Alpha MOs
 -- Occupied --
-19.4034 -19.4028 -19.3481 -19.3449 -10.4127 -10.4067 -10.4051 -10.3937
-10.3556 -10.3549 -10.3501  -1.2707  -1.1741  -1.1614  -1.0684  -0.9756
 -0.8889  -0.8559  -0.8088  -0.7506  -0.7104  -0.6822  -0.6582  -0.6328
 -0.6081  -0.5866  -0.5784  -0.5643  -0.5542  -0.5341  -0.5223  -0.5174
 -0.4935  -0.4804  -0.4609  -0.4526  -0.4352  -0.4227  -0.3958  -0.3906
 -0.3659  -0.2853
 -- Virtual --
  0.0244   0.0348   0.0366   0.0451   0.0550   0.0555   0.0680   0.0734
  0.0809   0.0852   0.0895   0.0935   0.1082   0.1245   0.1303   0.1360
  0.1372   0.1448   0.1469   0.1489   0.1567   0.1575   0.1606   0.1700
  0.1752   0.1772   0.1844   0.1886   0.1919   0.2021   0.2048   0.2139
  0.2167   0.2204   0.2239   0.2275   0.2390   0.2533   0.2574   0.2724
  0.2794   0.2867   0.2900   0.2941   0.3028   0.3134   0.3171   0.3225
  0.3314   0.3358   0.3455   0.3478   0.3539   0.3545   0.3627   0.3682
  0.3749   0.3778   0.3849   0.3904   0.4002   0.4019   0.4103   0.4187
  0.4207   0.4292   0.4372   0.4551   0.4700   0.4713   0.4819   0.4982
  0.5075   0.5141   0.5295   0.5435   0.5646   0.5831   0.5904   0.6034
  0.6087   0.6245   0.6252   0.6401   0.6520   0.6558   0.6616   0.6688
  0.6772   0.6924   0.6946   0.7069   0.7152   0.7221   0.7326   0.7369
  0.7445   0.7486   0.7655   0.7814   0.7913   0.7970   0.8097   0.8176
  0.8367   0.8544   0.8575   0.8717   0.8795   0.8873   0.8953   0.9106
  0.9384   0.9652   0.9675   1.0156   1.0257   1.0342   1.0469   1.0533
  1.0870   1.0896   1.0968   1.1026   1.1190   1.1380   1.1496   1.1604
  1.1649   1.1720   1.1757   1.1967   1.2148   1.2202   1.2222   1.2416
  1.2582   1.2634   1.2751   1.2774   1.2926   1.2960   1.3065   1.3256
  1.3381   1.3428   1.3461   1.3599   1.3662   1.3728   1.3854   1.3926
  1.4106   1.4158   1.4219   1.4427   1.4492   1.4645   1.4769   1.4925
  1.5024   1.5100   1.5334   1.5412   1.5462   1.5621   1.5780   1.5816
  1.5880   1.6137   1.6227   1.6362   1.6523   1.6569   1.6791   1.6924
  1.7158   1.7496   1.7609   1.7943   1.8026   1.8192   1.8450   1.8669
  1.8805   1.8931   1.9528   1.9615   1.9845   2.0038   2.0240   2.0452
  2.0658   2.0816   2.1235   2.1397   2.1697   2.1914   2.2159   2.2699
  2.2990   2.3164   2.3378   2.3828   2.3964   2.4216   2.4660   2.5123
  2.5272   2.6283   2.6659   2.6895   2.7176   2.7279   2.7610   2.7671
  2.7812   2.8113   2.8230   2.8406   2.8530   2.8610   2.8763   2.8791
  2.9079   2.9257   2.9367   2.9491   2.9517   2.9637   2.9969   3.0025
  3.0157   3.0298   3.0447   3.0788   3.0986   3.1196   3.1364   3.1577
  3.1800   3.1895   3.2209   3.2341   3.2590   3.2687   3.2949   3.3059
  3.3393   3.3437   3.3664   3.3742   3.3907   3.4185   3.4332   3.4361
  3.4504   3.4583   3.4863   3.5040   3.5160   3.5401   3.5563   3.5704
  3.5889   3.5990   3.6218   3.6377   3.6459   3.6634   3.6746   3.6811
  3.7065   3.7330   3.7398   3.7576   3.7693   3.7821   3.7926   3.8115
  3.8250   3.8310   3.8403   3.8602   3.8839   3.8920   3.9010   3.9061
  3.9312   3.9454   3.9629   3.9644   3.9728   4.0004   4.0169   4.0392
  4.0598   4.0801   4.1066   4.1170   4.1338   4.1602   4.1780   4.2039
  4.2485   4.2620   4.2731   4.2853   4.3089   4.3277   4.3323   4.3542
  4.3608   4.3810   4.4108   4.4171   4.4262   4.4579   4.4825   4.4940
  4.4952   4.5122   4.5404   4.5730   4.5854   4.5984   4.6296   4.6337
  4.6577   4.6706   4.6776   4.7026   4.7411   4.7449   4.7798   4.7877
  4.8295   4.8754   4.9718   4.9899   5.0555   5.1399   5.1585   5.1879
  5.2466   5.2556   5.2757   5.3016   5.3102   5.3154   5.3327   5.3422
  5.3514   5.3902   5.4074   5.4245   5.4488   5.4695   5.5033   5.5266
  5.5412   5.5621   5.6039   5.6083   5.6238   5.6342   5.6747   5.6876
  5.6990   5.7353   5.7571   5.7736   5.7916   5.7985   5.8762   5.9068
  5.9538   5.9867   6.0332   6.0479   6.0531   6.0988   6.1381   6.2612
  6.5926   6.6006   6.6620   6.7542   6.7605   7.0433   7.1112   7.1374
  7.2941   7.3075   7.3317   7.3432   7.3773   7.4050   7.4268   7.4543
  7.4604   7.4927   7.5463   7.6403   7.6586   7.7136   7.7934   7.8523
  7.9107   7.9705   8.2622  24.3795  24.7197  24.7445  24.7924  24.8452
 24.9361  25.2216  50.5999  50.6235  50.6781  50.6890
 
 Beta MOs
 -- Occupied --
-19.4021 -19.4015 -19.3479 -19.3449 -10.4133 -10.4073 -10.4045 -10.3937
-10.3532 -10.3473 -10.3466  -1.2681  -1.1738  -1.1612  -1.0653  -0.9687
 -0.8863  -0.8468  -0.8007  -0.7481  -0.7047  -0.6800  -0.6553  -0.6291
 -0.6067  -0.5804  -0.5754  -0.5609  -0.5502  -0.5310  -0.5199  -0.5141
 -0.4919  -0.4760  -0.4587  -0.4478  -0.4322  -0.3965  -0.3902  -0.3879
 -0.3594
 -- Virtual --
 -0.0196   0.0238   0.0343   0.0364   0.0446   0.0547   0.0553   0.0711
  0.0782   0.0807   0.0862   0.0902   0.1000   0.1092   0.1248   0.1299
  0.1367   0.1371   0.1462   0.1476   0.1482   0.1561   0.1573   0.1608
  0.1701   0.1751   0.1772   0.1861   0.1906   0.1928   0.2018   0.2047
  0.2130   0.2166   0.2207   0.2238   0.2274   0.2382   0.2555   0.2595
  0.2731   0.2793   0.2872   0.2911   0.2962   0.3048   0.3136   0.3182
  0.3261   0.3320   0.3382   0.3471   0.3497   0.3553   0.3556   0.3659
  0.3710   0.3753   0.3787   0.3861   0.3913   0.4005   0.4035   0.4100
  0.4206   0.4211   0.4291   0.4378   0.4557   0.4716   0.4726   0.4837
  0.5006   0.5076   0.5159   0.5325   0.5455   0.5669   0.5860   0.5935
  0.6101   0.6133   0.6247   0.6299   0.6441   0.6540   0.6574   0.6655
  0.6703   0.6812   0.6947   0.6960   0.7105   0.7177   0.7241   0.7353
  0.7381   0.7478   0.7514   0.7698   0.7853   0.7955   0.8030   0.8146
  0.8209   0.8402   0.8570   0.8617   0.8732   0.8845   0.8920   0.8979
  0.9132   0.9406   0.9671   0.9693   1.0170   1.0267   1.0354   1.0481
  1.0542   1.0886   1.0924   1.0977   1.1038   1.1202   1.1389   1.1503
  1.1631   1.1690   1.1732   1.1788   1.1985   1.2164   1.2219   1.2245
  1.2453   1.2596   1.2662   1.2769   1.2795   1.2934   1.2977   1.3080
  1.3281   1.3394   1.3443   1.3470   1.3620   1.3678   1.3744   1.3884
  1.3955   1.4135   1.4182   1.4244   1.4455   1.4534   1.4683   1.4790
  1.4975   1.5048   1.5125   1.5376   1.5441   1.5493   1.5652   1.5815
  1.5846   1.5898   1.6183   1.6249   1.6401   1.6578   1.6596   1.6814
  1.6962   1.7189   1.7538   1.7633   1.7966   1.8070   1.8227   1.8500
  1.8717   1.8821   1.8954   1.9572   1.9641   1.9904   2.0092   2.0274
  2.0478   2.0683   2.0831   2.1292   2.1419   2.1720   2.1927   2.2189
  2.2723   2.3012   2.3175   2.3402   2.3839   2.3989   2.4229   2.4680
  2.5145   2.5303   2.6348   2.6772   2.6945   2.7214   2.7310   2.7662
  2.7739   2.7964   2.8186   2.8362   2.8475   2.8647   2.8731   2.8853
  2.8918   2.9190   2.9334   2.9526   2.9611   2.9668   2.9820   3.0063
  3.0172   3.0292   3.0446   3.0606   3.0885   3.1110   3.1245   3.1534
  3.1677   3.1885   3.2018   3.2297   3.2406   3.2634   3.2771   3.3030
  3.3154   3.3496   3.3537   3.3755   3.3890   3.4002   3.4303   3.4435
  3.4447   3.4572   3.4720   3.4964   3.5078   3.5173   3.5555   3.5614
  3.5844   3.5980   3.6111   3.6320   3.6409   3.6575   3.6681   3.6898
  3.6917   3.7173   3.7354   3.7525   3.7671   3.7725   3.7900   3.8027
  3.8247   3.8357   3.8439   3.8470   3.8666   3.8891   3.8993   3.9077
  3.9100   3.9391   3.9509   3.9694   3.9707   3.9791   4.0067   4.0283
  4.0485   4.0659   4.0887   4.1146   4.1211   4.1417   4.1664   4.1834
  4.2093   4.2528   4.2673   4.2780   4.2883   4.3188   4.3367   4.3407
  4.3649   4.3662   4.3917   4.4153   4.4228   4.4299   4.4643   4.4897
  4.5024   4.5049   4.5177   4.5470   4.5792   4.5905   4.6091   4.6357
  4.6498   4.6692   4.6825   4.6925   4.7087   4.7461   4.7531   4.7858
  4.7948   4.8373   4.8856   4.9815   4.9979   5.0645   5.1538   5.1702
  5.1974   5.2563   5.2603   5.2790   5.3031   5.3117   5.3172   5.3376
  5.3443   5.3526   5.3917   5.4099   5.4285   5.4524   5.4735   5.5066
  5.5308   5.5425   5.5725   5.6086   5.6177   5.6324   5.6411   5.6768
  5.6952   5.7003   5.7364   5.7630   5.7756   5.7951   5.8025   5.8778
  5.9130   5.9563   5.9898   6.0372   6.0518   6.0670   6.1036   6.1522
  6.2633   6.5952   6.6025   6.6639   6.7552   6.7622   7.0466   7.1116
  7.1377   7.2946   7.3099   7.3332   7.3451   7.3779   7.4070   7.4283
  7.4556   7.4625   7.4960   7.5487   7.6441   7.6597   7.7137   7.7938
  7.8531   7.9133   7.9733   8.2638  24.3824  24.7200  24.7482  24.7934
 24.8455  24.9387  25.2247  50.6008  50.6239  50.6782  50.6901
 --------------------------------------------------------------
 
          Ground-State Mulliken Net Atomic Charges

     Atom                 Charge (a.u.)    Spin (a.u.)
  --------------------------------------------------------
      1 C                    -0.136509       0.030843
      2 C                    -0.024354      -0.021934
      3 C                    -0.476622       0.562877
      4 C                    -0.237084      -0.152648
      5 C                    -0.338058       0.591157
      6 C                    -0.050654      -0.061971
      7 C                    -0.379798       0.006747
      8 H                     0.316467      -0.002602
      9 H                     0.287368       0.005424
     10 H                     0.316241      -0.014128
     11 H                     0.299715       0.007620
     12 H                     0.323199      -0.013295
     13 H                     0.251346      -0.000222
     14 O                    -0.385426       0.002309
     15 H                     0.237336      -0.000288
     16 H                     0.330718      -0.000592
     17 O                    -0.416401       0.000471
     18 H                     0.338515       0.001646
     19 O                    -0.129811       0.029673
     20 O                    -0.126191       0.028912
  --------------------------------------------------------
  Sum of atomic charges =     0.000000
  Sum of spin   charges =     1.000000

 -----------------------------------------------------------------
                    Cartesian Multipole Moments
 -----------------------------------------------------------------
    Charge (ESU x 10^10)
                 0.0000
    Dipole Moment (Debye)
         X       0.3508      Y      -0.7903      Z      -3.4747
       Tot       3.5807
    Quadrupole Moments (Debye-Ang)
        XX     -72.8668     XY       5.8654     YY     -63.5306
        XZ      10.6634     YZ      -3.4355     ZZ     -58.6174
    Octopole Moments (Debye-Ang^2)
       XXX     219.4791    XXY       9.2687    XYY      47.8909
       YYY      57.4307    XXZ     -39.6301    XYZ      11.5725
       YYZ      -7.7316    XZZ      67.3433    YZZ       6.0098
       ZZZ     -65.0146
    Hexadecapole Moments (Debye-Ang^3)
      XXXX    -952.0739   XXXY    -100.4771   XXYY    -237.1334
      XYYY     -79.7461   YYYY    -646.0071   XXXZ     169.2328
      XXYZ      38.3879   XYYZ      42.2467   YYYZ      93.8949
      XXZZ    -273.7723   XYZZ     -35.7697   YYZZ    -208.9875
      XZZZ     159.4994   YZZZ      84.2986   ZZZZ    -587.7785
 -----------------------------------------------------------------
 Calculating analytic gradient of the SCF energy
 Gradient of CDS energy
            1           2           3           4           5           6
    1   0.0016150   0.0000672  -0.0000688  -0.0002137  -0.0002051   0.0000546
    2  -0.0014060   0.0002029  -0.0003826  -0.0002699   0.0001564   0.0000678
    3  -0.0010539   0.0002648   0.0002835  -0.0002269  -0.0002360   0.0001579
            7           8           9          10          11          12
    1   0.0001564  -0.0000367   0.0000603  -0.0000360  -0.0001071  -0.0000350
    2   0.0009881   0.0002069  -0.0000241  -0.0001665  -0.0001489   0.0000770
    3  -0.0003426   0.0001052   0.0002076   0.0000947  -0.0001011  -0.0001140
           13          14          15          16          17          18
    1  -0.0002590  -0.0001715   0.0001273   0.0001755  -0.0016021   0.0004212
    2  -0.0002346  -0.0001761  -0.0001311   0.0000045   0.0013488  -0.0001178
    3  -0.0000518   0.0002778   0.0002761  -0.0004949   0.0011437  -0.0001876
           19          20
    1   0.0000114   0.0000463
    2   0.0000898  -0.0000849
    3  -0.0000829   0.0000803
 Gradient of SCF Energy
            1           2           3           4           5           6
    1   0.0015648  -0.0068936   0.0044866   0.0040249   0.0033903  -0.0047941
    2  -0.0057070   0.0037374   0.0023937   0.0053138  -0.0039387   0.0040798
    3  -0.0053689  -0.0000812  -0.0059289   0.0077735   0.0058628   0.0034722
            7           8           9          10          11          12
    1   0.0062053   0.0030853   0.0020721  -0.0007382  -0.0032914  -0.0027341
    2  -0.0131928   0.0037981  -0.0019678  -0.0044488  -0.0045658   0.0029980
    3   0.0026856   0.0016629   0.0041673   0.0025073  -0.0034890  -0.0127811
           13          14          15          16          17          18
    1  -0.0067982   0.0084272   0.0019147  -0.0087870  -0.0005390   0.0016504
    2   0.0030319   0.0142462   0.0043599  -0.0099553  -0.0079601   0.0045371
    3  -0.0064848   0.0129227   0.0036892  -0.0127849   0.0053873  -0.0060325
           19          20
    1  -0.0008951  -0.0013509
    2   0.0017040   0.0015363
    3   0.0018180   0.0010026
 Max gradient component =       1.425E-02
 RMS gradient           =       5.782E-03
 Computing fast CPCM-SWIG gradient
 Updating gradient with PCM contributions...
 -- total gradient after adding PCM contribution --
---------------------------------------------------
  Atom         X              Y              Z     
---------------------------------------------------
   1      -0.000017       0.000025      -0.000051
   2       0.000010      -0.000030       0.000045
   3      -0.000006      -0.000002      -0.000007
   4       0.000003       0.000012      -0.000016
   5      -0.000015      -0.000010       0.000015
   6       0.000054      -0.000016      -0.000017
   7       0.000050      -0.000023      -0.000054
   8       0.000008       0.000003       0.000028
   9       0.000000      -0.000004       0.000003
  10       0.000006      -0.000010       0.000005
  11      -0.000003      -0.000009      -0.000007
  12       0.000013       0.000002      -0.000019
  13      -0.000016       0.000017      -0.000007
  14      -0.000028       0.000046       0.000052
  15      -0.000005       0.000016       0.000016
  16      -0.000009      -0.000028      -0.000037
  17       0.000013      -0.000029       0.000070
  18      -0.000012       0.000029      -0.000038
  19      -0.000027       0.000054      -0.000096
  20      -0.000019      -0.000042       0.000115
---------------------------------------------------
 Number of fixed atoms: 0
 Gradient time:  CPU 569.44 s  wall 80.12 s
 ######################################################
 ######################################################
 # Starting finite difference calculation for IDERIV  #
 Finite diff step size:  1.88973e-03 a.u.
 ----------------------------------------------------------------
             Standard Nuclear Orientation (Angstroms)
    I     Atom           X                Y                Z
 ----------------------------------------------------------------
    1      C      -0.0590066222    -0.3135205577     0.7955608055
    2      C      -0.9784822494    -1.0537090034     1.7582108051
    3      C      -1.7173499139    -2.1575665840     1.0712008585
    4      C      -2.1565599186    -1.9374071279    -0.2206154243
    5      C      -1.8926611525    -0.7332631784    -0.8448707863
    6      C      -1.1583472874     0.3191545082    -0.0691578154
    7      C      -0.6574678257     1.4818044130    -0.9091164815
    8      H       0.4781628576     0.4745166757     1.3260267429
    9      H      -0.4970126816    -1.3571814269     2.6836387448
   10      H      -1.9169013808    -3.0795800365     1.5959972619
   11      H      -2.7100131592    -2.7068360177    -0.7429988464
   12      H      -2.2294102727    -0.5183762414    -1.8501743493
   13      H      -1.4745251722     1.9310078550    -1.4750878685
   14      O       0.3793760951     1.0326470500    -1.7780388714
   15      H      -0.2230516320     2.2335649805    -0.2537698973
   16      H      -0.0204667307     0.5583792750    -2.5157755311
   17      O       0.8221532288    -1.1724563506     0.1134175498
   18      H       1.1670151671    -0.6721216768    -0.6388700494
   19      O      -1.8866771859     0.0079235374     2.1290650003
   20      O      -2.0280605637     0.8637318063     0.9469641518
 ----------------------------------------------------------------
 Nuclear Repulsion Energy =         681.51325666 hartrees
 There are       42 alpha and       41 beta electrons
 Discretize the solute cavity surface with Lebedev spheres
	Using 110 Lebedev grid points for each H atom
	Using 194 Lebedev grid points for other atoms
	Atomic van der Waals radii will be scaled by 1.20
 Remove points where switching function is < 1.0e-08
 Keep 1419 surface tesserae and discard 1705 interior tesserae
 Molecular Surface Area = 161.014 Angst**2
 Requested basis set is 6-311++G(2df,2p)
 There are 142 shells and 464 basis functions
 A cutoff of  1.0D-12 yielded   9272 shell pairs
 There are    100413 function pairs (    125640 Cartesian)
 Smallest overlap matrix eigenvalue = 1.98E-06
 Guess MOs from SCF MO coefficient file

 -----------------------------------------------------------------------
  General SCF calculation program by
  Eric Jon Sundstrom, Paul Horn, Yuezhi Mao, Dmitri Zuev, Alec White,
  David Stuck, Shaama M.S., Shane Yost, Joonho Lee, David Small,
  Daniel Levine, Susi Lehtola, Hugh Burton, Evgeny Epifanovsky,
  Bang C. Huynh
 -----------------------------------------------------------------------
 Exchange:     0.1500 Hartree-Fock + 1.0000 wB97M-V + LR-HF
 Correlation:  1.0000 wB97M-V
 Using SG-2 standard quadrature grid
 Nonlocal Correlation:  VV10 with C = 0.0100 and b = 6.00 and scale = 1.00000
 Grid used for NLC:  SG-1 standard quadrature
 
 Citation of the SMD model:
 Marenich, A.V.; Cramer, C.J.; Truhlar, D.G.
 J. Phys. Chem. B 2009, 113, 6378-6396.
 iSolventCode=           1
 Solvent: water                                                           
 
 vradii
            1           2           3           4           5           6
    1   1.8500000   1.8500000   1.8500000   1.8500000   1.8500000   1.8500000
            7           8           9          10          11          12
    1   1.8500000   1.2000000   1.2000000   1.2000000   1.2000000   1.2000000
           13          14          15          16          17          18
    1   1.2000000   1.5200000   1.2000000   1.2000000   1.5200000   1.2000000
           19          20
    1   1.5200000   1.5200000
 -------------------------------------------------------
 OpenMP BLAS3 based DFT computing Module                
 Release: version 1.0, May 2013, Q-Chem Inc. Pittsburgh 
 -------------------------------------------------------
 A unrestricted SCF calculation will be
 performed using Roothaan-Hall, DIIS, GDM
 SCF converges when RMS gradient is below 1.0e-07
 ---------------------------------------
  Cycle       Energy         DIIS error
 ---------------------------------------
    1    -572.8769768790      1.77e-04  Roothaan Step
 ---------------------------------------
  Cycle       Energy         DIIS error
 ---------------------------------------
    1    -572.9055549367      1.97e-04  
    2    -572.9100797260      1.51e-04  Done DIIS. Switching to GDM
 ---------------------------------------
  Cycle       Energy        RMS Gradient
 ---------------------------------------
    1    -572.9100797260      4.47e-03   Normal BFGS step
    2    -572.9103897349      7.98e-03   Normal BFGS step
    3    -572.9119399789      6.17e-04   Normal BFGS step
    4    -572.9119545495      4.25e-04   Normal BFGS step
    5    -572.9119625692      2.09e-04   Normal BFGS step
    6    -572.9119628073      1.26e-04   Normal BFGS step
    7    -572.9119632647      6.41e-05   Normal BFGS step
    8    -572.9119632963      5.34e-05   Normal BFGS step
    9    -572.9119633082      1.03e-05   Normal BFGS step
   10    -572.9119633096      7.93e-06   Normal BFGS step
   11    -572.9119633101      4.69e-06   Normal BFGS step
   12    -572.9119633103      2.43e-06   Normal BFGS step
   13    -572.9119633104      7.92e-07   Normal BFGS step
   14    -572.9119633104      2.65e-07   Normal BFGS step
   15    -572.9119633104      1.36e-07   Normal BFGS step
  GDM::WARNING energy changes are now smaller than effective accuracy.
  GDM::        calculation will continue, but THRESH should be increased
  GDM::        or SCF_CONVERGENCE decreased. 
  GDM::        effective_thresh = 3.51e-09
   16    -572.9119633103      7.83e-08  Convergence criterion met
 ---------------------------------------
 SCF time:   CPU 3131.69s  wall 398.00s 
<S^2> =          0.780616067
(3)  G-ENP(liq) elect-nuc-pol free energy of system     -572.911963310 a.u.
(4)  G-CDS(liq) cavity-dispersion-solvent structure 
     free energy                                                2.9949 kcal/mol
(6)  G-S(liq) free energy of system                     -572.907190585 a.u.
 SCF   energy in the final basis set =     -572.9071905854
 Total energy in the final basis set =     -572.9071905854
 
 --------------------------------------------------------------
 
                    Orbital Energies (a.u.)
 --------------------------------------------------------------
 
 Alpha MOs
 -- Occupied --
-19.4034 -19.4028 -19.3481 -19.3449 -10.4127 -10.4067 -10.4051 -10.3937
-10.3556 -10.3549 -10.3501  -1.2706  -1.1742  -1.1615  -1.0684  -0.9756
 -0.8889  -0.8558  -0.8088  -0.7506  -0.7103  -0.6822  -0.6582  -0.6328
 -0.6081  -0.5866  -0.5784  -0.5643  -0.5542  -0.5341  -0.5223  -0.5174
 -0.4936  -0.4804  -0.4609  -0.4525  -0.4352  -0.4227  -0.3958  -0.3905
 -0.3658  -0.2853
 -- Virtual --
  0.0244   0.0348   0.0366   0.0451   0.0550   0.0555   0.0680   0.0734
  0.0809   0.0852   0.0895   0.0935   0.1082   0.1245   0.1303   0.1360
  0.1372   0.1448   0.1469   0.1489   0.1567   0.1575   0.1607   0.1700
  0.1752   0.1772   0.1844   0.1886   0.1919   0.2021   0.2048   0.2139
  0.2167   0.2203   0.2239   0.2275   0.2391   0.2534   0.2574   0.2724
  0.2794   0.2867   0.2900   0.2941   0.3028   0.3134   0.3171   0.3225
  0.3314   0.3358   0.3455   0.3478   0.3539   0.3545   0.3626   0.3682
  0.3748   0.3778   0.3849   0.3904   0.4002   0.4019   0.4103   0.4187
  0.4207   0.4291   0.4372   0.4551   0.4700   0.4713   0.4818   0.4982
  0.5075   0.5141   0.5296   0.5435   0.5646   0.5831   0.5903   0.6034
  0.6087   0.6245   0.6252   0.6401   0.6519   0.6558   0.6616   0.6688
  0.6772   0.6924   0.6946   0.7069   0.7152   0.7221   0.7327   0.7369
  0.7446   0.7486   0.7654   0.7814   0.7913   0.7970   0.8097   0.8176
  0.8367   0.8545   0.8575   0.8717   0.8795   0.8873   0.8953   0.9106
  0.9383   0.9652   0.9674   1.0156   1.0256   1.0342   1.0468   1.0533
  1.0870   1.0896   1.0968   1.1026   1.1190   1.1380   1.1496   1.1604
  1.1649   1.1720   1.1757   1.1967   1.2148   1.2202   1.2222   1.2416
  1.2582   1.2634   1.2751   1.2773   1.2926   1.2960   1.3065   1.3256
  1.3381   1.3428   1.3461   1.3599   1.3661   1.3729   1.3853   1.3925
  1.4105   1.4158   1.4219   1.4426   1.4492   1.4644   1.4769   1.4925
  1.5024   1.5099   1.5334   1.5411   1.5462   1.5621   1.5779   1.5816
  1.5880   1.6137   1.6227   1.6361   1.6523   1.6570   1.6791   1.6922
  1.7157   1.7495   1.7609   1.7943   1.8027   1.8192   1.8449   1.8670
  1.8805   1.8931   1.9528   1.9615   1.9845   2.0037   2.0241   2.0452
  2.0658   2.0816   2.1234   2.1398   2.1698   2.1914   2.2159   2.2699
  2.2991   2.3165   2.3380   2.3828   2.3964   2.4216   2.4661   2.5123
  2.5271   2.6283   2.6659   2.6895   2.7175   2.7279   2.7609   2.7671
  2.7812   2.8112   2.8230   2.8405   2.8530   2.8610   2.8762   2.8791
  2.9079   2.9257   2.9367   2.9489   2.9517   2.9637   2.9967   3.0024
  3.0156   3.0296   3.0445   3.0789   3.0986   3.1193   3.1364   3.1577
  3.1799   3.1895   3.2209   3.2341   3.2589   3.2687   3.2950   3.3058
  3.3393   3.3437   3.3662   3.3742   3.3907   3.4185   3.4332   3.4361
  3.4503   3.4583   3.4863   3.5040   3.5159   3.5401   3.5563   3.5705
  3.5888   3.5990   3.6218   3.6377   3.6459   3.6634   3.6746   3.6810
  3.7065   3.7329   3.7400   3.7576   3.7692   3.7823   3.7927   3.8113
  3.8249   3.8310   3.8402   3.8602   3.8837   3.8918   3.9009   3.9061
  3.9311   3.9453   3.9629   3.9642   3.9728   4.0003   4.0167   4.0391
  4.0598   4.0802   4.1065   4.1167   4.1337   4.1599   4.1778   4.2039
  4.2485   4.2617   4.2730   4.2852   4.3088   4.3275   4.3323   4.3542
  4.3606   4.3810   4.4106   4.4170   4.4265   4.4579   4.4825   4.4941
  4.4952   4.5122   4.5405   4.5731   4.5853   4.5983   4.6295   4.6336
  4.6577   4.6705   4.6776   4.7025   4.7408   4.7447   4.7795   4.7876
  4.8295   4.8750   4.9718   4.9899   5.0554   5.1398   5.1583   5.1878
  5.2464   5.2552   5.2756   5.3015   5.3101   5.3154   5.3326   5.3422
  5.3514   5.3900   5.4073   5.4244   5.4489   5.4695   5.5032   5.5266
  5.5411   5.5619   5.6042   5.6083   5.6239   5.6342   5.6749   5.6877
  5.6990   5.7356   5.7573   5.7739   5.7917   5.7985   5.8762   5.9070
  5.9540   5.9871   6.0333   6.0482   6.0532   6.0991   6.1384   6.2612
  6.5926   6.6005   6.6620   6.7551   6.7609   7.0433   7.1112   7.1374
  7.2941   7.3075   7.3317   7.3432   7.3773   7.4051   7.4269   7.4545
  7.4605   7.4927   7.5463   7.6403   7.6585   7.7136   7.7933   7.8524
  7.9107   7.9705   8.2621  24.3795  24.7197  24.7446  24.7925  24.8446
 24.9358  25.2216  50.5998  50.6235  50.6783  50.6890
 
 Beta MOs
 -- Occupied --
-19.4020 -19.4015 -19.3479 -19.3449 -10.4133 -10.4073 -10.4045 -10.3937
-10.3532 -10.3473 -10.3466  -1.2681  -1.1739  -1.1613  -1.0653  -0.9686
 -0.8863  -0.8468  -0.8007  -0.7481  -0.7046  -0.6800  -0.6553  -0.6291
 -0.6067  -0.5804  -0.5754  -0.5609  -0.5502  -0.5310  -0.5199  -0.5141
 -0.4919  -0.4760  -0.4587  -0.4477  -0.4322  -0.3965  -0.3902  -0.3879
 -0.3594
 -- Virtual --
 -0.0196   0.0238   0.0343   0.0364   0.0446   0.0547   0.0553   0.0711
  0.0782   0.0807   0.0862   0.0902   0.1000   0.1092   0.1248   0.1299
  0.1367   0.1371   0.1462   0.1476   0.1482   0.1561   0.1573   0.1608
  0.1701   0.1751   0.1773   0.1861   0.1906   0.1928   0.2018   0.2047
  0.2130   0.2166   0.2207   0.2238   0.2274   0.2383   0.2555   0.2595
  0.2731   0.2793   0.2872   0.2911   0.2962   0.3049   0.3136   0.3182
  0.3262   0.3320   0.3381   0.3471   0.3497   0.3553   0.3556   0.3659
  0.3710   0.3753   0.3788   0.3861   0.3913   0.4005   0.4034   0.4100
  0.4206   0.4211   0.4291   0.4378   0.4557   0.4716   0.4726   0.4837
  0.5006   0.5076   0.5159   0.5325   0.5455   0.5669   0.5860   0.5934
  0.6101   0.6133   0.6247   0.6299   0.6441   0.6540   0.6573   0.6655
  0.6703   0.6811   0.6947   0.6960   0.7104   0.7177   0.7241   0.7353
  0.7381   0.7479   0.7515   0.7698   0.7853   0.7955   0.8029   0.8146
  0.8209   0.8402   0.8570   0.8617   0.8732   0.8845   0.8920   0.8979
  0.9132   0.9405   0.9671   0.9693   1.0169   1.0267   1.0353   1.0481
  1.0541   1.0885   1.0924   1.0977   1.1038   1.1202   1.1389   1.1503
  1.1632   1.1690   1.1731   1.1788   1.1985   1.2164   1.2219   1.2245
  1.2453   1.2596   1.2661   1.2768   1.2794   1.2934   1.2977   1.3080
  1.3281   1.3394   1.3443   1.3470   1.3620   1.3678   1.3744   1.3883
  1.3954   1.4135   1.4182   1.4244   1.4455   1.4534   1.4682   1.4790
  1.4976   1.5047   1.5124   1.5376   1.5441   1.5493   1.5653   1.5814
  1.5846   1.5898   1.6182   1.6250   1.6400   1.6578   1.6597   1.6815
  1.6961   1.7188   1.7537   1.7632   1.7966   1.8071   1.8228   1.8499
  1.8717   1.8821   1.8953   1.9572   1.9640   1.9904   2.0091   2.0275
  2.0479   2.0683   2.0831   2.1291   2.1420   2.1721   2.1927   2.2189
  2.2722   2.3013   2.3176   2.3404   2.3839   2.3988   2.4229   2.4681
  2.5146   2.5302   2.6348   2.6773   2.6945   2.7214   2.7309   2.7662
  2.7740   2.7964   2.8185   2.8361   2.8474   2.8647   2.8731   2.8852
  2.8918   2.9189   2.9333   2.9526   2.9609   2.9669   2.9819   3.0062
  3.0171   3.0289   3.0445   3.0604   3.0885   3.1110   3.1243   3.1534
  3.1677   3.1885   3.2018   3.2297   3.2406   3.2633   3.2771   3.3031
  3.3153   3.3496   3.3539   3.3754   3.3890   3.4002   3.4303   3.4435
  3.4447   3.4571   3.4719   3.4964   3.5077   3.5172   3.5555   3.5614
  3.5844   3.5980   3.6112   3.6319   3.6410   3.6575   3.6681   3.6897
  3.6916   3.7174   3.7354   3.7526   3.7671   3.7724   3.7902   3.8028
  3.8245   3.8357   3.8438   3.8469   3.8665   3.8889   3.8992   3.9077
  3.9100   3.9390   3.9508   3.9694   3.9705   3.9791   4.0066   4.0282
  4.0484   4.0659   4.0887   4.1144   4.1209   4.1416   4.1662   4.1832
  4.2093   4.2527   4.2670   4.2780   4.2883   4.3187   4.3367   4.3405
  4.3648   4.3661   4.3917   4.4151   4.4228   4.4301   4.4644   4.4897
  4.5024   4.5049   4.5178   4.5471   4.5792   4.5905   4.6089   4.6355
  4.6497   4.6693   4.6825   4.6924   4.7087   4.7457   4.7529   4.7854
  4.7948   4.8373   4.8853   4.9815   4.9979   5.0645   5.1536   5.1701
  5.1973   5.2562   5.2599   5.2790   5.3031   5.3116   5.3172   5.3375
  5.3443   5.3525   5.3916   5.4098   5.4284   5.4524   5.4735   5.5065
  5.5307   5.5425   5.5724   5.6089   5.6177   5.6324   5.6411   5.6769
  5.6953   5.7003   5.7367   5.7631   5.7759   5.7952   5.8025   5.8779
  5.9132   5.9564   5.9902   6.0372   6.0523   6.0671   6.1038   6.1524
  6.2633   6.5952   6.6024   6.6638   6.7563   6.7625   7.0467   7.1116
  7.1377   7.2947   7.3099   7.3332   7.3451   7.3779   7.4071   7.4284
  7.4558   7.4626   7.4960   7.5487   7.6442   7.6597   7.7138   7.7938
  7.8531   7.9133   7.9733   8.2637  24.3824  24.7200  24.7483  24.7935
 24.8449  24.9384  25.2247  50.6008  50.6238  50.6784  50.6901
 --------------------------------------------------------------
 
          Ground-State Mulliken Net Atomic Charges

     Atom                 Charge (a.u.)    Spin (a.u.)
  --------------------------------------------------------
      1 C                    -0.136817       0.030954
      2 C                    -0.024161      -0.021970
      3 C                    -0.476702       0.562863
      4 C                    -0.237147      -0.152635
      5 C                    -0.337732       0.591111
      6 C                    -0.051175      -0.061985
      7 C                    -0.379861       0.006760
      8 H                     0.316641      -0.002599
      9 H                     0.287369       0.005422
     10 H                     0.316245      -0.014130
     11 H                     0.299705       0.007621
     12 H                     0.323220      -0.013297
     13 H                     0.251313      -0.000221
     14 O                    -0.385422       0.002309
     15 H                     0.237341      -0.000288
     16 H                     0.330716      -0.000592
     17 O                    -0.416003       0.000464
     18 H                     0.338514       0.001648
     19 O                    -0.129837       0.029661
     20 O                    -0.126208       0.028905
  --------------------------------------------------------
  Sum of atomic charges =     0.000000
  Sum of spin   charges =     1.000000

 -----------------------------------------------------------------
                    Cartesian Multipole Moments
 -----------------------------------------------------------------
    Charge (ESU x 10^10)
                 0.0000
    Dipole Moment (Debye)
         X       0.3549      Y      -0.7915      Z      -3.4755
       Tot       3.5821
    Quadrupole Moments (Debye-Ang)
        XX     -72.8685     XY       5.8630     YY     -63.5319
        XZ      10.6654     YZ      -3.4323     ZZ     -58.6225
    Octopole Moments (Debye-Ang^2)
       XXX     219.4766    XXY       9.2683    XYY      47.8951
       YYY      57.4266    XXZ     -39.6303    XYZ      11.5695
       YYZ      -7.7329    XZZ      67.3472    YZZ       6.0143
       ZZZ     -65.0267
    Hexadecapole Moments (Debye-Ang^3)
      XXXX    -952.0891   XXXY    -100.4801   XXYY    -237.1432
      XYYY     -79.7515   YYYY    -646.0224   XXXZ     169.2246
      XXYZ      38.3902   XYYZ      42.2436   YYYZ      93.9089
      XXZZ    -273.7826   XYZZ     -35.7746   YYZZ    -209.0011
      XZZZ     159.5021   YZZZ      84.3236   ZZZZ    -587.8334
 -----------------------------------------------------------------
 Calculating analytic gradient of the SCF energy
 Gradient of CDS energy
            1           2           3           4           5           6
    1   0.0017067   0.0000666  -0.0000689  -0.0002138  -0.0002052   0.0000543
    2  -0.0014951   0.0002027  -0.0003825  -0.0002699   0.0001565   0.0000679
    3  -0.0011245   0.0002652   0.0002835  -0.0002269  -0.0002360   0.0001577
            7           8           9          10          11          12
    1   0.0001563  -0.0000375   0.0000603  -0.0000360  -0.0001071  -0.0000350
    2   0.0009881   0.0002067  -0.0000240  -0.0001665  -0.0001489   0.0000770
    3  -0.0003426   0.0001048   0.0002076   0.0000947  -0.0001011  -0.0001140
           13          14          15          16          17          18
    1  -0.0002590  -0.0001714   0.0001273   0.0001755  -0.0016913   0.0004207
    2  -0.0002346  -0.0001761  -0.0001311   0.0000045   0.0014378  -0.0001176
    3  -0.0000518   0.0002779   0.0002761  -0.0004949   0.0012145  -0.0001876
           19          20
    1   0.0000114   0.0000463
    2   0.0000899  -0.0000849
    3  -0.0000829   0.0000803
 Gradient of SCF Energy
            1           2           3           4           5           6
    1   0.0026714  -0.0070735   0.0044586   0.0040302   0.0033587  -0.0049902
    2  -0.0056994   0.0036442   0.0023636   0.0053141  -0.0039436   0.0041041
    3  -0.0054546  -0.0000180  -0.0059147   0.0077743   0.0058249   0.0033841
            7           8           9          10          11          12
    1   0.0062277   0.0028566   0.0020963  -0.0007402  -0.0032883  -0.0027353
    2  -0.0131941   0.0036162  -0.0019583  -0.0044466  -0.0045639   0.0029967
    3   0.0026832   0.0015411   0.0041444   0.0025048  -0.0034880  -0.0127770
           13          14          15          16          17          18
    1  -0.0067974   0.0084204   0.0019160  -0.0087854  -0.0008765   0.0016263
    2   0.0030223   0.0142558   0.0043572  -0.0099573  -0.0077739   0.0045674
    3  -0.0064749   0.0129201   0.0036897  -0.0127849   0.0055886  -0.0060183
           19          20
    1  -0.0009602  -0.0014153
    2   0.0017280   0.0015674
    3   0.0018501   0.0010250
 Max gradient component =       1.426E-02
 RMS gradient           =       5.789E-03
 Computing fast CPCM-SWIG gradient
 Updating gradient with PCM contributions...
 -- total gradient after adding PCM contribution --
---------------------------------------------------
  Atom         X              Y              Z     
---------------------------------------------------
   1       0.001111       0.000033      -0.000136
   2      -0.000181      -0.000119       0.000103
   3      -0.000033      -0.000031       0.000008
   4       0.000006       0.000014      -0.000015
   5      -0.000048      -0.000012      -0.000015
   6      -0.000148       0.000008      -0.000107
   7       0.000078      -0.000028      -0.000055
   8      -0.000224      -0.000185      -0.000098
   9       0.000024       0.000005      -0.000016
  10       0.000003      -0.000010       0.000005
  11      -0.000001      -0.000008      -0.000007
  12       0.000011       0.000001      -0.000017
  13      -0.000019       0.000010      -0.000000
  14      -0.000032       0.000051       0.000051
  15      -0.000004       0.000014       0.000017
  16      -0.000010      -0.000027      -0.000037
  17      -0.000317       0.000159       0.000263
  18      -0.000042       0.000057      -0.000016
  19      -0.000092       0.000080      -0.000066
  20      -0.000083      -0.000013       0.000139
---------------------------------------------------
 Number of fixed atoms: 0
 Gradient time:  CPU 571.25 s  wall 81.02 s
 ----------------------------------------------------------------
             Standard Nuclear Orientation (Angstroms)
    I     Atom           X                Y                Z
 ----------------------------------------------------------------
    1      C      -0.0610066222    -0.3135205577     0.7955608055
    2      C      -0.9784822494    -1.0537090034     1.7582108051
    3      C      -1.7173499139    -2.1575665840     1.0712008585
    4      C      -2.1565599186    -1.9374071279    -0.2206154243
    5      C      -1.8926611525    -0.7332631784    -0.8448707863
    6      C      -1.1583472874     0.3191545082    -0.0691578154
    7      C      -0.6574678257     1.4818044130    -0.9091164815
    8      H       0.4781628576     0.4745166757     1.3260267429
    9      H      -0.4970126816    -1.3571814269     2.6836387448
   10      H      -1.9169013808    -3.0795800365     1.5959972619
   11      H      -2.7100131592    -2.7068360177    -0.7429988464
   12      H      -2.2294102727    -0.5183762414    -1.8501743493
   13      H      -1.4745251722     1.9310078550    -1.4750878685
   14      O       0.3793760951     1.0326470500    -1.7780388714
   15      H      -0.2230516320     2.2335649805    -0.2537698973
   16      H      -0.0204667307     0.5583792750    -2.5157755311
   17      O       0.8221532288    -1.1724563506     0.1134175498
   18      H       1.1670151671    -0.6721216768    -0.6388700494
   19      O      -1.8866771859     0.0079235374     2.1290650003
   20      O      -2.0280605637     0.8637318063     0.9469641518
 ----------------------------------------------------------------
 Nuclear Repulsion Energy =         681.54496524 hartrees
 There are       42 alpha and       41 beta electrons
 Discretize the solute cavity surface with Lebedev spheres
	Using 110 Lebedev grid points for each H atom
	Using 194 Lebedev grid points for other atoms
	Atomic van der Waals radii will be scaled by 1.20
 Remove points where switching function is < 1.0e-08
 Keep 1419 surface tesserae and discard 1705 interior tesserae
 Molecular Surface Area = 161.012 Angst**2
 Requested basis set is 6-311++G(2df,2p)
 There are 142 shells and 464 basis functions
 A cutoff of  1.0D-12 yielded   9272 shell pairs
 There are    100413 function pairs (    125640 Cartesian)
 Smallest overlap matrix eigenvalue = 1.98E-06
 Guess MOs from SCF MO coefficient file

 -----------------------------------------------------------------------
  General SCF calculation program by
  Eric Jon Sundstrom, Paul Horn, Yuezhi Mao, Dmitri Zuev, Alec White,
  David Stuck, Shaama M.S., Shane Yost, Joonho Lee, David Small,
  Daniel Levine, Susi Lehtola, Hugh Burton, Evgeny Epifanovsky,
  Bang C. Huynh
 -----------------------------------------------------------------------
 Exchange:     0.1500 Hartree-Fock + 1.0000 wB97M-V + LR-HF
 Correlation:  1.0000 wB97M-V
 Using SG-2 standard quadrature grid
 Nonlocal Correlation:  VV10 with C = 0.0100 and b = 6.00 and scale = 1.00000
 Grid used for NLC:  SG-1 standard quadrature
 
 Citation of the SMD model:
 Marenich, A.V.; Cramer, C.J.; Truhlar, D.G.
 J. Phys. Chem. B 2009, 113, 6378-6396.
 iSolventCode=           1
 Solvent: water                                                           
 
 vradii
            1           2           3           4           5           6
    1   1.8500000   1.8500000   1.8500000   1.8500000   1.8500000   1.8500000
            7           8           9          10          11          12
    1   1.8500000   1.2000000   1.2000000   1.2000000   1.2000000   1.2000000
           13          14          15          16          17          18
    1   1.2000000   1.5200000   1.2000000   1.2000000   1.5200000   1.2000000
           19          20
    1   1.5200000   1.5200000
 -------------------------------------------------------
 OpenMP BLAS3 based DFT computing Module                
 Release: version 1.0, May 2013, Q-Chem Inc. Pittsburgh 
 -------------------------------------------------------
 A unrestricted SCF calculation will be
 performed using Roothaan-Hall, DIIS, GDM
 SCF converges when RMS gradient is below 1.0e-07
 ---------------------------------------
  Cycle       Energy         DIIS error
 ---------------------------------------
    1    -572.8769614129      1.77e-04  Roothaan Step
 ---------------------------------------
  Cycle       Energy         DIIS error
 ---------------------------------------
    1    -572.9055305069      1.97e-04  
    2    -572.9100538701      1.52e-04  Done DIIS. Switching to GDM
 ---------------------------------------
  Cycle       Energy        RMS Gradient
 ---------------------------------------
    1    -572.9100538701      4.50e-03   Normal BFGS step
    2    -572.9103598818      8.00e-03   Normal BFGS step
    3    -572.9119337260      6.47e-04   Normal BFGS step
    4    -572.9119483525      4.25e-04   Normal BFGS step
    5    -572.9119563982      2.06e-04   Normal BFGS step
    6    -572.9119566363      1.30e-04   Normal BFGS step
    7    -572.9119570961      6.59e-05   Normal BFGS step
    8    -572.9119571275      5.46e-05   Normal BFGS step
    9    -572.9119571394      1.02e-05   Normal BFGS step
   10    -572.9119571409      7.94e-06   Normal BFGS step
   11    -572.9119571413      4.70e-06   Normal BFGS step
   12    -572.9119571416      2.45e-06   Normal BFGS step
   13    -572.9119571416      7.94e-07   Normal BFGS step
   14    -572.9119571417      2.70e-07   Normal BFGS step
   15    -572.9119571417      1.35e-07   Normal BFGS step
  GDM::WARNING energy changes are now smaller than effective accuracy.
  GDM::        calculation will continue, but THRESH should be increased
  GDM::        or SCF_CONVERGENCE decreased. 
  GDM::        effective_thresh = 3.51e-09
   16    -572.9119571415      7.74e-08  Convergence criterion met
 ---------------------------------------
 SCF time:   CPU 3128.37s  wall 398.00s 
<S^2> =          0.780622333
(3)  G-ENP(liq) elect-nuc-pol free energy of system     -572.911957142 a.u.
(4)  G-CDS(liq) cavity-dispersion-solvent structure 
     free energy                                                2.9911 kcal/mol
(6)  G-S(liq) free energy of system                     -572.907190520 a.u.
 SCF   energy in the final basis set =     -572.9071905196
 Total energy in the final basis set =     -572.9071905196
 
 --------------------------------------------------------------
 
                    Orbital Energies (a.u.)
 --------------------------------------------------------------
 
 Alpha MOs
 -- Occupied --
-19.4034 -19.4028 -19.3481 -19.3448 -10.4127 -10.4067 -10.4051 -10.3937
-10.3556 -10.3549 -10.3501  -1.2707  -1.1739  -1.1614  -1.0685  -0.9757
 -0.8890  -0.8559  -0.8089  -0.7506  -0.7105  -0.6822  -0.6583  -0.6327
 -0.6081  -0.5866  -0.5784  -0.5642  -0.5542  -0.5341  -0.5223  -0.5174
 -0.4935  -0.4804  -0.4610  -0.4527  -0.4352  -0.4227  -0.3958  -0.3906
 -0.3659  -0.2853
 -- Virtual --
  0.0244   0.0348   0.0366   0.0451   0.0550   0.0555   0.0679   0.0734
  0.0809   0.0852   0.0895   0.0935   0.1082   0.1245   0.1303   0.1360
  0.1372   0.1448   0.1469   0.1489   0.1567   0.1575   0.1606   0.1700
  0.1752   0.1771   0.1844   0.1886   0.1919   0.2020   0.2048   0.2139
  0.2167   0.2204   0.2239   0.2275   0.2390   0.2533   0.2574   0.2724
  0.2794   0.2867   0.2899   0.2941   0.3027   0.3135   0.3171   0.3224
  0.3314   0.3359   0.3455   0.3478   0.3538   0.3545   0.3627   0.3682
  0.3749   0.3778   0.3849   0.3905   0.4002   0.4020   0.4103   0.4187
  0.4207   0.4292   0.4372   0.4551   0.4700   0.4713   0.4819   0.4981
  0.5075   0.5142   0.5295   0.5435   0.5646   0.5831   0.5904   0.6034
  0.6087   0.6245   0.6252   0.6402   0.6520   0.6558   0.6615   0.6688
  0.6772   0.6924   0.6946   0.7070   0.7152   0.7221   0.7326   0.7369
  0.7445   0.7485   0.7655   0.7814   0.7913   0.7971   0.8097   0.8176
  0.8367   0.8544   0.8575   0.8717   0.8794   0.8873   0.8953   0.9107
  0.9384   0.9652   0.9675   1.0156   1.0257   1.0342   1.0469   1.0534
  1.0870   1.0896   1.0968   1.1026   1.1190   1.1379   1.1496   1.1603
  1.1649   1.1721   1.1757   1.1967   1.2149   1.2203   1.2222   1.2416
  1.2582   1.2634   1.2752   1.2774   1.2926   1.2960   1.3065   1.3257
  1.3381   1.3428   1.3461   1.3599   1.3662   1.3728   1.3855   1.3926
  1.4106   1.4159   1.4219   1.4427   1.4492   1.4645   1.4770   1.4925
  1.5024   1.5101   1.5334   1.5412   1.5462   1.5621   1.5781   1.5817
  1.5880   1.6137   1.6227   1.6362   1.6523   1.6568   1.6791   1.6925
  1.7159   1.7497   1.7610   1.7943   1.8026   1.8191   1.8451   1.8669
  1.8806   1.8931   1.9528   1.9616   1.9844   2.0038   2.0239   2.0452
  2.0657   2.0817   2.1236   2.1397   2.1697   2.1915   2.2159   2.2699
  2.2989   2.3163   2.3376   2.3827   2.3965   2.4216   2.4660   2.5123
  2.5272   2.6283   2.6659   2.6895   2.7176   2.7280   2.7611   2.7670
  2.7812   2.8114   2.8231   2.8407   2.8530   2.8611   2.8764   2.8791
  2.9079   2.9258   2.9368   2.9493   2.9516   2.9638   2.9971   3.0026
  3.0159   3.0299   3.0450   3.0787   3.0986   3.1198   3.1364   3.1577
  3.1800   3.1895   3.2209   3.2341   3.2590   3.2687   3.2948   3.3061
  3.3392   3.3436   3.3665   3.3743   3.3907   3.4185   3.4332   3.4361
  3.4504   3.4583   3.4863   3.5041   3.5160   3.5401   3.5563   3.5703
  3.5890   3.5990   3.6219   3.6376   3.6459   3.6633   3.6746   3.6812
  3.7064   3.7331   3.7397   3.7576   3.7694   3.7820   3.7925   3.8116
  3.8251   3.8310   3.8404   3.8603   3.8840   3.8922   3.9010   3.9061
  3.9313   3.9455   3.9629   3.9646   3.9728   4.0005   4.0171   4.0393
  4.0597   4.0801   4.1067   4.1173   4.1339   4.1604   4.1782   4.2039
  4.2486   4.2623   4.2731   4.2853   4.3090   4.3279   4.3324   4.3542
  4.3610   4.3810   4.4110   4.4171   4.4260   4.4579   4.4826   4.4939
  4.4952   4.5121   4.5403   4.5730   4.5854   4.5985   4.6297   4.6338
  4.6576   4.6707   4.6776   4.7026   4.7414   4.7451   4.7801   4.7877
  4.8296   4.8758   4.9717   4.9898   5.0556   5.1400   5.1586   5.1880
  5.2468   5.2559   5.2757   5.3016   5.3102   5.3154   5.3329   5.3421
  5.3514   5.3903   5.4074   5.4246   5.4488   5.4695   5.5034   5.5266
  5.5413   5.5622   5.6037   5.6083   5.6238   5.6342   5.6746   5.6875
  5.6990   5.7350   5.7570   5.7732   5.7915   5.7985   5.8761   5.9066
  5.9537   5.9863   6.0331   6.0476   6.0530   6.0984   6.1378   6.2613
  6.5926   6.6006   6.6620   6.7531   6.7602   7.0432   7.1111   7.1374
  7.2940   7.3075   7.3317   7.3431   7.3773   7.4049   7.4267   7.4540
  7.4603   7.4927   7.5463   7.6403   7.6586   7.7135   7.7934   7.8523
  7.9107   7.9705   8.2622  24.3795  24.7197  24.7444  24.7922  24.8458
 24.9364  25.2216  50.5999  50.6236  50.6780  50.6890
 
 Beta MOs
 -- Occupied --
-19.4021 -19.4015 -19.3479 -19.3448 -10.4133 -10.4073 -10.4045 -10.3937
-10.3532 -10.3473 -10.3466  -1.2681  -1.1736  -1.1611  -1.0654  -0.9688
 -0.8864  -0.8469  -0.8007  -0.7481  -0.7048  -0.6800  -0.6554  -0.6291
 -0.6067  -0.5804  -0.5754  -0.5609  -0.5502  -0.5310  -0.5199  -0.5141
 -0.4918  -0.4760  -0.4587  -0.4478  -0.4322  -0.3964  -0.3903  -0.3879
 -0.3595
 -- Virtual --
 -0.0196   0.0238   0.0343   0.0364   0.0446   0.0547   0.0553   0.0711
  0.0782   0.0807   0.0862   0.0902   0.1000   0.1092   0.1247   0.1299
  0.1367   0.1371   0.1462   0.1476   0.1482   0.1561   0.1573   0.1608
  0.1701   0.1751   0.1772   0.1861   0.1906   0.1928   0.2018   0.2047
  0.2130   0.2166   0.2207   0.2238   0.2274   0.2382   0.2555   0.2595
  0.2731   0.2793   0.2872   0.2910   0.2962   0.3048   0.3136   0.3182
  0.3261   0.3321   0.3382   0.3471   0.3497   0.3553   0.3557   0.3659
  0.3711   0.3753   0.3787   0.3861   0.3913   0.4006   0.4035   0.4101
  0.4205   0.4211   0.4292   0.4378   0.4557   0.4716   0.4725   0.4837
  0.5006   0.5076   0.5160   0.5325   0.5455   0.5669   0.5860   0.5935
  0.6102   0.6133   0.6247   0.6299   0.6442   0.6540   0.6574   0.6655
  0.6703   0.6812   0.6947   0.6960   0.7105   0.7177   0.7241   0.7353
  0.7381   0.7478   0.7514   0.7699   0.7853   0.7956   0.8031   0.8146
  0.8209   0.8402   0.8570   0.8617   0.8732   0.8845   0.8920   0.8979
  0.9133   0.9407   0.9671   0.9693   1.0170   1.0267   1.0354   1.0481
  1.0542   1.0886   1.0923   1.0977   1.1038   1.1202   1.1389   1.1503
  1.1631   1.1691   1.1732   1.1788   1.1985   1.2165   1.2219   1.2245
  1.2453   1.2596   1.2662   1.2769   1.2795   1.2934   1.2977   1.3080
  1.3282   1.3394   1.3443   1.3470   1.3620   1.3678   1.3743   1.3884
  1.3956   1.4136   1.4182   1.4244   1.4456   1.4534   1.4683   1.4791
  1.4975   1.5048   1.5125   1.5376   1.5442   1.5493   1.5652   1.5816
  1.5846   1.5898   1.6183   1.6249   1.6401   1.6578   1.6594   1.6814
  1.6964   1.7189   1.7539   1.7633   1.7966   1.8070   1.8227   1.8501
  1.8716   1.8821   1.8954   1.9571   1.9641   1.9904   2.0092   2.0273
  2.0478   2.0682   2.0832   2.1293   2.1419   2.1720   2.1928   2.2189
  2.2723   2.3011   2.3174   2.3401   2.3839   2.3990   2.4229   2.4680
  2.5145   2.5303   2.6348   2.6772   2.6945   2.7215   2.7310   2.7663
  2.7739   2.7964   2.8187   2.8362   2.8476   2.8647   2.8731   2.8853
  2.8918   2.9190   2.9334   2.9527   2.9613   2.9667   2.9820   3.0064
  3.0174   3.0295   3.0446   3.0608   3.0884   3.1110   3.1247   3.1534
  3.1677   3.1885   3.2019   3.2296   3.2407   3.2634   3.2771   3.3029
  3.3156   3.3495   3.3536   3.3757   3.3891   3.4003   3.4302   3.4435
  3.4447   3.4572   3.4720   3.4964   3.5078   3.5173   3.5555   3.5615
  3.5843   3.5981   3.6111   3.6320   3.6409   3.6575   3.6681   3.6898
  3.6918   3.7173   3.7355   3.7524   3.7670   3.7726   3.7898   3.8027
  3.8248   3.8357   3.8440   3.8471   3.8667   3.8893   3.8995   3.9077
  3.9100   3.9392   3.9510   3.9694   3.9709   3.9791   4.0068   4.0285
  4.0486   4.0659   4.0886   4.1148   4.1214   4.1417   4.1666   4.1837
  4.2093   4.2528   4.2675   4.2781   4.2883   4.3189   4.3368   4.3409
  4.3649   4.3663   4.3917   4.4155   4.4228   4.4297   4.4643   4.4898
  4.5023   4.5050   4.5175   4.5469   4.5792   4.5905   4.6092   4.6358
  4.6498   4.6692   4.6825   4.6925   4.7087   4.7464   4.7533   4.7861
  4.7948   4.8373   4.8860   4.9814   4.9978   5.0646   5.1539   5.1703
  5.1975   5.2564   5.2607   5.2791   5.3032   5.3118   5.3172   5.3378
  5.3442   5.3526   5.3919   5.4099   5.4286   5.4524   5.4735   5.5067
  5.5308   5.5426   5.5727   5.6083   5.6177   5.6323   5.6411   5.6766
  5.6951   5.7002   5.7361   5.7629   5.7753   5.7949   5.8025   5.8778
  5.9128   5.9562   5.9895   6.0372   6.0514   6.0669   6.1033   6.1520
  6.2633   6.5952   6.6025   6.6639   6.7541   6.7620   7.0466   7.1116
  7.1377   7.2946   7.3099   7.3332   7.3451   7.3779   7.4069   7.4282
  7.4553   7.4624   7.4961   7.5487   7.6441   7.6598   7.7137   7.7938
  7.8531   7.9133   7.9733   8.2638  24.3825  24.7200  24.7482  24.7933
 24.8460  24.9390  25.2247  50.6008  50.6239  50.6780  50.6901
 --------------------------------------------------------------
 
          Ground-State Mulliken Net Atomic Charges

     Atom                 Charge (a.u.)    Spin (a.u.)
  --------------------------------------------------------
      1 C                    -0.136201       0.030733
      2 C                    -0.024548      -0.021899
      3 C                    -0.476542       0.562891
      4 C                    -0.237021      -0.152661
      5 C                    -0.338382       0.591203
      6 C                    -0.050135      -0.061958
      7 C                    -0.379734       0.006735
      8 H                     0.316292      -0.002605
      9 H                     0.287366       0.005425
     10 H                     0.316238      -0.014126
     11 H                     0.299725       0.007620
     12 H                     0.323179      -0.013293
     13 H                     0.251379      -0.000222
     14 O                    -0.385430       0.002309
     15 H                     0.237332      -0.000289
     16 H                     0.330721      -0.000591
     17 O                    -0.416797       0.000479
     18 H                     0.338515       0.001643
     19 O                    -0.129785       0.029685
     20 O                    -0.126173       0.028920
  --------------------------------------------------------
  Sum of atomic charges =    -0.000000
  Sum of spin   charges =     1.000000

 -----------------------------------------------------------------
                    Cartesian Multipole Moments
 -----------------------------------------------------------------
    Charge (ESU x 10^10)
                -0.0000
    Dipole Moment (Debye)
         X       0.3467      Y      -0.7891      Z      -3.4739
       Tot       3.5793
    Quadrupole Moments (Debye-Ang)
        XX     -72.8651     XY       5.8678     YY     -63.5294
        XZ      10.6615     YZ      -3.4388     ZZ     -58.6123
    Octopole Moments (Debye-Ang^2)
       XXX     219.4815    XXY       9.2692    XYY      47.8867
       YYY      57.4348    XXZ     -39.6298    XYZ      11.5755
       YYZ      -7.7304    XZZ      67.3393    YZZ       6.0053
       ZZZ     -65.0024
    Hexadecapole Moments (Debye-Ang^3)
      XXXX    -952.0588   XXXY    -100.4740   XXYY    -237.1236
      XYYY     -79.7407   YYYY    -645.9918   XXXZ     169.2410
      XXYZ      38.3855   XYYZ      42.2497   YYYZ      93.8810
      XXZZ    -273.7619   XYZZ     -35.7649   YYZZ    -208.9739
      XZZZ     159.4967   YZZZ      84.2735   ZZZZ    -587.7237
 -----------------------------------------------------------------
 Calculating analytic gradient of the SCF energy
 Gradient of CDS energy
            1           2           3           4           5           6
    1   0.0015221   0.0000677  -0.0000686  -0.0002136  -0.0002051   0.0000549
    2  -0.0013160   0.0002032  -0.0003826  -0.0002699   0.0001564   0.0000676
    3  -0.0009826   0.0002644   0.0002835  -0.0002269  -0.0002360   0.0001582
            7           8           9          10          11          12
    1   0.0001565  -0.0000360   0.0000604  -0.0000360  -0.0001071  -0.0000350
    2   0.0009881   0.0002071  -0.0000241  -0.0001665  -0.0001489   0.0000770
    3  -0.0003425   0.0001056   0.0002077   0.0000947  -0.0001011  -0.0001140
           13          14          15          16          17          18
    1  -0.0002590  -0.0001715   0.0001273   0.0001755  -0.0015117   0.0004216
    2  -0.0002346  -0.0001761  -0.0001311   0.0000045   0.0012589  -0.0001179
    3  -0.0000518   0.0002777   0.0002761  -0.0004949   0.0010722  -0.0001876
           19          20
    1   0.0000114   0.0000463
    2   0.0000898  -0.0000849
    3  -0.0000828   0.0000803
 Gradient of SCF Energy
            1           2           3           4           5           6
    1   0.0004563  -0.0067132   0.0045145   0.0040196   0.0034221  -0.0045972
    2  -0.0057137   0.0038311   0.0024238   0.0053135  -0.0039338   0.0040551
    3  -0.0052829  -0.0001449  -0.0059432   0.0077726   0.0059008   0.0035608
            7           8           9          10          11          12
    1   0.0061828   0.0033140   0.0020478  -0.0007363  -0.0032944  -0.0027330
    2  -0.0131914   0.0039795  -0.0019773  -0.0044510  -0.0045677   0.0029993
    3   0.0026880   0.0017844   0.0041902   0.0025098  -0.0034901  -0.0127852
           13          14          15          16          17          18
    1  -0.0067990   0.0084341   0.0019133  -0.0087887  -0.0002009   0.0016744
    2   0.0030415   0.0142366   0.0043626  -0.0099533  -0.0081466   0.0045069
    3  -0.0064948   0.0129253   0.0036887  -0.0127850   0.0051858  -0.0060466
           19          20
    1  -0.0008298  -0.0012864
    2   0.0016801   0.0015050
    3   0.0017858   0.0009803
 Max gradient component =       1.424E-02
 RMS gradient           =       5.779E-03
 Computing fast CPCM-SWIG gradient
 Updating gradient with PCM contributions...
 -- total gradient after adding PCM contribution --
---------------------------------------------------
  Atom         X              Y              Z     
---------------------------------------------------
   1      -0.001148       0.000018       0.000034
   2       0.000201       0.000059      -0.000013
   3       0.000020       0.000027      -0.000022
   4      -0.000000       0.000011      -0.000016
   5       0.000017      -0.000009       0.000046
   6       0.000257      -0.000040       0.000074
   7       0.000021      -0.000018      -0.000052
   8       0.000240       0.000191       0.000153
   9      -0.000023      -0.000012       0.000021
  10       0.000009      -0.000010       0.000006
  11      -0.000004      -0.000009      -0.000008
  12       0.000016       0.000002      -0.000021
  13      -0.000013       0.000023      -0.000014
  14      -0.000024       0.000040       0.000053
  15      -0.000006       0.000017       0.000015
  16      -0.000009      -0.000028      -0.000036
  17       0.000343      -0.000217      -0.000123
  18       0.000019       0.000001      -0.000060
  19       0.000039       0.000027      -0.000127
  20       0.000045      -0.000072       0.000091
---------------------------------------------------
 Number of fixed atoms: 0
 Gradient time:  CPU 569.51 s  wall 79.90 s
 ----------------------------------------------------------------
             Standard Nuclear Orientation (Angstroms)
    I     Atom           X                Y                Z
 ----------------------------------------------------------------
    1      C      -0.0600066222    -0.3125205577     0.7955608055
    2      C      -0.9784822494    -1.0537090034     1.7582108051
    3      C      -1.7173499139    -2.1575665840     1.0712008585
    4      C      -2.1565599186    -1.9374071279    -0.2206154243
    5      C      -1.8926611525    -0.7332631784    -0.8448707863
    6      C      -1.1583472874     0.3191545082    -0.0691578154
    7      C      -0.6574678257     1.4818044130    -0.9091164815
    8      H       0.4781628576     0.4745166757     1.3260267429
    9      H      -0.4970126816    -1.3571814269     2.6836387448
   10      H      -1.9169013808    -3.0795800365     1.5959972619
   11      H      -2.7100131592    -2.7068360177    -0.7429988464
   12      H      -2.2294102727    -0.5183762414    -1.8501743493
   13      H      -1.4745251722     1.9310078550    -1.4750878685
   14      O       0.3793760951     1.0326470500    -1.7780388714
   15      H      -0.2230516320     2.2335649805    -0.2537698973
   16      H      -0.0204667307     0.5583792750    -2.5157755311
   17      O       0.8221532288    -1.1724563506     0.1134175498
   18      H       1.1670151671    -0.6721216768    -0.6388700494
   19      O      -1.8866771859     0.0079235374     2.1290650003
   20      O      -2.0280605637     0.8637318063     0.9469641518
 ----------------------------------------------------------------
 Nuclear Repulsion Energy =         681.52477089 hartrees
 There are       42 alpha and       41 beta electrons
 Discretize the solute cavity surface with Lebedev spheres
	Using 110 Lebedev grid points for each H atom
	Using 194 Lebedev grid points for other atoms
	Atomic van der Waals radii will be scaled by 1.20
 Remove points where switching function is < 1.0e-08
 Keep 1419 surface tesserae and discard 1705 interior tesserae
 Molecular Surface Area = 161.013 Angst**2
 Requested basis set is 6-311++G(2df,2p)
 There are 142 shells and 464 basis functions
 A cutoff of  1.0D-12 yielded   9272 shell pairs
 There are    100413 function pairs (    125640 Cartesian)
 Smallest overlap matrix eigenvalue = 1.98E-06
 Guess MOs from SCF MO coefficient file

 -----------------------------------------------------------------------
  General SCF calculation program by
  Eric Jon Sundstrom, Paul Horn, Yuezhi Mao, Dmitri Zuev, Alec White,
  David Stuck, Shaama M.S., Shane Yost, Joonho Lee, David Small,
  Daniel Levine, Susi Lehtola, Hugh Burton, Evgeny Epifanovsky,
  Bang C. Huynh
 -----------------------------------------------------------------------
 Exchange:     0.1500 Hartree-Fock + 1.0000 wB97M-V + LR-HF
 Correlation:  1.0000 wB97M-V
 Using SG-2 standard quadrature grid
 Nonlocal Correlation:  VV10 with C = 0.0100 and b = 6.00 and scale = 1.00000
 Grid used for NLC:  SG-1 standard quadrature
 
 Citation of the SMD model:
 Marenich, A.V.; Cramer, C.J.; Truhlar, D.G.
 J. Phys. Chem. B 2009, 113, 6378-6396.
 iSolventCode=           1
 Solvent: water                                                           
 
 vradii
            1           2           3           4           5           6
    1   1.8500000   1.8500000   1.8500000   1.8500000   1.8500000   1.8500000
            7           8           9          10          11          12
    1   1.8500000   1.2000000   1.2000000   1.2000000   1.2000000   1.2000000
           13          14          15          16          17          18
    1   1.2000000   1.5200000   1.2000000   1.2000000   1.5200000   1.2000000
           19          20
    1   1.5200000   1.5200000
 -------------------------------------------------------
 OpenMP BLAS3 based DFT computing Module                
 Release: version 1.0, May 2013, Q-Chem Inc. Pittsburgh 
 -------------------------------------------------------
 A unrestricted SCF calculation will be
 performed using Roothaan-Hall, DIIS, GDM
 SCF converges when RMS gradient is below 1.0e-07
 ---------------------------------------
  Cycle       Energy         DIIS error
 ---------------------------------------
    1    -572.8769603654      1.77e-04  Roothaan Step
 ---------------------------------------
  Cycle       Energy         DIIS error
 ---------------------------------------
    1    -572.9055421071      1.97e-04  
    2    -572.9100689578      1.51e-04  Done DIIS. Switching to GDM
 ---------------------------------------
  Cycle       Energy        RMS Gradient
 ---------------------------------------
    1    -572.9100689578      4.48e-03   Normal BFGS step
    2    -572.9103786061      7.99e-03   Normal BFGS step
    3    -572.9119341662      6.35e-04   Normal BFGS step
    4    -572.9119487714      4.25e-04   Normal BFGS step
    5    -572.9119567803      2.07e-04   Normal BFGS step
    6    -572.9119570165      1.29e-04   Normal BFGS step
    7    -572.9119574720      6.53e-05   Normal BFGS step
    8    -572.9119575034      5.44e-05   Normal BFGS step
    9    -572.9119575152      1.01e-05   Normal BFGS step
   10    -572.9119575167      7.91e-06   Normal BFGS step
   11    -572.9119575172      4.70e-06   Normal BFGS step
   12    -572.9119575174      2.45e-06   Normal BFGS step
   13    -572.9119575174      7.90e-07   Normal BFGS step
   14    -572.9119575175      2.66e-07   Normal BFGS step
   15    -572.9119575175      1.36e-07   Normal BFGS step
  GDM::WARNING energy changes are now smaller than effective accuracy.
  GDM::        calculation will continue, but THRESH should be increased
  GDM::        or SCF_CONVERGENCE decreased. 
  GDM::        effective_thresh = 3.51e-09
   16    -572.9119575173      7.78e-08  Convergence criterion met
 ---------------------------------------
 SCF time:   CPU 3137.36s  wall 399.00s 
<S^2> =          0.780621306
(3)  G-ENP(liq) elect-nuc-pol free energy of system     -572.911957517 a.u.
(4)  G-CDS(liq) cavity-dispersion-solvent structure 
     free energy                                                2.9913 kcal/mol
(6)  G-S(liq) free energy of system                     -572.907190506 a.u.
 SCF   energy in the final basis set =     -572.9071905058
 Total energy in the final basis set =     -572.9071905058
 
 --------------------------------------------------------------
 
                    Orbital Energies (a.u.)
 --------------------------------------------------------------
 
 Alpha MOs
 -- Occupied --
-19.4034 -19.4028 -19.3481 -19.3448 -10.4127 -10.4067 -10.4050 -10.3937
-10.3556 -10.3549 -10.3501  -1.2707  -1.1739  -1.1614  -1.0684  -0.9756
 -0.8890  -0.8558  -0.8089  -0.7506  -0.7104  -0.6822  -0.6582  -0.6327
 -0.6080  -0.5866  -0.5784  -0.5643  -0.5542  -0.5341  -0.5223  -0.5174
 -0.4935  -0.4804  -0.4609  -0.4526  -0.4352  -0.4227  -0.3959  -0.3906
 -0.3659  -0.2853
 -- Virtual --
  0.0244   0.0348   0.0366   0.0451   0.0550   0.0555   0.0679   0.0734
  0.0809   0.0852   0.0895   0.0935   0.1082   0.1245   0.1303   0.1360
  0.1372   0.1448   0.1469   0.1489   0.1567   0.1575   0.1606   0.1700
  0.1752   0.1772   0.1844   0.1886   0.1919   0.2021   0.2048   0.2139
[...]
 Force Cnst:      1.1295                 1.0787                 2.8845
 Red. Mass:       1.4441                 1.3005                 3.2516
 IR Active:          YES                    YES                    YES
 IR Intens:       19.398                 15.261                 35.001
 Raman Active:       YES                    YES                    YES
               X      Y      Z        X      Y      Z        X      Y      Z
 C          0.035 -0.013  0.060   -0.007  0.052 -0.032   -0.035 -0.014  0.000
 C          0.019  0.031 -0.045   -0.049 -0.047  0.068    0.050  0.008  0.076
 C         -0.024 -0.032 -0.019    0.040  0.040  0.035   -0.028 -0.010 -0.067
 C          0.010 -0.029  0.052   -0.022  0.003 -0.055   -0.042 -0.120  0.029
 C          0.035  0.062  0.006   -0.009 -0.026  0.009    0.047  0.110 -0.006
 C         -0.087 -0.064 -0.057    0.012  0.032 -0.025    0.030  0.316 -0.159
 C          0.055 -0.003 -0.035   -0.007 -0.030 -0.007   -0.031 -0.141  0.063
 H          0.029  0.050 -0.029   -0.070 -0.300  0.558    0.297 -0.166 -0.109
 H          0.040  0.015 -0.063    0.187  0.134  0.007   -0.032 -0.225  0.050
 H         -0.072 -0.073 -0.107    0.029  0.052  0.051    0.100  0.086  0.158
 H          0.019 -0.162  0.239   -0.034  0.028 -0.081   -0.036 -0.163  0.069
 H          0.196  0.446  0.035    0.033  0.055  0.011   -0.149 -0.300 -0.039
 H          0.286 -0.001 -0.366    0.138  0.035 -0.158   -0.060 -0.175  0.092
 O         -0.011  0.017  0.006    0.015  0.000 -0.005    0.014  0.000 -0.020
 H         -0.273 -0.018  0.200   -0.206 -0.126  0.235   -0.248 -0.238  0.311
 H         -0.439  0.069  0.199   -0.273  0.041  0.120   -0.075  0.003  0.021
 O          0.001 -0.016 -0.002    0.004  0.017 -0.023    0.017 -0.020  0.018
 H         -0.114  0.154  0.052    0.279 -0.384 -0.146   -0.235  0.311  0.108
 O         -0.012  0.013  0.007    0.008 -0.003 -0.014   -0.019  0.009  0.007
 O          0.011 -0.008  0.006   -0.001 -0.003  0.010    0.024 -0.046  0.002
 TransDip  -0.111  0.010  0.087    0.019 -0.097  0.076   -0.096  0.091  0.136

 Mode:                34                     35                     36
 Frequency:      1270.04                1281.89                1311.68
 Force Cnst:      1.3879                 1.9037                 1.4993
 Red. Mass:       1.4605                 1.9663                 1.4791
 IR Active:          YES                    YES                    YES
 IR Intens:       29.469                  2.986                 53.931
 Raman Active:       YES                    YES                    YES
               X      Y      Z        X      Y      Z        X      Y      Z
 C         -0.001  0.062  0.041    0.023 -0.082 -0.110    0.049 -0.033 -0.064
 C         -0.119 -0.034  0.089   -0.020 -0.026 -0.014   -0.006  0.029  0.026
 C          0.023  0.008  0.009    0.010 -0.000  0.027    0.018  0.006  0.018
 C          0.003  0.011 -0.010    0.004  0.041 -0.033    0.006 -0.008  0.022
 C         -0.008 -0.012 -0.008   -0.031 -0.037 -0.033   -0.003 -0.027  0.018
 C         -0.002 -0.011  0.027    0.106  0.004  0.145   -0.081 -0.033 -0.092
 C          0.002 -0.002 -0.001   -0.035 -0.015 -0.066    0.030  0.016  0.047
 H          0.112  0.185 -0.254    0.505 -0.196 -0.443    0.548 -0.494  0.096
 H          0.629 -0.455 -0.438   -0.051  0.029  0.017    0.009 -0.313 -0.092
 H          0.041  0.063  0.112    0.005 -0.005  0.017   -0.080 -0.047 -0.111
 H         -0.028  0.032 -0.008    0.021 -0.038  0.063   -0.019  0.129 -0.151
 H          0.004  0.011 -0.008   -0.067 -0.128 -0.044    0.132  0.278  0.042
 H          0.049  0.025 -0.046    0.201  0.227 -0.204   -0.068 -0.135  0.061
 O         -0.002  0.004  0.001    0.020  0.009  0.004   -0.019 -0.003 -0.004
 H          0.022  0.014 -0.031   -0.116 -0.208  0.216    0.072  0.160 -0.152
 H         -0.015  0.005  0.007   -0.333  0.066  0.151    0.223 -0.048 -0.101
 O          0.031 -0.040 -0.019   -0.051  0.081  0.075   -0.037  0.067  0.048
 H         -0.086  0.143  0.039   -0.093  0.090  0.064    0.002 -0.034  0.007
 O          0.013  0.013 -0.063    0.003 -0.006  0.002   -0.006  0.004 -0.008
 O         -0.011  0.005  0.011   -0.018  0.013 -0.008    0.001  0.001  0.007
 TransDip  -0.108  0.125  0.054    0.024 -0.031 -0.039    0.139 -0.150 -0.116

 Mode:                37                     38                     39
 Frequency:      1330.07                1353.71                1391.82
 Force Cnst:      2.0591                 1.7467                 1.3744
 Red. Mass:       1.9755                 1.6178                 1.2042
 IR Active:          YES                    YES                    YES
 IR Intens:       70.160                 85.840                 52.901
 Raman Active:       YES                    YES                    YES
               X      Y      Z        X      Y      Z        X      Y      Z
 C         -0.025  0.127 -0.030    0.078 -0.053  0.037    0.010 -0.025 -0.004
 C         -0.045 -0.128 -0.049   -0.069 -0.116 -0.005    0.004  0.016 -0.006
 C          0.049  0.053  0.088   -0.016  0.022 -0.052    0.011  0.001  0.026
 C         -0.009  0.049 -0.072   -0.011  0.003 -0.027   -0.004  0.003 -0.013
 C         -0.033 -0.103  0.030    0.042  0.055  0.040   -0.010 -0.017 -0.006
 C          0.007  0.039 -0.041   -0.054 -0.027 -0.069    0.036  0.022  0.026
 C          0.020 -0.006  0.019    0.017  0.012  0.035    0.032  0.024  0.060
 H          0.196 -0.047 -0.006    0.190  0.069 -0.262   -0.139  0.100 -0.030
 H         -0.105  0.440  0.163    0.306  0.640  0.045   -0.029 -0.089 -0.023
 H         -0.080 -0.055 -0.161    0.171  0.161  0.250   -0.046 -0.043 -0.070
 H          0.010 -0.010 -0.000    0.018 -0.170  0.204   -0.005  0.001 -0.013
 H          0.143  0.286  0.057   -0.075 -0.175  0.035   -0.001  0.007 -0.004
 H         -0.045 -0.092  0.047    0.014 -0.059 -0.019    0.323  0.026 -0.335
 O         -0.009  0.001 -0.004   -0.017 -0.004 -0.006   -0.065 -0.015 -0.035
 H         -0.030  0.006  0.035   -0.012  0.109 -0.057   -0.421  0.055  0.348
 H          0.069 -0.022 -0.033    0.182 -0.042 -0.084    0.563 -0.153 -0.274
 O          0.036 -0.084  0.005   -0.031  0.052  0.016   -0.007  0.004  0.001
 H         -0.386  0.542  0.195    0.111 -0.169 -0.054    0.017 -0.021 -0.006
 O          0.010 -0.001  0.018   -0.001  0.007  0.010   -0.001 -0.001 -0.001
 O          0.004 -0.006  0.004    0.002  0.000  0.008   -0.004  0.002 -0.001
 TransDip  -0.190  0.189 -0.015    0.187 -0.198 -0.118    0.210 -0.012 -0.100

 Mode:                40                     41                     42
 Frequency:      1401.28                1406.85                1433.87
 Force Cnst:      2.1203                 1.7605                 2.5071
 Red. Mass:       1.8327                 1.5097                 2.0697
 IR Active:          YES                    YES                    YES
 IR Intens:       37.830                  1.419                 16.874
 Raman Active:       YES                    YES                    YES
               X      Y      Z        X      Y      Z        X      Y      Z
 C          0.058 -0.117  0.084   -0.061  0.043  0.020   -0.063  0.041  0.035
 C         -0.034 -0.000 -0.056    0.016  0.023  0.003   -0.011 -0.068 -0.007
 C          0.059  0.039  0.102   -0.028 -0.035 -0.028   -0.008  0.073 -0.083
 C         -0.016 -0.010 -0.028    0.012  0.045 -0.020    0.024 -0.135  0.199
 C         -0.022 -0.069  0.001    0.006  0.002  0.010   -0.021  0.034 -0.082
 C         -0.008  0.121 -0.045   -0.035 -0.053  0.039    0.019 -0.023  0.055
 C          0.023 -0.008 -0.046    0.089  0.090 -0.100    0.009  0.016 -0.025
 H         -0.161  0.327 -0.339    0.224 -0.152  0.009    0.211 -0.033 -0.151
 H          0.075 -0.008 -0.121   -0.011 -0.047 -0.006    0.076  0.329  0.072
 H         -0.185 -0.143 -0.310    0.078  0.038  0.144   -0.013  0.076 -0.110
 H         -0.038  0.091 -0.161    0.028 -0.101  0.185   -0.043  0.478 -0.627
 H          0.112  0.273  0.021   -0.035 -0.082  0.009    0.033  0.138 -0.088
 H         -0.299 -0.088  0.335   -0.431 -0.217  0.390   -0.004  0.029  0.004
 O          0.018 -0.009  0.008   -0.004 -0.026  0.001   -0.005 -0.006 -0.002
 H         -0.124 -0.099  0.158   -0.348 -0.170  0.496   -0.121 -0.048  0.142
 H         -0.109  0.023  0.053    0.096 -0.040 -0.045    0.041 -0.013 -0.021
 O         -0.026  0.047 -0.004    0.022 -0.009 -0.011    0.021 -0.009 -0.012
 H          0.182 -0.259 -0.093    0.032 -0.038 -0.021    0.050 -0.056 -0.027
 O         -0.009  0.004  0.008    0.004 -0.000 -0.008    0.004  0.001  0.001
 O          0.005 -0.016  0.006    0.002 -0.000  0.002    0.003  0.003 -0.003
 TransDip   0.122 -0.031 -0.151   -0.004  0.030 -0.023   -0.046  0.083 -0.091

 Mode:                43                     44                     45
 Frequency:      1451.42                1487.37                1511.90
 Force Cnst:      2.8067                 1.4319                 3.9066
 Red. Mass:       2.2613                 1.0986                 2.9008
 IR Active:          YES                    YES                    YES
 IR Intens:       28.268                  6.111                 11.207
 Raman Active:       YES                    YES                    YES
               X      Y      Z        X      Y      Z        X      Y      Z
 C          0.210 -0.038 -0.172    0.012  0.002 -0.018   -0.058  0.051  0.040
 C         -0.045 -0.037  0.051    0.001  0.000  0.010   -0.019 -0.014 -0.061
 C          0.021  0.030  0.002   -0.010 -0.006 -0.019    0.106  0.058  0.200
 C         -0.017 -0.068  0.031    0.007  0.009  0.008   -0.093 -0.127 -0.090
 C          0.028  0.074 -0.023   -0.004 -0.011  0.001    0.091  0.226 -0.009
 C         -0.043 -0.027  0.042   -0.001 -0.001  0.000   -0.029 -0.106  0.012
 C          0.042  0.036 -0.051    0.032 -0.073 -0.017    0.005  0.002 -0.010
 H         -0.514  0.137  0.352   -0.034 -0.008  0.044    0.244 -0.110 -0.059
 H          0.108 -0.008 -0.012    0.008  0.004  0.009   -0.103 -0.084 -0.050
 H         -0.022  0.019 -0.032    0.028  0.024  0.045   -0.272 -0.228 -0.414
 H         -0.048  0.070 -0.150    0.008  0.007  0.013   -0.104 -0.162 -0.087
 H         -0.075 -0.125 -0.039    0.014  0.026  0.005   -0.254 -0.519 -0.065
 H         -0.217 -0.169  0.152    0.053  0.562  0.422    0.032  0.139  0.056
 O          0.000 -0.003  0.003    0.008 -0.007 -0.001    0.001 -0.003  0.000
 H         -0.047 -0.118  0.186   -0.510  0.423 -0.209   -0.090  0.111 -0.072
 H         -0.015  0.001  0.007   -0.027 -0.002  0.012    0.002 -0.001 -0.001
 O         -0.059 -0.000  0.052   -0.003 -0.002  0.004    0.020 -0.010 -0.013
 H         -0.300  0.382  0.172   -0.036  0.043  0.017    0.036 -0.041 -0.024
 O         -0.004  0.005 -0.008   -0.000  0.000 -0.000    0.005 -0.003  0.000
 O         -0.013  0.008  0.002   -0.001  0.000  0.001    0.003  0.005 -0.004
 TransDip   0.137 -0.010 -0.100    0.006  0.079  0.004   -0.097 -0.040 -0.019

 Mode:                46                     47                     48
 Frequency:      3070.60                3072.45                3137.09
 Force Cnst:      5.9085                 6.0279                 6.4107
 Red. Mass:       1.0636                 1.0838                 1.1056
 IR Active:          YES                    YES                    YES
 IR Intens:       41.763                 62.690                 27.523
 Raman Active:       YES                    YES                    YES
               X      Y      Z        X      Y      Z        X      Y      Z
 C         -0.012 -0.017 -0.011   -0.042 -0.057 -0.038   -0.000 -0.001 -0.000
 C          0.001 -0.000  0.001    0.002 -0.001  0.003    0.001 -0.000  0.001
 C          0.000  0.000  0.000    0.000  0.000  0.000    0.000  0.000  0.000
 C          0.000  0.000  0.000   -0.000 -0.000 -0.000   -0.000  0.000 -0.000
 C          0.000 -0.000  0.000    0.000  0.001 -0.000    0.000  0.000  0.000
 C         -0.001 -0.001  0.000    0.000 -0.001 -0.000   -0.001 -0.000 -0.001
 C         -0.036  0.054 -0.016    0.011 -0.016  0.006   -0.059 -0.036 -0.065
 H          0.142  0.202  0.135    0.485  0.680  0.459    0.007  0.006  0.006
 H         -0.007  0.004 -0.012   -0.025  0.016 -0.042   -0.007  0.004 -0.012
 H         -0.000  0.000 -0.000    0.000  0.002 -0.002   -0.000 -0.001  0.001
 H         -0.000  0.000 -0.000    0.002  0.002  0.002    0.000  0.000  0.000
 H          0.000  0.002  0.000    0.002 -0.003  0.007    0.001  0.001  0.000
 H          0.628 -0.339  0.452   -0.192  0.106 -0.139    0.331 -0.191  0.241
 O         -0.001  0.000  0.001    0.000 -0.000 -0.000    0.001  0.001  0.001
 H         -0.188 -0.303 -0.275    0.053  0.086  0.075    0.361  0.614  0.527
 H          0.002  0.001  0.005   -0.001 -0.000 -0.001   -0.013 -0.008 -0.006
 O          0.000  0.000 -0.000    0.001 -0.000 -0.000    0.000  0.000 -0.000
 H          0.003 -0.001 -0.001    0.003  0.001 -0.003   -0.000 -0.001  0.000
 O          0.000  0.000 -0.000   -0.000 -0.000  0.000    0.000  0.000  0.000
 O          0.000  0.000 -0.000   -0.000  0.000 -0.000    0.000  0.000  0.000
 TransDip  -0.145  0.135 -0.058   -0.022 -0.226 -0.113   -0.100 -0.070 -0.116

 Mode:                49                     50                     51
 Frequency:      3147.01                3190.34                3205.23
 Force Cnst:      6.3525                 6.5228                 6.6166
 Red. Mass:       1.0887                 1.0877                 1.0931
 IR Active:          YES                    YES                    YES
 IR Intens:       10.441                  5.282                 11.445
 Raman Active:       YES                    YES                    YES
               X      Y      Z        X      Y      Z        X      Y      Z
 C         -0.003 -0.003 -0.001   -0.000 -0.000 -0.000    0.001  0.000  0.001
 C         -0.037  0.023 -0.074   -0.000  0.001 -0.001   -0.000 -0.000 -0.001
 C         -0.000 -0.004  0.003    0.003  0.011 -0.005    0.005  0.018 -0.008
 C          0.000  0.000  0.000   -0.037 -0.051 -0.035   -0.022 -0.032 -0.019
 C         -0.000  0.000 -0.001    0.014 -0.007  0.041   -0.022  0.016 -0.069
 C          0.000 -0.001  0.001   -0.000 -0.000 -0.000    0.001  0.002  0.001
 C         -0.001 -0.001 -0.001   -0.000  0.000  0.000    0.000 -0.000 -0.000
 H          0.029  0.037  0.024    0.001  0.001  0.001   -0.003 -0.004 -0.003
 H          0.443 -0.276  0.845    0.007 -0.004  0.013    0.004 -0.002  0.008
 H          0.010  0.051 -0.032   -0.029 -0.129  0.072   -0.046 -0.208  0.117
 H         -0.001 -0.001 -0.001    0.427  0.594  0.404    0.244  0.342  0.228
 H          0.002 -0.002  0.008   -0.163  0.101 -0.484    0.261 -0.167  0.780
 H          0.004 -0.002  0.003    0.000  0.001 -0.001    0.000 -0.002  0.001
 O          0.000  0.000  0.000    0.000 -0.000  0.000   -0.000 -0.000 -0.000
 H          0.005  0.009  0.007   -0.000  0.001 -0.000   -0.001 -0.002  0.000
 H         -0.000 -0.000 -0.000    0.001 -0.000 -0.002   -0.001  0.001  0.003
 O          0.000  0.000 -0.000    0.000 -0.000  0.000   -0.000  0.000 -0.000
 H          0.001 -0.000 -0.000    0.000  0.000 -0.000   -0.000 -0.001  0.001
 O         -0.001  0.001 -0.000    0.000 -0.000 -0.000   -0.000 -0.000 -0.000
 O          0.000 -0.001  0.001    0.000 -0.000 -0.000    0.000  0.000  0.000
 TransDip  -0.052  0.010 -0.089   -0.029 -0.067 -0.010   -0.047 -0.005 -0.097

 Mode:                52                     53                     54
 Frequency:      3227.21                3756.45                3821.57
 Force Cnst:      6.7154                 8.8667                 9.1782
 Red. Mass:       1.0944                 1.0665                 1.0667
 IR Active:          YES                    YES                    YES
 IR Intens:        9.326                251.457                125.477
 Raman Active:       YES                    YES                    YES
               X      Y      Z        X      Y      Z        X      Y      Z
 C          0.001  0.001  0.000    0.000  0.001 -0.001   -0.000 -0.000 -0.000
 C          0.003  0.001  0.005   -0.000  0.000  0.000    0.000  0.000 -0.000
 C         -0.014 -0.071  0.042   -0.000  0.000  0.000    0.000  0.000  0.000
 C         -0.013 -0.016 -0.013   -0.000  0.000 -0.000   -0.000  0.000 -0.000
 C         -0.003  0.005 -0.012    0.000  0.000  0.000    0.000 -0.000  0.000
 C          0.000  0.000  0.000   -0.000 -0.000  0.000   -0.000  0.000 -0.000
 C          0.000  0.000 -0.000   -0.000  0.000  0.000   -0.002 -0.001 -0.001
 H         -0.004 -0.005 -0.002   -0.001  0.005  0.003    0.000  0.000  0.000
 H         -0.027  0.012 -0.050    0.000 -0.000  0.000   -0.000 -0.000  0.000
 H          0.174  0.814 -0.466   -0.000 -0.001  0.000   -0.000 -0.000  0.000
 H          0.128  0.177  0.123   -0.000 -0.000 -0.000   -0.000 -0.000 -0.000
 H          0.040 -0.027  0.120   -0.000 -0.000 -0.001   -0.001  0.001 -0.002
 H          0.001 -0.001  0.001    0.001  0.000 -0.001   -0.001  0.001  0.004
 O         -0.000 -0.000  0.000   -0.001 -0.001 -0.002   -0.024 -0.031 -0.049
 H         -0.000 -0.001 -0.000    0.000 -0.000 -0.000    0.005  0.009  0.010
 H         -0.000  0.000  0.000    0.016  0.018  0.028    0.404  0.488  0.770
 O         -0.000  0.000 -0.000    0.024  0.030 -0.049   -0.001 -0.001  0.002
 H         -0.000 -0.000  0.001   -0.376 -0.493  0.781    0.012  0.019 -0.029
 O          0.000 -0.000  0.000   -0.000 -0.000  0.000   -0.000 -0.000  0.000
 O         -0.000  0.000 -0.000   -0.000  0.000 -0.000   -0.000 -0.000  0.000
 TransDip  -0.035 -0.089  0.023   -0.185 -0.218  0.420    0.070  0.160  0.314

 STANDARD THERMODYNAMIC QUANTITIES AT   298.15 K  AND     1.00 ATM

   This Molecule has  0 Imaginary Frequencies
   Zero point vibrational energy:       98.547 kcal/mol

   Atom    1 Element C  Has Mass   12.00000
   Atom    2 Element C  Has Mass   12.00000
   Atom    3 Element C  Has Mass   12.00000
   Atom    4 Element C  Has Mass   12.00000
   Atom    5 Element C  Has Mass   12.00000
   Atom    6 Element C  Has Mass   12.00000
   Atom    7 Element C  Has Mass   12.00000
   Atom    8 Element H  Has Mass    1.00783
   Atom    9 Element H  Has Mass    1.00783
   Atom   10 Element H  Has Mass    1.00783
   Atom   11 Element H  Has Mass    1.00783
   Atom   12 Element H  Has Mass    1.00783
   Atom   13 Element H  Has Mass    1.00783
   Atom   14 Element O  Has Mass   15.99491
   Atom   15 Element H  Has Mass    1.00783
   Atom   16 Element H  Has Mass    1.00783
   Atom   17 Element O  Has Mass   15.99491
   Atom   18 Element H  Has Mass    1.00783
   Atom   19 Element O  Has Mass   15.99491
   Atom   20 Element O  Has Mass   15.99491
   Molecular Mass:   157.050110 amu
   Principal axes and moments of inertia in amu*Bohr^2:
                             1           2           3
    Eigenvalues --     1010.53399  1631.02359  1772.66575
          X              -0.43700    -0.47570     0.76337
          Y              -0.57121     0.80237     0.17301
          Z               0.69481     0.36044     0.62236
   Rotational Symmetry Number is   1
   The Molecule is an Asymmetric Top
   Translational Enthalpy:        0.889 kcal/mol
   Rotational Enthalpy:           0.889 kcal/mol
   Vibrational Enthalpy:        102.940 kcal/mol
   gas constant (RT):             0.592 kcal/mol
   Translational Entropy:        41.063  cal/mol.K
   Rotational Entropy:           29.459  cal/mol.K
   Vibrational Entropy:          24.709  cal/mol.K

   Total Enthalpy:              105.310 kcal/mol
   Total Entropy:                95.231  cal/mol.K
 Total job time:  54566.59s(wall), 422324.82s(cpu) 
 Sat Apr 22 12:53:03 2023

        *************************************************************
        *                                                           *
        *  Thank you very much for using Q-Chem.  Have a nice day.  *
        *                                                           *
        *************************************************************


