
Running Job 1 of 1 Q_in.in
qchem Q_in.in_141376.0 /scratch/ari.fischer/qChem1469992.hpc-mn1/qchem141376/ 0
/usr/local/qchem-5.4.1/exe/qcprog.exe_s Q_in.in_141376.0 /scratch/ari.fischer/qChem1469992.hpc-mn1/qchem141376/
                  Welcome to Q-Chem
     A Quantum Leap Into The Future Of Chemistry


 Q-Chem 5.4, Q-Chem, Inc., Pleasanton, CA (2021)

 License issued to: Nanyang Technological University (site)

 E. Epifanovsky,  A. T. B. Gilbert,  Xintian Feng,  Joonho Lee,  Yuezhi Mao,  
 N. Mardirossian,  P. Pokhilko,  A. White,  M. Wormit,  M. P. Coons,  
 A. L. Dempwolff,  Zhengting Gan,  D. Hait,  P. R. Horn,  L. D. Jacobson,  
 I. Kaliman,  J. Kussmann,  A. W. Lange,  Ka Un Lao,  D. S. Levine,  Jie Liu,  
 S. C. McKenzie,  A. F. Morrison,  K. Nanda,  F. Plasser,  D. R. Rehn,  
 M. L. Vidal,  Zhi-Qiang You,  Ying Zhu,  B. Alam,  B. Albrecht,  
 A. Aldossary,  E. Alguire,  J. H. Andersen,  D. Barton,  K. Begam,  A. Behn,  
 Y. A. Bernard,  E. J. Berquist,  H. Burton,  A. Carreras,  K. Carter-Fenk,  
 R. Chakraborty,  A. D. Chien,  K. D. Closser,  V. Cofer-Shabica,  
 S. Dasgupta,  Jia Deng,  M. de Wergifosse,  M. Diedenhofen,  Hainam Do,  
 S. Ehlert,  Po-Tung Fang,  S. Fatehi,  Qingguo Feng,  T. Friedhoff,  
 J. Gayvert,  Qinghui Ge,  G. Gidofalvi,  M. Goldey,  J. Gomes,  
 C. Gonzalez-Espinoza,  S. Gulania,  A. Gunina,  M. W. D. Hanson-Heine,  
 P. H. P. Harbach,  A. W. Hauser,  M. F. Herbst,  M. Hernandez Vera,  
 M. Hodecker,  Z. C. Holden,  S. Houck,  Xunkun Huang,  Kerwin Hui,  
 B. C. Huynh,  M. Ivanov,  Hyunjun Ji,  Hanjie Jiang,  B. Kaduk,  S. Kaehler,  
 K. Khistyaev,  Jaehoon Kim,  P. Klunzinger,  Z. Koczor-Benda,  
 Joong Hoon Koh,  D. Kosenkov,  L. Koulias,  T. Kowalczyk,  C. M. Krauter,  
 K. Kue,  A. Kunitsa,  T. Kus,  A. Landau,  K. V. Lawler,  D. Lefrancois,  
 S. Lehtola,  Rain Li,  Yi-Pei Li,  Jiashu Liang,  M. Liebenthal,  
 Hung-Hsuan Lin,  You-Sheng Lin,  Fenglai Liu,  Kuan-Yu Liu,  
 M. Loipersberger,  A. Luenser,  A. Manjanath,  P. Manohar,  E. Mansoor,  
 S. F. Manzer,  Shan-Ping Mao,  A. V. Marenich,  T. Markovich,  S. Mason,  
 S. A. Maurer,  P. F. McLaughlin,  M. F. S. J. Menger,  J.-M. Mewes,  
 S. A. Mewes,  P. Morgante,  J. W. Mullinax,  K. J. Oosterbaan,  G. Paran,  
 Alexander C. Paul,  Suranjan K. Paul,  F. Pavosevic,  Zheng Pei,  S. Prager,  
 E. I. Proynov,  E. Ramos,  B. Rana,  A. E. Rask,  A. Rettig,  R. M. Richard,  
 F. Rob,  E. Rossomme,  T. Scheele,  M. Scheurer,  M. Schneider,  
 N. Sergueev,  S. M. Sharada,  W. Skomorowski,  D. W. Small,  C. J. Stein,  
 Yu-Chuan Su,  E. J. Sundstrom,  Zhen Tao,  J. Thirman,  T. Tsuchimochi,  
 N. M. Tubman,  S. P. Veccham,  O. Vydrov,  J. Wenzel,  J. Witte,  A. Yamada,  
 Kun Yao,  S. Yeganeh,  S. R. Yost,  A. Zech,  Igor Ying Zhang,  Xing Zhang,  
 Yu Zhang,  D. Zuev,  A. Aspuru-Guzik,  A. T. Bell,  N. A. Besley,  
 K. B. Bravaya,  B. R. Brooks,  D. Casanova,  Jeng-Da Chai,  S. Coriani,  
 C. J. Cramer,  A. E. DePrince, III,  R. A. DiStasio Jr.,  A. Dreuw,  
 B. D. Dunietz,  T. R. Furlani,  W. A. Goddard III,  S. Grimme,  
 S. Hammes-Schiffer,  T. Head-Gordon,  W. J. Hehre,  Chao-Ping Hsu,  
 T.-C. Jagau,  Yousung Jung,  A. Klamt,  Jing Kong,  D. S. Lambrecht,  
 WanZhen Liang,  N. J. Mayhall,  C. W. McCurdy,  J. B. Neaton,  
 C. Ochsenfeld,  J. A. Parkhill,  R. Peverati,  V. A. Rassolov,  Yihan Shao,  
 L. V. Slipchenko,  T. Stauch,  R. P. Steele,  J. E. Subotnik,  
 A. J. W. Thom,  A. Tkatchenko,  D. G. Truhlar,  T. Van Voorhis,  
 T. A. Wesolowski,  K. B. Whaley,  H. L. Woodcock III,  P. M. Zimmerman,  
 S. Faraji,  P. M. W. Gill,  M. Head-Gordon,  J. M. Herbert,  A. I. Krylov

 Additional authors for Version 5.4.1: 
 S. Kotaru,  Shaozhi Li,  Xiangyuan Li,  F. Matz,  A. Molle,  Haisheng Ren,  
 Yingli Su,  Hung-Yi Tsai,  C. Utku,  Fang Wang

 Contributors to earlier versions of Q-Chem not listed above: 
 R. D. Adamson,  B. Austin,  R. Baer,  J. Baker,  G. J. O. Beran,  
 K. Brandhorst,  S. T. Brown,  E. F. C. Byrd,  A. K. Chakraborty,  
 G. K. L. Chan,  Chun-Min Chang,  Yunqing Chen,  C.-L. Cheng,  
 Siu Hung Chien,  D. M. Chipman,  D. L. Crittenden,  H. Dachsel,  
 R. J. Doerksen,  A. D. Dutoi,  R. G. Edgar,  J. Fosso-Tande,  
 L. Fusti-Molnar,  D. Ghosh,  A. Ghysels,  A. Golubeva-Zadorozhnaya,  
 J. Gonthier,  M. S. Gordon,  S. R. Gwaltney,  G. Hawkins,  J. E. Herr,  
 A. Heyden,  S. Hirata,  E. G. Hohenstein,  G. Kedziora,  F. J. Keil,  
 C. Kelley,  Jihan Kim,  R. A. King,  R. Z. Khaliullin,  P. P. Korambath,  
 W. Kurlancheek,  A. Laurent,  A. M. Lee,  M. S. Lee,  S. V. Levchenko,  
 Ching Yeh Lin,  D. Liotard,  E. Livshits,  R. C. Lochan,  I. Lotan,  
 L. A. Martinez-Martinez,  P. E. Maslen,  N. Nair,  D. P. O'Neill,  
 D. Neuhauser,  E. Neuscamman,  C. M. Oana,  R. Olivares-Amaya,  R. Olson,  
 T. M. Perrine,  B. Peters,  P. A. Pieniazek,  A. Prociuk,  Y. M. Rhee,  
 J. Ritchie,  M. A. Rohrdanz,  E. Rosta,  N. J. Russ,  H. F. Schaefer III,  
 M. W. Schmidt,  N. E. Schultz,  S. Sharma,  N. Shenvi,  C. D. Sherrill,  
 A. C. Simmonett,  A. Sodt,  T. Stein,  D. Stuck,  K. S. Thanthiriwatte,  
 V. Vanovschi,  L. Vogt,  Tao Wang,  A. Warshel,  M. A. Watson,  
 C. F. Williams,  Q. Wu,  X. Xu,  Jun Yang,  W. Zhang,  Yan Zhao

 Please cite Q-Chem as follows:
 Y. Shao et al., Mol. Phys. 113, 184-215 (2015)
 DOI: 10.1080/00268976.2014.952696

 Q-Chem 5.4.1 for Intel X86 EM64T Linux

 Parts of Q-Chem use Armadillo 9.800.1 (Horizon Scraper).
 http://arma.sourceforge.net/

 Q-Chem begins on Tue Feb 14 14:00:34 2023  

 Host: 
0

     Scratch files written to /scratch/ari.fischer/qChem1469992.hpc-mn1/qchem141376//
 Aug1521 |scratch|qcdevops|jenkins|workspace|build_RNUM 8249   
 Processing $rem in /usr/local/qchem-5.4.1/config/preferences:
 Processing $rem in /home/ari.fischer/.qchemrc:
 Symmetry turned off for PCM/SM12/SMD calculation

 Checking the input file for inconsistencies... 	...done.

--------------------------------------------------------------
User input:
--------------------------------------------------------------
$molecule
0 2
C        -0.0592894992   -0.3087826268    0.7919887219
C        -0.9733114544   -1.0565256932    1.7585615009
C        -1.7113872061   -2.1656500911    1.0703336392
C        -2.1589328942   -1.9410420258   -0.2234215546
C        -1.8993346091   -0.7288316247   -0.8465811015
C        -1.1670591618    0.3262212182   -0.0640429376
C        -0.6484034230    1.4821132380   -0.9090500645
H         0.4786716005    0.4840291284    1.3282227170
H        -0.4877456040   -1.3606398447    2.6874943883
H        -1.9104266036   -3.0932614368    1.5953003351
H        -2.7142800242   -2.7138111856   -0.7490174525
H        -2.2503900053   -0.5093080142   -1.8511981557
H        -1.4529380834    1.9309116242   -1.5023459638
O         0.4090826330    1.0122082569   -1.7464131231
H        -0.2219482243    2.2443754772   -0.2527881277
H         0.0054913117    0.4982403692   -2.4659922724
O         0.8178522312   -1.1526297906    0.0849940154
H         1.1085233085   -0.6164334407   -0.6778041568
O        -1.8850940355    0.0023021723    2.1403706808
O        -2.0393666568    0.8672261898    0.9529949113
$end

$rem
BASIS = 6-311++G(2df,2p)
GUI = 2
JOB_TYPE = Optimization
METHOD = wB97M-V
SCF_ALGORITHM = DIIS_GDM
MAX_SCF_CYCLES = 400
GEOM_OPT_MAX_CYCLES = 150
SCF_CONVERGENCE = 7
THRESH = 12
UNRESTRICTED = 1
Solvent_method = SMD
$end
--------------------------------------------------------------
 ----------------------------------------------------------------
             Standard Nuclear Orientation (Angstroms)
    I     Atom           X                Y                Z
 ----------------------------------------------------------------
    1      C      -0.0592894992    -0.3087826268     0.7919887219
    2      C      -0.9733114544    -1.0565256932     1.7585615009
    3      C      -1.7113872061    -2.1656500911     1.0703336392
    4      C      -2.1589328942    -1.9410420258    -0.2234215546
    5      C      -1.8993346091    -0.7288316247    -0.8465811015
    6      C      -1.1670591618     0.3262212182    -0.0640429376
    7      C      -0.6484034230     1.4821132380    -0.9090500645
    8      H       0.4786716005     0.4840291284     1.3282227170
    9      H      -0.4877456040    -1.3606398447     2.6874943883
   10      H      -1.9104266036    -3.0932614368     1.5953003351
   11      H      -2.7142800242    -2.7138111856    -0.7490174525
   12      H      -2.2503900053    -0.5093080142    -1.8511981557
   13      H      -1.4529380834     1.9309116242    -1.5023459638
   14      O       0.4090826330     1.0122082569    -1.7464131231
   15      H      -0.2219482243     2.2443754772    -0.2527881277
   16      H       0.0054913117     0.4982403692    -2.4659922724
   17      O       0.8178522312    -1.1526297906     0.0849940154
   18      H       1.1085233085    -0.6164334407    -0.6778041568
   19      O      -1.8850940355     0.0023021723     2.1403706808
   20      O      -2.0393666568     0.8672261898     0.9529949113
 ----------------------------------------------------------------
 Nuclear Repulsion Energy =         680.85302679 hartrees
 There are       42 alpha and       41 beta electrons
 Requested basis set is 6-311++G(2df,2p)
 There are 142 shells and 464 basis functions

 Total QAlloc Memory Limit 288000 MB
 Mega-Array Size       188 MB
 MEM_STATIC part       192 MB
 
 Citation of the SMD model:
 Marenich, A.V.; Cramer, C.J.; Truhlar, D.G.
 J. Phys. Chem. B 2009, 113, 6378-6396.
 iSolventCode=           1
 Solvent: water                                                           
 
 vradii
            1           2           3           4           5           6
    1   1.8500000   1.8500000   1.8500000   1.8500000   1.8500000   1.8500000
            7           8           9          10          11          12
    1   1.8500000   1.2000000   1.2000000   1.2000000   1.2000000   1.2000000
           13          14          15          16          17          18
    1   1.2000000   1.5200000   1.2000000   1.2000000   1.5200000   1.2000000
           19          20
    1   1.5200000   1.5200000
 Changing PCM_VDW_RADII to SMD_RADIUS
 Discretize the solute cavity surface with Lebedev spheres
	Using 110 Lebedev grid points for each H atom
	Using 194 Lebedev grid points for other atoms
	Atomic van der Waals radii will be scaled by 1.20
 Remove points where switching function is < 1.0e-08
 Keep 1413 surface tesserae and discard 1711 interior tesserae
 Molecular Surface Area = 160.926 Angst**2
 A cutoff of  1.0D-12 yielded   9275 shell pairs
 There are    100429 function pairs (    125655 Cartesian)
 Smallest overlap matrix eigenvalue = 2.06E-06

 Scale SEOQF with 1.000000e-01/1.000000e-01/1.000000e-01

 Standard Electronic Orientation quadrupole field applied
 Nucleus-field energy     =     0.0000000012 hartrees
 Guess from superposition of atomic densities
 Warning:  Energy on first SCF cycle will be non-variational
 SAD guess density has 83.000000 electrons

 -----------------------------------------------------------------------
  General SCF calculation program by
  Eric Jon Sundstrom, Paul Horn, Yuezhi Mao, Dmitri Zuev, Alec White,
  David Stuck, Shaama M.S., Shane Yost, Joonho Lee, David Small,
  Daniel Levine, Susi Lehtola, Hugh Burton, Evgeny Epifanovsky,
  Bang C. Huynh
 -----------------------------------------------------------------------
 Exchange:     0.1500 Hartree-Fock + 1.0000 wB97M-V + LR-HF
 Correlation:  1.0000 wB97M-V
 Using SG-2 standard quadrature grid
 Nonlocal Correlation:  VV10 with C = 0.0100 and b = 6.00 and scale = 1.00000
 Grid used for NLC:  SG-1 standard quadrature
 
 Citation of the SMD model:
 Marenich, A.V.; Cramer, C.J.; Truhlar, D.G.
 J. Phys. Chem. B 2009, 113, 6378-6396.
 iSolventCode=           1
 Solvent: water                                                           
 
 vradii
            1           2           3           4           5           6
    1   1.8500000   1.8500000   1.8500000   1.8500000   1.8500000   1.8500000
            7           8           9          10          11          12
    1   1.8500000   1.2000000   1.2000000   1.2000000   1.2000000   1.2000000
           13          14          15          16          17          18
    1   1.2000000   1.5200000   1.2000000   1.2000000   1.5200000   1.2000000
           19          20
    1   1.5200000   1.5200000
 using 8 threads for integral computing
 -------------------------------------------------------
 OpenMP Integral computing Module                
 Release: version 1.0, May 2013, Q-Chem Inc. Pittsburgh 
 -------------------------------------------------------
 -------------------------------------------------------
 OpenMP BLAS3 based DFT computing Module                
 Release: version 1.0, May 2013, Q-Chem Inc. Pittsburgh 
 -------------------------------------------------------
 A unrestricted SCF calculation will be
 performed using DIIS, GDM
 SCF converges when RMS gradient is below 1.0e-07
 ---------------------------------------
  Cycle       Energy         DIIS error
 ---------------------------------------
    1    -575.8967681832      1.16e-02  
    2    -572.7976643260      1.09e-03  Done DIIS. Switching to GDM
 ---------------------------------------
  Cycle       Energy        RMS Gradient
 ---------------------------------------
    1    -572.7976643260      3.50e-02   Descent step
    2    -572.8936823326      1.61e-02   Normal BFGS step
    3    -572.9088861261      9.03e-03   Normal BFGS step
    4    -572.9107494164      5.58e-03   Normal BFGS step
    5    -572.9111181674      2.64e-03   Normal BFGS step
    6    -572.9112206617      6.42e-04   Normal BFGS step
    7    -572.9112346207      4.84e-04   Normal BFGS step
    8    -572.9112436970      1.46e-04   Normal BFGS step
    9    -572.9112440313      8.54e-05   Normal BFGS step
   10    -572.9112441254      2.75e-05   Normal BFGS step
   11    -572.9112441360      1.54e-05   Normal BFGS step
   12    -572.9112441394      8.75e-06   Normal BFGS step
   13    -572.9112441407      5.45e-06   Normal BFGS step
   14    -572.9112441411      2.74e-06   Normal BFGS step
   15    -572.9112441412      1.07e-06   Normal BFGS step
   16    -572.9112441412      3.13e-07   Normal BFGS step
   17    -572.9112441411      1.04e-07   Normal BFGS step
   18    -572.9112441411      4.90e-08  Convergence criterion met
 ---------------------------------------
 SCF time:   CPU 2950.18s  wall 375.00s 
<S^2> =          0.781538228
(3)  G-ENP(liq) elect-nuc-pol free energy of system     -572.911244141 a.u.
(4)  G-CDS(liq) cavity-dispersion-solvent structure 
     free energy                                                2.9608 kcal/mol
(6)  G-S(liq) free energy of system                     -572.906525733 a.u.
 SCF   energy in the final basis set =     -572.9065257334
 Total energy in the final basis set =     -572.9065257334
 
 --------------------------------------------------------------
 
                    Orbital Energies (a.u.)
 --------------------------------------------------------------
 
 Alpha MOs
 -- Occupied --
-19.4040 -19.4036 -19.3513 -19.3445 -10.4143 -10.4082 -10.4060 -10.3958
-10.3576 -10.3568 -10.3522  -1.2662  -1.1748  -1.1602  -1.0688  -0.9733
 -0.8872  -0.8550  -0.8069  -0.7488  -0.7099  -0.6796  -0.6562  -0.6319
 -0.6063  -0.5863  -0.5767  -0.5624  -0.5540  -0.5332  -0.5217  -0.5183
 -0.4927  -0.4814  -0.4613  -0.4544  -0.4346  -0.4217  -0.3952  -0.3904
 -0.3674  -0.2860
 -- Virtual --
  0.0245   0.0347   0.0366   0.0451   0.0549   0.0554   0.0667   0.0727
  0.0806   0.0839   0.0891   0.0927   0.1072   0.1240   0.1304   0.1355
  0.1363   0.1449   0.1468   0.1487   0.1565   0.1574   0.1605   0.1700
  0.1750   0.1767   0.1849   0.1887   0.1918   0.2018   0.2038   0.2135
  0.2166   0.2192   0.2229   0.2266   0.2390   0.2530   0.2573   0.2721
  0.2786   0.2850   0.2888   0.2925   0.3013   0.3150   0.3168   0.3221
  0.3301   0.3351   0.3444   0.3469   0.3516   0.3538   0.3618   0.3668
  0.3735   0.3762   0.3837   0.3897   0.3995   0.4022   0.4091   0.4170
  0.4184   0.4295   0.4362   0.4536   0.4693   0.4718   0.4800   0.4981
  0.5089   0.5136   0.5282   0.5425   0.5639   0.5832   0.5892   0.6021
  0.6072   0.6217   0.6228   0.6383   0.6502   0.6551   0.6604   0.6668
  0.6755   0.6891   0.6931   0.7071   0.7130   0.7208   0.7287   0.7358
  0.7426   0.7486   0.7669   0.7819   0.7863   0.7918   0.8076   0.8151
  0.8365   0.8549   0.8562   0.8745   0.8788   0.8864   0.8958   0.9077
  0.9415   0.9644   0.9656   1.0143   1.0226   1.0318   1.0450   1.0677
  1.0844   1.0887   1.0985   1.0997   1.1165   1.1358   1.1486   1.1614
  1.1642   1.1716   1.1756   1.1974   1.2134   1.2208   1.2213   1.2418
  1.2563   1.2625   1.2756   1.2780   1.2900   1.2925   1.3038   1.3262
  1.3373   1.3404   1.3425   1.3600   1.3640   1.3696   1.3836   1.3888
  1.4078   1.4128   1.4209   1.4394   1.4464   1.4614   1.4755   1.4898
  1.4952   1.5077   1.5273   1.5379   1.5437   1.5589   1.5712   1.5785
  1.5872   1.6143   1.6262   1.6321   1.6470   1.6531   1.6836   1.6891
  1.7112   1.7511   1.7604   1.7936   1.8010   1.8218   1.8445   1.8605
  1.8720   1.8939   1.9517   1.9572   1.9826   1.9980   2.0286   2.0472
  2.0706   2.0829   2.1169   2.1454   2.1676   2.1910   2.2178   2.2654
  2.2982   2.3166   2.3349   2.3808   2.4071   2.4238   2.4639   2.5154
  2.5238   2.6300   2.6674   2.6874   2.7164   2.7235   2.7576   2.7730
  2.7785   2.8100   2.8213   2.8381   2.8532   2.8614   2.8752   2.8773
  2.9077   2.9210   2.9328   2.9461   2.9521   2.9641   2.9947   3.0036
  3.0154   3.0269   3.0472   3.0787   3.0908   3.1158   3.1319   3.1545
  3.1822   3.1877   3.2172   3.2323   3.2583   3.2644   3.2899   3.3028
  3.3370   3.3390   3.3618   3.3756   3.3851   3.4154   3.4308   3.4335
  3.4495   3.4570   3.4820   3.4990   3.5134   3.5370   3.5537   3.5716
  3.5888   3.5978   3.6219   3.6363   3.6397   3.6605   3.6733   3.6755
  3.7031   3.7217   3.7366   3.7537   3.7650   3.7802   3.7898   3.8069
  3.8200   3.8264   3.8364   3.8574   3.8766   3.8817   3.9002   3.9092
  3.9237   3.9366   3.9588   3.9658   3.9669   3.9924   4.0089   4.0347
  4.0589   4.0746   4.1013   4.1103   4.1298   4.1518   4.1769   4.1987
  4.2388   4.2556   4.2679   4.2741   4.3024   4.3152   4.3207   4.3501
  4.3525   4.3691   4.4095   4.4132   4.4201   4.4500   4.4703   4.4847
  4.4898   4.5046   4.5310   4.5654   4.5723   4.5873   4.6179   4.6244
  4.6447   4.6585   4.6677   4.6932   4.7322   4.7373   4.7715   4.7761
  4.8192   4.8634   4.9618   4.9878   5.0510   5.1302   5.1488   5.1807
  5.2391   5.2518   5.2710   5.2973   5.3094   5.3115   5.3269   5.3452
  5.3604   5.3846   5.4036   5.4212   5.4491   5.4641   5.4925   5.5184
  5.5389   5.5531   5.5905   5.5999   5.6080   5.6264   5.6504   5.6732
  5.6881   5.7283   5.7555   5.7624   5.7786   5.7853   5.8603   5.8907
  5.9416   5.9667   6.0112   6.0259   6.0326   6.0721   6.1155   6.2305
  6.5825   6.5961   6.6519   6.7167   6.7510   7.0342   7.1010   7.1417
  7.2510   7.2899   7.3189   7.3451   7.3799   7.4010   7.4359   7.4478
  7.4619   7.4850   7.5306   7.6339   7.6471   7.6864   7.7955   7.8534
  7.8985   7.9562   8.2610  24.3690  24.7012  24.7269  24.7728  24.8255
 24.9141  25.1874  50.5948  50.6222  50.6778  50.6911
 
 Beta MOs
 -- Occupied --
-19.4026 -19.4023 -19.3512 -19.3445 -10.4148 -10.4087 -10.4055 -10.3958
-10.3554 -10.3493 -10.3486  -1.2637  -1.1745  -1.1600  -1.0657  -0.9663
 -0.8847  -0.8459  -0.7989  -0.7463  -0.7042  -0.6774  -0.6532  -0.6283
 -0.6048  -0.5801  -0.5738  -0.5592  -0.5500  -0.5303  -0.5193  -0.5149
 -0.4910  -0.4771  -0.4589  -0.4497  -0.4313  -0.3961  -0.3902  -0.3868
 -0.3610
 -- Virtual --
 -0.0203   0.0240   0.0343   0.0365   0.0448   0.0547   0.0552   0.0704
  0.0780   0.0804   0.0847   0.0894   0.0994   0.1079   0.1243   0.1300
  0.1360   0.1365   0.1465   0.1474   0.1481   0.1559   0.1572   0.1607
  0.1701   0.1749   0.1769   0.1858   0.1914   0.1929   0.2015   0.2038
  0.2125   0.2167   0.2194   0.2230   0.2264   0.2383   0.2551   0.2595
  0.2726   0.2784   0.2857   0.2901   0.2943   0.3034   0.3151   0.3182
  0.3258   0.3310   0.3370   0.3460   0.3489   0.3531   0.3550   0.3653
  0.3697   0.3743   0.3770   0.3848   0.3905   0.4000   0.4033   0.4093
  0.4185   0.4192   0.4294   0.4368   0.4541   0.4707   0.4734   0.4819
  0.5006   0.5090   0.5156   0.5313   0.5442   0.5662   0.5856   0.5926
  0.6084   0.6121   0.6220   0.6274   0.6417   0.6517   0.6568   0.6649
  0.6685   0.6793   0.6917   0.6942   0.7109   0.7154   0.7223   0.7312
  0.7371   0.7459   0.7522   0.7712   0.7852   0.7904   0.7981   0.8127
  0.8186   0.8405   0.8563   0.8609   0.8770   0.8837   0.8903   0.8985
  0.9102   0.9435   0.9660   0.9682   1.0159   1.0232   1.0333   1.0465
  1.0682   1.0864   1.0912   1.0991   1.1010   1.1178   1.1367   1.1495
  1.1651   1.1670   1.1726   1.1789   1.2000   1.2148   1.2225   1.2233
  1.2453   1.2577   1.2648   1.2781   1.2798   1.2908   1.2943   1.3053
  1.3284   1.3382   1.3419   1.3445   1.3621   1.3657   1.3709   1.3865
  1.3917   1.4107   1.4151   1.4236   1.4430   1.4503   1.4645   1.4776
  1.4944   1.4978   1.5103   1.5314   1.5403   1.5466   1.5622   1.5745
  1.5823   1.5890   1.6194   1.6283   1.6362   1.6522   1.6559   1.6863
  1.6926   1.7143   1.7556   1.7632   1.7960   1.8054   1.8245   1.8488
  1.8652   1.8746   1.8954   1.9570   1.9602   1.9878   2.0031   2.0323
  2.0497   2.0719   2.0857   2.1227   2.1468   2.1705   2.1924   2.2207
  2.2681   2.3000   2.3176   2.3375   2.3822   2.4093   2.4250   2.4659
  2.5177   2.5269   2.6363   2.6787   2.6924   2.7200   2.7269   2.7632
  2.7806   2.7926   2.8163   2.8344   2.8465   2.8628   2.8735   2.8844
  2.8898   2.9198   2.9284   2.9505   2.9573   2.9669   2.9819   3.0028
  3.0180   3.0264   3.0474   3.0623   3.0865   3.1039   3.1209   3.1489
  3.1637   3.1918   3.2000   3.2259   3.2396   3.2620   3.2725   3.2987
  3.3115   3.3462   3.3507   3.3708   3.3910   3.3944   3.4277   3.4393
  3.4428   3.4559   3.4712   3.4922   3.5026   3.5148   3.5520   3.5594
  3.5853   3.5979   3.6094   3.6318   3.6404   3.6508   3.6663   3.6836
  3.6910   3.7143   3.7246   3.7491   3.7618   3.7710   3.7878   3.7991
  3.8191   3.8318   3.8367   3.8426   3.8640   3.8858   3.8879   3.9066
  3.9127   3.9315   3.9427   3.9654   3.9715   3.9739   3.9977   4.0209
  4.0443   4.0643   4.0836   4.1094   4.1143   4.1378   4.1580   4.1818
  4.2045   4.2427   4.2612   4.2723   4.2773   4.3118   4.3232   4.3329
  4.3572   4.3602   4.3794   4.4143   4.4193   4.4236   4.4560   4.4775
  4.4931   4.4984   4.5114   4.5376   4.5720   4.5778   4.5976   4.6243
  4.6410   4.6576   4.6693   4.6818   4.6992   4.7396   4.7429   4.7786
  4.7818   4.8269   4.8731   4.9716   4.9962   5.0601   5.1444   5.1608
  5.1900   5.2483   5.2565   5.2740   5.2994   5.3110   5.3136   5.3313
  5.3473   5.3611   5.3861   5.4063   5.4253   5.4530   5.4679   5.4958
  5.5230   5.5406   5.5656   5.5962   5.6086   5.6152   5.6308   5.6519
  5.6823   5.6892   5.7315   5.7579   5.7646   5.7813   5.7899   5.8621
  5.8963   5.9447   5.9702   6.0144   6.0374   6.0411   6.0763   6.1281
  6.2326   6.5854   6.5977   6.6537   6.7187   6.7517   7.0375   7.1014
  7.1420   7.2514   7.2914   7.3213   7.3474   7.3812   7.4025   7.4383
  7.4493   7.4628   7.4882   7.5330   7.6367   7.6493   7.6866   7.7960
  7.8546   7.9006   7.9590   8.2626  24.3719  24.7017  24.7307  24.7737
 24.8258  24.9166  25.1904  50.5958  50.6224  50.6778  50.6922
 --------------------------------------------------------------
 
          Ground-State Mulliken Net Atomic Charges

     Atom                 Charge (a.u.)    Spin (a.u.)
  --------------------------------------------------------
      1 C                    -0.132901       0.031095
      2 C                    -0.025754      -0.022411
      3 C                    -0.472801       0.564267
      4 C                    -0.249502      -0.155658
      5 C                    -0.320950       0.592859
      6 C                    -0.053832      -0.060973
      7 C                    -0.378310       0.007871
      8 H                     0.315441      -0.002615
      9 H                     0.285933       0.005345
     10 H                     0.316444      -0.014433
     11 H                     0.298941       0.007698
     12 H                     0.324566      -0.013830
     13 H                     0.249067      -0.000146
     14 O                    -0.381101       0.001453
     15 H                     0.236173      -0.000260
     16 H                     0.332234      -0.000312
     17 O                    -0.418365       0.000230
     18 H                     0.337003       0.001963
     19 O                    -0.130500       0.029342
     20 O                    -0.131784       0.028513
  --------------------------------------------------------
  Sum of atomic charges =     0.000000
  Sum of spin   charges =     1.000000

 -----------------------------------------------------------------
                    Cartesian Multipole Moments
 -----------------------------------------------------------------
    Charge (ESU x 10^10)
                 0.0000
    Dipole Moment (Debye)
         X       0.2338      Y      -0.7559      Z      -3.5259
       Tot       3.6136
    Quadrupole Moments (Debye-Ang)
        XX     -73.3244     XY       6.0188     YY     -63.3489
        XZ      10.8277     YZ      -3.5357     ZZ     -58.7313
    Octopole Moments (Debye-Ang^2)
       XXX     218.8396    XXY       9.4377    XYY      47.6817
       YYY      57.4435    XXZ     -39.8329    XYZ      11.2832
       YYZ      -7.6576    XZZ      67.8365    YZZ       5.5910
       ZZZ     -64.7187
    Hexadecapole Moments (Debye-Ang^3)
      XXXX    -956.5074   XXXY    -101.0357   XXYY    -237.4787
      XYYY     -80.2441   YYYY    -642.9108   XXXZ     172.1999
      XXYZ      37.7352   XYYZ      43.0097   YYYZ      90.7326
      XXZZ    -274.2059   XYZZ     -36.0909   YYZZ    -208.1325
      XZZZ     160.8373   YZZZ      83.7378   ZZZZ    -591.1148
 -----------------------------------------------------------------
 Calculating analytic gradient of the SCF energy
 Gradient of CDS energy
            1           2           3           4           5           6
    1   0.0016381   0.0000673  -0.0000645  -0.0002156  -0.0002029   0.0000516
    2  -0.0014040   0.0002055  -0.0003870  -0.0002685   0.0001636   0.0000658
    3  -0.0011166   0.0002623   0.0002849  -0.0002305  -0.0002306   0.0001602
            7           8           9          10          11          12
    1   0.0001455  -0.0000347   0.0000616  -0.0000369  -0.0001099  -0.0000381
    2   0.0009836   0.0002096  -0.0000243  -0.0001717  -0.0001529   0.0000798
    3  -0.0003625   0.0001094   0.0002142   0.0000972  -0.0001040  -0.0001233
           13          14          15          16          17          18
    1  -0.0002588  -0.0001643   0.0001325   0.0001616  -0.0016083   0.0004170
    2  -0.0002302  -0.0002097  -0.0001254   0.0000275   0.0013371  -0.0001013
    3  -0.0000620   0.0002765   0.0002827  -0.0004930   0.0011989  -0.0001685
           19          20
    1   0.0000113   0.0000476
    2   0.0000905  -0.0000880
    3  -0.0000812   0.0000858
 Gradient of SCF Energy
            1           2           3           4           5           6
    1   0.0047879  -0.0073528   0.0058924   0.0030133   0.0052801  -0.0049969
    2  -0.0072294   0.0044898   0.0020601   0.0040060  -0.0015218   0.0045804
    3  -0.0094809  -0.0012046  -0.0037323   0.0070765   0.0045543   0.0048984
            7           8           9          10          11          12
    1   0.0077610   0.0042675   0.0033040  -0.0015504  -0.0050516  -0.0042953
    2  -0.0172578   0.0067184  -0.0027706  -0.0074067  -0.0071262   0.0035575
    3   0.0007030   0.0036902   0.0070387   0.0040639  -0.0052150  -0.0160061
           13          14          15          16          17          18
    1  -0.0095999   0.0148657   0.0032817  -0.0133203  -0.0015101   0.0007352
    2   0.0049339   0.0191376   0.0069023  -0.0148246  -0.0143228   0.0104970
    3  -0.0083573   0.0184663   0.0055158  -0.0165711   0.0101226  -0.0108911
           19          20
    1  -0.0016100  -0.0039015
    2   0.0005716   0.0050053
    3   0.0061604  -0.0008318
 Max gradient component =       1.914E-02
 RMS gradient           =       8.118E-03
 Computing fast CPCM-SWIG gradient
 Updating gradient with PCM contributions...
 -- total gradient after adding PCM contribution --
---------------------------------------------------
  Atom         X              Y              Z     
---------------------------------------------------
   1       0.002796      -0.001485      -0.003986
   2      -0.000251       0.000797      -0.001202
   3       0.001380      -0.000542       0.002183
   4      -0.001154      -0.001189      -0.000733
   5       0.001724       0.002298      -0.001259
   6      -0.000048       0.000137       0.001019
   7       0.001109      -0.002892      -0.002282
   8       0.001393       0.002962       0.002042
   9       0.001218      -0.000783       0.002873
  10      -0.000789      -0.002869       0.001535
  11      -0.001683      -0.002458      -0.001637
  12      -0.001364       0.000495      -0.002987
  13      -0.002566       0.001738      -0.001523
  14       0.006279       0.003413       0.005744
  15       0.001332       0.002261       0.001734
  16      -0.004502      -0.003833      -0.004321
  17      -0.001698      -0.006550       0.005039
  18       0.000107       0.006038      -0.004730
  19      -0.000779      -0.001092       0.004364
  20      -0.002503       0.003554      -0.001872
---------------------------------------------------
 Number of fixed atoms: 0
 Gradient time:  CPU 492.82 s  wall 69.51 s
 Geometry Optimization Parameters
   NAtoms,    NIC,     NZ,  NCons,   NDum,   NFix, NCnnct, MaxDiis
       20     158       0       0       0       0       0       0


** GEOMETRY OPTIMIZATION IN DELOCALIZED INTERNAL COORDINATES **
   Searching for a Minimum

   Optimization Cycle:   1

                       Coordinates (Angstroms)
     ATOM                X               Y               Z
      1  C        -0.0592894992   -0.3087826268    0.7919887219
      2  C        -0.9733114544   -1.0565256932    1.7585615009
      3  C        -1.7113872061   -2.1656500911    1.0703336392
      4  C        -2.1589328942   -1.9410420258   -0.2234215546
      5  C        -1.8993346091   -0.7288316247   -0.8465811015
      6  C        -1.1670591618    0.3262212182   -0.0640429376
      7  C        -0.6484034230    1.4821132380   -0.9090500645
      8  H         0.4786716005    0.4840291284    1.3282227170
      9  H        -0.4877456040   -1.3606398447    2.6874943883
     10  H        -1.9104266036   -3.0932614368    1.5953003351
     11  H        -2.7142800242   -2.7138111856   -0.7490174525
     12  H        -2.2503900053   -0.5093080142   -1.8511981557
     13  H        -1.4529380834    1.9309116242   -1.5023459638
     14  O         0.4090826330    1.0122082569   -1.7464131231
     15  H        -0.2219482243    2.2443754772   -0.2527881277
     16  H         0.0054913117    0.4982403692   -2.4659922724
     17  O         0.8178522312   -1.1526297906    0.0849940154
     18  H         1.1085233085   -0.6164334407   -0.6778041568
     19  O        -1.8850940355    0.0023021723    2.1403706808
     20  O        -2.0393666568    0.8672261898    0.9529949113
   Point Group: c1    Number of degrees of freedom:    54


   Energy is   -572.906525733


 Attempting to generate delocalized internal coordinates
 Initial Hessian constructed with Jon Baker's OPTIMIZE code

 54 Hessian modes will be used to form the next step
  Hessian Eigenvalues:
     0.006154    0.010298    0.011891    0.013995    0.014642    0.015241
     0.018503    0.019152    0.024074    0.032478    0.040212    0.046257
     0.052635    0.053964    0.057790    0.059996    0.073012    0.077528
     0.083481    0.097114    0.104325    0.110747    0.112723    0.137026
     0.152688    0.159720    0.159860    0.160000    0.160000    0.160000
     0.190637    0.212795    0.220387    0.248469    0.267272    0.300920
     0.301867    0.322082    0.324597    0.339096    0.341551    0.345237
     0.346502    0.351101    0.351474    0.352093    0.354818    0.383987
     0.412232    0.432687    0.443862    0.467935    0.520397    0.529642

 Minimum search - taking simple RFO step
 Searching for Lamda that Minimizes Along All modes
 Value Taken    Lamda =  -0.00127184
 Step Taken.  Stepsize is  0.121427

                             Maximum     Tolerance    Cnvgd?
         Gradient           0.006396      0.000300      NO
         Displacement       0.045736      0.001200      NO
         Energy change     *********      0.000001      NO


 New Cartesian Coordinates Obtained by Inverse Iteration

 Displacement from previous Coordinates is:  0.260518
 ----------------------------------------------------------------
             Standard Nuclear Orientation (Angstroms)
    I     Atom           X                Y                Z
 ----------------------------------------------------------------
    1      C      -0.0584736091    -0.3134599202     0.7988741421
    2      C      -0.9784430088    -1.0551855972     1.7582053922
    3      C      -1.7157746188    -2.1582694818     1.0692628483
    4      C      -2.1549473717    -1.9368670070    -0.2218254334
    5      C      -1.8924985484    -0.7317871218    -0.8444019206
    6      C      -1.1581415745     0.3197557414    -0.0675673066
    7      C      -0.6552769899     1.4817371911    -0.9092231926
    8      H       0.4740249266     0.4752223627     1.3345276058
    9      H      -0.5004934208    -1.3586652846     2.6855704591
   10      H      -1.9172537302    -3.0805060043     1.5925280283
   11      H      -2.7082506641    -2.7055944347    -0.7449821518
   12      H      -2.2356272106    -0.5147425220    -1.8469622146
   13      H      -1.4695475980     1.9341236956    -1.4761873669
   14      O       0.3775010421     1.0303993995    -1.7854128993
   15      H      -0.2178667524     2.2324469095    -0.2548162290
   16      H      -0.0270110388     0.5448002721    -2.5145878704
   17      O       0.8315216636    -1.1662886831     0.1171982401
   18      H       1.1622049231    -0.6645751047    -0.6436393391
   19      O      -1.8863198911     0.0055807382     2.1304484526
   20      O      -2.0296129283     0.8625867513     0.9445967553
 ----------------------------------------------------------------
 Nuclear Repulsion Energy =         681.24274620 hartrees
 There are       42 alpha and       41 beta electrons
 Discretize the solute cavity surface with Lebedev spheres
	Using 110 Lebedev grid points for each H atom
	Using 194 Lebedev grid points for other atoms
	Atomic van der Waals radii will be scaled by 1.20
 Remove points where switching function is < 1.0e-08
 Keep 1425 surface tesserae and discard 1699 interior tesserae
 Molecular Surface Area = 161.043 Angst**2
 Applying Cartesian multipole field
    Component          Value
    ---------          -----
     (2,0,0)        1.00000E-11
     (0,2,0)        2.00000E-11
     (0,0,2)       -3.00000E-11
 Nucleus-field energy     =     0.0000000011 hartrees
 Requested basis set is 6-311++G(2df,2p)
 There are 142 shells and 464 basis functions
 A cutoff of  1.0D-12 yielded   9273 shell pairs
 There are    100403 function pairs (    125624 Cartesian)
 Smallest overlap matrix eigenvalue = 1.98E-06
 Guess MOs from SCF MO coefficient file

 -----------------------------------------------------------------------
  General SCF calculation program by
  Eric Jon Sundstrom, Paul Horn, Yuezhi Mao, Dmitri Zuev, Alec White,
  David Stuck, Shaama M.S., Shane Yost, Joonho Lee, David Small,
  Daniel Levine, Susi Lehtola, Hugh Burton, Evgeny Epifanovsky,
  Bang C. Huynh
 -----------------------------------------------------------------------
 Exchange:     0.1500 Hartree-Fock + 1.0000 wB97M-V + LR-HF
 Correlation:  1.0000 wB97M-V
 Using SG-2 standard quadrature grid
 Nonlocal Correlation:  VV10 with C = 0.0100 and b = 6.00 and scale = 1.00000
 Grid used for NLC:  SG-1 standard quadrature
 
 Citation of the SMD model:
 Marenich, A.V.; Cramer, C.J.; Truhlar, D.G.
 J. Phys. Chem. B 2009, 113, 6378-6396.
 iSolventCode=           1
 Solvent: water                                                           
 
 vradii
            1           2           3           4           5           6
    1   1.8500000   1.8500000   1.8500000   1.8500000   1.8500000   1.8500000
            7           8           9          10          11          12
    1   1.8500000   1.2000000   1.2000000   1.2000000   1.2000000   1.2000000
           13          14          15          16          17          18
    1   1.2000000   1.5200000   1.2000000   1.2000000   1.5200000   1.2000000
           19          20
    1   1.5200000   1.5200000
 -------------------------------------------------------
 OpenMP BLAS3 based DFT computing Module                
 Release: version 1.0, May 2013, Q-Chem Inc. Pittsburgh 
 -------------------------------------------------------
 A unrestricted SCF calculation will be
 performed using Roothaan-Hall, DIIS, GDM
 SCF converges when RMS gradient is below 1.0e-07
 ---------------------------------------
  Cycle       Energy         DIIS error
 ---------------------------------------
    1    -572.8756438711      2.03e-04  Roothaan Step
 ---------------------------------------
  Cycle       Energy         DIIS error
 ---------------------------------------
    1    -572.9053995079      1.98e-04  
    2    -572.9099750796      1.52e-04  Done DIIS. Switching to GDM
 ---------------------------------------
  Cycle       Energy        RMS Gradient
 ---------------------------------------
    1    -572.9099750796      4.98e-03   Normal BFGS step
    2    -572.9102645466      7.94e-03   Normal BFGS step
    3    -572.9118798377      6.08e-04   Normal BFGS step
    4    -572.9118950671      3.95e-04   Normal BFGS step
    5    -572.9119027665      1.67e-04   Normal BFGS step
    6    -572.9119030048      1.24e-04   Normal BFGS step
    7    -572.9119034642      5.69e-05   Normal BFGS step
    8    -572.9119034931      4.85e-05   Normal BFGS step
    9    -572.9119035036      7.63e-06   Normal BFGS step
   10    -572.9119035047      6.00e-06   Normal BFGS step
   11    -572.9119035050      3.61e-06   Normal BFGS step
   12    -572.9119035052      2.33e-06   Normal BFGS step
   13    -572.9119035052      5.95e-07   Normal BFGS step
   14    -572.9119035053      2.76e-07   Normal BFGS step
   15    -572.9119035053      1.13e-07   Normal BFGS step
  GDM::WARNING energy changes are now smaller than effective accuracy.
  GDM::        calculation will continue, but THRESH should be increased
  GDM::        or SCF_CONVERGENCE decreased. 
  GDM::        effective_thresh = 4.55e-09
   16    -572.9119035052      6.10e-08  Convergence criterion met
 ---------------------------------------
 SCF time:   CPU 2845.63s  wall 361.00s 
<S^2> =          0.780557412
(3)  G-ENP(liq) elect-nuc-pol free energy of system     -572.911903505 a.u.
(4)  G-CDS(liq) cavity-dispersion-solvent structure 
     free energy                                                2.9818 kcal/mol
(6)  G-S(liq) free energy of system                     -572.907151758 a.u.
 SCF   energy in the final basis set =     -572.9071517584
 Total energy in the final basis set =     -572.9071517584
 
 --------------------------------------------------------------
 
                    Orbital Energies (a.u.)
 --------------------------------------------------------------
 
 Alpha MOs
 -- Occupied --
-19.4037 -19.4032 -19.3483 -19.3452 -10.4132 -10.4067 -10.4054 -10.3940
-10.3556 -10.3548 -10.3500  -1.2699  -1.1734  -1.1608  -1.0696  -0.9755
 -0.8888  -0.8560  -0.8088  -0.7506  -0.7105  -0.6817  -0.6583  -0.6322
 -0.6078  -0.5867  -0.5782  -0.5642  -0.5541  -0.5341  -0.5221  -0.5176
 -0.4935  -0.4809  -0.4609  -0.4531  -0.4348  -0.4229  -0.3957  -0.3908
 -0.3665  -0.2854
 -- Virtual --
  0.0244   0.0348   0.0366   0.0451   0.0550   0.0555   0.0676   0.0734
  0.0808   0.0847   0.0893   0.0934   0.1079   0.1244   0.1303   0.1359
  0.1368   0.1448   0.1470   0.1488   0.1566   0.1576   0.1607   0.1701
  0.1751   0.1771   0.1844   0.1886   0.1918   0.2021   0.2047   0.2138
  0.2167   0.2200   0.2238   0.2274   0.2392   0.2535   0.2575   0.2720
  0.2792   0.2865   0.2901   0.2939   0.3027   0.3132   0.3172   0.3225
  0.3312   0.3355   0.3455   0.3473   0.3537   0.3545   0.3628   0.3680
  0.3748   0.3776   0.3846   0.3902   0.4001   0.4017   0.4103   0.4185
  0.4201   0.4281   0.4373   0.4553   0.4700   0.4713   0.4819   0.4985
  0.5076   0.5140   0.5296   0.5433   0.5639   0.5832   0.5900   0.6034
  0.6084   0.6243   0.6250   0.6400   0.6518   0.6558   0.6614   0.6688
  0.6768   0.6922   0.6944   0.7071   0.7155   0.7221   0.7324   0.7366
  0.7444   0.7486   0.7655   0.7814   0.7912   0.7959   0.8098   0.8176
  0.8369   0.8547   0.8576   0.8711   0.8794   0.8872   0.8951   0.9111
  0.9395   0.9655   0.9663   1.0153   1.0257   1.0339   1.0469   1.0544
  1.0868   1.0892   1.0959   1.1021   1.1184   1.1374   1.1488   1.1602
  1.1657   1.1716   1.1756   1.1960   1.2141   1.2198   1.2216   1.2418
  1.2583   1.2634   1.2755   1.2765   1.2925   1.2958   1.3069   1.3254
  1.3370   1.3425   1.3459   1.3600   1.3660   1.3723   1.3849   1.3918
  1.4100   1.4149   1.4221   1.4419   1.4490   1.4642   1.4764   1.4929
  1.5015   1.5093   1.5329   1.5412   1.5457   1.5622   1.5771   1.5799
  1.5877   1.6138   1.6226   1.6360   1.6523   1.6568   1.6804   1.6923
  1.7155   1.7496   1.7615   1.7954   1.8036   1.8194   1.8460   1.8663
  1.8799   1.8929   1.9526   1.9612   1.9838   2.0034   2.0230   2.0448
  2.0652   2.0793   2.1233   2.1395   2.1705   2.1906   2.2163   2.2679
  2.2997   2.3170   2.3377   2.3819   2.3966   2.4223   2.4656   2.5141
  2.5267   2.6273   2.6664   2.6889   2.7170   2.7275   2.7614   2.7666
  2.7805   2.8099   2.8242   2.8396   2.8527   2.8614   2.8753   2.8782
  2.9086   2.9254   2.9357   2.9492   2.9526   2.9638   2.9970   3.0030
  3.0161   3.0285   3.0448   3.0772   3.0961   3.1186   3.1368   3.1560
  3.1804   3.1895   3.2215   3.2336   3.2600   3.2682   3.2932   3.3058
  3.3386   3.3436   3.3668   3.3747   3.3901   3.4183   3.4340   3.4355
  3.4514   3.4578   3.4861   3.5047   3.5159   3.5396   3.5558   3.5708
  3.5886   3.5991   3.6212   3.6371   3.6455   3.6637   3.6748   3.6806
  3.7062   3.7320   3.7401   3.7583   3.7686   3.7827   3.7927   3.8110
  3.8245   3.8293   3.8402   3.8596   3.8822   3.8910   3.9008   3.9051
  3.9300   3.9440   3.9632   3.9639   3.9727   3.9997   4.0156   4.0389
  4.0595   4.0800   4.1051   4.1150   4.1341   4.1590   4.1780   4.2027
  4.2480   4.2604   4.2723   4.2832   4.3103   4.3272   4.3313   4.3527
  4.3604   4.3788   4.4098   4.4187   4.4245   4.4579   4.4813   4.4938
  4.4955   4.5111   4.5406   4.5720   4.5835   4.5978   4.6294   4.6329
  4.6581   4.6700   4.6771   4.7018   4.7418   4.7444   4.7797   4.7877
  4.8287   4.8755   4.9731   4.9915   5.0553   5.1421   5.1601   5.1893
  5.2463   5.2539   5.2750   5.3001   5.3087   5.3146   5.3325   5.3422
  5.3517   5.3895   5.4077   5.4259   5.4483   5.4698   5.5010   5.5257
  5.5412   5.5622   5.6014   5.6084   5.6233   5.6343   5.6692   5.6854
  5.6969   5.7346   5.7538   5.7724   5.7908   5.7985   5.8724   5.9061
  5.9529   5.9821   6.0308   6.0443   6.0524   6.0956   6.1364   6.2537
  6.5928   6.6016   6.6629   6.7434   6.7529   7.0416   7.1089   7.1355
  7.2863   7.3050   7.3289   7.3436   7.3762   7.4026   7.4258   7.4526
  7.4578   7.4915   7.5428   7.6390   7.6572   7.7098   7.7919   7.8511
  7.9060   7.9677   8.2633  24.3795  24.7198  24.7456  24.7882  24.8405
 24.9378  25.2236  50.5987  50.6223  50.6764  50.6905
 
 Beta MOs
 -- Occupied --
-19.4024 -19.4018 -19.3482 -19.3453 -10.4137 -10.4073 -10.4048 -10.3940
-10.3531 -10.3473 -10.3466  -1.2673  -1.1731  -1.1605  -1.0665  -0.9685
 -0.8862  -0.8469  -0.8007  -0.7481  -0.7048  -0.6795  -0.6554  -0.6285
 -0.6064  -0.5806  -0.5752  -0.5608  -0.5503  -0.5310  -0.5197  -0.5144
 -0.4917  -0.4766  -0.4586  -0.4484  -0.4318  -0.3964  -0.3903  -0.3881
 -0.3601
 -- Virtual --
 -0.0197   0.0239   0.0343   0.0364   0.0446   0.0547   0.0552   0.0708
  0.0783   0.0806   0.0857   0.0898   0.0999   0.1089   0.1247   0.1299
  0.1365   0.1367   0.1463   0.1476   0.1482   0.1561   0.1574   0.1609
  0.1702   0.1751   0.1772   0.1861   0.1907   0.1928   0.2019   0.2046
  0.2129   0.2166   0.2203   0.2237   0.2272   0.2384   0.2555   0.2596
  0.2727   0.2791   0.2870   0.2912   0.2960   0.3048   0.3134   0.3183
  0.3262   0.3318   0.3379   0.3469   0.3494   0.3553   0.3555   0.3660
  0.3708   0.3753   0.3785   0.3858   0.3912   0.4005   0.4031   0.4102
  0.4199   0.4210   0.4282   0.4378   0.4558   0.4715   0.4726   0.4838
  0.5009   0.5077   0.5157   0.5326   0.5453   0.5663   0.5861   0.5931
  0.6097   0.6134   0.6245   0.6296   0.6441   0.6538   0.6572   0.6652
  0.6703   0.6809   0.6944   0.6960   0.7109   0.7178   0.7241   0.7350
  0.7377   0.7477   0.7515   0.7699   0.7850   0.7953   0.8021   0.8147
  0.8210   0.8403   0.8571   0.8619   0.8725   0.8847   0.8917   0.8980
  0.9135   0.9417   0.9672   0.9684   1.0167   1.0267   1.0352   1.0481
  1.0551   1.0886   1.0920   1.0966   1.1032   1.1197   1.1383   1.1495
  1.1630   1.1699   1.1725   1.1788   1.1978   1.2155   1.2215   1.2239
  1.2455   1.2596   1.2662   1.2776   1.2784   1.2934   1.2974   1.3084
  1.3279   1.3382   1.3440   1.3468   1.3622   1.3676   1.3739   1.3879
  1.3946   1.4128   1.4174   1.4245   1.4448   1.4531   1.4680   1.4785
  1.4979   1.5038   1.5118   1.5370   1.5440   1.5488   1.5654   1.5804
  1.5832   1.5895   1.6186   1.6248   1.6399   1.6580   1.6590   1.6828
  1.6962   1.7185   1.7538   1.7638   1.7977   1.8081   1.8229   1.8507
  1.8713   1.8816   1.8950   1.9568   1.9640   1.9898   2.0086   2.0263
  2.0474   2.0678   2.0807   2.1289   2.1417   2.1730   2.1919   2.2193
  2.2703   2.3019   2.3181   2.3401   2.3831   2.3991   2.4235   2.4676
  2.5163   2.5298   2.6337   2.6777   2.6940   2.7209   2.7305   2.7664
  2.7736   2.7957   2.8174   2.8370   2.8464   2.8645   2.8729   2.8845
  2.8912   2.9197   2.9329   2.9522   2.9609   2.9675   2.9824   3.0061
  3.0179   3.0288   3.0446   3.0605   3.0862   3.1083   3.1234   3.1535
  3.1666   3.1889   3.2019   3.2298   3.2406   3.2645   3.2765   3.3014
  3.3152   3.3491   3.3537   3.3758   3.3895   3.3998   3.4303   3.4441
  3.4442   3.4579   3.4716   3.4961   3.5086   3.5172   3.5557   3.5606
  3.5845   3.5977   3.6112   3.6310   3.6404   3.6567   3.6684   3.6894
  3.6918   3.7172   3.7346   3.7531   3.7671   3.7727   3.7904   3.8029
  3.8240   3.8348   3.8426   3.8466   3.8659   3.8877   3.8981   3.9069
  3.9096   3.9379   3.9493   3.9697   3.9702   3.9792   4.0060   4.0271
  4.0482   4.0656   4.0888   4.1127   4.1194   4.1421   4.1652   4.1835
  4.2081   4.2521   4.2657   4.2772   4.2863   4.3200   4.3357   4.3398
  4.3634   4.3662   4.3897   4.4144   4.4244   4.4281   4.4642   4.4886
  4.5021   4.5051   4.5167   4.5474   4.5783   4.5879   4.6083   4.6354
  4.6496   4.6699   4.6817   4.6921   4.7080   4.7467   4.7526   4.7856
  4.7948   4.8367   4.8858   4.9828   4.9996   5.0643   5.1558   5.1720
  5.1987   5.2561   5.2586   5.2782   5.3018   5.3103   5.3163   5.3374
  5.3444   5.3528   5.3910   5.4103   5.4299   5.4518   5.4739   5.5043
  5.5298   5.5424   5.5722   5.6063   5.6180   5.6318   5.6414   5.6708
  5.6929   5.6985   5.7356   5.7599   5.7745   5.7938   5.8029   5.8741
  5.9121   5.9554   5.9851   6.0344   6.0481   6.0661   6.1010   6.1510
  6.2558   6.5949   6.6036   6.6650   6.7453   6.7537   7.0450   7.1094
  7.1358   7.2869   7.3072   7.3305   7.3457   7.3768   7.4048   7.4272
  7.4540   7.4598   7.4949   7.5452   7.6427   7.6585   7.7099   7.7923
  7.8519   7.9086   7.9705   8.2649  24.3824  24.7202  24.7491  24.7893
 24.8408  24.9404  25.2266  50.5996  50.6226  50.6764  50.6915
 --------------------------------------------------------------
 
          Ground-State Mulliken Net Atomic Charges

     Atom                 Charge (a.u.)    Spin (a.u.)
  --------------------------------------------------------
      1 C                    -0.141225       0.031036
      2 C                    -0.019748      -0.021976
      3 C                    -0.478515       0.562281
      4 C                    -0.237206      -0.152370
      5 C                    -0.340147       0.591231
      6 C                    -0.043191      -0.061942
      7 C                    -0.380677       0.006957
      8 H                     0.317223      -0.002608
      9 H                     0.287030       0.005413
     10 H                     0.316533      -0.014096
     11 H                     0.299423       0.007627
     12 H                     0.323588      -0.013311
     13 H                     0.252467      -0.000207
     14 O                    -0.386342       0.002334
     15 H                     0.237267      -0.000278
     16 H                     0.330455      -0.000611
     17 O                    -0.418893       0.000416
     18 H                     0.338200       0.001723
     19 O                    -0.130028       0.029635
     20 O                    -0.126213       0.028744
  --------------------------------------------------------
  Sum of atomic charges =    -0.000000
  Sum of spin   charges =     1.000000

 -----------------------------------------------------------------
                    Cartesian Multipole Moments
 -----------------------------------------------------------------
    Charge (ESU x 10^10)
                -0.0000
    Dipole Moment (Debye)
         X       0.2895      Y      -0.8018      Z      -3.4447
       Tot       3.5486
    Quadrupole Moments (Debye-Ang)
        XX     -72.8980     XY       5.9028     YY     -63.4915
        XZ      10.6697     YZ      -3.3523     ZZ     -58.6859
    Octopole Moments (Debye-Ang^2)
       XXX     218.9408    XXY       9.3389    XYY      47.7917
       YYY      57.4198    XXZ     -39.6233    XYZ      11.5649
       YYZ      -7.6414    XZZ      67.1166    YZZ       5.7505
       ZZZ     -64.4978
    Hexadecapole Moments (Debye-Ang^3)
      XXXX    -951.7931   XXXY    -100.1483   XXYY    -237.0162
      XYYY     -79.5843   YYYY    -644.9347   XXXZ     169.1078
      XXYZ      38.4583   XYYZ      42.1625   YYYZ      94.0904
      XXZZ    -273.8054   XYZZ     -35.7855   YYZZ    -209.2452
      XZZZ     159.4894   YZZZ      85.2255   ZZZZ    -589.6370
 -----------------------------------------------------------------
 Calculating analytic gradient of the SCF energy
 Gradient of CDS energy
            1           2           3           4           5           6
    1   0.0014893   0.0000673  -0.0000677  -0.0002130  -0.0002069   0.0000531
    2  -0.0012619   0.0002012  -0.0003827  -0.0002692   0.0001576   0.0000673
    3  -0.0009443   0.0002623   0.0002828  -0.0002275  -0.0002326   0.0001572
            7           8           9          10          11          12
    1   0.0001644  -0.0000381   0.0000587  -0.0000363  -0.0001070  -0.0000352
    2   0.0009842   0.0002070  -0.0000234  -0.0001664  -0.0001486   0.0000774
    3  -0.0003116   0.0001053   0.0002090   0.0000944  -0.0001011  -0.0001141
           13          14          15          16          17          18
    1  -0.0002514  -0.0001814   0.0001245   0.0001695  -0.0014729   0.0004248
    2  -0.0002349  -0.0001822  -0.0001309   0.0000140   0.0012019  -0.0001143
    3  -0.0000725   0.0002646   0.0002758  -0.0004999   0.0010349  -0.0001816
           19          20
    1   0.0000121   0.0000463
    2   0.0000896  -0.0000858
    3  -0.0000817   0.0000808
 Gradient of SCF Energy
            1           2           3           4           5           6
    1   0.0016370  -0.0069035   0.0045755   0.0040726   0.0032995  -0.0057777
    2  -0.0061459   0.0040828   0.0027041   0.0052885  -0.0036323   0.0043218
    3  -0.0050185  -0.0005050  -0.0060252   0.0079619   0.0061114   0.0042751
            7           8           9          10          11          12
    1   0.0057442   0.0029671   0.0018549  -0.0008514  -0.0032227  -0.0030030
    2  -0.0129003   0.0037657  -0.0018614  -0.0043937  -0.0045292   0.0029030
    3   0.0037305   0.0019904   0.0043687   0.0023834  -0.0035035  -0.0127049
           13          14          15          16          17          18
    1  -0.0062507   0.0092628   0.0016030  -0.0091172   0.0000818   0.0020140
    2   0.0031220   0.0149578   0.0044771  -0.0107774  -0.0096500   0.0056759
    3  -0.0069403   0.0119059   0.0038989  -0.0133313   0.0068282  -0.0077202
           19          20
    1  -0.0005650  -0.0014212
    2   0.0006447   0.0019468
    3   0.0032241  -0.0009297
 Max gradient component =       1.496E-02
 RMS gradient           =       6.007E-03
 Computing fast CPCM-SWIG gradient
 Updating gradient with PCM contributions...
 -- total gradient after adding PCM contribution --
---------------------------------------------------
  Atom         X              Y              Z     
---------------------------------------------------
   1      -0.000009      -0.000437       0.000284
   2       0.000002       0.000311      -0.000304
   3       0.000066       0.000194      -0.000183
   4       0.000003       0.000047       0.000198
   5      -0.000119       0.000140       0.000130
   6      -0.001084       0.000338       0.000935
   7      -0.000375       0.000395       0.000957
   8      -0.000046      -0.000013       0.000337
   9      -0.000220       0.000124       0.000150
  10      -0.000078       0.000101      -0.000135
  11       0.000111       0.000084       0.000026
  12      -0.000156      -0.000098       0.000111
  13       0.000506       0.000084      -0.000448
  14       0.000731       0.000496      -0.000678
  15      -0.000331       0.000081       0.000165
  16      -0.000291      -0.000636      -0.000816
  17       0.000465      -0.001776       0.001491
  18       0.000558       0.001223      -0.001697
  19       0.000306      -0.001042       0.001365
  20      -0.000038       0.000383      -0.001889
---------------------------------------------------
 Number of fixed atoms: 0
 Gradient time:  CPU 490.61 s  wall 69.19 s
 Geometry Optimization Parameters
   NAtoms,    NIC,     NZ,  NCons,   NDum,   NFix, NCnnct, MaxDiis
       20     158       0       0       0       0       0       0

 Cartesian Hessian Update
 Hessian updated using BFGS update


** GEOMETRY OPTIMIZATION IN DELOCALIZED INTERNAL COORDINATES **
   Searching for a Minimum

   Optimization Cycle:   2

                       Coordinates (Angstroms)
     ATOM                X               Y               Z
      1  C        -0.0584736091   -0.3134599202    0.7988741421
      2  C        -0.9784430088   -1.0551855972    1.7582053922
      3  C        -1.7157746188   -2.1582694818    1.0692628483
      4  C        -2.1549473717   -1.9368670070   -0.2218254334
      5  C        -1.8924985484   -0.7317871218   -0.8444019206
      6  C        -1.1581415745    0.3197557414   -0.0675673066
      7  C        -0.6552769899    1.4817371911   -0.9092231926
      8  H         0.4740249266    0.4752223627    1.3345276058
      9  H        -0.5004934208   -1.3586652846    2.6855704591
     10  H        -1.9172537302   -3.0805060043    1.5925280283
     11  H        -2.7082506641   -2.7055944347   -0.7449821518
     12  H        -2.2356272106   -0.5147425220   -1.8469622146
     13  H        -1.4695475980    1.9341236956   -1.4761873669
     14  O         0.3775010421    1.0303993995   -1.7854128993
     15  H        -0.2178667524    2.2324469095   -0.2548162290
     16  H        -0.0270110388    0.5448002721   -2.5145878704
     17  O         0.8315216636   -1.1662886831    0.1171982401
     18  H         1.1622049231   -0.6645751047   -0.6436393391
     19  O        -1.8863198911    0.0055807382    2.1304484526
     20  O        -2.0296129283    0.8625867513    0.9445967553
   Point Group: c1    Number of degrees of freedom:    54


   Energy is   -572.907151758

 Hessian updated using BFGS update

 53 Hessian modes will be used to form the next step
  Hessian Eigenvalues:
     0.006271    0.010296    0.011849    0.013957    0.014597    0.015237
     0.018536    0.019303    0.024071    0.032626    0.039838    0.046345
     0.052865    0.054560    0.057900    0.060230    0.073272    0.077667
     0.083484    0.097432    0.104785    0.110815    0.112744    0.136866
     0.151766    0.156890    0.159743    0.159885    0.161818    0.190567
     0.212876    0.223876    0.249269    0.268815    0.295517    0.301898
     0.312226    0.324216    0.339002    0.342234    0.345339    0.346669
     0.351002    0.351790    0.353004    0.356053    0.388168    0.410462
     0.434028    0.453607    0.467922    0.497870    0.528469

 Minimum search - taking simple RFO step
 Searching for Lamda that Minimizes Along All modes
 Value Taken    Lamda =  -0.00007357
 Step Taken.  Stepsize is  0.032991

                             Maximum     Tolerance    Cnvgd?
         Gradient           0.002123      0.000300      NO
         Displacement       0.010435      0.001200      NO
         Energy change     -0.000626      0.000001      NO


 New Cartesian Coordinates Obtained by Inverse Iteration

 Displacement from previous Coordinates is:  0.048540
 ----------------------------------------------------------------
             Standard Nuclear Orientation (Angstroms)
    I     Atom           X                Y                Z
 ----------------------------------------------------------------
    1      C      -0.0606540085    -0.3119726712     0.7958873912
    2      C      -0.9785638638    -1.0531673443     1.7575329948
    3      C      -1.7160939024    -2.1571524155     1.0701770039
    4      C      -2.1542422818    -1.9373919315    -0.2216766130
    5      C      -1.8920328532    -0.7326481860    -0.8450227098
    6      C      -1.1594890072     0.3201865134    -0.0682582001
    7      C      -0.6570719961     1.4817603750    -0.9077308388
    8      H       0.4758629341     0.4765427823     1.3266160612
    9      H      -0.4972346107    -1.3567030787     2.6827973140
   10      H      -1.9150995432    -3.0793339667     1.5943092272
   11      H      -2.7063388772    -2.7070503204    -0.7445274956
   12      H      -2.2312218550    -0.5167745813    -1.8489827731
   13      H      -1.4725351643     1.9321370443    -1.4743164216
   14      O       0.3805627886     1.0299393231    -1.7751098728
   15      H      -0.2205319395     2.2322588878    -0.2530253538
   16      H      -0.0190410587     0.5472439832    -2.5069457412
   17      O       0.8225363123    -1.1679369422     0.1118740902
   18      H       1.1560526411    -0.6713321118    -0.6477222137
   19      O      -1.8862215432     0.0080038753     2.1295174453
   20      O      -2.0289285713     0.8641026650     0.9462127053
 ----------------------------------------------------------------
 Nuclear Repulsion Energy =         681.78504689 hartrees
 There are       42 alpha and       41 beta electrons
 Discretize the solute cavity surface with Lebedev spheres
	Using 110 Lebedev grid points for each H atom
	Using 194 Lebedev grid points for other atoms
	Atomic van der Waals radii will be scaled by 1.20
 Remove points where switching function is < 1.0e-08
 Keep 1418 surface tesserae and discard 1706 interior tesserae
 Molecular Surface Area = 160.869 Angst**2
 Applying Cartesian multipole field
    Component          Value
    ---------          -----
     (2,0,0)        1.00000E-11
     (0,2,0)        2.00000E-11
     (0,0,2)       -3.00000E-11
 Nucleus-field energy     =     0.0000000012 hartrees
 Requested basis set is 6-311++G(2df,2p)
 There are 142 shells and 464 basis functions
 A cutoff of  1.0D-12 yielded   9275 shell pairs
 There are    100437 function pairs (    125667 Cartesian)
 Smallest overlap matrix eigenvalue = 1.98E-06
 Guess MOs from SCF MO coefficient file

 -----------------------------------------------------------------------
  General SCF calculation program by
  Eric Jon Sundstrom, Paul Horn, Yuezhi Mao, Dmitri Zuev, Alec White,
  David Stuck, Shaama M.S., Shane Yost, Joonho Lee, David Small,
  Daniel Levine, Susi Lehtola, Hugh Burton, Evgeny Epifanovsky,
  Bang C. Huynh
 -----------------------------------------------------------------------
 Exchange:     0.1500 Hartree-Fock + 1.0000 wB97M-V + LR-HF
 Correlation:  1.0000 wB97M-V
 Using SG-2 standard quadrature grid
 Nonlocal Correlation:  VV10 with C = 0.0100 and b = 6.00 and scale = 1.00000
 Grid used for NLC:  SG-1 standard quadrature
 
 Citation of the SMD model:
 Marenich, A.V.; Cramer, C.J.; Truhlar, D.G.
 J. Phys. Chem. B 2009, 113, 6378-6396.
 iSolventCode=           1
 Solvent: water                                                           
 
 vradii
            1           2           3           4           5           6
    1   1.8500000   1.8500000   1.8500000   1.8500000   1.8500000   1.8500000
            7           8           9          10          11          12
    1   1.8500000   1.2000000   1.2000000   1.2000000   1.2000000   1.2000000
           13          14          15          16          17          18
    1   1.2000000   1.5200000   1.2000000   1.2000000   1.5200000   1.2000000
           19          20
    1   1.5200000   1.5200000
 -------------------------------------------------------
 OpenMP BLAS3 based DFT computing Module                
 Release: version 1.0, May 2013, Q-Chem Inc. Pittsburgh 
 -------------------------------------------------------
 A unrestricted SCF calculation will be
 performed using Roothaan-Hall, DIIS, GDM
 SCF converges when RMS gradient is below 1.0e-07
 ---------------------------------------
  Cycle       Energy         DIIS error
 ---------------------------------------
    1    -572.8769206532      1.78e-04  Roothaan Step
 ---------------------------------------
  Cycle       Energy         DIIS error
 ---------------------------------------
    1    -572.9054953875      1.98e-04  
    2    -572.9100442730      1.51e-04  Done DIIS. Switching to GDM
 ---------------------------------------
  Cycle       Energy        RMS Gradient
 ---------------------------------------
    1    -572.9100442730      4.60e-03   Normal BFGS step
    2    -572.9103570251      8.02e-03   Normal BFGS step
    3    -572.9119159223      6.41e-04   Normal BFGS step
    4    -572.9119305964      4.21e-04   Normal BFGS step
    5    -572.9119387974      2.24e-04   Normal BFGS step
    6    -572.9119390519      1.31e-04   Normal BFGS step
    7    -572.9119395274      6.78e-05   Normal BFGS step
    8    -572.9119395601      5.39e-05   Normal BFGS step
    9    -572.9119395723      1.03e-05   Normal BFGS step
   10    -572.9119395738      7.70e-06   Normal BFGS step
   11    -572.9119395743      4.47e-06   Normal BFGS step
   12    -572.9119395745      2.38e-06   Normal BFGS step
   13    -572.9119395746      8.20e-07   Normal BFGS step
   14    -572.9119395746      2.65e-07   Normal BFGS step
   15    -572.9119395746      1.43e-07   Normal BFGS step
  GDM::WARNING energy changes are now smaller than effective accuracy.
  GDM::        calculation will continue, but THRESH should be increased
  GDM::        or SCF_CONVERGENCE decreased. 
  GDM::        effective_thresh = 3.51e-09
   16    -572.9119395745      7.99e-08  Convergence criterion met
 ---------------------------------------
 SCF time:   CPU 2859.11s  wall 363.00s 
<S^2> =          0.780581573
(3)  G-ENP(liq) elect-nuc-pol free energy of system     -572.911939574 a.u.
(4)  G-CDS(liq) cavity-dispersion-solvent structure 
     free energy                                                2.9839 kcal/mol
(6)  G-S(liq) free energy of system                     -572.907184470 a.u.
 SCF   energy in the final basis set =     -572.9071844697
 Total energy in the final basis set =     -572.9071844697
 
 --------------------------------------------------------------
 
                    Orbital Energies (a.u.)
 --------------------------------------------------------------
 
 Alpha MOs
 -- Occupied --
-19.4035 -19.4029 -19.3482 -19.3446 -10.4127 -10.4066 -10.4049 -10.3937
-10.3555 -10.3548 -10.3500  -1.2706  -1.1742  -1.1614  -1.0690  -0.9757
 -0.8891  -0.8560  -0.8090  -0.7508  -0.7106  -0.6822  -0.6585  -0.6328
 -0.6083  -0.5868  -0.5783  -0.5642  -0.5543  -0.5341  -0.5222  -0.5177
 -0.4935  -0.4806  -0.4611  -0.4530  -0.4350  -0.4227  -0.3956  -0.3907
 -0.3661  -0.2854
 -- Virtual --
  0.0244   0.0348   0.0366   0.0451   0.0550   0.0555   0.0679   0.0734
  0.0808   0.0851   0.0895   0.0935   0.1081   0.1244   0.1304   0.1360
  0.1370   0.1448   0.1470   0.1489   0.1567   0.1576   0.1607   0.1700
  0.1752   0.1771   0.1846   0.1887   0.1919   0.2021   0.2048   0.2139
  0.2167   0.2202   0.2240   0.2275   0.2390   0.2536   0.2575   0.2724
  0.2793   0.2866   0.2900   0.2941   0.3030   0.3137   0.3173   0.3226
  0.3318   0.3360   0.3454   0.3477   0.3539   0.3546   0.3628   0.3683
  0.3748   0.3778   0.3849   0.3905   0.4002   0.4022   0.4107   0.4187
  0.4204   0.4293   0.4374   0.4553   0.4701   0.4720   0.4819   0.4985
  0.5079   0.5142   0.5294   0.5436   0.5647   0.5834   0.5903   0.6037
  0.6087   0.6241   0.6254   0.6400   0.6524   0.6563   0.6616   0.6690
  0.6772   0.6923   0.6946   0.7072   0.7153   0.7223   0.7326   0.7370
  0.7446   0.7490   0.7664   0.7815   0.7911   0.7958   0.8098   0.8177
  0.8369   0.8547   0.8576   0.8721   0.8795   0.8872   0.8956   0.9109
  0.9396   0.9657   0.9671   1.0158   1.0256   1.0342   1.0464   1.0554
  1.0870   1.0897   1.0969   1.1025   1.1188   1.1379   1.1495   1.1608
  1.1660   1.1724   1.1758   1.1970   1.2145   1.2206   1.2222   1.2420
  1.2584   1.2638   1.2759   1.2773   1.2927   1.2959   1.3066   1.3263
  1.3385   1.3432   1.3459   1.3602   1.3663   1.3722   1.3856   1.3925
  1.4105   1.4156   1.4224   1.4428   1.4495   1.4647   1.4771   1.4929
  1.5022   1.5102   1.5334   1.5417   1.5460   1.5620   1.5780   1.5810
  1.5883   1.6148   1.6232   1.6366   1.6521   1.6574   1.6805   1.6924
  1.7162   1.7511   1.7616   1.7952   1.8036   1.8195   1.8468   1.8671
  1.8806   1.8935   1.9533   1.9618   1.9851   2.0041   2.0249   2.0465
  2.0668   2.0811   2.1234   2.1413   2.1703   2.1916   2.2171   2.2698
  2.2999   2.3172   2.3383   2.3834   2.3978   2.4220   2.4663   2.5137
  2.5267   2.6285   2.6659   2.6892   2.7176   2.7275   2.7616   2.7676
  2.7816   2.8109   2.8245   2.8407   2.8534   2.8619   2.8767   2.8788
  2.9090   2.9262   2.9368   2.9493   2.9525   2.9642   2.9975   3.0035
  3.0167   3.0301   3.0463   3.0792   3.0981   3.1200   3.1367   3.1582
  3.1808   3.1903   3.2212   3.2345   3.2597   3.2689   3.2952   3.3063
  3.3393   3.3434   3.3674   3.3747   3.3905   3.4188   3.4334   3.4367
  3.4508   3.4591   3.4865   3.5047   3.5170   3.5403   3.5564   3.5715
  3.5892   3.5994   3.6225   3.6379   3.6459   3.6637   3.6750   3.6812
  3.7067   3.7326   3.7401   3.7581   3.7687   3.7828   3.7934   3.8112
  3.8255   3.8307   3.8414   3.8603   3.8845   3.8913   3.9011   3.9069
  3.9318   3.9455   3.9647   3.9651   3.9725   4.0008   4.0174   4.0401
  4.0605   4.0807   4.1065   4.1177   4.1347   4.1611   4.1794   4.2054
  4.2493   4.2630   4.2740   4.2856   4.3104   4.3284   4.3336   4.3559
  4.3616   4.3808   4.4130   4.4183   4.4272   4.4587   4.4829   4.4952
  4.4961   4.5125   4.5411   4.5736   4.5862   4.5994   4.6299   4.6338
  4.6583   4.6715   4.6783   4.7028   4.7423   4.7457   4.7807   4.7883
  4.8303   4.8765   4.9730   4.9911   5.0563   5.1415   5.1596   5.1889
  5.2469   5.2559   5.2755   5.3012   5.3100   5.3157   5.3335   5.3432
  5.3525   5.3903   5.4079   5.4257   5.4495   5.4700   5.5038   5.5274
  5.5432   5.5634   5.6041   5.6098   5.6244   5.6358   5.6750   5.6881
  5.7005   5.7370   5.7568   5.7747   5.7926   5.7996   5.8754   5.9075
  5.9555   5.9868   6.0333   6.0478   6.0538   6.1004   6.1395   6.2596
  6.5941   6.6029   6.6639   6.7526   6.7591   7.0431   7.1100   7.1377
  7.2944   7.3083   7.3336   7.3443   7.3793   7.4067   7.4287   7.4545
  7.4611   7.4928   7.5461   7.6406   7.6582   7.7145   7.7938   7.8523
  7.9096   7.9701   8.2628  24.3801  24.7212  24.7465  24.7936  24.8473
 24.9383  25.2234  50.6000  50.6242  50.6792  50.6901
 
 Beta MOs
 -- Occupied --
-19.4021 -19.4016 -19.3481 -19.3447 -10.4132 -10.4072 -10.4044 -10.3936
-10.3531 -10.3473 -10.3466  -1.2680  -1.1739  -1.1612  -1.0659  -0.9688
 -0.8865  -0.8470  -0.8008  -0.7483  -0.7049  -0.6800  -0.6556  -0.6291
 -0.6068  -0.5806  -0.5754  -0.5608  -0.5503  -0.5311  -0.5198  -0.5144
 -0.4918  -0.4763  -0.4588  -0.4482  -0.4319  -0.3965  -0.3903  -0.3879
 -0.3597
 -- Virtual --
 -0.0197   0.0239   0.0343   0.0364   0.0447   0.0547   0.0553   0.0710
  0.0782   0.0807   0.0861   0.0901   0.1000   0.1092   0.1247   0.1300
  0.1366   0.1370   0.1463   0.1477   0.1483   0.1561   0.1574   0.1608
  0.1701   0.1751   0.1772   0.1862   0.1908   0.1928   0.2018   0.2046
  0.2129   0.2167   0.2205   0.2238   0.2274   0.2382   0.2556   0.2598
  0.2731   0.2792   0.2871   0.2911   0.2963   0.3051   0.3139   0.3185
  0.3263   0.3325   0.3383   0.3470   0.3497   0.3555   0.3557   0.3660
  0.3712   0.3754   0.3788   0.3861   0.3914   0.4005   0.4037   0.4105
  0.4204   0.4211   0.4293   0.4380   0.4558   0.4717   0.4733   0.4838
  0.5010   0.5080   0.5160   0.5324   0.5456   0.5670   0.5863   0.5934
  0.6102   0.6135   0.6243   0.6300   0.6443   0.6543   0.6576   0.6656
  0.6705   0.6813   0.6947   0.6960   0.7109   0.7178   0.7243   0.7352
  0.7382   0.7479   0.7519   0.7707   0.7852   0.7952   0.8020   0.8146
  0.8212   0.8404   0.8572   0.8617   0.8735   0.8847   0.8917   0.8984
  0.9135   0.9417   0.9677   0.9690   1.0171   1.0266   1.0354   1.0477
  1.0561   1.0887   1.0924   1.0977   1.1037   1.1200   1.1389   1.1501
  1.1637   1.1702   1.1733   1.1791   1.1988   1.2160   1.2223   1.2245
  1.2457   1.2598   1.2665   1.2779   1.2792   1.2935   1.2977   1.3081
  1.3287   1.3398   1.3447   1.3468   1.3623   1.3679   1.3738   1.3886
  1.3955   1.4134   1.4180   1.4249   1.4457   1.4537   1.4684   1.4792
  1.4979   1.5045   1.5127   1.5376   1.5445   1.5492   1.5651   1.5813
  1.5843   1.5901   1.6197   1.6253   1.6405   1.6579   1.6596   1.6829
  1.6963   1.7192   1.7554   1.7639   1.7974   1.8080   1.8230   1.8517
  1.8719   1.8822   1.8957   1.9578   1.9644   1.9908   2.0094   2.0283
  2.0491   2.0693   2.0826   2.1291   2.1434   2.1727   2.1929   2.2202
  2.2722   2.3020   2.3182   2.3408   2.3846   2.4002   2.4232   2.4683
  2.5160   2.5299   2.6350   2.6772   2.6943   2.7214   2.7306   2.7667
  2.7747   2.7969   2.8182   2.8378   2.8476   2.8649   2.8738   2.8857
  2.8916   2.9205   2.9338   2.9529   2.9612   2.9672   2.9825   3.0067
  3.0184   3.0300   3.0456   3.0618   3.0887   3.1105   3.1249   3.1537
  3.1684   3.1893   3.2025   3.2300   3.2410   3.2642   3.2771   3.3033
  3.3156   3.3499   3.3533   3.3764   3.3897   3.4001   3.4306   3.4438
  3.4453   3.4572   3.4730   3.4967   3.5083   3.5184   3.5559   3.5616
  3.5853   3.5983   3.6114   3.6326   3.6413   3.6573   3.6685   3.6901
  3.6916   3.7178   3.7350   3.7529   3.7670   3.7726   3.7906   3.8036
  3.8244   3.8361   3.8435   3.8479   3.8668   3.8899   3.8985   3.9079
  3.9110   3.9398   3.9510   3.9709   3.9714   3.9790   4.0071   4.0288
  4.0495   4.0665   4.0895   4.1144   4.1220   4.1425   4.1673   4.1848
  4.2109   4.2534   4.2684   4.2789   4.2887   4.3203   4.3374   4.3423
  4.3660   4.3671   4.3915   4.4174   4.4240   4.4309   4.4651   4.4902
  4.5036   4.5059   4.5177   4.5478   4.5798   4.5911   4.6100   4.6358
  4.6501   4.6700   4.6832   4.6934   4.7090   4.7470   4.7541   4.7867
  4.7954   4.8381   4.8866   4.9827   4.9991   5.0653   5.1554   5.1714
  5.1984   5.2566   5.2606   5.2789   5.3029   5.3116   5.3175   5.3385
  5.3453   5.3537   5.3918   5.4105   5.4297   5.4531   5.4740   5.5071
  5.5316   5.5445   5.5737   5.6088   5.6191   5.6331   5.6429   5.6769
  5.6958   5.7016   5.7380   5.7629   5.7768   5.7959   5.8038   5.8771
  5.9137   5.9580   5.9898   6.0371   6.0519   6.0679   6.1052   6.1538
  6.2617   6.5967   6.6047   6.6658   6.7542   6.7602   7.0465   7.1104
  7.1380   7.2950   7.3107   7.3351   7.3462   7.3800   7.4086   7.4303
  7.4559   7.4630   7.4962   7.5484   7.6444   7.6594   7.7146   7.7942
  7.8531   7.9122   7.9729   8.2643  24.3830  24.7216  24.7502  24.7946
 24.8476  24.9409  25.2265  50.6009  50.6245  50.6792  50.6912
 --------------------------------------------------------------
 
          Ground-State Mulliken Net Atomic Charges

     Atom                 Charge (a.u.)    Spin (a.u.)
  --------------------------------------------------------
      1 C                    -0.138298       0.030917
      2 C                    -0.021983      -0.021910
      3 C                    -0.478486       0.562700
      4 C                    -0.235567      -0.152704
      5 C                    -0.334648       0.591379
      6 C                    -0.054700      -0.061953
      7 C                    -0.378968       0.006906
      8 H                     0.316777      -0.002610
      9 H                     0.287065       0.005429
     10 H                     0.316183      -0.014078
     11 H                     0.299770       0.007614
     12 H                     0.323650      -0.013293
     13 H                     0.251597      -0.000213
     14 O                    -0.384832       0.002151
     15 H                     0.237500      -0.000274
     16 H                     0.329907      -0.000534
     17 O                    -0.416937       0.000346
     18 H                     0.338040       0.001745
     19 O                    -0.129433       0.029593
     20 O                    -0.126635       0.028789
  --------------------------------------------------------
  Sum of atomic charges =     0.000000
  Sum of spin   charges =     1.000000

 -----------------------------------------------------------------
                    Cartesian Multipole Moments
 -----------------------------------------------------------------
    Charge (ESU x 10^10)
                 0.0000
    Dipole Moment (Debye)
         X       0.3181      Y      -0.8089      Z      -3.4741
       Tot       3.5812
    Quadrupole Moments (Debye-Ang)
        XX     -72.9158     XY       5.8713     YY     -63.4864
        XZ      10.6506     YZ      -3.3796     ZZ     -58.6557
    Octopole Moments (Debye-Ang^2)
       XXX     219.2346    XXY       9.2984    XYY      47.8991
       YYY      57.2993    XXZ     -39.6160    XYZ      11.5451
       YYZ      -7.7313    XZZ      67.3680    YZZ       5.8137
       ZZZ     -64.7424
    Hexadecapole Moments (Debye-Ang^3)
      XXXX    -951.5764   XXXY    -100.3595   XXYY    -236.9713
      XYYY     -79.6247   YYYY    -644.9089   XXXZ     169.2782
      XXYZ      38.2246   XYYZ      42.2634   YYYZ      93.4724
      XXZZ    -273.4989   XYZZ     -35.7205   YYZZ    -208.7982
      XZZZ     159.3618   YZZZ      84.4165   ZZZZ    -588.2393
 -----------------------------------------------------------------
 Calculating analytic gradient of the SCF energy
 Gradient of CDS energy
            1           2           3           4           5           6
    1   0.0016592   0.0000665  -0.0000689  -0.0002126  -0.0002071   0.0000537
    2  -0.0014384   0.0002024  -0.0003824  -0.0002698   0.0001573   0.0000673
    3  -0.0010876   0.0002643   0.0002835  -0.0002275  -0.0002337   0.0001576
            7           8           9          10          11          12
    1   0.0001529  -0.0000373   0.0000601  -0.0000359  -0.0001067  -0.0000351
    2   0.0009891   0.0002067  -0.0000239  -0.0001663  -0.0001487   0.0000771
    3  -0.0003511   0.0001046   0.0002076   0.0000945  -0.0001010  -0.0001141
           13          14          15          16          17          18
    1  -0.0002608  -0.0001680   0.0001293   0.0001707  -0.0016427   0.0004250
    2  -0.0002335  -0.0001939  -0.0001323   0.0000194   0.0013811  -0.0001159
    3  -0.0000473   0.0002800   0.0002751  -0.0005002   0.0011772  -0.0001795
           19          20
    1   0.0000115   0.0000461
    2   0.0000898  -0.0000853
    3  -0.0000825   0.0000803
 Gradient of SCF Energy
            1           2           3           4           5           6
    1   0.0016444  -0.0070683   0.0044890   0.0041432   0.0035302  -0.0051101
    2  -0.0058134   0.0038353   0.0024954   0.0052465  -0.0039176   0.0041933
    3  -0.0050665  -0.0003489  -0.0059093   0.0078522   0.0058190   0.0037468
            7           8           9          10          11          12
    1   0.0057439   0.0028649   0.0019809  -0.0007283  -0.0031984  -0.0027927
    2  -0.0131687   0.0036515  -0.0019160  -0.0043257  -0.0044669   0.0029725
    3   0.0028479   0.0015029   0.0040549   0.0024013  -0.0034307  -0.0126219
           13          14          15          16          17          18
    1  -0.0066818   0.0085404   0.0019856  -0.0086227  -0.0004374   0.0013857
    2   0.0029527   0.0142920   0.0041437  -0.0100050  -0.0073108   0.0041434
    3  -0.0062792   0.0125967   0.0035182  -0.0121786   0.0052006  -0.0060739
           19          20
    1  -0.0006272  -0.0010413
    2   0.0013561   0.0016418
    3   0.0021833   0.0001851
 Max gradient component =       1.429E-02
 RMS gradient           =       5.703E-03
 Computing fast CPCM-SWIG gradient
 Updating gradient with PCM contributions...
 -- total gradient after adding PCM contribution --
---------------------------------------------------
  Atom         X              Y              Z     
---------------------------------------------------
   1      -0.000038      -0.000108       0.000265
   2      -0.000126       0.000050      -0.000206
   3      -0.000024       0.000046      -0.000046
   4       0.000114      -0.000009       0.000063
   5       0.000075      -0.000106      -0.000058
   6      -0.000244       0.000164       0.000247
   7      -0.000435       0.000096       0.000113
   8      -0.000147      -0.000122      -0.000123
   9      -0.000091       0.000057      -0.000118
  10       0.000024       0.000149      -0.000113
  11       0.000115       0.000139       0.000089
  12      -0.000002      -0.000031       0.000206
  13       0.000117      -0.000082       0.000190
  14       0.000057      -0.000220      -0.000215
  15       0.000051      -0.000210      -0.000167
  16       0.000117       0.000171       0.000433
  17      -0.000032       0.000523      -0.000189
  18      -0.000083      -0.000274       0.000072
  19       0.000240      -0.000298       0.000283
  20       0.000312       0.000065      -0.000726
---------------------------------------------------
 Number of fixed atoms: 0
 Gradient time:  CPU 490.39 s  wall 69.06 s
 Geometry Optimization Parameters
   NAtoms,    NIC,     NZ,  NCons,   NDum,   NFix, NCnnct, MaxDiis
       20     158       0       0       0       0       0       0

 Cartesian Hessian Update
 Hessian updated using BFGS update


** GEOMETRY OPTIMIZATION IN DELOCALIZED INTERNAL COORDINATES **
   Searching for a Minimum

   Optimization Cycle:   3

                       Coordinates (Angstroms)
     ATOM                X               Y               Z
      1  C        -0.0606540085   -0.3119726712    0.7958873912
      2  C        -0.9785638638   -1.0531673443    1.7575329948
      3  C        -1.7160939024   -2.1571524155    1.0701770039
      4  C        -2.1542422818   -1.9373919315   -0.2216766130
      5  C        -1.8920328532   -0.7326481860   -0.8450227098
      6  C        -1.1594890072    0.3201865134   -0.0682582001
[...]
    1  -0.0002590  -0.0001715   0.0001273   0.0001755  -0.0016021   0.0004212
    2  -0.0002346  -0.0001761  -0.0001311   0.0000045   0.0013488  -0.0001178
    3  -0.0000518   0.0002778   0.0002761  -0.0004949   0.0011437  -0.0001876
           19          20
    1   0.0000114   0.0000463
    2   0.0000898  -0.0000849
    3  -0.0000829   0.0000803
 Gradient of SCF Energy
            1           2           3           4           5           6
    1   0.0015648  -0.0068936   0.0044865   0.0040249   0.0033904  -0.0047941
    2  -0.0057070   0.0037374   0.0023937   0.0053138  -0.0039387   0.0040798
    3  -0.0053689  -0.0000812  -0.0059290   0.0077735   0.0058628   0.0034722
            7           8           9          10          11          12
    1   0.0062053   0.0030853   0.0020721  -0.0007382  -0.0032914  -0.0027341
    2  -0.0131928   0.0037981  -0.0019678  -0.0044488  -0.0045658   0.0029980
    3   0.0026856   0.0016629   0.0041673   0.0025073  -0.0034890  -0.0127811
           13          14          15          16          17          18
    1  -0.0067982   0.0084272   0.0019147  -0.0087870  -0.0005390   0.0016504
    2   0.0030319   0.0142462   0.0043599  -0.0099553  -0.0079601   0.0045371
    3  -0.0064848   0.0129227   0.0036892  -0.0127849   0.0053873  -0.0060325
           19          20
    1  -0.0008951  -0.0013509
    2   0.0017040   0.0015363
    3   0.0018180   0.0010026
 Max gradient component =       1.425E-02
 RMS gradient           =       5.782E-03
 Computing fast CPCM-SWIG gradient
 Updating gradient with PCM contributions...
 -- total gradient after adding PCM contribution --
---------------------------------------------------
  Atom         X              Y              Z     
---------------------------------------------------
   1      -0.000017       0.000025      -0.000051
   2       0.000010      -0.000030       0.000045
   3      -0.000006      -0.000002      -0.000007
   4       0.000003       0.000012      -0.000016
   5      -0.000015      -0.000010       0.000015
   6       0.000054      -0.000016      -0.000017
   7       0.000050      -0.000023      -0.000054
   8       0.000008       0.000003       0.000028
   9       0.000000      -0.000004       0.000003
  10       0.000006      -0.000010       0.000005
  11      -0.000003      -0.000009      -0.000007
  12       0.000013       0.000002      -0.000019
  13      -0.000016       0.000017      -0.000007
  14      -0.000028       0.000046       0.000052
  15      -0.000005       0.000016       0.000016
  16      -0.000009      -0.000028      -0.000037
  17       0.000013      -0.000029       0.000070
  18      -0.000012       0.000029      -0.000038
  19      -0.000027       0.000054      -0.000096
  20      -0.000019      -0.000042       0.000115
---------------------------------------------------
 Number of fixed atoms: 0
 Gradient time:  CPU 423.61 s  wall 60.05 s
 Geometry Optimization Parameters
   NAtoms,    NIC,     NZ,  NCons,   NDum,   NFix, NCnnct, MaxDiis
       20     158       0       0       0       0       0       0

 Cartesian Hessian Update
 Hessian updated using BFGS update


** GEOMETRY OPTIMIZATION IN DELOCALIZED INTERNAL COORDINATES **
   Searching for a Minimum

   Optimization Cycle:   6

                       Coordinates (Angstroms)
     ATOM                X               Y               Z
      1  C        -0.0600066222   -0.3135205577    0.7955608055
      2  C        -0.9784822494   -1.0537090034    1.7582108051
      3  C        -1.7173499139   -2.1575665840    1.0712008585
      4  C        -2.1565599186   -1.9374071279   -0.2206154243
      5  C        -1.8926611525   -0.7332631784   -0.8448707863
      6  C        -1.1583472874    0.3191545082   -0.0691578154
      7  C        -0.6574678257    1.4818044130   -0.9091164815
      8  H         0.4781628576    0.4745166757    1.3260267429
      9  H        -0.4970126816   -1.3571814269    2.6836387448
     10  H        -1.9169013808   -3.0795800365    1.5959972619
     11  H        -2.7100131592   -2.7068360177   -0.7429988464
     12  H        -2.2294102727   -0.5183762414   -1.8501743493
     13  H        -1.4745251722    1.9310078550   -1.4750878685
     14  O         0.3793760951    1.0326470500   -1.7780388714
     15  H        -0.2230516320    2.2335649805   -0.2537698973
     16  H        -0.0204667307    0.5583792750   -2.5157755311
     17  O         0.8221532288   -1.1724563506    0.1134175498
     18  H         1.1670151671   -0.6721216768   -0.6388700494
     19  O        -1.8866771859    0.0079235374    2.1290650003
     20  O        -2.0280605637    0.8637318063    0.9469641518
   Point Group: c1    Number of degrees of freedom:    54


   Energy is   -572.907191620

 Hessian updated using BFGS update

 54 Hessian modes will be used to form the next step
  Hessian Eigenvalues:
     0.003466    0.007084    0.010342    0.012612    0.013896    0.015215
     0.018438    0.019520    0.024103    0.032424    0.039420    0.046618
     0.053111    0.055462    0.058045    0.061321    0.074291    0.078306
     0.083442    0.098381    0.105160    0.110876    0.114339    0.139540
     0.152028    0.159303    0.159783    0.159991    0.162731    0.178672
     0.190956    0.214724    0.237366    0.257539    0.269331    0.301734
     0.305884    0.317572    0.326229    0.339654    0.342343    0.345828
     0.347635    0.349143    0.351803    0.353746    0.360544    0.374688
     0.415322    0.453840    0.468022    0.486271    0.523152    0.535970

 Minimum search - taking simple RFO step
 Searching for Lamda that Minimizes Along All modes
 Value Taken    Lamda =  -0.00000026
 Step Taken.  Stepsize is  0.006507

                             Maximum     Tolerance    Cnvgd?
         Gradient           0.000064      0.000300     YES
         Displacement       0.002385      0.001200      NO
         Energy change     -0.000000      0.000001     YES

 Final energy is   -572.907191619904     


 ******************************
 **  OPTIMIZATION CONVERGED  **
 ******************************

                       Coordinates (Angstroms)
     ATOM                X               Y               Z
      1  C        -0.0600066222   -0.3135205577    0.7955608055
      2  C        -0.9784822494   -1.0537090034    1.7582108051
      3  C        -1.7173499139   -2.1575665840    1.0712008585
      4  C        -2.1565599186   -1.9374071279   -0.2206154243
      5  C        -1.8926611525   -0.7332631784   -0.8448707863
      6  C        -1.1583472874    0.3191545082   -0.0691578154
      7  C        -0.6574678257    1.4818044130   -0.9091164815
      8  H         0.4781628576    0.4745166757    1.3260267429
      9  H        -0.4970126816   -1.3571814269    2.6836387448
     10  H        -1.9169013808   -3.0795800365    1.5959972619
     11  H        -2.7100131592   -2.7068360177   -0.7429988464
     12  H        -2.2294102727   -0.5183762414   -1.8501743493
     13  H        -1.4745251722    1.9310078550   -1.4750878685
     14  O         0.3793760951    1.0326470500   -1.7780388714
     15  H        -0.2230516320    2.2335649805   -0.2537698973
     16  H        -0.0204667307    0.5583792750   -2.5157755311
     17  O         0.8221532288   -1.1724563506    0.1134175498
     18  H         1.1670151671   -0.6721216768   -0.6388700494
     19  O        -1.8866771859    0.0079235374    2.1290650003
     20  O        -2.0280605637    0.8637318063    0.9469641518

Z-matrix Print:
$molecule
0 2
O 
C  1 1.444115
O  1 1.466206 2 106.804367
C  3 1.445481 1 106.405182 2 -2.386343 0
H  4 1.086428 3 105.370238 1 152.127482 0
C  4 1.495463 3 110.460543 1 -84.515237 0
H  6 1.079510 4 119.897190 3 -105.143842 0
C  6 1.382087 4 117.957684 3 73.088343 0
H  8 1.082227 6 120.028419 4 -178.913091 0
C  8 1.381774 6 120.026116 4 0.903484 0
H  10 1.081763 8 122.242370 6 -179.256434 0
C  2 1.519265 1 107.396595 3 -147.940269 0
H  12 1.087815 2 109.113740 1 53.058074 0
H  12 1.090729 2 110.798581 1 -67.074060 0
O  12 1.425417 2 109.614906 1 170.085113 0
H  15 0.963877 12 108.655242 2 77.213080 0
C  4 1.522554 3 100.613382 1 33.378303 0
H  17 1.091798 4 109.940994 3 63.803926 0
O  17 1.407585 4 112.818530 3 -171.013742 0
H  19 0.967058 17 106.545201 4 163.698375 0
$end

 
 --------------------------------------------------------------
 
                    Orbital Energies (a.u.)
 --------------------------------------------------------------
 
 Alpha MOs
 -- Occupied --
-19.4034 -19.4028 -19.3481 -19.3449 -10.4127 -10.4067 -10.4051 -10.3937
-10.3556 -10.3549 -10.3501  -1.2707  -1.1741  -1.1614  -1.0684  -0.9756
 -0.8889  -0.8559  -0.8088  -0.7506  -0.7104  -0.6822  -0.6582  -0.6328
 -0.6081  -0.5866  -0.5784  -0.5643  -0.5542  -0.5341  -0.5223  -0.5174
 -0.4935  -0.4804  -0.4609  -0.4526  -0.4352  -0.4227  -0.3958  -0.3906
 -0.3659  -0.2853
 -- Virtual --
  0.0244   0.0348   0.0366   0.0451   0.0550   0.0555   0.0680   0.0734
  0.0809   0.0852   0.0895   0.0935   0.1082   0.1245   0.1303   0.1360
  0.1372   0.1448   0.1469   0.1489   0.1567   0.1575   0.1606   0.1700
  0.1752   0.1772   0.1844   0.1886   0.1919   0.2021   0.2048   0.2139
  0.2167   0.2204   0.2239   0.2275   0.2390   0.2533   0.2574   0.2724
  0.2794   0.2867   0.2900   0.2941   0.3028   0.3134   0.3171   0.3225
  0.3314   0.3358   0.3455   0.3478   0.3539   0.3545   0.3627   0.3682
  0.3749   0.3778   0.3849   0.3904   0.4002   0.4019   0.4103   0.4187
  0.4207   0.4292   0.4372   0.4551   0.4700   0.4713   0.4819   0.4982
  0.5075   0.5141   0.5295   0.5435   0.5646   0.5831   0.5904   0.6034
  0.6087   0.6245   0.6252   0.6401   0.6520   0.6558   0.6616   0.6688
  0.6772   0.6924   0.6946   0.7069   0.7152   0.7221   0.7326   0.7369
  0.7445   0.7486   0.7655   0.7814   0.7913   0.7970   0.8097   0.8176
  0.8367   0.8544   0.8575   0.8717   0.8795   0.8873   0.8953   0.9106
  0.9384   0.9652   0.9675   1.0156   1.0257   1.0342   1.0469   1.0533
  1.0870   1.0896   1.0968   1.1026   1.1190   1.1380   1.1496   1.1604
  1.1649   1.1720   1.1757   1.1967   1.2148   1.2202   1.2222   1.2416
  1.2582   1.2634   1.2751   1.2774   1.2926   1.2960   1.3065   1.3256
  1.3381   1.3428   1.3461   1.3599   1.3662   1.3728   1.3854   1.3926
  1.4106   1.4158   1.4219   1.4427   1.4492   1.4645   1.4769   1.4925
  1.5024   1.5100   1.5334   1.5412   1.5462   1.5621   1.5780   1.5816
  1.5880   1.6137   1.6227   1.6362   1.6523   1.6569   1.6791   1.6924
  1.7158   1.7496   1.7609   1.7943   1.8026   1.8192   1.8450   1.8669
  1.8805   1.8931   1.9528   1.9615   1.9845   2.0038   2.0240   2.0452
  2.0658   2.0816   2.1235   2.1397   2.1697   2.1914   2.2159   2.2699
  2.2990   2.3164   2.3378   2.3828   2.3964   2.4216   2.4660   2.5123
  2.5272   2.6283   2.6659   2.6895   2.7176   2.7279   2.7610   2.7671
  2.7812   2.8113   2.8230   2.8406   2.8530   2.8610   2.8763   2.8791
  2.9079   2.9257   2.9367   2.9491   2.9517   2.9637   2.9969   3.0025
  3.0157   3.0298   3.0447   3.0788   3.0986   3.1196   3.1364   3.1577
  3.1800   3.1895   3.2209   3.2341   3.2590   3.2687   3.2949   3.3059
  3.3393   3.3437   3.3664   3.3742   3.3907   3.4185   3.4332   3.4361
  3.4504   3.4583   3.4863   3.5040   3.5160   3.5401   3.5563   3.5704
  3.5889   3.5990   3.6218   3.6377   3.6459   3.6634   3.6746   3.6811
  3.7065   3.7330   3.7398   3.7576   3.7693   3.7821   3.7926   3.8115
  3.8250   3.8310   3.8403   3.8602   3.8839   3.8920   3.9010   3.9061
  3.9312   3.9454   3.9629   3.9644   3.9728   4.0004   4.0169   4.0392
  4.0598   4.0801   4.1066   4.1170   4.1338   4.1602   4.1780   4.2039
  4.2485   4.2620   4.2731   4.2853   4.3089   4.3277   4.3323   4.3542
  4.3608   4.3810   4.4108   4.4171   4.4262   4.4579   4.4825   4.4940
  4.4952   4.5122   4.5404   4.5730   4.5854   4.5984   4.6296   4.6337
  4.6577   4.6706   4.6776   4.7026   4.7411   4.7449   4.7798   4.7877
  4.8295   4.8754   4.9718   4.9899   5.0555   5.1399   5.1585   5.1879
  5.2466   5.2556   5.2757   5.3016   5.3102   5.3154   5.3327   5.3422
  5.3514   5.3902   5.4074   5.4245   5.4488   5.4695   5.5033   5.5266
  5.5412   5.5621   5.6039   5.6083   5.6238   5.6342   5.6747   5.6876
  5.6990   5.7353   5.7571   5.7736   5.7916   5.7985   5.8762   5.9068
  5.9538   5.9867   6.0332   6.0479   6.0531   6.0988   6.1381   6.2612
  6.5926   6.6006   6.6620   6.7542   6.7605   7.0433   7.1112   7.1374
  7.2941   7.3075   7.3317   7.3432   7.3773   7.4050   7.4268   7.4543
  7.4604   7.4927   7.5463   7.6403   7.6586   7.7136   7.7934   7.8523
  7.9107   7.9705   8.2622  24.3795  24.7197  24.7445  24.7924  24.8452
 24.9361  25.2216  50.5999  50.6235  50.6781  50.6890
 
 Beta MOs
 -- Occupied --
-19.4021 -19.4015 -19.3479 -19.3449 -10.4133 -10.4073 -10.4045 -10.3937
-10.3532 -10.3473 -10.3466  -1.2681  -1.1738  -1.1612  -1.0653  -0.9687
 -0.8863  -0.8468  -0.8007  -0.7481  -0.7047  -0.6800  -0.6553  -0.6291
 -0.6067  -0.5804  -0.5754  -0.5609  -0.5502  -0.5310  -0.5199  -0.5141
 -0.4919  -0.4760  -0.4587  -0.4478  -0.4322  -0.3965  -0.3902  -0.3879
 -0.3594
 -- Virtual --
 -0.0196   0.0238   0.0343   0.0364   0.0446   0.0547   0.0553   0.0711
  0.0782   0.0807   0.0862   0.0902   0.1000   0.1092   0.1248   0.1299
  0.1367   0.1371   0.1462   0.1476   0.1482   0.1561   0.1573   0.1608
  0.1701   0.1751   0.1772   0.1861   0.1906   0.1928   0.2018   0.2047
  0.2130   0.2166   0.2207   0.2238   0.2274   0.2382   0.2555   0.2595
  0.2731   0.2793   0.2872   0.2911   0.2962   0.3048   0.3136   0.3182
  0.3261   0.3320   0.3382   0.3471   0.3497   0.3553   0.3556   0.3659
  0.3710   0.3753   0.3787   0.3861   0.3913   0.4005   0.4035   0.4100
  0.4206   0.4211   0.4291   0.4378   0.4557   0.4716   0.4726   0.4837
  0.5006   0.5076   0.5159   0.5325   0.5455   0.5669   0.5860   0.5935
  0.6101   0.6133   0.6247   0.6299   0.6441   0.6540   0.6574   0.6655
  0.6703   0.6812   0.6947   0.6960   0.7105   0.7177   0.7241   0.7353
  0.7381   0.7478   0.7514   0.7698   0.7853   0.7955   0.8030   0.8146
  0.8209   0.8402   0.8570   0.8617   0.8732   0.8845   0.8920   0.8979
  0.9132   0.9406   0.9671   0.9693   1.0170   1.0267   1.0354   1.0481
  1.0542   1.0886   1.0924   1.0977   1.1038   1.1202   1.1389   1.1503
  1.1631   1.1690   1.1732   1.1788   1.1985   1.2164   1.2219   1.2245
  1.2453   1.2596   1.2662   1.2769   1.2795   1.2934   1.2977   1.3080
  1.3281   1.3394   1.3443   1.3470   1.3620   1.3678   1.3744   1.3884
  1.3955   1.4135   1.4182   1.4244   1.4455   1.4534   1.4683   1.4790
  1.4975   1.5048   1.5125   1.5376   1.5441   1.5493   1.5652   1.5815
  1.5846   1.5898   1.6183   1.6249   1.6401   1.6578   1.6596   1.6814
  1.6962   1.7189   1.7538   1.7633   1.7966   1.8070   1.8227   1.8500
  1.8717   1.8821   1.8954   1.9572   1.9641   1.9904   2.0092   2.0274
  2.0478   2.0683   2.0831   2.1292   2.1419   2.1720   2.1927   2.2189
  2.2723   2.3012   2.3175   2.3402   2.3839   2.3989   2.4229   2.4680
  2.5145   2.5303   2.6348   2.6772   2.6945   2.7214   2.7310   2.7662
  2.7739   2.7964   2.8186   2.8362   2.8475   2.8647   2.8731   2.8853
  2.8918   2.9190   2.9334   2.9526   2.9611   2.9668   2.9820   3.0063
  3.0172   3.0292   3.0446   3.0606   3.0885   3.1110   3.1245   3.1534
  3.1677   3.1885   3.2018   3.2297   3.2406   3.2634   3.2771   3.3030
  3.3154   3.3496   3.3537   3.3755   3.3890   3.4002   3.4303   3.4435
  3.4447   3.4572   3.4720   3.4964   3.5078   3.5173   3.5555   3.5614
  3.5844   3.5980   3.6111   3.6320   3.6409   3.6575   3.6681   3.6898
  3.6917   3.7173   3.7354   3.7525   3.7671   3.7725   3.7900   3.8027
  3.8247   3.8357   3.8439   3.8470   3.8666   3.8891   3.8993   3.9077
  3.9100   3.9391   3.9509   3.9694   3.9707   3.9791   4.0067   4.0283
  4.0485   4.0659   4.0887   4.1146   4.1211   4.1417   4.1664   4.1834
  4.2093   4.2528   4.2673   4.2780   4.2883   4.3188   4.3367   4.3407
  4.3649   4.3662   4.3917   4.4153   4.4228   4.4299   4.4643   4.4897
  4.5024   4.5049   4.5177   4.5470   4.5792   4.5905   4.6091   4.6357
  4.6498   4.6692   4.6825   4.6925   4.7087   4.7461   4.7531   4.7858
  4.7948   4.8373   4.8856   4.9815   4.9979   5.0645   5.1538   5.1702
  5.1974   5.2563   5.2603   5.2790   5.3031   5.3117   5.3172   5.3376
  5.3443   5.3526   5.3917   5.4099   5.4285   5.4524   5.4735   5.5066
  5.5308   5.5425   5.5725   5.6086   5.6177   5.6324   5.6411   5.6768
  5.6952   5.7003   5.7364   5.7630   5.7756   5.7951   5.8025   5.8778
  5.9130   5.9563   5.9898   6.0372   6.0518   6.0670   6.1036   6.1522
  6.2633   6.5952   6.6025   6.6639   6.7552   6.7622   7.0466   7.1116
  7.1377   7.2946   7.3099   7.3332   7.3451   7.3779   7.4070   7.4283
  7.4556   7.4625   7.4960   7.5487   7.6441   7.6597   7.7137   7.7938
  7.8531   7.9133   7.9733   8.2638  24.3824  24.7200  24.7482  24.7934
 24.8455  24.9387  25.2247  50.6008  50.6239  50.6782  50.6901
 --------------------------------------------------------------
 
          Ground-State Mulliken Net Atomic Charges

     Atom                 Charge (a.u.)    Spin (a.u.)
  --------------------------------------------------------
      1 C                    -0.136509       0.030843
      2 C                    -0.024354      -0.021934
      3 C                    -0.476622       0.562877
      4 C                    -0.237083      -0.152648
      5 C                    -0.338058       0.591157
      6 C                    -0.050654      -0.061971
      7 C                    -0.379798       0.006747
      8 H                     0.316467      -0.002602
      9 H                     0.287368       0.005424
     10 H                     0.316241      -0.014128
     11 H                     0.299715       0.007620
     12 H                     0.323199      -0.013295
     13 H                     0.251346      -0.000222
     14 O                    -0.385426       0.002309
     15 H                     0.237336      -0.000288
     16 H                     0.330718      -0.000592
     17 O                    -0.416401       0.000471
     18 H                     0.338515       0.001646
     19 O                    -0.129811       0.029673
     20 O                    -0.126191       0.028912
  --------------------------------------------------------
  Sum of atomic charges =     0.000000
  Sum of spin   charges =     1.000000

 -----------------------------------------------------------------
                    Cartesian Multipole Moments
 -----------------------------------------------------------------
    Charge (ESU x 10^10)
                 0.0000
    Dipole Moment (Debye)
         X       0.3508      Y      -0.7903      Z      -3.4747
       Tot       3.5807
    Quadrupole Moments (Debye-Ang)
        XX     -72.8668     XY       5.8654     YY     -63.5306
        XZ      10.6634     YZ      -3.4355     ZZ     -58.6174
    Octopole Moments (Debye-Ang^2)
       XXX     219.4791    XXY       9.2687    XYY      47.8909
       YYY      57.4307    XXZ     -39.6301    XYZ      11.5725
       YYZ      -7.7316    XZZ      67.3433    YZZ       6.0098
       ZZZ     -65.0146
    Hexadecapole Moments (Debye-Ang^3)
      XXXX    -952.0739   XXXY    -100.4771   XXYY    -237.1334
      XYYY     -79.7461   YYYY    -646.0071   XXXZ     169.2328
      XXYZ      38.3879   XYYZ      42.2467   YYYZ      93.8949
      XXZZ    -273.7723   XYZZ     -35.7697   YYZZ    -208.9875
      XZZZ     159.4994   YZZZ      84.2986   ZZZZ    -587.7785
 -----------------------------------------------------------------
 Total job time:  2590.78s(wall), 20081.70s(cpu) 
 Tue Feb 14 14:43:45 2023

        *************************************************************
        *                                                           *
        *  Thank you very much for using Q-Chem.  Have a nice day.  *
        *                                                           *
        *************************************************************


