
Running Job 1 of 2 Q_in.in
qchem Q_in.in_12039.0 /scratch/ari.fischer/qChem2241706.hpc-mn1/qchem12039/ 0
/usr/local/qchem-5.4.1/exe/qcprog.exe_s Q_in.in_12039.0 /scratch/ari.fischer/qChem2241706.hpc-mn1/qchem12039/
                  Welcome to Q-Chem
     A Quantum Leap Into The Future Of Chemistry


 Q-Chem 5.4, Q-Chem, Inc., Pleasanton, CA (2021)

 License issued to: Nanyang Technological University (site)

 E. Epifanovsky,  A. T. B. Gilbert,  Xintian Feng,  Joonho Lee,  Yuezhi Mao,  
 N. Mardirossian,  P. Pokhilko,  A. White,  M. Wormit,  M. P. Coons,  
 A. L. Dempwolff,  Zhengting Gan,  D. Hait,  P. R. Horn,  L. D. Jacobson,  
 I. Kaliman,  J. Kussmann,  A. W. Lange,  Ka Un Lao,  D. S. Levine,  Jie Liu,  
 S. C. McKenzie,  A. F. Morrison,  K. Nanda,  F. Plasser,  D. R. Rehn,  
 M. L. Vidal,  Zhi-Qiang You,  Ying Zhu,  B. Alam,  B. Albrecht,  
 A. Aldossary,  E. Alguire,  J. H. Andersen,  D. Barton,  K. Begam,  A. Behn,  
 Y. A. Bernard,  E. J. Berquist,  H. Burton,  A. Carreras,  K. Carter-Fenk,  
 R. Chakraborty,  A. D. Chien,  K. D. Closser,  V. Cofer-Shabica,  
 S. Dasgupta,  Jia Deng,  M. de Wergifosse,  M. Diedenhofen,  Hainam Do,  
 S. Ehlert,  Po-Tung Fang,  S. Fatehi,  Qingguo Feng,  T. Friedhoff,  
 J. Gayvert,  Qinghui Ge,  G. Gidofalvi,  M. Goldey,  J. Gomes,  
 C. Gonzalez-Espinoza,  S. Gulania,  A. Gunina,  M. W. D. Hanson-Heine,  
 P. H. P. Harbach,  A. W. Hauser,  M. F. Herbst,  M. Hernandez Vera,  
 M. Hodecker,  Z. C. Holden,  S. Houck,  Xunkun Huang,  Kerwin Hui,  
 B. C. Huynh,  M. Ivanov,  Hyunjun Ji,  Hanjie Jiang,  B. Kaduk,  S. Kaehler,  
 K. Khistyaev,  Jaehoon Kim,  P. Klunzinger,  Z. Koczor-Benda,  
 Joong Hoon Koh,  D. Kosenkov,  L. Koulias,  T. Kowalczyk,  C. M. Krauter,  
 K. Kue,  A. Kunitsa,  T. Kus,  A. Landau,  K. V. Lawler,  D. Lefrancois,  
 S. Lehtola,  Rain Li,  Yi-Pei Li,  Jiashu Liang,  M. Liebenthal,  
 Hung-Hsuan Lin,  You-Sheng Lin,  Fenglai Liu,  Kuan-Yu Liu,  
 M. Loipersberger,  A. Luenser,  A. Manjanath,  P. Manohar,  E. Mansoor,  
 S. F. Manzer,  Shan-Ping Mao,  A. V. Marenich,  T. Markovich,  S. Mason,  
 S. A. Maurer,  P. F. McLaughlin,  M. F. S. J. Menger,  J.-M. Mewes,  
 S. A. Mewes,  P. Morgante,  J. W. Mullinax,  K. J. Oosterbaan,  G. Paran,  
 Alexander C. Paul,  Suranjan K. Paul,  F. Pavosevic,  Zheng Pei,  S. Prager,  
 E. I. Proynov,  E. Ramos,  B. Rana,  A. E. Rask,  A. Rettig,  R. M. Richard,  
 F. Rob,  E. Rossomme,  T. Scheele,  M. Scheurer,  M. Schneider,  
 N. Sergueev,  S. M. Sharada,  W. Skomorowski,  D. W. Small,  C. J. Stein,  
 Yu-Chuan Su,  E. J. Sundstrom,  Zhen Tao,  J. Thirman,  T. Tsuchimochi,  
 N. M. Tubman,  S. P. Veccham,  O. Vydrov,  J. Wenzel,  J. Witte,  A. Yamada,  
 Kun Yao,  S. Yeganeh,  S. R. Yost,  A. Zech,  Igor Ying Zhang,  Xing Zhang,  
 Yu Zhang,  D. Zuev,  A. Aspuru-Guzik,  A. T. Bell,  N. A. Besley,  
 K. B. Bravaya,  B. R. Brooks,  D. Casanova,  Jeng-Da Chai,  S. Coriani,  
 C. J. Cramer,  A. E. DePrince, III,  R. A. DiStasio Jr.,  A. Dreuw,  
 B. D. Dunietz,  T. R. Furlani,  W. A. Goddard III,  S. Grimme,  
 S. Hammes-Schiffer,  T. Head-Gordon,  W. J. Hehre,  Chao-Ping Hsu,  
 T.-C. Jagau,  Yousung Jung,  A. Klamt,  Jing Kong,  D. S. Lambrecht,  
 WanZhen Liang,  N. J. Mayhall,  C. W. McCurdy,  J. B. Neaton,  
 C. Ochsenfeld,  J. A. Parkhill,  R. Peverati,  V. A. Rassolov,  Yihan Shao,  
 L. V. Slipchenko,  T. Stauch,  R. P. Steele,  J. E. Subotnik,  
 A. J. W. Thom,  A. Tkatchenko,  D. G. Truhlar,  T. Van Voorhis,  
 T. A. Wesolowski,  K. B. Whaley,  H. L. Woodcock III,  P. M. Zimmerman,  
 S. Faraji,  P. M. W. Gill,  M. Head-Gordon,  J. M. Herbert,  A. I. Krylov

 Additional authors for Version 5.4.1: 
 S. Kotaru,  Shaozhi Li,  Xiangyuan Li,  F. Matz,  A. Molle,  Haisheng Ren,  
 Yingli Su,  Hung-Yi Tsai,  C. Utku,  Fang Wang

 Contributors to earlier versions of Q-Chem not listed above: 
 R. D. Adamson,  B. Austin,  R. Baer,  J. Baker,  G. J. O. Beran,  
 K. Brandhorst,  S. T. Brown,  E. F. C. Byrd,  A. K. Chakraborty,  
 G. K. L. Chan,  Chun-Min Chang,  Yunqing Chen,  C.-L. Cheng,  
 Siu Hung Chien,  D. M. Chipman,  D. L. Crittenden,  H. Dachsel,  
 R. J. Doerksen,  A. D. Dutoi,  R. G. Edgar,  J. Fosso-Tande,  
 L. Fusti-Molnar,  D. Ghosh,  A. Ghysels,  A. Golubeva-Zadorozhnaya,  
 J. Gonthier,  M. S. Gordon,  S. R. Gwaltney,  G. Hawkins,  J. E. Herr,  
 A. Heyden,  S. Hirata,  E. G. Hohenstein,  G. Kedziora,  F. J. Keil,  
 C. Kelley,  Jihan Kim,  R. A. King,  R. Z. Khaliullin,  P. P. Korambath,  
 W. Kurlancheek,  A. Laurent,  A. M. Lee,  M. S. Lee,  S. V. Levchenko,  
 Ching Yeh Lin,  D. Liotard,  E. Livshits,  R. C. Lochan,  I. Lotan,  
 L. A. Martinez-Martinez,  P. E. Maslen,  N. Nair,  D. P. O'Neill,  
 D. Neuhauser,  E. Neuscamman,  C. M. Oana,  R. Olivares-Amaya,  R. Olson,  
 T. M. Perrine,  B. Peters,  P. A. Pieniazek,  A. Prociuk,  Y. M. Rhee,  
 J. Ritchie,  M. A. Rohrdanz,  E. Rosta,  N. J. Russ,  H. F. Schaefer III,  
 M. W. Schmidt,  N. E. Schultz,  S. Sharma,  N. Shenvi,  C. D. Sherrill,  
 A. C. Simmonett,  A. Sodt,  T. Stein,  D. Stuck,  K. S. Thanthiriwatte,  
 V. Vanovschi,  L. Vogt,  Tao Wang,  A. Warshel,  M. A. Watson,  
 C. F. Williams,  Q. Wu,  X. Xu,  Jun Yang,  W. Zhang,  Yan Zhao

 Please cite Q-Chem as follows:
 Y. Shao et al., Mol. Phys. 113, 184-215 (2015)
 DOI: 10.1080/00268976.2014.952696

 Q-Chem 5.4.1 for Intel X86 EM64T Linux

 Parts of Q-Chem use Armadillo 9.800.1 (Horizon Scraper).
 http://arma.sourceforge.net/

 Q-Chem begins on Sun Jul 21 11:59:48 2024  

 Host: 
0

     Scratch files written to /scratch/ari.fischer/qChem2241706.hpc-mn1/qchem12039//
 Aug1521 |scratch|qcdevops|jenkins|workspace|build_RNUM 8249   
 Processing $rem in /usr/local/qchem-5.4.1/config/preferences:
 Processing $rem in /home/ari.fischer/.qchemrc:
 Symmetry turned off for PCM/SM12/SMD calculation


!!********************************************.
!!******************Warning*******************.
!!Desired Analytical derivatives not available.
!!Finite difference job might take a long time.
!!********************************************.
!!********************************************.


 2-order derivative to be evaluated numerically with 1-order analytical derivatives

 Checking the input file for inconsistencies... 	...done.

--------------------------------------------------------------
User input:
--------------------------------------------------------------
$molecule
0 2
C        -0.5326998320    0.0025343068    1.0230088974
C        -0.9680983888   -1.1061386779    1.7802259216
C        -1.8563513933   -2.0070854607    1.2371255274
C        -2.3613365522   -1.7976328415   -0.0475638954
C        -1.9848859224   -0.6759702028   -0.7817255910
C        -1.0941960923    0.2408942012   -0.2544839734
C        -0.6553643282    1.4407344335   -1.0471337767
H         0.0088051725    0.7990370438    1.5126621360
H        -0.5776116754   -1.2486966183    2.7783292608
H        -2.1743327329   -2.8689676202    1.8069610373
H        -3.0620138259   -2.5040952834   -0.4709461863
H        -2.4004170344   -0.5102610904   -1.7676878666
H        -1.3991398974    1.6865071802   -1.8048774205
O         0.6226437233    1.2217845646   -1.6668666842
H        -0.5244143939    2.3000984831   -0.3928305391
H         0.5012626424    0.5717335151   -2.3685592532
O         1.2768960978   -0.8001235469    0.3787212566
H         1.3346013948   -0.1633912668   -0.3545236837
$end

$rem
BASIS = 6-311++G(2df,2p)
GUI = 2
JOB_TYPE = Frequency
METHOD = wB97M-V
SOLVENT_METHOD = SMD
SCF_ALGORITHM = DIIS_GDM
MAX_SCF_CYCLES = 400
SCF_CONVERGENCE = 7
THRESH = 12
$end

--------------------------------------------------------------
 ----------------------------------------------------------------
             Standard Nuclear Orientation (Angstroms)
    I     Atom           X                Y                Z
 ----------------------------------------------------------------
    1      C      -0.5326998320     0.0025343068     1.0230088974
    2      C      -0.9680983888    -1.1061386779     1.7802259216
    3      C      -1.8563513933    -2.0070854607     1.2371255274
    4      C      -2.3613365522    -1.7976328415    -0.0475638954
    5      C      -1.9848859224    -0.6759702028    -0.7817255910
    6      C      -1.0941960923     0.2408942012    -0.2544839734
    7      C      -0.6553643282     1.4407344335    -1.0471337767
    8      H       0.0088051725     0.7990370438     1.5126621360
    9      H      -0.5776116754    -1.2486966183     2.7783292608
   10      H      -2.1743327329    -2.8689676202     1.8069610373
   11      H      -3.0620138259    -2.5040952834    -0.4709461863
   12      H      -2.4004170344    -0.5102610904    -1.7676878666
   13      H      -1.3991398974     1.6865071802    -1.8048774205
   14      O       0.6226437233     1.2217845646    -1.6668666842
   15      H      -0.5244143939     2.3000984831    -0.3928305391
   16      H       0.5012626424     0.5717335151    -2.3685592532
   17      O       1.2768960978    -0.8001235469     0.3787212566
   18      H       1.3346013948    -0.1633912668    -0.3545236837
 ----------------------------------------------------------------
 Nuclear Repulsion Energy =         437.19551990 hartrees
 There are       34 alpha and       33 beta electrons
 Requested basis set is 6-311++G(2df,2p)
 There are 126 shells and 396 basis functions

 Total QAlloc Memory Limit 288000 MB
 Mega-Array Size       188 MB
 MEM_STATIC part       192 MB
 
 Citation of the SMD model:
 Marenich, A.V.; Cramer, C.J.; Truhlar, D.G.
 J. Phys. Chem. B 2009, 113, 6378-6396.
 iSolventCode=           1
 Solvent: water                                                           
 
 vradii
            1           2           3           4           5           6
    1   1.8500000   1.8500000   1.8500000   1.8500000   1.8500000   1.8500000
            7           8           9          10          11          12
    1   1.8500000   1.2000000   1.2000000   1.2000000   1.2000000   1.2000000
           13          14          15          16          17          18
    1   1.2000000   1.5200000   1.2000000   1.2000000   1.5200000   1.2000000
 Changing PCM_VDW_RADII to SMD_RADIUS
 Discretize the solute cavity surface with Lebedev spheres
	Using 110 Lebedev grid points for each H atom
	Using 194 Lebedev grid points for other atoms
	Atomic van der Waals radii will be scaled by 1.20
 Remove points where switching function is < 1.0e-08
 Keep 1309 surface tesserae and discard 1427 interior tesserae
 Molecular Surface Area = 155.108 Angst**2
 A cutoff of  1.0D-12 yielded   7303 shell pairs
 There are     73088 function pairs (     90757 Cartesian)
 Smallest overlap matrix eigenvalue = 8.42E-07
 Linear dependence detected in AO basis
 Tighter screening thresholds may be required for diffuse basis sets
 Use S2THRESH > 14 and THRESH = 14 in case of SCF convergence issues
 Number of orthogonalized atomic orbitals = 395
 Maximum deviation from orthogonality = 1.034E-10
 Guess from superposition of atomic densities
 Warning:  Energy on first SCF cycle will be non-variational
 SAD guess density has 67.000000 electrons

 -----------------------------------------------------------------------
  General SCF calculation program by
  Eric Jon Sundstrom, Paul Horn, Yuezhi Mao, Dmitri Zuev, Alec White,
  David Stuck, Shaama M.S., Shane Yost, Joonho Lee, David Small,
  Daniel Levine, Susi Lehtola, Hugh Burton, Evgeny Epifanovsky,
  Bang C. Huynh
 -----------------------------------------------------------------------
 Exchange:     0.1500 Hartree-Fock + 1.0000 wB97M-V + LR-HF
 Correlation:  1.0000 wB97M-V
 Using SG-2 standard quadrature grid
 Nonlocal Correlation:  VV10 with C = 0.0100 and b = 6.00 and scale = 1.00000
 Grid used for NLC:  SG-1 standard quadrature
 using 16 threads for integral computing
 -------------------------------------------------------
 OpenMP Integral computing Module                
 Release: version 1.0, May 2013, Q-Chem Inc. Pittsburgh 
 -------------------------------------------------------
 
 Citation of the SMD model:
 Marenich, A.V.; Cramer, C.J.; Truhlar, D.G.
 J. Phys. Chem. B 2009, 113, 6378-6396.
 iSolventCode=           1
 Solvent: water                                                           
 
 vradii
            1           2           3           4           5           6
    1   1.8500000   1.8500000   1.8500000   1.8500000   1.8500000   1.8500000
            7           8           9          10          11          12
    1   1.8500000   1.2000000   1.2000000   1.2000000   1.2000000   1.2000000
           13          14          15          16          17          18
    1   1.2000000   1.5200000   1.2000000   1.2000000   1.5200000   1.2000000
 -------------------------------------------------------
 OpenMP BLAS3 based DFT computing Module                
 Release: version 1.0, May 2013, Q-Chem Inc. Pittsburgh 
 -------------------------------------------------------
 A unrestricted SCF calculation will be
 performed using DIIS, GDM
 SCF converges when RMS gradient is below 1.0e-07
 ---------------------------------------
  Cycle       Energy         DIIS error
 ---------------------------------------
    1    -424.8844627907      1.26e-02  
    2    -422.3612628066      1.42e-03  Done DIIS. Switching to GDM
 ---------------------------------------
  Cycle       Energy        RMS Gradient
 ---------------------------------------
    1    -422.3612628066      2.23e-01   Descent step
    2    -422.4851403643      2.23e-02   Normal BFGS step
    3    -422.5014203697      3.63e-02   Normal BFGS step
    4    -422.5054597799      1.64e-02   Normal BFGS step
    5    -422.5068174257      1.29e-02   Normal BFGS step
    6    -422.5076992918      8.23e-03   Normal BFGS step
    7    -422.5079885447      2.85e-03   Normal BFGS step
    8    -422.5080446597      1.16e-03   Normal BFGS step
    9    -422.5080630193      8.98e-04   Normal BFGS step
   10    -422.5080688252      4.18e-04   Normal BFGS step
   11    -422.5080713562      2.17e-04   Normal BFGS step
   12    -422.5080719422      1.35e-04   Normal BFGS step
   13    -422.5080720607      9.55e-05   Normal BFGS step
   14    -422.5080721013      7.36e-05   Normal BFGS step
   15    -422.5080721162      5.07e-05   Normal BFGS step
   16    -422.5080721241      2.81e-05   Normal BFGS step
   17    -422.5080721286      1.25e-05   Normal BFGS step
   18    -422.5080721301      6.78e-06   Normal BFGS step
   19    -422.5080721304      2.39e-06   Normal BFGS step
   20    -422.5080721305      1.26e-06   Normal BFGS step
   21    -422.5080721305      4.81e-07   Normal BFGS step
   22    -422.5080721304      2.19e-07   Normal BFGS step
   23    -422.5080721304      9.08e-08  Convergence criterion met
 ---------------------------------------
 SCF time:   CPU 2714.48s  wall 186.00s 
<S^2> =          0.783663221
(3)  G-ENP(liq) elect-nuc-pol free energy of system     -422.508072130 a.u.
(4)  G-CDS(liq) cavity-dispersion-solvent structure 
     free energy                                                3.3315 kcal/mol
(6)  G-S(liq) free energy of system                     -422.502763001 a.u.
 SCF   energy in the final basis set =     -422.5027630009
 Total energy in the final basis set =     -422.5027630009
 
 --------------------------------------------------------------
 
                    Orbital Energies (a.u.)
 --------------------------------------------------------------
 
 Alpha MOs
 -- Occupied --
-19.3445 -19.3371 -10.3900 -10.3740 -10.3649 -10.3589 -10.3569 -10.3488
-10.3483  -1.1604  -1.0921  -0.9958  -0.9007  -0.8801  -0.8022  -0.7351
 -0.7112  -0.6417  -0.6160  -0.5821  -0.5718  -0.5504  -0.5484  -0.5315
 -0.5268  -0.5068  -0.4734  -0.4524  -0.4446  -0.4390  -0.4124  -0.3960
 -0.3570  -0.3212
 -- Virtual --
  0.0238   0.0359   0.0367   0.0477   0.0525   0.0563   0.0574   0.0583
  0.0817   0.0852   0.0899   0.0933   0.1062   0.1251   0.1377   0.1393
  0.1443   0.1505   0.1590   0.1597   0.1615   0.1631   0.1728   0.1773
  0.1792   0.1823   0.1923   0.1968   0.2038   0.2154   0.2159   0.2175
  0.2285   0.2406   0.2451   0.2562   0.2622   0.2707   0.2744   0.2874
  0.2905   0.3014   0.3105   0.3152   0.3189   0.3293   0.3394   0.3451
  0.3462   0.3561   0.3561   0.3598   0.3694   0.3733   0.3905   0.4089
  0.4207   0.4265   0.4358   0.4497   0.4607   0.5087   0.5290   0.5332
  0.5458   0.5777   0.5869   0.6028   0.6061   0.6106   0.6151   0.6174
  0.6214   0.6278   0.6355   0.6455   0.6644   0.6796   0.6880   0.6945
  0.6962   0.7098   0.7181   0.7245   0.7307   0.7322   0.7418   0.7463
  0.7523   0.7661   0.7844   0.7921   0.8127   0.8176   0.8274   0.8389
  0.8459   0.8605   0.8700   0.8810   0.8961   0.8993   0.9074   0.9168
  0.9246   0.9642   0.9878   1.0223   1.0387   1.0554   1.0752   1.0848
  1.1053   1.1082   1.1231   1.1416   1.1582   1.1627   1.1659   1.1906
  1.2002   1.2115   1.2266   1.2313   1.2376   1.2537   1.2671   1.2770
  1.2983   1.3102   1.3171   1.3226   1.3395   1.3577   1.3783   1.3866
  1.3967   1.4126   1.4181   1.4326   1.4457   1.4491   1.4541   1.4682
  1.4805   1.4935   1.5073   1.5426   1.5469   1.5688   1.5756   1.5789
  1.5939   1.6209   1.6621   1.6761   1.6908   1.7204   1.7449   1.7671
  1.7797   1.8087   1.8394   1.8515   1.8693   1.9003   1.9395   1.9696
  1.9933   2.0403   2.0627   2.0668   2.0841   2.1239   2.1331   2.1530
  2.2253   2.2651   2.3434   2.4111   2.4603   2.5742   2.5981   2.6437
  2.6515   2.6671   2.6874   2.7119   2.7513   2.7935   2.8049   2.8136
  2.8183   2.8303   2.8469   2.8614   2.8663   2.8712   2.8911   2.9105
  2.9190   2.9261   2.9463   2.9653   2.9721   2.9938   2.9993   3.0266
  3.0367   3.0603   3.0944   3.1411   3.1488   3.1634   3.1726   3.1859
  3.1920   3.2061   3.2213   3.2395   3.2566   3.2694   3.2840   3.2901
  3.3082   3.3256   3.3489   3.3635   3.3696   3.3881   3.4076   3.4342
  3.4365   3.4551   3.4631   3.4762   3.5080   3.5170   3.5359   3.5601
  3.5652   3.5697   3.5922   3.6102   3.6208   3.6579   3.6668   3.6835
  3.7341   3.7460   3.7646   3.7876   3.7991   3.8187   3.8262   3.8427
  3.8553   3.8832   3.8862   3.9001   3.9180   3.9278   3.9387   3.9546
  3.9661   3.9876   4.0294   4.0417   4.0819   4.1054   4.1421   4.1554
  4.1660   4.1855   4.1935   4.2063   4.2558   4.2787   4.2882   4.3179
  4.3479   4.3680   4.3778   4.3940   4.4051   4.4225   4.4480   4.4666
  4.4712   4.4843   4.4919   4.5318   4.5480   4.5662   4.5881   4.5999
  4.6153   4.6287   4.6902   4.7414   4.7715   4.7999   4.8214   4.8720
  4.9373   5.0412   5.1209   5.1407   5.1479   5.1813   5.1984   5.2055
  5.2242   5.2489   5.2580   5.2842   5.2931   5.3074   5.3324   5.3538
  5.3993   5.4669   5.4882   5.5095   5.5527   5.5929   5.6651   5.6844
  5.7063   5.7208   5.7550   5.8138   5.8548   5.8583   5.9058   5.9296
  6.0169   6.2361   6.5847   6.6135   7.0020   7.0506   7.1136   7.1347
  7.1929   7.2886   7.3105   7.3594   7.4025   7.6125   7.6595   7.7967
 24.1989  24.7404  24.7951  24.8083  24.9925  25.0589  25.4897  50.5208
 50.6046
 
 Beta MOs
 -- Occupied --
-19.3442 -19.3197 -10.3902 -10.3740 -10.3619 -10.3559 -10.3541 -10.3503
-10.3497  -1.1596  -1.0523  -0.9908  -0.8976  -0.8753  -0.8019  -0.7317
 -0.7084  -0.6402  -0.6148  -0.5788  -0.5690  -0.5437  -0.5383  -0.5277
 -0.5212  -0.4847  -0.4688  -0.4503  -0.4376  -0.3949  -0.3924  -0.3667
 -0.3497
 -- Virtual --
 -0.0615   0.0240   0.0360   0.0369   0.0486   0.0552   0.0570   0.0638
  0.0701   0.0851   0.0856   0.0916   0.0938   0.1069   0.1254   0.1380
  0.1409   0.1445   0.1506   0.1592   0.1597   0.1614   0.1635   0.1737
  0.1772   0.1800   0.1827   0.1936   0.1977   0.2040   0.2154   0.2162
  0.2174   0.2284   0.2405   0.2489   0.2574   0.2634   0.2716   0.2742
  0.2874   0.2925   0.3025   0.3117   0.3173   0.3203   0.3297   0.3405
  0.3455   0.3475   0.3562   0.3593   0.3612   0.3710   0.3736   0.3932
  0.4097   0.4218   0.4275   0.4377   0.4515   0.4622   0.5094   0.5302
  0.5340   0.5482   0.5793   0.5888   0.6048   0.6085   0.6122   0.6163
  0.6204   0.6248   0.6300   0.6364   0.6464   0.6681   0.6817   0.6892
  0.6962   0.6974   0.7116   0.7196   0.7265   0.7313   0.7333   0.7430
  0.7474   0.7534   0.7676   0.7864   0.7932   0.8151   0.8198   0.8287
  0.8414   0.8475   0.8609   0.8718   0.8835   0.8988   0.9007   0.9089
  0.9187   0.9264   0.9658   0.9905   1.0236   1.0407   1.0568   1.0768
  1.0863   1.1080   1.1104   1.1264   1.1430   1.1600   1.1647   1.1683
  1.1932   1.2054   1.2147   1.2314   1.2337   1.2411   1.2556   1.2717
  1.2797   1.2999   1.3129   1.3236   1.3277   1.3424   1.3647   1.3813
  1.3884   1.4007   1.4153   1.4208   1.4347   1.4474   1.4538   1.4561
  1.4707   1.4827   1.4960   1.5100   1.5435   1.5486   1.5708   1.5767
  1.5819   1.5953   1.6214   1.6652   1.6783   1.6943   1.7256   1.7558
  1.7736   1.7812   1.8113   1.8474   1.8575   1.8807   1.9057   1.9471
  1.9758   2.0023   2.0492   2.0654   2.0700   2.0873   2.1310   2.1386
  2.1623   2.2287   2.2698   2.3448   2.4124   2.4650   2.5798   2.6008
  2.6471   2.6556   2.6696   2.6898   2.7150   2.7556   2.7951   2.8127
  2.8194   2.8234   2.8332   2.8497   2.8686   2.8723   2.8745   2.8957
  2.9158   2.9235   2.9284   2.9518   2.9713   2.9804   3.0006   3.0071
  3.0314   3.0437   3.0648   3.0976   3.1442   3.1505   3.1664   3.1762
  3.1911   3.1950   3.2094   3.2252   3.2450   3.2597   3.2730   3.2879
  3.2953   3.3104   3.3288   3.3519   3.3665   3.3741   3.3902   3.4123
  3.4369   3.4394   3.4589   3.4679   3.4807   3.5111   3.5221   3.5386
  3.5637   3.5672   3.5731   3.5957   3.6167   3.6274   3.6577   3.6711
  3.6856   3.7358   3.7502   3.7701   3.7922   3.8021   3.8221   3.8300
  3.8484   3.8609   3.8868   3.8895   3.9044   3.9225   3.9320   3.9419
  3.9577   3.9694   3.9920   4.0353   4.0444   4.0833   4.1097   4.1451
  4.1600   4.1684   4.1895   4.1960   4.2094   4.2595   4.2826   4.2914
  4.3198   4.3531   4.3720   4.3815   4.3971   4.4087   4.4246   4.4514
  4.4708   4.4760   4.4919   4.4947   4.5380   4.5543   4.5703   4.5938
  4.6049   4.6199   4.6324   4.6956   4.7483   4.7757   4.8041   4.8281
  4.8786   4.9411   5.0480   5.1403   5.1530   5.1589   5.2036   5.2187
  5.2349   5.2446   5.2729   5.2860   5.2890   5.3102   5.3318   5.3466
  5.3940   5.4265   5.4802   5.4981   5.5163   5.5571   5.5956   5.6783
  5.6987   5.7196   5.7367   5.7645   5.8214   5.8580   5.8586   5.9092
  5.9322   6.0180   6.2407   6.5887   6.6156   7.0640   7.0869   7.1221
  7.2076   7.2406   7.3089   7.3262   7.3748   7.4159   7.6328   7.6863
  7.7995  24.1995  24.7412  24.7951  24.8096  24.9940  25.0596  25.4911
 50.5331  50.6049
 --------------------------------------------------------------
 
          Ground-State Mulliken Net Atomic Charges

     Atom                 Charge (a.u.)    Spin (a.u.)
  --------------------------------------------------------
      1 C                     0.028979      -0.051417
      2 C                    -0.306817       0.191321
      3 C                    -0.453830      -0.090044
      4 C                    -0.199421       0.210140
      5 C                    -0.494220      -0.082657
      6 C                     0.298766       0.195532
      7 C                    -0.514379      -0.003510
      8 H                     0.370652       0.011704
      9 H                     0.293751      -0.004088
     10 H                     0.280837       0.002263
     11 H                     0.295697      -0.003742
     12 H                     0.272107       0.002413
     13 H                     0.201608       0.000633
     14 O                    -0.398146       0.006760
     15 H                     0.216720       0.002418
     16 H                     0.328724      -0.000260
     17 O                    -0.535371       0.617077
     18 H                     0.314343      -0.004542
  --------------------------------------------------------
  Sum of atomic charges =    -0.000000
  Sum of spin   charges =     1.000000

 -----------------------------------------------------------------
                    Cartesian Multipole Moments
 -----------------------------------------------------------------
    Charge (ESU x 10^10)
                 0.0000
    Dipole Moment (Debye)
         X      -5.2743      Y       0.8319      Z      -1.6641
       Tot       5.5928
    Quadrupole Moments (Debye-Ang)
        XX     -55.0711     XY       5.0027     YY     -53.2492
        XZ       1.6723     YZ       0.8513     ZZ     -44.6396
    Octopole Moments (Debye-Ang^2)
       XXX     119.6763    XXY       8.0717    XYY      20.5618
       YYY      53.1686    XXZ     -14.7434    XYZ       8.9518
       YYZ       8.0022    XZZ      35.8934    YZZ      10.9248
       ZZZ     -14.2008
    Hexadecapole Moments (Debye-Ang^3)
      XXXX    -730.1525   XXXY    -122.5993   XXYY    -183.7674
      XYYY    -126.6856   YYYY    -557.3853   XXXZ      57.2323
      XXYZ      53.9559   XYYZ      10.4850   YYYZ     139.0964
      XXZZ    -197.9302   XYZZ     -51.9152   YYZZ    -173.3557
      XZZZ      41.7293   YZZZ     132.3952   ZZZZ    -416.0476
 -----------------------------------------------------------------
 Calculating analytic gradient of the SCF energy
 Gradient of CDS energy
            1           2           3           4           5           6
    1  -0.0000562   0.0001756  -0.0001065  -0.0003290  -0.0001538   0.0003931
    2   0.0002395   0.0000391  -0.0003801  -0.0003303   0.0002269  -0.0002164
    3   0.0000676   0.0003648   0.0003032  -0.0002222  -0.0002417  -0.0000203
            7           8           9          10          11          12
    1  -0.0002930   0.0001372   0.0000744  -0.0000609  -0.0001335  -0.0000617
    2   0.0010910   0.0001301  -0.0000271  -0.0001650  -0.0001347   0.0000746
    3  -0.0002302   0.0000363   0.0001901   0.0001091  -0.0000807  -0.0001643
           13          14          15          16          17          18
    1  -0.0000843  -0.0001772   0.0001876   0.0002490  -0.0001485   0.0003877
    2  -0.0002429  -0.0002014  -0.0000632  -0.0000205  -0.0000620   0.0000425
    3  -0.0001310   0.0002018   0.0002359  -0.0004738   0.0001697  -0.0001142
 Gradient of SCF Energy
            1           2           3           4           5           6
    1   0.0039919  -0.0033197   0.0031101   0.0059704   0.0019651  -0.0009456
    2  -0.0038837   0.0025094   0.0058100   0.0023683  -0.0032044   0.0023252
    3  -0.0006093  -0.0033116  -0.0013158   0.0047360   0.0050906   0.0051143
            7           8           9          10          11          12
    1   0.0083392  -0.0013602  -0.0001530  -0.0023207  -0.0060678  -0.0044497
    2  -0.0091992   0.0044518  -0.0001441  -0.0047268  -0.0056382   0.0022305
    3   0.0021400   0.0014660   0.0030657   0.0030045  -0.0037281  -0.0111835
           13          14          15          16          17          18
    1  -0.0068906   0.0049703  -0.0015427  -0.0043816   0.0053295  -0.0022450
    2   0.0014258   0.0119376   0.0053939  -0.0094105  -0.0027055   0.0004602
    3  -0.0076929   0.0109433   0.0049410  -0.0099270  -0.0016779  -0.0010555
 Max gradient component =       1.194E-02
 RMS gradient           =       5.101E-03
 Computing fast CPCM-SWIG gradient
 Updating gradient with PCM contributions...
 -- total gradient after adding PCM contribution --
---------------------------------------------------
  Atom         X              Y              Z     
---------------------------------------------------
   1      -0.000043      -0.000002       0.000000
   2      -0.000001      -0.000017      -0.000037
   3      -0.000017       0.000003      -0.000006
   4      -0.000021       0.000011      -0.000037
   5      -0.000053       0.000040       0.000028
   6       0.000069      -0.000006      -0.000030
   7      -0.000008      -0.000022       0.000118
   8       0.000011      -0.000037       0.000026
   9      -0.000022      -0.000013      -0.000006
  10      -0.000018      -0.000002      -0.000036
  11       0.000001       0.000012      -0.000034
  12       0.000007       0.000015      -0.000012
  13       0.000054      -0.000014      -0.000024
  14       0.000075       0.000045      -0.000107
  15      -0.000044      -0.000002       0.000025
  16       0.000002       0.000020       0.000019
  17       0.000114       0.000036       0.000049
  18      -0.000104      -0.000067       0.000066
---------------------------------------------------
 Number of fixed atoms: 0
 Gradient time:  CPU 333.33 s  wall 27.98 s
 ######################################################
 ######################################################
 # Starting finite difference calculation for IDERIV  #
 Finite diff step size:  1.88973e-03 a.u.
 ----------------------------------------------------------------
             Standard Nuclear Orientation (Angstroms)
    I     Atom           X                Y                Z
 ----------------------------------------------------------------
    1      C      -0.5316998320     0.0025343068     1.0230088974
    2      C      -0.9680983888    -1.1061386779     1.7802259216
    3      C      -1.8563513933    -2.0070854607     1.2371255274
    4      C      -2.3613365522    -1.7976328415    -0.0475638954
    5      C      -1.9848859224    -0.6759702028    -0.7817255910
    6      C      -1.0941960923     0.2408942012    -0.2544839734
    7      C      -0.6553643282     1.4407344335    -1.0471337767
    8      H       0.0088051725     0.7990370438     1.5126621360
    9      H      -0.5776116754    -1.2486966183     2.7783292608
   10      H      -2.1743327329    -2.8689676202     1.8069610373
   11      H      -3.0620138259    -2.5040952834    -0.4709461863
   12      H      -2.4004170344    -0.5102610904    -1.7676878666
   13      H      -1.3991398974     1.6865071802    -1.8048774205
   14      O       0.6226437233     1.2217845646    -1.6668666842
   15      H      -0.5244143939     2.3000984831    -0.3928305391
   16      H       0.5012626424     0.5717335151    -2.3685592532
   17      O       1.2768960978    -0.8001235469     0.3787212566
   18      H       1.3346013948    -0.1633912668    -0.3545236837
 ----------------------------------------------------------------
 Nuclear Repulsion Energy =         437.19068767 hartrees
 There are       34 alpha and       33 beta electrons
 Discretize the solute cavity surface with Lebedev spheres
	Using 110 Lebedev grid points for each H atom
	Using 194 Lebedev grid points for other atoms
	Atomic van der Waals radii will be scaled by 1.20
 Remove points where switching function is < 1.0e-08
 Keep 1309 surface tesserae and discard 1427 interior tesserae
 Molecular Surface Area = 155.105 Angst**2
 Requested basis set is 6-311++G(2df,2p)
 There are 126 shells and 396 basis functions
 A cutoff of  1.0D-12 yielded   7303 shell pairs
 There are     73088 function pairs (     90757 Cartesian)
 Smallest overlap matrix eigenvalue = 8.46E-07
 Linear dependence detected in AO basis
 Tighter screening thresholds may be required for diffuse basis sets
 Use S2THRESH > 14 and THRESH = 14 in case of SCF convergence issues
 Number of orthogonalized atomic orbitals = 395
 Maximum deviation from orthogonality = 7.117E-11
 Guess MOs from SCF MO coefficient file

 -----------------------------------------------------------------------
  General SCF calculation program by
  Eric Jon Sundstrom, Paul Horn, Yuezhi Mao, Dmitri Zuev, Alec White,
  David Stuck, Shaama M.S., Shane Yost, Joonho Lee, David Small,
  Daniel Levine, Susi Lehtola, Hugh Burton, Evgeny Epifanovsky,
  Bang C. Huynh
 -----------------------------------------------------------------------
 Exchange:     0.1500 Hartree-Fock + 1.0000 wB97M-V + LR-HF
 Correlation:  1.0000 wB97M-V
 Using SG-2 standard quadrature grid
 Nonlocal Correlation:  VV10 with C = 0.0100 and b = 6.00 and scale = 1.00000
 Grid used for NLC:  SG-1 standard quadrature
 
 Citation of the SMD model:
 Marenich, A.V.; Cramer, C.J.; Truhlar, D.G.
 J. Phys. Chem. B 2009, 113, 6378-6396.
 iSolventCode=           1
 Solvent: water                                                           
 
 vradii
            1           2           3           4           5           6
    1   1.8500000   1.8500000   1.8500000   1.8500000   1.8500000   1.8500000
            7           8           9          10          11          12
    1   1.8500000   1.2000000   1.2000000   1.2000000   1.2000000   1.2000000
           13          14          15          16          17          18
    1   1.2000000   1.5200000   1.2000000   1.2000000   1.5200000   1.2000000
 -------------------------------------------------------
 OpenMP BLAS3 based DFT computing Module                
 Release: version 1.0, May 2013, Q-Chem Inc. Pittsburgh 
 -------------------------------------------------------
 A unrestricted SCF calculation will be
 performed using Roothaan-Hall, DIIS, GDM
 SCF converges when RMS gradient is below 1.0e-07
 ---------------------------------------
  Cycle       Energy         DIIS error
 ---------------------------------------
    1    -422.4734419151      2.10e-04  Roothaan Step
 ---------------------------------------
  Cycle       Energy         DIIS error
 ---------------------------------------
    1    -422.5002059656      2.57e-04  
    2    -422.5041110193      2.64e-04  Done DIIS. Switching to GDM
 ---------------------------------------
  Cycle       Energy        RMS Gradient
 ---------------------------------------
    1    -422.5041110193      2.04e-02   Normal BFGS step
    2    -422.5033557609      3.78e-02  Line search: overstep
    3    -422.5077891252      8.17e-03   Normal BFGS step
    4    -422.5079681052      3.59e-03   Normal BFGS step
    5    -422.5080348103      2.91e-03   Normal BFGS step
    6    -422.5080544219      1.74e-03   Normal BFGS step
    7    -422.5080681233      4.85e-04   Normal BFGS step
    8    -422.5080707140      2.86e-04   Normal BFGS step
    9    -422.5080713532      1.10e-04   Normal BFGS step
   10    -422.5080715649      8.15e-05   Normal BFGS step
   11    -422.5080716538      6.21e-05   Normal BFGS step
   12    -422.5080716886      4.11e-05   Normal BFGS step
   13    -422.5080716955      3.07e-05   Normal BFGS step
   14    -422.5080716987      2.24e-05   Normal BFGS step
   15    -422.5080717005      1.18e-05   Normal BFGS step
   16    -422.5080717011      8.03e-06   Normal BFGS step
   17    -422.5080717014      3.46e-06   Normal BFGS step
   18    -422.5080717014      2.14e-06   Normal BFGS step
   19    -422.5080717015      8.75e-07   Normal BFGS step
   20    -422.5080717014      1.83e-07   Normal BFGS step
   21    -422.5080717014      7.22e-08  Convergence criterion met
 ---------------------------------------
 SCF time:   CPU 2642.25s  wall 181.00s 
<S^2> =          0.783810681
(3)  G-ENP(liq) elect-nuc-pol free energy of system     -422.508071701 a.u.
(4)  G-CDS(liq) cavity-dispersion-solvent structure 
     free energy                                                3.3315 kcal/mol
(6)  G-S(liq) free energy of system                     -422.502762677 a.u.
 SCF   energy in the final basis set =     -422.5027626772
 Total energy in the final basis set =     -422.5027626772
 
 --------------------------------------------------------------
 
                    Orbital Energies (a.u.)
 --------------------------------------------------------------
 
 Alpha MOs
 -- Occupied --
-19.3445 -19.3370 -10.3900 -10.3741 -10.3649 -10.3590 -10.3569 -10.3489
-10.3484  -1.1604  -1.0920  -0.9958  -0.9007  -0.8801  -0.8022  -0.7351
 -0.7112  -0.6417  -0.6160  -0.5821  -0.5718  -0.5503  -0.5484  -0.5316
 -0.5268  -0.5068  -0.4734  -0.4524  -0.4445  -0.4390  -0.4124  -0.3960
 -0.3570  -0.3211
 -- Virtual --
  0.0238   0.0359   0.0367   0.0477   0.0525   0.0563   0.0574   0.0582
  0.0817   0.0852   0.0899   0.0933   0.1062   0.1251   0.1377   0.1393
  0.1443   0.1505   0.1590   0.1597   0.1615   0.1631   0.1728   0.1773
  0.1792   0.1823   0.1923   0.1968   0.2038   0.2154   0.2159   0.2175
  0.2285   0.2405   0.2451   0.2561   0.2622   0.2707   0.2744   0.2874
  0.2905   0.3014   0.3105   0.3153   0.3189   0.3293   0.3394   0.3451
  0.3461   0.3560   0.3561   0.3598   0.3694   0.3733   0.3905   0.4089
  0.4206   0.4264   0.4358   0.4497   0.4608   0.5088   0.5290   0.5332
  0.5456   0.5777   0.5869   0.6028   0.6061   0.6106   0.6151   0.6174
  0.6214   0.6277   0.6355   0.6455   0.6643   0.6796   0.6880   0.6946
  0.6961   0.7098   0.7180   0.7245   0.7307   0.7322   0.7418   0.7464
  0.7523   0.7661   0.7844   0.7920   0.8127   0.8176   0.8274   0.8389
  0.8459   0.8604   0.8700   0.8809   0.8960   0.8992   0.9074   0.9167
  0.9246   0.9642   0.9879   1.0223   1.0387   1.0554   1.0753   1.0849
  1.1053   1.1082   1.1231   1.1416   1.1581   1.1627   1.1659   1.1906
  1.2002   1.2116   1.2267   1.2313   1.2376   1.2538   1.2671   1.2770
  1.2983   1.3102   1.3172   1.3226   1.3395   1.3576   1.3783   1.3866
  1.3967   1.4126   1.4180   1.4325   1.4457   1.4490   1.4541   1.4681
  1.4804   1.4935   1.5073   1.5425   1.5469   1.5688   1.5756   1.5789
  1.5939   1.6209   1.6623   1.6760   1.6907   1.7203   1.7449   1.7670
  1.7797   1.8086   1.8393   1.8515   1.8691   1.9001   1.9395   1.9696
  1.9933   2.0402   2.0626   2.0666   2.0839   2.1241   2.1332   2.1530
  2.2253   2.2648   2.3434   2.4111   2.4603   2.5744   2.5981   2.6434
  2.6515   2.6670   2.6874   2.7119   2.7513   2.7935   2.8049   2.8136
  2.8181   2.8302   2.8468   2.8614   2.8663   2.8712   2.8910   2.9103
  2.9189   2.9261   2.9463   2.9653   2.9724   2.9937   2.9992   3.0265
  3.0367   3.0603   3.0943   3.1412   3.1487   3.1632   3.1727   3.1860
  3.1919   3.2061   3.2212   3.2394   3.2566   3.2692   3.2840   3.2901
  3.3082   3.3254   3.3488   3.3635   3.3696   3.3880   3.4077   3.4340
  3.4365   3.4551   3.4631   3.4761   3.5080   3.5171   3.5359   3.5602
  3.5653   3.5697   3.5922   3.6102   3.6208   3.6582   3.6669   3.6835
  3.7342   3.7458   3.7645   3.7874   3.7990   3.8186   3.8262   3.8427
  3.8552   3.8832   3.8860   3.9000   3.9177   3.9278   3.9386   3.9545
  3.9658   3.9876   4.0292   4.0415   4.0817   4.1052   4.1422   4.1554
  4.1660   4.1855   4.1936   4.2062   4.2560   4.2788   4.2881   4.3178
  4.3477   4.3681   4.3778   4.3939   4.4051   4.4224   4.4479   4.4667
  4.4714   4.4840   4.4919   4.5314   4.5476   4.5661   4.5880   4.5999
  4.6154   4.6285   4.6900   4.7410   4.7714   4.7999   4.8211   4.8719
  4.9372   5.0409   5.1208   5.1409   5.1478   5.1814   5.1983   5.2056
  5.2241   5.2491   5.2581   5.2842   5.2933   5.3075   5.3325   5.3540
  5.3993   5.4670   5.4879   5.5095   5.5527   5.5928   5.6652   5.6845
  5.7063   5.7207   5.7547   5.8135   5.8546   5.8590   5.9055   5.9294
  6.0169   6.2357   6.5839   6.6133   7.0025   7.0508   7.1136   7.1350
  7.1934   7.2888   7.3105   7.3594   7.4026   7.6126   7.6596   7.7967
 24.1991  24.7399  24.7950  24.8082  24.9918  25.0587  25.4890  50.5210
 50.6047
 
 Beta MOs
 -- Occupied --
-19.3442 -19.3196 -10.3902 -10.3742 -10.3620 -10.3559 -10.3541 -10.3503
-10.3498  -1.1596  -1.0523  -0.9908  -0.8976  -0.8753  -0.8019  -0.7317
 -0.7084  -0.6402  -0.6148  -0.5788  -0.5690  -0.5438  -0.5383  -0.5277
 -0.5212  -0.4847  -0.4688  -0.4503  -0.4377  -0.3949  -0.3923  -0.3668
 -0.3497
 -- Virtual --
 -0.0615   0.0240   0.0360   0.0369   0.0486   0.0552   0.0570   0.0638
  0.0701   0.0851   0.0856   0.0916   0.0938   0.1069   0.1254   0.1380
  0.1409   0.1445   0.1506   0.1592   0.1597   0.1614   0.1635   0.1737
  0.1772   0.1800   0.1827   0.1936   0.1977   0.2040   0.2154   0.2162
  0.2174   0.2284   0.2404   0.2488   0.2574   0.2634   0.2716   0.2742
  0.2874   0.2925   0.3025   0.3116   0.3173   0.3203   0.3297   0.3405
  0.3455   0.3475   0.3562   0.3592   0.3612   0.3710   0.3736   0.3932
  0.4096   0.4217   0.4274   0.4376   0.4516   0.4623   0.5094   0.5302
  0.5340   0.5480   0.5793   0.5888   0.6048   0.6084   0.6122   0.6164
  0.6204   0.6249   0.6299   0.6364   0.6464   0.6681   0.6817   0.6892
  0.6963   0.6974   0.7116   0.7195   0.7265   0.7312   0.7333   0.7430
  0.7474   0.7534   0.7676   0.7865   0.7932   0.8150   0.8197   0.8287
  0.8414   0.8475   0.8608   0.8718   0.8834   0.8988   0.9006   0.9089
  0.9186   0.9264   0.9658   0.9905   1.0235   1.0407   1.0568   1.0769
  1.0863   1.1080   1.1104   1.1264   1.1430   1.1599   1.1647   1.1682
  1.1931   1.2054   1.2147   1.2315   1.2337   1.2412   1.2556   1.2717
  1.2796   1.2999   1.3129   1.3236   1.3277   1.3424   1.3646   1.3812
  1.3883   1.4006   1.4153   1.4207   1.4347   1.4473   1.4537   1.4562
  1.4707   1.4827   1.4960   1.5101   1.5435   1.5487   1.5708   1.5767
  1.5819   1.5953   1.6214   1.6653   1.6782   1.6942   1.7255   1.7558
  1.7735   1.7811   1.8112   1.8472   1.8575   1.8807   1.9055   1.9471
  1.9758   2.0023   2.0491   2.0653   2.0698   2.0872   2.1311   2.1387
  2.1622   2.2287   2.2694   2.3447   2.4124   2.4650   2.5800   2.6008
  2.6468   2.6556   2.6694   2.6898   2.7150   2.7556   2.7951   2.8127
  2.8193   2.8233   2.8332   2.8495   2.8685   2.8724   2.8745   2.8956
  2.9157   2.9235   2.9284   2.9517   2.9714   2.9807   3.0006   3.0069
  3.0314   3.0438   3.0647   3.0976   3.1442   3.1504   3.1662   3.1763
  3.1912   3.1949   3.2094   3.2252   3.2449   3.2597   3.2729   3.2879
  3.2954   3.3105   3.3287   3.3518   3.3666   3.3741   3.3901   3.4123
  3.4367   3.4394   3.4589   3.4679   3.4806   3.5110   3.5222   3.5387
  3.5638   3.5673   3.5731   3.5958   3.6166   3.6275   3.6579   3.6712
  3.6856   3.7358   3.7500   3.7700   3.7920   3.8020   3.8220   3.8300
  3.8483   3.8608   3.8868   3.8894   3.9043   3.9223   3.9319   3.9418
  3.9576   3.9691   3.9921   4.0351   4.0442   4.0831   4.1096   4.1452
  4.1601   4.1684   4.1894   4.1960   4.2094   4.2596   4.2827   4.2913
  4.3197   4.3530   4.3720   4.3815   4.3970   4.4087   4.4246   4.4514
  4.4710   4.4761   4.4916   4.4948   4.5376   4.5539   4.5702   4.5937
  4.6049   4.6199   4.6322   4.6955   4.7480   4.7756   4.8041   4.8278
  4.8785   4.9410   5.0477   5.1403   5.1532   5.1588   5.2034   5.2187
  5.2348   5.2446   5.2730   5.2860   5.2891   5.3103   5.3319   5.3466
  5.3940   5.4268   5.4801   5.4979   5.5163   5.5571   5.5956   5.6784
  5.6987   5.7194   5.7368   5.7643   5.8211   5.8583   5.8588   5.9089
  5.9321   6.0180   6.2404   6.5879   6.6154   7.0642   7.0871   7.1221
  7.2078   7.2408   7.3089   7.3264   7.3749   7.4159   7.6329   7.6864
  7.7995  24.1998  24.7407  24.7950  24.8095  24.9933  25.0594  25.4904
 50.5334  50.6050
 --------------------------------------------------------------
 
          Ground-State Mulliken Net Atomic Charges

     Atom                 Charge (a.u.)    Spin (a.u.)
  --------------------------------------------------------
      1 C                     0.029041      -0.051570
      2 C                    -0.307086       0.191981
      3 C                    -0.453192      -0.090328
      4 C                    -0.199903       0.210882
      5 C                    -0.494552      -0.082880
      6 C                     0.298901       0.196089
      7 C                    -0.513591      -0.003529
      8 H                     0.370685       0.011690
      9 H                     0.293736      -0.004093
     10 H                     0.280880       0.002268
     11 H                     0.295647      -0.003749
     12 H                     0.272148       0.002420
     13 H                     0.201576       0.000634
     14 O                    -0.398118       0.006786
     15 H                     0.216780       0.002427
     16 H                     0.328717      -0.000258
     17 O                    -0.535939       0.615750
     18 H                     0.314269      -0.004521
  --------------------------------------------------------
  Sum of atomic charges =    -0.000000
  Sum of spin   charges =     1.000000

 -----------------------------------------------------------------
                    Cartesian Multipole Moments
 -----------------------------------------------------------------
    Charge (ESU x 10^10)
                -0.0000
    Dipole Moment (Debye)
         X      -5.2822      Y       0.8329      Z      -1.6627
       Tot       5.6000
    Quadrupole Moments (Debye-Ang)
        XX     -55.0715     XY       5.0122     YY     -53.2457
        XZ       1.6707     YZ       0.8544     ZZ     -44.6366
    Octopole Moments (Debye-Ang^2)
       XXX     119.6166    XXY       8.0646    XYY      20.5369
       YYY      53.1603    XXZ     -14.7458    XYZ       8.9516
       YYZ       8.0040    XZZ      35.8814    YZZ      10.9277
       ZZZ     -14.1985
    Hexadecapole Moments (Debye-Ang^3)
      XXXX    -730.0875   XXXY    -122.5365   XXYY    -183.7370
      XYYY    -126.6386   YYYY    -557.3416   XXXZ      57.2120
      XXYZ      53.9604   XYYZ      10.4734   YYYZ     139.1007
      XXZZ    -197.9177   XYZZ     -51.9079   YYZZ    -173.3494
      XZZZ      41.7140   YZZZ     132.4112   ZZZZ    -416.0391
 -----------------------------------------------------------------
 Calculating analytic gradient of the SCF energy
 Gradient of CDS energy
            1           2           3           4           5           6
    1  -0.0000553   0.0001752  -0.0001066  -0.0003290  -0.0001538   0.0003928
    2   0.0002396   0.0000390  -0.0003801  -0.0003303   0.0002268  -0.0002164
    3   0.0000681   0.0003649   0.0003031  -0.0002222  -0.0002417  -0.0000204
            7           8           9          10          11          12
    1  -0.0002929   0.0001370   0.0000744  -0.0000609  -0.0001335  -0.0000617
    2   0.0010911   0.0001300  -0.0000271  -0.0001650  -0.0001347   0.0000746
    3  -0.0002302   0.0000358   0.0001900   0.0001091  -0.0000807  -0.0001643
           13          14          15          16          17          18
    1  -0.0000843  -0.0001772   0.0001876   0.0002490  -0.0001485   0.0003877
    2  -0.0002429  -0.0002014  -0.0000632  -0.0000205  -0.0000620   0.0000426
    3  -0.0001310   0.0002018   0.0002359  -0.0004738   0.0001696  -0.0001142
 Gradient of SCF Energy
            1           2           3           4           5           6
    1   0.0044497  -0.0034596   0.0030756   0.0059793   0.0019059  -0.0011035
    2  -0.0034472   0.0024368   0.0057561   0.0023923  -0.0032602   0.0023331
    3  -0.0003110  -0.0032929  -0.0013367   0.0047464   0.0050503   0.0050360
            7           8           9          10          11          12
    1   0.0083582  -0.0015509  -0.0001403  -0.0023206  -0.0060765  -0.0044505
    2  -0.0091944   0.0042311  -0.0001257  -0.0047433  -0.0056446   0.0022209
    3   0.0021541   0.0013254   0.0030579   0.0030005  -0.0037324  -0.0111967
           13          14          15          16          17          18
    1  -0.0068918   0.0049738  -0.0015435  -0.0043838   0.0054410  -0.0022627
    2   0.0014227   0.0119265   0.0053954  -0.0094048  -0.0027698   0.0004752
    3  -0.0076922   0.0109423   0.0049448  -0.0099270  -0.0017139  -0.0010549
 Max gradient component =       1.193E-02
 RMS gradient           =       5.101E-03
 Computing fast CPCM-SWIG gradient
 Updating gradient with PCM contributions...
 -- total gradient after adding PCM contribution --
---------------------------------------------------
  Atom         X              Y              Z     
---------------------------------------------------
   1       0.000388       0.000448       0.000326
   2      -0.000139      -0.000091      -0.000021
   3      -0.000051      -0.000057      -0.000026
   4      -0.000018       0.000035      -0.000029
   5      -0.000095      -0.000017      -0.000016
   6      -0.000086      -0.000011      -0.000128
   7       0.000010      -0.000020       0.000134
   8      -0.000180      -0.000263      -0.000119
   9      -0.000009       0.000005      -0.000017
  10      -0.000014      -0.000012      -0.000043
  11      -0.000001       0.000013      -0.000034
  12       0.000010       0.000005      -0.000019
  13       0.000054      -0.000017      -0.000023
  14       0.000074       0.000042      -0.000107
  15      -0.000044      -0.000003       0.000025
  16       0.000002       0.000021       0.000018
  17       0.000216      -0.000032       0.000024
  18      -0.000117      -0.000047       0.000055
---------------------------------------------------
 Number of fixed atoms: 0
 Gradient time:  CPU 336.42 s  wall 26.86 s
 ----------------------------------------------------------------
             Standard Nuclear Orientation (Angstroms)
    I     Atom           X                Y                Z
 ----------------------------------------------------------------
    1      C      -0.5336998320     0.0025343068     1.0230088974
    2      C      -0.9680983888    -1.1061386779     1.7802259216
    3      C      -1.8563513933    -2.0070854607     1.2371255274
    4      C      -2.3613365522    -1.7976328415    -0.0475638954
    5      C      -1.9848859224    -0.6759702028    -0.7817255910
    6      C      -1.0941960923     0.2408942012    -0.2544839734
    7      C      -0.6553643282     1.4407344335    -1.0471337767
    8      H       0.0088051725     0.7990370438     1.5126621360
    9      H      -0.5776116754    -1.2486966183     2.7783292608
   10      H      -2.1743327329    -2.8689676202     1.8069610373
   11      H      -3.0620138259    -2.5040952834    -0.4709461863
   12      H      -2.4004170344    -0.5102610904    -1.7676878666
   13      H      -1.3991398974     1.6865071802    -1.8048774205
   14      O       0.6226437233     1.2217845646    -1.6668666842
   15      H      -0.5244143939     2.3000984831    -0.3928305391
   16      H       0.5012626424     0.5717335151    -2.3685592532
   17      O       1.2768960978    -0.8001235469     0.3787212566
   18      H       1.3346013948    -0.1633912668    -0.3545236837
 ----------------------------------------------------------------
 Nuclear Repulsion Energy =         437.20034491 hartrees
 There are       34 alpha and       33 beta electrons
 Discretize the solute cavity surface with Lebedev spheres
	Using 110 Lebedev grid points for each H atom
	Using 194 Lebedev grid points for other atoms
	Atomic van der Waals radii will be scaled by 1.20
 Remove points where switching function is < 1.0e-08
 Keep 1310 surface tesserae and discard 1426 interior tesserae
 Molecular Surface Area = 155.111 Angst**2
 Requested basis set is 6-311++G(2df,2p)
 There are 126 shells and 396 basis functions
 A cutoff of  1.0D-12 yielded   7303 shell pairs
 There are     73088 function pairs (     90757 Cartesian)
 Smallest overlap matrix eigenvalue = 8.37E-07
 Linear dependence detected in AO basis
 Tighter screening thresholds may be required for diffuse basis sets
 Use S2THRESH > 14 and THRESH = 14 in case of SCF convergence issues
 Number of orthogonalized atomic orbitals = 395
 Maximum deviation from orthogonality = 4.249E-11
 Guess MOs from SCF MO coefficient file

 -----------------------------------------------------------------------
  General SCF calculation program by
  Eric Jon Sundstrom, Paul Horn, Yuezhi Mao, Dmitri Zuev, Alec White,
  David Stuck, Shaama M.S., Shane Yost, Joonho Lee, David Small,
  Daniel Levine, Susi Lehtola, Hugh Burton, Evgeny Epifanovsky,
  Bang C. Huynh
 -----------------------------------------------------------------------
 Exchange:     0.1500 Hartree-Fock + 1.0000 wB97M-V + LR-HF
 Correlation:  1.0000 wB97M-V
 Using SG-2 standard quadrature grid
 Nonlocal Correlation:  VV10 with C = 0.0100 and b = 6.00 and scale = 1.00000
 Grid used for NLC:  SG-1 standard quadrature
 
 Citation of the SMD model:
 Marenich, A.V.; Cramer, C.J.; Truhlar, D.G.
 J. Phys. Chem. B 2009, 113, 6378-6396.
 iSolventCode=           1
 Solvent: water                                                           
 
 vradii
            1           2           3           4           5           6
    1   1.8500000   1.8500000   1.8500000   1.8500000   1.8500000   1.8500000
            7           8           9          10          11          12
    1   1.8500000   1.2000000   1.2000000   1.2000000   1.2000000   1.2000000
           13          14          15          16          17          18
    1   1.2000000   1.5200000   1.2000000   1.2000000   1.5200000   1.2000000
 -------------------------------------------------------
 OpenMP BLAS3 based DFT computing Module                
 Release: version 1.0, May 2013, Q-Chem Inc. Pittsburgh 
 -------------------------------------------------------
 A unrestricted SCF calculation will be
 performed using Roothaan-Hall, DIIS, GDM
 SCF converges when RMS gradient is below 1.0e-07
 ---------------------------------------
  Cycle       Energy         DIIS error
 ---------------------------------------
    1    -422.4733882513      2.10e-04  Roothaan Step
 ---------------------------------------
  Cycle       Energy         DIIS error
 ---------------------------------------
    1    -422.5001864547      2.58e-04  
    2    -422.5040782194      2.65e-04  Done DIIS. Switching to GDM
 ---------------------------------------
  Cycle       Energy        RMS Gradient
 ---------------------------------------
    1    -422.5040782194      2.09e-02   Normal BFGS step
    2    -422.5032961870      3.79e-02  Line search: overstep
    3    -422.5077990515      7.85e-03   Normal BFGS step
    4    -422.5079749164      3.35e-03   Normal BFGS step
    5    -422.5080381010      2.78e-03   Normal BFGS step
    6    -422.5080559112      1.69e-03   Normal BFGS step
    7    -422.5080683004      5.20e-04   Normal BFGS step
    8    -422.5080708097      2.86e-04   Normal BFGS step
    9    -422.5080714139      1.15e-04   Normal BFGS step
   10    -422.5080716170      8.14e-05   Normal BFGS step
   11    -422.5080717014      5.67e-05   Normal BFGS step
   12    -422.5080717340      3.85e-05   Normal BFGS step
   13    -422.5080717406      2.91e-05   Normal BFGS step
   14    -422.5080717435      2.15e-05   Normal BFGS step
   15    -422.5080717450      1.19e-05   Normal BFGS step
   16    -422.5080717456      7.74e-06   Normal BFGS step
   17    -422.5080717459      3.47e-06   Normal BFGS step
   18    -422.5080717459      2.22e-06   Normal BFGS step
   19    -422.5080717460      9.03e-07   Normal BFGS step
   20    -422.5080717460      1.87e-07   Normal BFGS step
   21    -422.5080717460      7.40e-08  Convergence criterion met
 ---------------------------------------
 SCF time:   CPU 2627.39s  wall 180.00s 
<S^2> =          0.783515661
(3)  G-ENP(liq) elect-nuc-pol free energy of system     -422.508071746 a.u.
(4)  G-CDS(liq) cavity-dispersion-solvent structure 
     free energy                                                3.3316 kcal/mol
(6)  G-S(liq) free energy of system                     -422.502762509 a.u.
 SCF   energy in the final basis set =     -422.5027625094
 Total energy in the final basis set =     -422.5027625094
 
 --------------------------------------------------------------
 
                    Orbital Energies (a.u.)
 --------------------------------------------------------------
 
 Alpha MOs
 -- Occupied --
-19.3445 -19.3372 -10.3900 -10.3739 -10.3648 -10.3589 -10.3568 -10.3488
-10.3483  -1.1604  -1.0922  -0.9959  -0.9007  -0.8800  -0.8022  -0.7350
 -0.7112  -0.6417  -0.6160  -0.5821  -0.5718  -0.5504  -0.5484  -0.5315
 -0.5268  -0.5068  -0.4734  -0.4524  -0.4446  -0.4390  -0.4125  -0.3960
 -0.3570  -0.3213
 -- Virtual --
  0.0238   0.0359   0.0367   0.0477   0.0525   0.0563   0.0574   0.0583
  0.0817   0.0852   0.0899   0.0932   0.1062   0.1251   0.1377   0.1393
  0.1443   0.1505   0.1590   0.1597   0.1615   0.1631   0.1728   0.1773
  0.1792   0.1823   0.1923   0.1968   0.2038   0.2154   0.2159   0.2175
  0.2285   0.2407   0.2452   0.2562   0.2623   0.2707   0.2744   0.2874
  0.2905   0.3014   0.3106   0.3152   0.3189   0.3293   0.3394   0.3450
  0.3462   0.3561   0.3561   0.3598   0.3694   0.3733   0.3905   0.4090
  0.4208   0.4265   0.4359   0.4497   0.4607   0.5087   0.5291   0.5333
  0.5460   0.5777   0.5870   0.6029   0.6061   0.6106   0.6151   0.6174
  0.6214   0.6278   0.6355   0.6455   0.6644   0.6796   0.6881   0.6945
  0.6962   0.7098   0.7182   0.7245   0.7308   0.7322   0.7418   0.7463
  0.7523   0.7662   0.7843   0.7921   0.8128   0.8177   0.8274   0.8389
  0.8460   0.8606   0.8701   0.8810   0.8961   0.8993   0.9074   0.9169
  0.9246   0.9642   0.9878   1.0223   1.0386   1.0554   1.0752   1.0848
  1.1053   1.1082   1.1231   1.1416   1.1583   1.1628   1.1660   1.1905
  1.2002   1.2115   1.2265   1.2312   1.2376   1.2537   1.2672   1.2771
  1.2983   1.3102   1.3171   1.3227   1.3396   1.3577   1.3783   1.3867
  1.3968   1.4126   1.4182   1.4327   1.4458   1.4492   1.4541   1.4683
  1.4806   1.4935   1.5073   1.5426   1.5469   1.5688   1.5757   1.5789
  1.5939   1.6208   1.6620   1.6762   1.6908   1.7205   1.7449   1.7672
  1.7798   1.8088   1.8394   1.8515   1.8694   1.9005   1.9395   1.9695
  1.9933   2.0404   2.0628   2.0670   2.0842   2.1238   2.1330   2.1531
  2.2253   2.2655   2.3435   2.4111   2.4604   2.5740   2.5981   2.6441
  2.6515   2.6673   2.6874   2.7118   2.7513   2.7935   2.8050   2.8137
  2.8185   2.8305   2.8471   2.8614   2.8663   2.8713   2.8912   2.9106
  2.9190   2.9262   2.9464   2.9653   2.9718   2.9939   2.9995   3.0267
  3.0367   3.0603   3.0945   3.1411   3.1489   3.1637   3.1725   3.1858
  3.1921   3.2061   3.2214   3.2396   3.2566   3.2695   3.2840   3.2900
  3.3081   3.3257   3.3490   3.3634   3.3696   3.3882   3.4075   3.4343
  3.4366   3.4550   3.4630   3.4764   3.5081   3.5170   3.5359   3.5601
  3.5652   3.5697   3.5922   3.6102   3.6208   3.6576   3.6667   3.6834
  3.7341   3.7462   3.7647   3.7878   3.7992   3.8188   3.8262   3.8428
  3.8554   3.8832   3.8863   3.9002   3.9182   3.9279   3.9387   3.9547
  3.9664   3.9875   4.0296   4.0419   4.0821   4.1055   4.1421   4.1554
  4.1660   4.1856   4.1935   4.2063   4.2556   4.2786   4.2884   4.3180
  4.3481   4.3680   4.3779   4.3941   4.4051   4.4225   4.4480   4.4664
  4.4709   4.4847   4.4919   4.5322   4.5484   4.5663   4.5882   4.5999
  4.6153   4.6288   4.6903   4.7417   4.7716   4.7999   4.8217   4.8721
  4.9374   5.0416   5.1209   5.1405   5.1480   5.1811   5.1985   5.2055
  5.2242   5.2487   5.2579   5.2842   5.2929   5.3073   5.3323   5.3535
  5.3994   5.4668   5.4885   5.5095   5.5527   5.5929   5.6650   5.6843
  5.7063   5.7210   5.7552   5.8141   5.8549   5.8576   5.9061   5.9297
  6.0169   6.2364   6.5855   6.6137   7.0016   7.0505   7.1136   7.1344
  7.1924   7.2883   7.3104   7.3594   7.4025   7.6123   7.6594   7.7967
 24.1987  24.7408  24.7953  24.8083  24.9932  25.0591  25.4903  50.5205
 50.6046
 
 Beta MOs
 -- Occupied --
-19.3442 -19.3198 -10.3902 -10.3739 -10.3619 -10.3558 -10.3541 -10.3502
-10.3497  -1.1596  -1.0523  -0.9908  -0.8976  -0.8753  -0.8019  -0.7316
 -0.7084  -0.6402  -0.6148  -0.5787  -0.5690  -0.5437  -0.5384  -0.5277
 -0.5213  -0.4847  -0.4688  -0.4503  -0.4376  -0.3949  -0.3924  -0.3666
 -0.3497
 -- Virtual --
 -0.0614   0.0240   0.0360   0.0369   0.0486   0.0552   0.0570   0.0637
  0.0701   0.0851   0.0856   0.0916   0.0938   0.1069   0.1254   0.1379
  0.1409   0.1445   0.1506   0.1592   0.1598   0.1614   0.1635   0.1737
  0.1772   0.1800   0.1827   0.1936   0.1977   0.2040   0.2154   0.2162
  0.2174   0.2284   0.2406   0.2489   0.2575   0.2635   0.2716   0.2742
  0.2874   0.2925   0.3025   0.3117   0.3173   0.3203   0.3297   0.3405
  0.3454   0.3475   0.3562   0.3593   0.3613   0.3710   0.3736   0.3932
  0.4097   0.4218   0.4275   0.4377   0.4515   0.4622   0.5094   0.5303
  0.5341   0.5485   0.5793   0.5888   0.6049   0.6085   0.6122   0.6163
  0.6204   0.6248   0.6300   0.6364   0.6464   0.6681   0.6817   0.6892
  0.6962   0.6974   0.7116   0.7197   0.7265   0.7313   0.7333   0.7431
  0.7474   0.7534   0.7677   0.7864   0.7932   0.8152   0.8198   0.8287
  0.8414   0.8476   0.8609   0.8719   0.8836   0.8988   0.9007   0.9089
  0.9188   0.9264   0.9658   0.9904   1.0236   1.0406   1.0568   1.0768
  1.0862   1.1080   1.1104   1.1264   1.1430   1.1601   1.1647   1.1683
  1.1932   1.2054   1.2147   1.2313   1.2337   1.2411   1.2556   1.2717
  1.2797   1.2999   1.3129   1.3236   1.3277   1.3425   1.3647   1.3813
  1.3884   1.4007   1.4153   1.4208   1.4348   1.4474   1.4539   1.4561
  1.4708   1.4828   1.4960   1.5100   1.5435   1.5486   1.5708   1.5768
  1.5819   1.5953   1.6214   1.6651   1.6784   1.6944   1.7257   1.7558
  1.7737   1.7813   1.8115   1.8476   1.8575   1.8807   1.9059   1.9471
  1.9758   2.0023   2.0493   2.0655   2.0703   2.0875   2.1309   2.1385
  2.1623   2.2287   2.2701   2.3448   2.4125   2.4650   2.5796   2.6008
  2.6474   2.6556   2.6697   2.6898   2.7149   2.7557   2.7951   2.8127
  2.8196   2.8235   2.8333   2.8498   2.8686   2.8722   2.8746   2.8958
  2.9159   2.9236   2.9285   2.9518   2.9713   2.9801   3.0007   3.0072
  3.0315   3.0436   3.0648   3.0977   3.1441   3.1506   3.1667   3.1761
  3.1910   3.1951   3.2094   3.2253   3.2451   3.2597   3.2732   3.2879
  3.2952   3.3103   3.3290   3.3519   3.3665   3.3740   3.3903   3.4122
  3.4371   3.4394   3.4589   3.4679   3.4809   3.5111   3.5221   3.5386
  3.5637   3.5672   3.5731   3.5957   3.6167   3.6274   3.6574   3.6710
  3.6855   3.7357   3.7504   3.7702   3.7924   3.8023   3.8221   3.8300
  3.8484   3.8609   3.8868   3.8896   3.9045   3.9227   3.9320   3.9419
  3.9577   3.9697   3.9920   4.0355   4.0445   4.0836   4.1099   4.1451
  4.1600   4.1683   4.1896   4.1959   4.2094   4.2593   4.2824   4.2916
  4.3199   4.3533   4.3719   4.3815   4.3971   4.4086   4.4246   4.4514
  4.4706   4.4759   4.4923   4.4947   4.5384   4.5547   4.5704   4.5938
  4.6049   4.6198   4.6325   4.6957   4.7486   4.7757   4.8040   4.8285
  4.8786   4.9412   5.0484   5.1404   5.1528   5.1591   5.2037   5.2186
  5.2349   5.2446   5.2729   5.2860   5.2888   5.3101   5.3316   5.3467
  5.3940   5.4263   5.4802   5.4983   5.5163   5.5571   5.5957   5.6783
  5.6987   5.7198   5.7367   5.7647   5.8217   5.8572   5.8587   5.9095
  5.9323   6.0179   6.2411   6.5894   6.6158   7.0639   7.0866   7.1220
  7.2075   7.2404   7.3089   7.3260   7.3747   7.4158   7.6327   7.6861
  7.7995  24.1993  24.7417  24.7953  24.8096  24.9947  25.0598  25.4917
 50.5329  50.6049
 --------------------------------------------------------------
 
          Ground-State Mulliken Net Atomic Charges

     Atom                 Charge (a.u.)    Spin (a.u.)
  --------------------------------------------------------
      1 C                     0.028902      -0.051263
      2 C                    -0.306549       0.190661
      3 C                    -0.454464      -0.089759
      4 C                    -0.198943       0.209399
      5 C                    -0.493875      -0.082435
      6 C                     0.298635       0.194974
      7 C                    -0.515165      -0.003491
      8 H                     0.370615       0.011717
      9 H                     0.293766      -0.004083
     10 H                     0.280793       0.002258
     11 H                     0.295747      -0.003735
     12 H                     0.272065       0.002406
     13 H                     0.201641       0.000631
     14 O                    -0.398174       0.006734
     15 H                     0.216660       0.002409
     16 H                     0.328732      -0.000261
     17 O                    -0.534803       0.618401
     18 H                     0.314418      -0.004562
  --------------------------------------------------------
  Sum of atomic charges =    -0.000000
  Sum of spin   charges =     1.000000

 -----------------------------------------------------------------
                    Cartesian Multipole Moments
 -----------------------------------------------------------------
    Charge (ESU x 10^10)
                -0.0000
    Dipole Moment (Debye)
         X      -5.2664      Y       0.8309      Z      -1.6654
       Tot       5.5856
    Quadrupole Moments (Debye-Ang)
        XX     -55.0707     XY       4.9932     YY     -53.2526
        XZ       1.6739     YZ       0.8482     ZZ     -44.6425
    Octopole Moments (Debye-Ang^2)
       XXX     119.7361    XXY       8.0787    XYY      20.5866
       YYY      53.1768    XXZ     -14.7411    XYZ       8.9521
       YYZ       8.0004    XZZ      35.9053    YZZ      10.9218
       ZZZ     -14.2032
    Hexadecapole Moments (Debye-Ang^3)
      XXXX    -730.2177   XXXY    -122.6622   XXYY    -183.7978
      XYYY    -126.7326   YYYY    -557.4292   XXXZ      57.2526
      XXYZ      53.9515   XYYZ      10.4965   YYYZ     139.0922
      XXZZ    -197.9428   XYZZ     -51.9226   YYZZ    -173.3621
      XZZZ      41.7447   YZZZ     132.3793   ZZZZ    -416.0563
 -----------------------------------------------------------------
 Calculating analytic gradient of the SCF energy
 Gradient of CDS energy
            1           2           3           4           5           6
    1  -0.0000571   0.0001760  -0.0001065  -0.0003290  -0.0001537   0.0003934
    2   0.0002393   0.0000391  -0.0003801  -0.0003303   0.0002270  -0.0002164
    3   0.0000670   0.0003647   0.0003033  -0.0002222  -0.0002416  -0.0000203
            7           8           9          10          11          12
    1  -0.0002931   0.0001374   0.0000744  -0.0000609  -0.0001335  -0.0000617
    2   0.0010909   0.0001302  -0.0000272  -0.0001650  -0.0001347   0.0000746
    3  -0.0002301   0.0000367   0.0001901   0.0001091  -0.0000807  -0.0001643
           13          14          15          16          17          18
    1  -0.0000843  -0.0001772   0.0001876   0.0002490  -0.0001485   0.0003877
    2  -0.0002429  -0.0002014  -0.0000632  -0.0000205  -0.0000620   0.0000425
    3  -0.0001310   0.0002018   0.0002358  -0.0004738   0.0001698  -0.0001142
 Gradient of SCF Energy
            1           2           3           4           5           6
    1   0.0035332  -0.0031798   0.0031445   0.0059617   0.0020244  -0.0007876
    2  -0.0043195   0.0025822   0.0058638   0.0023444  -0.0031487   0.0023173
    3  -0.0009073  -0.0033304  -0.0012949   0.0047257   0.0051311   0.0051930
            7           8           9          10          11          12
    1   0.0083203  -0.0011694  -0.0001657  -0.0023208  -0.0060591  -0.0044488
    2  -0.0092041   0.0046718  -0.0001626  -0.0047102  -0.0056318   0.0022402
    3   0.0021260   0.0016062   0.0030734   0.0030085  -0.0037238  -0.0111704
           13          14          15          16          17          18
    1  -0.0068894   0.0049669  -0.0015419  -0.0043795   0.0052183  -0.0022273
    2   0.0014288   0.0119487   0.0053923  -0.0094164  -0.0026415   0.0004452
    3  -0.0076935   0.0109444   0.0049372  -0.0099270  -0.0016420  -0.0010560
 Max gradient component =       1.195E-02
 RMS gradient           =       5.103E-03
 Computing fast CPCM-SWIG gradient
 Updating gradient with PCM contributions...
 -- total gradient after adding PCM contribution --
---------------------------------------------------
  Atom         X              Y              Z     
---------------------------------------------------
   1      -0.000475      -0.000451      -0.000325
   2       0.000137       0.000058      -0.000054
   3       0.000018       0.000062       0.000013
   4      -0.000025      -0.000013      -0.000046
   5      -0.000011       0.000096       0.000072
   6       0.000224      -0.000002       0.000069
   7      -0.000025      -0.000024       0.000102
   8       0.000202       0.000188       0.000171
   9      -0.000035      -0.000030       0.000005
  10      -0.000021       0.000009      -0.000029
  11       0.000002       0.000011      -0.000035
  12       0.000004       0.000025      -0.000006
  13       0.000054      -0.000011      -0.000026
  14       0.000076       0.000048      -0.000106
  15      -0.000044      -0.000002       0.000025
  16       0.000001       0.000019       0.000020
  17       0.000012       0.000103       0.000073
  18      -0.000092      -0.000087       0.000076
---------------------------------------------------
 Number of fixed atoms: 0
 Gradient time:  CPU 343.39 s  wall 27.32 s
 ----------------------------------------------------------------
             Standard Nuclear Orientation (Angstroms)
    I     Atom           X                Y                Z
 ----------------------------------------------------------------
    1      C      -0.5326998320     0.0035343068     1.0230088974
    2      C      -0.9680983888    -1.1061386779     1.7802259216
    3      C      -1.8563513933    -2.0070854607     1.2371255274
    4      C      -2.3613365522    -1.7976328415    -0.0475638954
    5      C      -1.9848859224    -0.6759702028    -0.7817255910
    6      C      -1.0941960923     0.2408942012    -0.2544839734
    7      C      -0.6553643282     1.4407344335    -1.0471337767
    8      H       0.0088051725     0.7990370438     1.5126621360
    9      H      -0.5776116754    -1.2486966183     2.7783292608
   10      H      -2.1743327329    -2.8689676202     1.8069610373
   11      H      -3.0620138259    -2.5040952834    -0.4709461863
   12      H      -2.4004170344    -0.5102610904    -1.7676878666
   13      H      -1.3991398974     1.6865071802    -1.8048774205
   14      O       0.6226437233     1.2217845646    -1.6668666842
   15      H      -0.5244143939     2.3000984831    -0.3928305391
   16      H       0.5012626424     0.5717335151    -2.3685592532
   17      O       1.2768960978    -0.8001235469     0.3787212566
   18      H       1.3346013948    -0.1633912668    -0.3545236837
 ----------------------------------------------------------------
 Nuclear Repulsion Energy =         437.18649553 hartrees
 There are       34 alpha and       33 beta electrons
 Discretize the solute cavity surface with Lebedev spheres
	Using 110 Lebedev grid points for each H atom
	Using 194 Lebedev grid points for other atoms
	Atomic van der Waals radii will be scaled by 1.20
 Remove points where switching function is < 1.0e-08
 Keep 1310 surface tesserae and discard 1426 interior tesserae
 Molecular Surface Area = 155.109 Angst**2
 Requested basis set is 6-311++G(2df,2p)
 There are 126 shells and 396 basis functions
 A cutoff of  1.0D-12 yielded   7303 shell pairs
 There are     73088 function pairs (     90757 Cartesian)
 Smallest overlap matrix eigenvalue = 8.40E-07
 Linear dependence detected in AO basis
 Tighter screening thresholds may be required for diffuse basis sets
 Use S2THRESH > 14 and THRESH = 14 in case of SCF convergence issues
 Number of orthogonalized atomic orbitals = 395
 Maximum deviation from orthogonality = 7.510E-11
 Guess MOs from SCF MO coefficient file

 -----------------------------------------------------------------------
  General SCF calculation program by
  Eric Jon Sundstrom, Paul Horn, Yuezhi Mao, Dmitri Zuev, Alec White,
  David Stuck, Shaama M.S., Shane Yost, Joonho Lee, David Small,
  Daniel Levine, Susi Lehtola, Hugh Burton, Evgeny Epifanovsky,
  Bang C. Huynh
 -----------------------------------------------------------------------
 Exchange:     0.1500 Hartree-Fock + 1.0000 wB97M-V + LR-HF
 Correlation:  1.0000 wB97M-V
 Using SG-2 standard quadrature grid
 Nonlocal Correlation:  VV10 with C = 0.0100 and b = 6.00 and scale = 1.00000
 Grid used for NLC:  SG-1 standard quadrature
 
 Citation of the SMD model:
 Marenich, A.V.; Cramer, C.J.; Truhlar, D.G.
 J. Phys. Chem. B 2009, 113, 6378-6396.
 iSolventCode=           1
 Solvent: water                                                           
 
 vradii
            1           2           3           4           5           6
    1   1.8500000   1.8500000   1.8500000   1.8500000   1.8500000   1.8500000
            7           8           9          10          11          12
    1   1.8500000   1.2000000   1.2000000   1.2000000   1.2000000   1.2000000
           13          14          15          16          17          18
    1   1.2000000   1.5200000   1.2000000   1.2000000   1.5200000   1.2000000
 -------------------------------------------------------
 OpenMP BLAS3 based DFT computing Module                
 Release: version 1.0, May 2013, Q-Chem Inc. Pittsburgh 
 -------------------------------------------------------
 A unrestricted SCF calculation will be
 performed using Roothaan-Hall, DIIS, GDM
 SCF converges when RMS gradient is below 1.0e-07
 ---------------------------------------
  Cycle       Energy         DIIS error
 ---------------------------------------
    1    -422.4734789139      2.10e-04  Roothaan Step
 ---------------------------------------
  Cycle       Energy         DIIS error
 ---------------------------------------
    1    -422.5002190827      2.57e-04  
    2    -422.5041256151      2.63e-04  Done DIIS. Switching to GDM
 ---------------------------------------
  Cycle       Energy        RMS Gradient
 ---------------------------------------
    1    -422.5041256151      2.04e-02   Normal BFGS step
    2    -422.5033826712      3.78e-02  Line search: overstep
    3    -422.5077901416      8.15e-03   Normal BFGS step
    4    -422.5079685236      3.57e-03   Normal BFGS step
    5    -422.5080348793      2.91e-03   Normal BFGS step
    6    -422.5080543712      1.74e-03   Normal BFGS step
    7    -422.5080679961      4.85e-04   Normal BFGS step
    8    -422.5080705713      2.80e-04   Normal BFGS step
    9    -422.5080712066      1.07e-04   Normal BFGS step
   10    -422.5080714176      8.16e-05   Normal BFGS step
   11    -422.5080715065      6.23e-05   Normal BFGS step
   12    -422.5080715414      4.12e-05   Normal BFGS step
   13    -422.5080715483      3.08e-05   Normal BFGS step
   14    -422.5080715515      2.25e-05   Normal BFGS step
   15    -422.5080715533      1.19e-05   Normal BFGS step
   16    -422.5080715540      8.08e-06   Normal BFGS step
   17    -422.5080715542      3.47e-06   Normal BFGS step
   18    -422.5080715543      2.15e-06   Normal BFGS step
   19    -422.5080715543      8.76e-07   Normal BFGS step
   20    -422.5080715543      1.82e-07   Normal BFGS step
   21    -422.5080715543      7.21e-08  Convergence criterion met
 ---------------------------------------
 SCF time:   CPU 2623.24s  wall 180.00s 
<S^2> =          0.783647087
(3)  G-ENP(liq) elect-nuc-pol free energy of system     -422.508071554 a.u.
(4)  G-CDS(liq) cavity-dispersion-solvent structure 
     free energy                                                3.3318 kcal/mol
(6)  G-S(liq) free energy of system                     -422.502761971 a.u.
 SCF   energy in the final basis set =     -422.5027619710
 Total energy in the final basis set =     -422.5027619710
 
 --------------------------------------------------------------
 
                    Orbital Energies (a.u.)
 --------------------------------------------------------------
 
 Alpha MOs
 -- Occupied --
-19.3445 -19.3371 -10.3900 -10.3740 -10.3649 -10.3590 -10.3570 -10.3488
-10.3483  -1.1604  -1.0921  -0.9958  -0.9007  -0.8800  -0.8022  -0.7351
 -0.7112  -0.6417  -0.6159  -0.5821  -0.5718  -0.5504  -0.5484  -0.5316
 -0.5268  -0.5068  -0.4734  -0.4524  -0.4446  -0.4390  -0.4125  -0.3959
 -0.3570  -0.3212
 -- Virtual --
  0.0238   0.0359   0.0367   0.0477   0.0526   0.0563   0.0573   0.0582
  0.0817   0.0852   0.0899   0.0933   0.1062   0.1251   0.1377   0.1393
  0.1443   0.1505   0.1590   0.1597   0.1615   0.1631   0.1728   0.1773
  0.1792   0.1823   0.1923   0.1968   0.2038   0.2154   0.2159   0.2175
  0.2285   0.2407   0.2452   0.2562   0.2623   0.2707   0.2744   0.2874
  0.2905   0.3014   0.3105   0.3152   0.3189   0.3293   0.3394   0.3451
  0.3462   0.3561   0.3562   0.3598   0.3693   0.3733   0.3905   0.4089
  0.4207   0.4264   0.4358   0.4497   0.4607   0.5087   0.5291   0.5332
  0.5460   0.5777   0.5869   0.6028   0.6061   0.6106   0.6151   0.6173
  0.6214   0.6278   0.6355   0.6454   0.6644   0.6796   0.6880   0.6945
  0.6962   0.7099   0.7180   0.7245   0.7308   0.7322   0.7418   0.7463
  0.7523   0.7661   0.7844   0.7921   0.8127   0.8176   0.8274   0.8389
  0.8459   0.8605   0.8700   0.8809   0.8960   0.8992   0.9073   0.9168
  0.9246   0.9642   0.9877   1.0223   1.0387   1.0554   1.0752   1.0848
  1.1053   1.1082   1.1231   1.1416   1.1582   1.1628   1.1659   1.1906
  1.2002   1.2115   1.2265   1.2312   1.2375   1.2537   1.2672   1.2771
  1.2984   1.3102   1.3172   1.3226   1.3396   1.3576   1.3783   1.3866
  1.3967   1.4125   1.4181   1.4325   1.4457   1.4491   1.4540   1.4681
  1.4806   1.4935   1.5073   1.5426   1.5469   1.5690   1.5756   1.5790
  1.5939   1.6209   1.6621   1.6761   1.6908   1.7204   1.7448   1.7672
  1.7797   1.8087   1.8392   1.8516   1.8695   1.9004   1.9395   1.9696
  1.9933   2.0402   2.0626   2.0668   2.0841   2.1238   2.1331   2.1530
  2.2253   2.2651   2.3433   2.4111   2.4603   2.5740   2.5981   2.6438
  2.6514   2.6671   2.6874   2.7120   2.7513   2.7934   2.8050   2.8135
  2.8183   2.8303   2.8470   2.8614   2.8663   2.8712   2.8910   2.9104
  2.9188   2.9262   2.9464   2.9652   2.9721   2.9940   2.9993   3.0266
  3.0366   3.0602   3.0944   3.1411   3.1487   3.1633   3.1726   3.1859
  3.1920   3.2060   3.2213   3.2396   3.2565   3.2694   3.2839   3.2900
  3.3082   3.3255   3.3489   3.3634   3.3697   3.3881   3.4074   3.4340
  3.4365   3.4551   3.4631   3.4762   3.5080   3.5171   3.5359   3.5600
  3.5652   3.5698   3.5922   3.6103   3.6207   3.6579   3.6670   3.6835
  3.7341   3.7460   3.7645   3.7875   3.7990   3.8188   3.8262   3.8426
  3.8553   3.8832   3.8863   3.9001   3.9177   3.9278   3.9386   3.9546
  3.9659   3.9875   4.0294   4.0416   4.0820   4.1055   4.1422   4.1553
  4.1660   4.1856   4.1935   4.2063   4.2558   4.2787   4.2882   4.3180
  4.3479   4.3680   4.3778   4.3942   4.4051   4.4225   4.4479   4.4667
  4.4713   4.4839   4.4919   4.5316   4.5475   4.5660   4.5880   4.5998
  4.6154   4.6288   4.6903   4.7412   4.7713   4.8001   4.8213   4.8719
  4.9371   5.0411   5.1208   5.1408   5.1477   5.1812   5.1984   5.2055
  5.2242   5.2490   5.2580   5.2842   5.2930   5.3074   5.3324   5.3538
  5.3994   5.4669   5.4883   5.5095   5.5527   5.5929   5.6651   5.6843
  5.7063   5.7209   5.7548   5.8137   5.8547   5.8592   5.9058   5.9296
  6.0169   6.2363   6.5844   6.6135   7.0018   7.0506   7.1136   7.1345
  7.1927   7.2885   7.3105   7.3594   7.4025   7.6124   7.6594   7.7967
 24.1992  24.7400  24.7952  24.8085  24.9924  25.0585  25.4894  50.5207
 50.6047
 
 Beta MOs
 -- Occupied --
-19.3442 -19.3197 -10.3902 -10.3740 -10.3619 -10.3559 -10.3542 -10.3503
-10.3497  -1.1596  -1.0523  -0.9908  -0.8976  -0.8753  -0.8019  -0.7317
 -0.7084  -0.6402  -0.6148  -0.5788  -0.5690  -0.5438  -0.5383  -0.5277
 -0.5212  -0.4847  -0.4688  -0.4503  -0.4377  -0.3948  -0.3924  -0.3667
 -0.3497
 -- Virtual --
 -0.0614   0.0240   0.0360   0.0369   0.0486   0.0552   0.0570   0.0638
  0.0701   0.0851   0.0856   0.0916   0.0938   0.1069   0.1255   0.1380
  0.1409   0.1445   0.1506   0.1592   0.1597   0.1614   0.1635   0.1737
  0.1772   0.1800   0.1827   0.1936   0.1977   0.2040   0.2154   0.2162
  0.2174   0.2284   0.2406   0.2489   0.2574   0.2634   0.2716   0.2743
  0.2874   0.2925   0.3025   0.3117   0.3173   0.3203   0.3297   0.3405
  0.3455   0.3475   0.3562   0.3593   0.3612   0.3709   0.3736   0.3932
  0.4097   0.4217   0.4274   0.4377   0.4515   0.4622   0.5094   0.5303
  0.5340   0.5484   0.5793   0.5888   0.6048   0.6084   0.6122   0.6163
  0.6204   0.6249   0.6299   0.6364   0.6464   0.6681   0.6817   0.6892
  0.6962   0.6974   0.7116   0.7196   0.7265   0.7313   0.7333   0.7430
  0.7474   0.7534   0.7676   0.7864   0.7932   0.8151   0.8198   0.8287
  0.8414   0.8475   0.8608   0.8718   0.8835   0.8988   0.9006   0.9089
  0.9187   0.9264   0.9658   0.9904   1.0236   1.0406   1.0568   1.0768
  1.0863   1.1080   1.1104   1.1263   1.1430   1.1600   1.1648   1.1683
  1.1932   1.2053   1.2147   1.2313   1.2336   1.2411   1.2556   1.2717
[...]
     (2,0,0)        1.00000E-11
     (0,2,0)        2.00000E-11
     (0,0,2)       -3.00000E-11
 Nucleus-field energy     =     0.0000000021 hartrees
 Requested basis set is 6-311++G(2df,2p)
 There are 126 shells and 396 basis functions
 A cutoff of  1.0D-12 yielded   7325 shell pairs
 There are     73330 function pairs (     91083 Cartesian)
 Smallest overlap matrix eigenvalue = 1.65E-06
 Guess MOs from SCF MO coefficient file

 -----------------------------------------------------------------------
  General SCF calculation program by
  Eric Jon Sundstrom, Paul Horn, Yuezhi Mao, Dmitri Zuev, Alec White,
  David Stuck, Shaama M.S., Shane Yost, Joonho Lee, David Small,
  Daniel Levine, Susi Lehtola, Hugh Burton, Evgeny Epifanovsky,
  Bang C. Huynh
 -----------------------------------------------------------------------
 Exchange:     0.1500 Hartree-Fock + 1.0000 wB97M-V + LR-HF
 Correlation:  1.0000 wB97M-V
 Using SG-2 standard quadrature grid
 Nonlocal Correlation:  VV10 with C = 0.0100 and b = 6.00 and scale = 1.00000
 Grid used for NLC:  SG-1 standard quadrature
 
 Citation of the SMD model:
 Marenich, A.V.; Cramer, C.J.; Truhlar, D.G.
 J. Phys. Chem. B 2009, 113, 6378-6396.
 iSolventCode=           1
 Solvent: water                                                           
 
 vradii
            1           2           3           4           5           6
    1   1.8500000   1.8500000   1.8500000   1.8500000   1.8500000   1.8500000
            7           8           9          10          11          12
    1   1.8500000   1.2000000   1.2000000   1.2000000   1.2000000   1.2000000
           13          14          15          16          17          18
    1   1.2000000   1.5200000   1.2000000   1.2000000   1.5200000   1.2000000
 -------------------------------------------------------
 OpenMP BLAS3 based DFT computing Module                
 Release: version 1.0, May 2013, Q-Chem Inc. Pittsburgh 
 -------------------------------------------------------
 A unrestricted SCF calculation will be
 performed using Roothaan-Hall, DIIS, GDM
 SCF converges when RMS gradient is below 1.0e-07
 ---------------------------------------
  Cycle       Energy         DIIS error
 ---------------------------------------
    1    -422.5054323337      1.86e-04  Roothaan Step
 ---------------------------------------
  Cycle       Energy         DIIS error
 ---------------------------------------
    1    -422.5276622196      2.06e-04  
    2    -422.5310252461      1.69e-04  Done DIIS. Switching to GDM
 ---------------------------------------
  Cycle       Energy        RMS Gradient
 ---------------------------------------
    1    -422.5310252461      6.80e-03   Normal BFGS step
    2    -422.5311377363      6.14e-03   Normal BFGS step
    3    -422.5327001301      1.09e-03   Normal BFGS step
    4    -422.5327157240      4.93e-04   Normal BFGS step
    5    -422.5327236194      2.81e-04   Normal BFGS step
    6    -422.5327240499      1.32e-04   Normal BFGS step
    7    -422.5327241707      1.04e-04   Normal BFGS step
    8    -422.5327242044      6.96e-05   Normal BFGS step
    9    -422.5327242152      2.51e-05   Normal BFGS step
   10    -422.5327242183      1.66e-05   Normal BFGS step
   11    -422.5327242197      7.61e-06   Normal BFGS step
   12    -422.5327242201      2.63e-06   Normal BFGS step
   13    -422.5327242202      1.21e-06   Normal BFGS step
   14    -422.5327242202      6.10e-07   Normal BFGS step
   15    -422.5327242202      3.63e-07   Normal BFGS step
   16    -422.5327242202      1.16e-07   Normal BFGS step
   17    -422.5327242202      7.22e-08  Convergence criterion met
 ---------------------------------------
 SCF time:   CPU 2180.82s  wall 149.00s 
<S^2> =          0.790210892
(3)  G-ENP(liq) elect-nuc-pol free energy of system     -422.532724220 a.u.
(4)  G-CDS(liq) cavity-dispersion-solvent structure 
     free energy                                                3.3775 kcal/mol
(6)  G-S(liq) free energy of system                     -422.527341839 a.u.
 SCF   energy in the final basis set =     -422.5273418389
 Total energy in the final basis set =     -422.5273418389
 
 --------------------------------------------------------------
 
                    Orbital Energies (a.u.)
 --------------------------------------------------------------
 
 Alpha MOs
 -- Occupied --
-19.3425 -19.3332 -10.3968 -10.3868 -10.3548 -10.3544 -10.3480 -10.3432
-10.3425  -1.1616  -1.1449  -0.9776  -0.8961  -0.8658  -0.7974  -0.7375
 -0.7063  -0.6376  -0.6266  -0.6044  -0.5784  -0.5605  -0.5445  -0.5301
 -0.5230  -0.4972  -0.4792  -0.4535  -0.4411  -0.4404  -0.3930  -0.3854
 -0.3606  -0.2761
 -- Virtual --
  0.0242   0.0359   0.0375   0.0467   0.0556   0.0567   0.0645   0.0755
  0.0808   0.0890   0.0946   0.1031   0.1238   0.1288   0.1324   0.1402
  0.1454   0.1520   0.1572   0.1614   0.1626   0.1647   0.1704   0.1780
  0.1794   0.1879   0.1939   0.2001   0.2017   0.2052   0.2113   0.2169
  0.2196   0.2320   0.2349   0.2528   0.2648   0.2702   0.2771   0.2816
  0.2899   0.2976   0.3012   0.3144   0.3182   0.3278   0.3332   0.3420
  0.3533   0.3630   0.3669   0.3684   0.3765   0.3781   0.3865   0.3991
  0.4021   0.4082   0.4241   0.4445   0.4537   0.4686   0.5033   0.5211
  0.5260   0.5451   0.5734   0.5785   0.5924   0.5999   0.6105   0.6153
  0.6179   0.6278   0.6327   0.6412   0.6550   0.6620   0.6757   0.6852
  0.6872   0.6962   0.7091   0.7176   0.7211   0.7310   0.7406   0.7467
  0.7534   0.7628   0.7782   0.7869   0.8052   0.8094   0.8151   0.8256
  0.8340   0.8410   0.8483   0.8702   0.8756   0.8953   0.8983   0.9136
  0.9160   0.9336   0.9692   1.0157   1.0299   1.0446   1.0651   1.0781
  1.0970   1.1043   1.1163   1.1320   1.1448   1.1589   1.1703   1.1936
  1.1995   1.2134   1.2257   1.2416   1.2486   1.2577   1.2601   1.2749
  1.2869   1.3052   1.3132   1.3152   1.3366   1.3486   1.3625   1.3768
  1.3903   1.4046   1.4081   1.4288   1.4358   1.4437   1.4533   1.4663
  1.4790   1.4880   1.4981   1.5212   1.5245   1.5357   1.5622   1.5740
  1.5839   1.6135   1.6164   1.6428   1.6532   1.6718   1.7104   1.7436
  1.7589   1.7821   1.7932   1.8140   1.8812   1.8902   1.9111   1.9619
  1.9935   2.0129   2.0370   2.0606   2.0722   2.1280   2.1436   2.2028
  2.2357   2.2582   2.3262   2.3567   2.4182   2.4490   2.5837   2.6100
  2.6171   2.6632   2.6770   2.7031   2.7403   2.7511   2.7928   2.8035
  2.8168   2.8272   2.8391   2.8525   2.8651   2.8757   2.8944   2.9013
  2.9132   2.9294   2.9429   2.9498   2.9703   2.9823   2.9936   3.0043
  3.0375   3.0536   3.0714   3.0894   3.1035   3.1563   3.1706   3.1944
  3.2051   3.2162   3.2364   3.2459   3.2542   3.2772   3.3001   3.3149
  3.3265   3.3407   3.3556   3.3618   3.3774   3.3932   3.4299   3.4423
  3.4497   3.4578   3.4676   3.4797   3.5007   3.5212   3.5468   3.5602
  3.5664   3.5783   3.6080   3.6218   3.6313   3.6576   3.6795   3.7098
  3.7348   3.7458   3.7573   3.7773   3.7905   3.8031   3.8172   3.8234
  3.8541   3.8645   3.8699   3.8851   3.8946   3.9216   3.9292   3.9381
  3.9616   3.9728   3.9891   4.0222   4.0557   4.0673   4.0857   4.1291
  4.1564   4.1710   4.1799   4.2032   4.2146   4.2329   4.2622   4.2817
  4.3033   4.3154   4.3182   4.3540   4.3723   4.3807   4.4016   4.4251
  4.4323   4.4452   4.4543   4.4749   4.4883   4.5235   4.5626   4.5911
  4.6104   4.6399   4.6520   4.6706   4.6851   4.7389   4.7878   4.7910
  4.8502   4.8821   4.9381   5.0232   5.1272   5.1368   5.1910   5.2202
  5.2591   5.2845   5.3084   5.3234   5.3408   5.3616   5.3871   5.4277
  5.4897   5.5061   5.5345   5.5811   5.6133   5.6253   5.6761   5.6915
  5.7075   5.7280   5.7748   5.8330   5.8642   5.9226   5.9239   5.9793
  6.0127   6.1477   6.3635   6.5245   6.5786   7.0947   7.1310   7.2879
  7.3065   7.3588   7.3706   7.3872   7.4268   7.6288   7.6702   7.7761
  7.8414  24.2547  24.6136  24.7735  24.8151  24.8581  25.1097  25.3787
 50.6017  50.6371
 
 Beta MOs
 -- Occupied --
-19.3417 -19.3309 -10.3975 -10.3871 -10.3489 -10.3474 -10.3457 -10.3450
-10.3427  -1.1590  -1.1406  -0.9708  -0.8901  -0.8565  -0.7967  -0.7288
 -0.7012  -0.6351  -0.6214  -0.6016  -0.5719  -0.5552  -0.5406  -0.5270
 -0.5199  -0.4914  -0.4755  -0.4393  -0.4384  -0.4250  -0.3893  -0.3817
 -0.3444
 -- Virtual --
 -0.0322   0.0237   0.0355   0.0371   0.0468   0.0556   0.0565   0.0750
  0.0785   0.0830   0.0899   0.0937   0.1055   0.1232   0.1304   0.1375
  0.1395   0.1450   0.1521   0.1565   0.1617   0.1624   0.1660   0.1709
  0.1780   0.1796   0.1883   0.1945   0.1997   0.2022   0.2067   0.2108
  0.2185   0.2249   0.2334   0.2341   0.2524   0.2630   0.2701   0.2772
  0.2828   0.2902   0.2994   0.3017   0.3156   0.3191   0.3289   0.3348
  0.3428   0.3544   0.3656   0.3694   0.3712   0.3765   0.3812   0.3879
  0.4020   0.4042   0.4114   0.4243   0.4474   0.4569   0.4684   0.5041
  0.5228   0.5283   0.5470   0.5759   0.5826   0.5954   0.6028   0.6134
  0.6181   0.6234   0.6328   0.6344   0.6429   0.6572   0.6679   0.6791
  0.6869   0.6899   0.6982   0.7114   0.7200   0.7240   0.7354   0.7426
  0.7487   0.7554   0.7656   0.7829   0.7897   0.8096   0.8129   0.8202
  0.8277   0.8335   0.8463   0.8534   0.8728   0.8788   0.8975   0.9009
  0.9160   0.9195   0.9370   0.9710   1.0177   1.0311   1.0468   1.0663
  1.0793   1.0981   1.1061   1.1179   1.1346   1.1483   1.1598   1.1736
  1.1949   1.2018   1.2152   1.2280   1.2434   1.2500   1.2596   1.2630
  1.2773   1.2887   1.3080   1.3152   1.3167   1.3390   1.3512   1.3654
  1.3792   1.3934   1.4071   1.4116   1.4323   1.4394   1.4477   1.4575
  1.4719   1.4831   1.4909   1.5025   1.5249   1.5273   1.5373   1.5648
  1.5799   1.5875   1.6152   1.6182   1.6442   1.6565   1.6741   1.7139
  1.7480   1.7635   1.7842   1.7988   1.8251   1.8858   1.8931   1.9153
  1.9656   1.9977   2.0171   2.0400   2.0667   2.0764   2.1310   2.1469
  2.2054   2.2396   2.2622   2.3279   2.3593   2.4195   2.4512   2.5888
  2.6167   2.6264   2.6698   2.6842   2.7066   2.7490   2.7587   2.8020
  2.8200   2.8300   2.8350   2.8451   2.8659   2.8754   2.8833   2.9047
  2.9098   2.9254   2.9456   2.9554   2.9594   2.9802   2.9977   3.0131
  3.0153   3.0566   3.0627   3.0825   3.0994   3.1206   3.1643   3.1810
  3.1985   3.2139   3.2235   3.2439   3.2545   3.2658   3.2836   3.3081
  3.3184   3.3352   3.3466   3.3632   3.3736   3.3881   3.3999   3.4380
  3.4496   3.4576   3.4684   3.4773   3.4899   3.5108   3.5293   3.5543
  3.5723   3.5758   3.5836   3.6150   3.6284   3.6530   3.6676   3.6887
  3.7197   3.7408   3.7546   3.7664   3.7826   3.7952   3.8091   3.8247
  3.8294   3.8636   3.8725   3.8779   3.8929   3.9030   3.9293   3.9377
  3.9486   3.9693   3.9808   3.9985   4.0311   4.0610   4.0763   4.0890
  4.1373   4.1651   4.1794   4.1863   4.2103   4.2212   4.2380   4.2675
  4.2927   4.3082   4.3188   4.3257   4.3614   4.3772   4.3885   4.4073
  4.4314   4.4376   4.4520   4.4656   4.4822   4.4995   4.5317   4.5720
  4.6020   4.6208   4.6524   4.6614   4.6816   4.6998   4.7492   4.7938
  4.8012   4.8570   4.8940   4.9533   5.0375   5.1395   5.1502   5.2029
  5.2300   5.2692   5.2874   5.3118   5.3255   5.3441   5.3671   5.3908
  5.4334   5.4936   5.5119   5.5403   5.5859   5.6233   5.6308   5.6803
  5.6928   5.7121   5.7305   5.7769   5.8510   5.8688   5.9257   5.9347
  5.9846   6.0155   6.1592   6.3739   6.5310   6.5812   7.0970   7.1337
  7.2907   7.3088   7.3617   7.3778   7.3920   7.4317   7.6314   7.6741
  7.7798   7.8483  24.2563  24.6152  24.7739  24.8155  24.8632  25.1112
 25.3812  50.6025  50.6389
 --------------------------------------------------------------
 
          Ground-State Mulliken Net Atomic Charges

     Atom                 Charge (a.u.)    Spin (a.u.)
  --------------------------------------------------------
      1 C                    -0.453473      -0.021068
      2 C                     0.002139       0.366431
      3 C                    -0.541284      -0.137383
      4 C                    -0.234247       0.497841
      5 C                    -0.655643      -0.131298
      6 C                     0.648313       0.350416
      7 C                    -0.436120      -0.007283
      8 H                     0.228489       0.019803
      9 H                     0.317371      -0.008122
     10 H                     0.283957       0.005426
     11 H                     0.312075      -0.010313
     12 H                     0.279053       0.006190
     13 H                     0.204677       0.001039
     14 O                    -0.408742       0.013995
     15 H                     0.229831       0.007398
     16 H                     0.328246      -0.000191
     17 O                    -0.431262       0.041997
     18 H                     0.326618       0.005122
  --------------------------------------------------------
  Sum of atomic charges =    -0.000000
  Sum of spin   charges =     1.000000

 -----------------------------------------------------------------
                    Cartesian Multipole Moments
 -----------------------------------------------------------------
    Charge (ESU x 10^10)
                -0.0000
    Dipole Moment (Debye)
         X      -3.4745      Y       0.6267      Z      -1.7494
       Tot       3.9402
    Quadrupole Moments (Debye-Ang)
        XX     -54.8929     XY       2.9134     YY     -54.7345
        XZ       1.9980     YZ       1.9422     ZZ     -46.7757
    Octopole Moments (Debye-Ang^2)
       XXX     127.4488    XXY       8.5789    XYY      24.1973
       YYY      55.8061    XXZ     -13.6370    XYZ       8.4639
       YYZ       6.9566    XZZ      37.4293    YZZ      12.2150
       ZZZ     -14.3336
    Hexadecapole Moments (Debye-Ang^3)
      XXXX    -699.9541   XXXY    -138.0035   XXYY    -182.8088
      XYYY    -142.3007   YYYY    -572.4429   XXXZ      51.6124
      XXYZ      56.8829   XYYZ       8.8727   YYYZ     151.8848
      XXZZ    -195.7608   XYZZ     -57.3443   YYZZ    -180.7771
      XZZZ      36.9797   YZZZ     144.8381   ZZZZ    -433.4840
 -----------------------------------------------------------------
 Calculating analytic gradient of the SCF energy
 Gradient of CDS energy
            1           2           3           4           5           6
    1   0.0001725   0.0001528  -0.0001063  -0.0003424  -0.0001308   0.0003350
    2   0.0001349   0.0000438  -0.0003515  -0.0003725   0.0002439  -0.0001881
    3   0.0000019   0.0004021   0.0003242  -0.0002472  -0.0002409  -0.0000079
            7           8           9          10          11          12
    1  -0.0003002   0.0000510   0.0000659  -0.0000711  -0.0001326  -0.0000666
    2   0.0010846   0.0001864  -0.0000212  -0.0001599  -0.0001301   0.0000789
    3  -0.0002314   0.0000646   0.0001887   0.0001133  -0.0000770  -0.0001631
           13          14          15          16          17          18
    1  -0.0000914  -0.0001653   0.0001889   0.0002568  -0.0002450   0.0004290
    2  -0.0002330  -0.0001814  -0.0000617  -0.0000447  -0.0000146  -0.0000138
    3  -0.0001259   0.0002091   0.0002410  -0.0004650   0.0000935  -0.0000798
 Gradient of SCF Energy
            1           2           3           4           5           6
    1   0.0044593  -0.0078137   0.0063391   0.0028592   0.0029076  -0.0026907
    2  -0.0040817   0.0034773   0.0049489   0.0013130  -0.0059061   0.0074977
    3  -0.0077367  -0.0015612  -0.0008392   0.0055863   0.0039363   0.0096932
            7           8           9          10          11          12
    1   0.0101006   0.0008082  -0.0013894  -0.0007647  -0.0046576  -0.0023017
    2  -0.0092633   0.0033075   0.0012781  -0.0040769  -0.0042439   0.0011899
    3   0.0012618   0.0014145   0.0026256   0.0012889  -0.0030381  -0.0101235
           13          14          15          16          17          18
    1  -0.0061549   0.0034189  -0.0011438  -0.0043250   0.0026742  -0.0023253
    2   0.0014749   0.0130342   0.0053840  -0.0105840  -0.0055398   0.0007900
    3  -0.0061869   0.0100790   0.0047734  -0.0090952   0.0011746  -0.0032529
 Max gradient component =       1.303E-02
 RMS gradient           =       5.390E-03
 Computing fast CPCM-SWIG gradient
 Updating gradient with PCM contributions...
 -- total gradient after adding PCM contribution --
---------------------------------------------------
  Atom         X              Y              Z     
---------------------------------------------------
   1       0.001003       0.000203       0.000114
   2      -0.000819       0.000581       0.000208
   3       0.000277       0.000259      -0.000021
   4      -0.000014       0.000121      -0.000081
   5       0.000395       0.000335       0.000219
   6      -0.000599       0.000400       0.000582
   7      -0.000178       0.000281       0.000450
   8       0.001368       0.000103       0.000153
   9      -0.001167       0.000943       0.000620
  10       0.001052      -0.000941      -0.000755
  11       0.000198       0.000090      -0.000170
  12       0.001503      -0.000914      -0.000783
  13      -0.000099       0.000200       0.000341
  14      -0.000232      -0.000615       0.000425
  15       0.000217       0.000368       0.000140
  16      -0.000867      -0.000100       0.000089
  17      -0.001352       0.000069      -0.000958
  18      -0.000688      -0.001385      -0.000570
---------------------------------------------------
 Number of fixed atoms: 0
 Gradient time:  CPU 332.10 s  wall 26.34 s
rPathMan2.  file_steps = 952
 IRC --- Status = 4.  Checking bisector search.
 IRC --- Bisector search finished successfully.
 ------------------------------------------------------------------------
 Reaction path following.  The coordinates are cartesian              
 Step  10 E=    -422.527342 |G|=  0.004676 S_lin= 0.8906 S_tot= 0.9900
 ------------------------------------------------------------------------
  IRC -- convergence criterion reached.
 ----------------------------------------------------------------
             Standard Nuclear Orientation (Angstroms)
    I     Atom           X                Y                Z
 ----------------------------------------------------------------
    1      C      -0.5326998320     0.0025343068     1.0230088974
    2      C      -0.9680983888    -1.1061386779     1.7802259216
    3      C      -1.8563513933    -2.0070854607     1.2371255274
    4      C      -2.3613365522    -1.7976328415    -0.0475638954
    5      C      -1.9848859224    -0.6759702028    -0.7817255910
    6      C      -1.0941960923     0.2408942012    -0.2544839734
    7      C      -0.6553643282     1.4407344335    -1.0471337767
    8      H       0.0088051725     0.7990370438     1.5126621360
    9      H      -0.5776116754    -1.2486966183     2.7783292608
   10      H      -2.1743327329    -2.8689676202     1.8069610373
   11      H      -3.0620138259    -2.5040952834    -0.4709461863
   12      H      -2.4004170344    -0.5102610904    -1.7676878666
   13      H      -1.3991398974     1.6865071802    -1.8048774205
   14      O       0.6226437233     1.2217845646    -1.6668666842
   15      H      -0.5244143939     2.3000984831    -0.3928305391
   16      H       0.5012626424     0.5717335151    -2.3685592532
   17      O       1.2768960978    -0.8001235469     0.3787212566
   18      H       1.3346013948    -0.1633912668    -0.3545236837
 ----------------------------------------------------------------
 Nuclear Repulsion Energy =         437.19551990 hartrees
 There are       34 alpha and       33 beta electrons
 Here is where we should summarize the reaction path
 Total job time:  8296.98s(wall), 118766.02s(cpu) 
 Sun Jul 21 20:35:55 2024

        *************************************************************
        *                                                           *
        *  Thank you very much for using Q-Chem.  Have a nice day.  *
        *                                                           *
        *************************************************************


