
Running Job 1 of 1 Q_in.in
qchem Q_in.in_319585.0 /scratch/ari.fischer/qChem2091140.hpc-mn1/qchem319585/ 0
/usr/local/qchem-5.4.1/exe/qcprog.exe_s Q_in.in_319585.0 /scratch/ari.fischer/qChem2091140.hpc-mn1/qchem319585/
                  Welcome to Q-Chem
     A Quantum Leap Into The Future Of Chemistry


 Q-Chem 5.4, Q-Chem, Inc., Pleasanton, CA (2021)

 License issued to: Nanyang Technological University (site)

 E. Epifanovsky,  A. T. B. Gilbert,  Xintian Feng,  Joonho Lee,  Yuezhi Mao,  
 N. Mardirossian,  P. Pokhilko,  A. White,  M. Wormit,  M. P. Coons,  
 A. L. Dempwolff,  Zhengting Gan,  D. Hait,  P. R. Horn,  L. D. Jacobson,  
 I. Kaliman,  J. Kussmann,  A. W. Lange,  Ka Un Lao,  D. S. Levine,  Jie Liu,  
 S. C. McKenzie,  A. F. Morrison,  K. Nanda,  F. Plasser,  D. R. Rehn,  
 M. L. Vidal,  Zhi-Qiang You,  Ying Zhu,  B. Alam,  B. Albrecht,  
 A. Aldossary,  E. Alguire,  J. H. Andersen,  D. Barton,  K. Begam,  A. Behn,  
 Y. A. Bernard,  E. J. Berquist,  H. Burton,  A. Carreras,  K. Carter-Fenk,  
 R. Chakraborty,  A. D. Chien,  K. D. Closser,  V. Cofer-Shabica,  
 S. Dasgupta,  Jia Deng,  M. de Wergifosse,  M. Diedenhofen,  Hainam Do,  
 S. Ehlert,  Po-Tung Fang,  S. Fatehi,  Qingguo Feng,  T. Friedhoff,  
 J. Gayvert,  Qinghui Ge,  G. Gidofalvi,  M. Goldey,  J. Gomes,  
 C. Gonzalez-Espinoza,  S. Gulania,  A. Gunina,  M. W. D. Hanson-Heine,  
 P. H. P. Harbach,  A. W. Hauser,  M. F. Herbst,  M. Hernandez Vera,  
 M. Hodecker,  Z. C. Holden,  S. Houck,  Xunkun Huang,  Kerwin Hui,  
 B. C. Huynh,  M. Ivanov,  Hyunjun Ji,  Hanjie Jiang,  B. Kaduk,  S. Kaehler,  
 K. Khistyaev,  Jaehoon Kim,  P. Klunzinger,  Z. Koczor-Benda,  
 Joong Hoon Koh,  D. Kosenkov,  L. Koulias,  T. Kowalczyk,  C. M. Krauter,  
 K. Kue,  A. Kunitsa,  T. Kus,  A. Landau,  K. V. Lawler,  D. Lefrancois,  
 S. Lehtola,  Rain Li,  Yi-Pei Li,  Jiashu Liang,  M. Liebenthal,  
 Hung-Hsuan Lin,  You-Sheng Lin,  Fenglai Liu,  Kuan-Yu Liu,  
 M. Loipersberger,  A. Luenser,  A. Manjanath,  P. Manohar,  E. Mansoor,  
 S. F. Manzer,  Shan-Ping Mao,  A. V. Marenich,  T. Markovich,  S. Mason,  
 S. A. Maurer,  P. F. McLaughlin,  M. F. S. J. Menger,  J.-M. Mewes,  
 S. A. Mewes,  P. Morgante,  J. W. Mullinax,  K. J. Oosterbaan,  G. Paran,  
 Alexander C. Paul,  Suranjan K. Paul,  F. Pavosevic,  Zheng Pei,  S. Prager,  
 E. I. Proynov,  E. Ramos,  B. Rana,  A. E. Rask,  A. Rettig,  R. M. Richard,  
 F. Rob,  E. Rossomme,  T. Scheele,  M. Scheurer,  M. Schneider,  
 N. Sergueev,  S. M. Sharada,  W. Skomorowski,  D. W. Small,  C. J. Stein,  
 Yu-Chuan Su,  E. J. Sundstrom,  Zhen Tao,  J. Thirman,  T. Tsuchimochi,  
 N. M. Tubman,  S. P. Veccham,  O. Vydrov,  J. Wenzel,  J. Witte,  A. Yamada,  
 Kun Yao,  S. Yeganeh,  S. R. Yost,  A. Zech,  Igor Ying Zhang,  Xing Zhang,  
 Yu Zhang,  D. Zuev,  A. Aspuru-Guzik,  A. T. Bell,  N. A. Besley,  
 K. B. Bravaya,  B. R. Brooks,  D. Casanova,  Jeng-Da Chai,  S. Coriani,  
 C. J. Cramer,  A. E. DePrince, III,  R. A. DiStasio Jr.,  A. Dreuw,  
 B. D. Dunietz,  T. R. Furlani,  W. A. Goddard III,  S. Grimme,  
 S. Hammes-Schiffer,  T. Head-Gordon,  W. J. Hehre,  Chao-Ping Hsu,  
 T.-C. Jagau,  Yousung Jung,  A. Klamt,  Jing Kong,  D. S. Lambrecht,  
 WanZhen Liang,  N. J. Mayhall,  C. W. McCurdy,  J. B. Neaton,  
 C. Ochsenfeld,  J. A. Parkhill,  R. Peverati,  V. A. Rassolov,  Yihan Shao,  
 L. V. Slipchenko,  T. Stauch,  R. P. Steele,  J. E. Subotnik,  
 A. J. W. Thom,  A. Tkatchenko,  D. G. Truhlar,  T. Van Voorhis,  
 T. A. Wesolowski,  K. B. Whaley,  H. L. Woodcock III,  P. M. Zimmerman,  
 S. Faraji,  P. M. W. Gill,  M. Head-Gordon,  J. M. Herbert,  A. I. Krylov

 Additional authors for Version 5.4.1: 
 S. Kotaru,  Shaozhi Li,  Xiangyuan Li,  F. Matz,  A. Molle,  Haisheng Ren,  
 Yingli Su,  Hung-Yi Tsai,  C. Utku,  Fang Wang

 Contributors to earlier versions of Q-Chem not listed above: 
 R. D. Adamson,  B. Austin,  R. Baer,  J. Baker,  G. J. O. Beran,  
 K. Brandhorst,  S. T. Brown,  E. F. C. Byrd,  A. K. Chakraborty,  
 G. K. L. Chan,  Chun-Min Chang,  Yunqing Chen,  C.-L. Cheng,  
 Siu Hung Chien,  D. M. Chipman,  D. L. Crittenden,  H. Dachsel,  
 R. J. Doerksen,  A. D. Dutoi,  R. G. Edgar,  J. Fosso-Tande,  
 L. Fusti-Molnar,  D. Ghosh,  A. Ghysels,  A. Golubeva-Zadorozhnaya,  
 J. Gonthier,  M. S. Gordon,  S. R. Gwaltney,  G. Hawkins,  J. E. Herr,  
 A. Heyden,  S. Hirata,  E. G. Hohenstein,  G. Kedziora,  F. J. Keil,  
 C. Kelley,  Jihan Kim,  R. A. King,  R. Z. Khaliullin,  P. P. Korambath,  
 W. Kurlancheek,  A. Laurent,  A. M. Lee,  M. S. Lee,  S. V. Levchenko,  
 Ching Yeh Lin,  D. Liotard,  E. Livshits,  R. C. Lochan,  I. Lotan,  
 L. A. Martinez-Martinez,  P. E. Maslen,  N. Nair,  D. P. O'Neill,  
 D. Neuhauser,  E. Neuscamman,  C. M. Oana,  R. Olivares-Amaya,  R. Olson,  
 T. M. Perrine,  B. Peters,  P. A. Pieniazek,  A. Prociuk,  Y. M. Rhee,  
 J. Ritchie,  M. A. Rohrdanz,  E. Rosta,  N. J. Russ,  H. F. Schaefer III,  
 M. W. Schmidt,  N. E. Schultz,  S. Sharma,  N. Shenvi,  C. D. Sherrill,  
 A. C. Simmonett,  A. Sodt,  T. Stein,  D. Stuck,  K. S. Thanthiriwatte,  
 V. Vanovschi,  L. Vogt,  Tao Wang,  A. Warshel,  M. A. Watson,  
 C. F. Williams,  Q. Wu,  X. Xu,  Jun Yang,  W. Zhang,  Yan Zhao

 Please cite Q-Chem as follows:
 Y. Shao et al., Mol. Phys. 113, 184-215 (2015)
 DOI: 10.1080/00268976.2014.952696

 Q-Chem 5.4.1 for Intel X86 EM64T Linux

 Parts of Q-Chem use Armadillo 9.800.1 (Horizon Scraper).
 http://arma.sourceforge.net/

 Q-Chem begins on Thu May  9 17:42:57 2024  

 Host: 
0

     Scratch files written to /scratch/ari.fischer/qChem2091140.hpc-mn1/qchem319585//
 Aug1521 |scratch|qcdevops|jenkins|workspace|build_RNUM 8249   
 Processing $rem in /usr/local/qchem-5.4.1/config/preferences:
 Processing $rem in /home/ari.fischer/.qchemrc:
 Symmetry turned off for PCM/SM12/SMD calculation


!!********************************************.
!!******************Warning*******************.
!!Desired Analytical derivatives not available.
!!Finite difference job might take a long time.
!!********************************************.
!!********************************************.


 2-order derivative to be evaluated numerically with 1-order analytical derivatives

 Checking the input file for inconsistencies... 	...done.

--------------------------------------------------------------
User input:
--------------------------------------------------------------
$molecule
0 2
C         3.3466170127    1.7927572670   -0.2277125758
O         2.9455071800    2.3186652600    0.9282830223
C         4.6908093839    1.4033196221   -0.3564885451
O         5.1468341586    0.9030081349   -1.4059757422
H         5.3345618322    1.5603909440    0.5180621995
H         2.6308033005    1.6816281147   -1.0311096740
H         2.0078102321    2.5486297573    0.8898985153
$end

$rem
BASIS = 6-311++G(2df,2p)
GUI = 2
JOB_TYPE = Frequency
METHOD = wB97M-V
SOLVENT_METHOD = SMD
SCF_ALGORITHM = DIIS_GDM
MAX_SCF_CYCLES = 400
SCF_CONVERGENCE = 7
THRESH = 12
$end
--------------------------------------------------------------
 ----------------------------------------------------------------
             Standard Nuclear Orientation (Angstroms)
    I     Atom           X                Y                Z
 ----------------------------------------------------------------
    1      C       3.3466170127     1.7927572670    -0.2277125758
    2      O       2.9455071800     2.3186652600     0.9282830223
    3      C       4.6908093839     1.4033196221    -0.3564885451
    4      O       5.1468341586     0.9030081349    -1.4059757422
    5      H       5.3345618322     1.5603909440     0.5180621995
    6      H       2.6308033005     1.6816281147    -1.0311096740
    7      H       2.0078102321     2.5486297573     0.8898985153
 ----------------------------------------------------------------
 Nuclear Repulsion Energy =         109.07748154 hartrees
 There are       16 alpha and       15 beta electrons
 Requested basis set is 6-311++G(2df,2p)
 There are 50 shells and 166 basis functions

 Total QAlloc Memory Limit 288000 MB
 Mega-Array Size       188 MB
 MEM_STATIC part       192 MB
 
 Citation of the SMD model:
 Marenich, A.V.; Cramer, C.J.; Truhlar, D.G.
 J. Phys. Chem. B 2009, 113, 6378-6396.
 iSolventCode=           1
 Solvent: water                                                           
 
 vradii
            1           2           3           4           5           6
    1   1.8500000   1.5200000   1.8500000   1.5200000   1.2000000   1.2000000
            7
    1   1.2000000
 Changing PCM_VDW_RADII to SMD_RADIUS
 Discretize the solute cavity surface with Lebedev spheres
	Using 110 Lebedev grid points for each H atom
	Using 194 Lebedev grid points for other atoms
	Atomic van der Waals radii will be scaled by 1.20
 Remove points where switching function is < 1.0e-08
 Keep 640 surface tesserae and discard 466 interior tesserae
 Molecular Surface Area = 80.742 Angst**2

                       Distance Matrix (Angstroms)
             C (  1)   O (  2)   C (  3)   O (  4)   H (  5)   H (  6)
   O (  2)  1.331839
   C (  3)  1.405382  2.352568
   O (  4)  2.328248  3.506949  1.248877
   H (  5)  2.135907  2.539851  1.097236  2.041890
   H (  6)  1.081751  2.084244  2.185451  2.660298  3.118484
   H (  7)  1.900737  0.966247  3.172334  4.222864  3.490294  2.197745

 
 A cutoff of  1.0D-12 yielded   1240 shell pairs
 There are     13693 function pairs (     17188 Cartesian)
 Smallest overlap matrix eigenvalue = 8.97E-05
 Guess from superposition of atomic densities
 Warning:  Energy on first SCF cycle will be non-variational
 SAD guess density has 31.000000 electrons

 -----------------------------------------------------------------------
  General SCF calculation program by
  Eric Jon Sundstrom, Paul Horn, Yuezhi Mao, Dmitri Zuev, Alec White,
  David Stuck, Shaama M.S., Shane Yost, Joonho Lee, David Small,
  Daniel Levine, Susi Lehtola, Hugh Burton, Evgeny Epifanovsky,
  Bang C. Huynh
 -----------------------------------------------------------------------
 Exchange:     0.1500 Hartree-Fock + 1.0000 wB97M-V + LR-HF
 Correlation:  1.0000 wB97M-V
 Using SG-2 standard quadrature grid
 Nonlocal Correlation:  VV10 with C = 0.0100 and b = 6.00 and scale = 1.00000
 Grid used for NLC:  SG-1 standard quadrature
 using 16 threads for integral computing
 -------------------------------------------------------
 OpenMP Integral computing Module                
 Release: version 1.0, May 2013, Q-Chem Inc. Pittsburgh 
 -------------------------------------------------------
 
 Citation of the SMD model:
 Marenich, A.V.; Cramer, C.J.; Truhlar, D.G.
 J. Phys. Chem. B 2009, 113, 6378-6396.
 iSolventCode=           1
 Solvent: water                                                           
 
 vradii
            1           2           3           4           5           6
    1   1.8500000   1.5200000   1.8500000   1.5200000   1.2000000   1.2000000
            7
    1   1.2000000
 -------------------------------------------------------
 OpenMP BLAS3 based DFT computing Module                
 Release: version 1.0, May 2013, Q-Chem Inc. Pittsburgh 
 -------------------------------------------------------
 A unrestricted SCF calculation will be
 performed using DIIS, GDM
 SCF converges when RMS gradient is below 1.0e-07
 ---------------------------------------
  Cycle       Energy         DIIS error
 ---------------------------------------
    1    -229.1197496411      1.95e-02  
    2    -228.3397983696      2.75e-03  Done DIIS. Switching to GDM
 ---------------------------------------
  Cycle       Energy        RMS Gradient
 ---------------------------------------
    1    -228.3397983696      1.32e-01   Descent step
    2    -228.4150046262      4.39e-02   Normal BFGS step
    3    -228.4274331189      1.45e-02   Normal BFGS step
    4    -228.4281933579      8.19e-03   Normal BFGS step
    5    -228.4285609080      3.80e-03   Normal BFGS step
    6    -228.4286340295      1.91e-03   Normal BFGS step
    7    -228.4286531125      7.39e-04   Normal BFGS step
    8    -228.4286551992      3.04e-04   Normal BFGS step
    9    -228.4286555221      1.27e-04   Normal BFGS step
   10    -228.4286555895      5.11e-05   Normal BFGS step
   11    -228.4286556049      2.19e-05   Normal BFGS step
   12    -228.4286556088      6.88e-06   Normal BFGS step
   13    -228.4286556091      3.91e-06   Normal BFGS step
   14    -228.4286556092      1.82e-06   Normal BFGS step
   15    -228.4286556092      6.31e-07   Normal BFGS step
   16    -228.4286556092      1.11e-07   Normal BFGS step
   17    -228.4286556092      3.07e-08  Convergence criterion met
 ---------------------------------------
 SCF time:   CPU 231.97s  wall 14.00s 
<S^2> =          0.760056605
(3)  G-ENP(liq) elect-nuc-pol free energy of system     -228.428655609 a.u.
(4)  G-CDS(liq) cavity-dispersion-solvent structure 
     free energy                                                4.3926 kcal/mol
(6)  G-S(liq) free energy of system                     -228.421655570 a.u.
 SCF   energy in the final basis set =     -228.4216555698
 Total energy in the final basis set =     -228.4216555698
 
 --------------------------------------------------------------
 
                    Orbital Energies (a.u.)
 --------------------------------------------------------------
 
 Alpha MOs
 -- Occupied --
-19.3981 -19.3302 -10.4263 -10.4178  -1.2294  -1.1662  -0.8724  -0.7039
 -0.6849  -0.5998  -0.5612  -0.5512  -0.5032  -0.4979  -0.3817  -0.3078
 -- Virtual --
  0.0312   0.0451   0.0534   0.0822   0.0929   0.0937   0.1130   0.1309
  0.1393   0.1537   0.1632   0.1841   0.2223   0.2464   0.2466   0.2540
  0.2837   0.2912   0.3097   0.3129   0.3331   0.3447   0.3842   0.4284
  0.4556   0.4867   0.5656   0.5816   0.5867   0.6094   0.6200   0.6543
  0.6823   0.6903   0.7221   0.7365   0.7733   0.8325   0.8341   0.8400
  0.9172   0.9452   1.0057   1.0721   1.0727   1.1010   1.1093   1.1244
  1.1566   1.1678   1.2051   1.2085   1.2401   1.2835   1.3334   1.3850
  1.4339   1.4931   1.5042   1.5740   1.6155   1.6455   1.7609   1.7852
  1.8013   1.9040   1.9305   2.0490   2.1204   2.2069   2.2645   2.3711
  2.4653   2.5176   2.5824   2.6819   2.7325   2.7759   2.7917   2.8202
  2.8926   2.9483   3.0110   3.0532   3.1207   3.1559   3.1708   3.2495
  3.2951   3.3358   3.3502   3.3673   3.4653   3.5150   3.5380   3.5712
  3.5880   3.6727   3.7011   3.7388   3.7730   3.8380   3.9579   4.0043
  4.0719   4.2112   4.2423   4.2561   4.3103   4.3929   4.4086   4.5234
  4.8306   4.8416   5.1358   5.1624   5.1686   5.1884   5.2304   5.2613
  5.2855   5.3380   5.4964   5.5268   5.5478   5.6355   5.7011   5.7799
  5.8178   5.9423   6.2408   6.3244   6.6885   6.8065   6.9307   6.9999
  7.0033   7.1081   7.2221   7.2991   7.3090   7.3150   7.5335   7.6529
  7.7405   7.7730  24.7023  25.1185  50.5602  50.6760
 
 Beta MOs
 -- Occupied --
-19.3928 -19.3220 -10.4187 -10.4175  -1.2183  -1.1521  -0.8522  -0.6957
 -0.6762  -0.5935  -0.5421  -0.5239  -0.4911  -0.4569  -0.3719
 -- Virtual --
 -0.0228   0.0315   0.0455   0.0538   0.0934   0.0942   0.1015   0.1129
  0.1309   0.1543   0.1577   0.1627   0.1836   0.2241   0.2486   0.2583
  0.2588   0.2849   0.2961   0.3112   0.3188   0.3354   0.3460   0.3864
  0.4391   0.4609   0.4929   0.5694   0.5860   0.5965   0.6187   0.6284
  0.6536   0.6897   0.6999   0.7311   0.7482   0.7785   0.8362   0.8394
  0.8429   0.9287   0.9470   1.0095   1.0746   1.0778   1.1031   1.1190
  1.1271   1.1695   1.1731   1.2093   1.2184   1.2421   1.2899   1.3442
  1.3893   1.4447   1.4980   1.5087   1.5842   1.6226   1.6562   1.7756
  1.7999   1.8109   1.9137   1.9442   2.0578   2.1361   2.2118   2.2716
  2.3811   2.4688   2.5254   2.5945   2.7121   2.7442   2.7976   2.8377
  2.8477   2.9014   2.9735   3.0329   3.0752   3.1345   3.1733   3.1999
  3.2742   3.3097   3.3558   3.3700   3.3942   3.4786   3.5318   3.5563
  3.6004   3.6197   3.6955   3.7224   3.7466   3.7854   3.8520   3.9668
  4.0181   4.0793   4.2148   4.2495   4.2820   4.3279   4.4183   4.4314
  4.5330   4.8496   4.8645   5.1639   5.1840   5.1934   5.2293   5.2550
  5.2782   5.3004   5.3565   5.5167   5.5441   5.5682   5.6487   5.7189
  5.8003   5.8278   5.9605   6.2622   6.3331   6.6990   6.8161   6.9691
  7.0273   7.0356   7.1170   7.2447   7.3077   7.3301   7.3497   7.5430
  7.6648   7.7574   7.7803  24.7067  25.1229  50.5646  50.6819
 --------------------------------------------------------------
 
          Ground-State Mulliken Net Atomic Charges

     Atom                 Charge (a.u.)    Spin (a.u.)
  --------------------------------------------------------
      1 C                    -0.032519       0.525550
      2 O                    -0.253984       0.140546
      3 C                     0.025827       0.064045
      4 O                    -0.498917       0.284080
      5 H                     0.177817      -0.002763
      6 H                     0.219822      -0.008526
      7 H                     0.361954      -0.002932
  --------------------------------------------------------
  Sum of atomic charges =     0.000000
  Sum of spin   charges =     1.000000

 -----------------------------------------------------------------
                    Cartesian Multipole Moments
 -----------------------------------------------------------------
    Charge (ESU x 10^10)
                -0.0000
    Dipole Moment (Debye)
         X      -5.3674      Y       2.4568      Z       2.9405
       Tot       6.5948
    Quadrupole Moments (Debye-Ang)
        XX     -60.8222     XY       0.5881     YY     -16.8202
        XZ      16.0042     YZ       1.9410     ZZ     -29.6243
    Octopole Moments (Debye-Ang^2)
       XXX    -496.8613    XXY     -52.7615    XYY     -88.2486
       YYY     -98.2923    XXZ      97.9127    XYZ       8.8334
       YYZ       7.8238    XZZ    -128.0872    YZZ     -42.9391
       ZZZ      26.8259
    Hexadecapole Moments (Debye-Ang^3)
      XXXX   -3611.0880   XXXY    -522.2662   XXYY    -481.7268
      XYYY    -412.6612   YYYY    -394.3313   XXXZ     637.6435
      XXYZ      58.2149   XYYZ      38.8520   YYYZ       2.9186
      XXZZ    -601.3801   XYZZ    -172.8711   YYZZ     -98.6480
      XZZZ     163.3145   YZZZ       5.1373   ZZZZ    -155.4513
 -----------------------------------------------------------------
 Calculating analytic gradient of the SCF energy
 Gradient of CDS energy
            1           2           3           4           5           6
    1  -0.0021345   0.0012964   0.0021779  -0.0008471  -0.0000852  -0.0000494
    2   0.0017489  -0.0015256  -0.0013443   0.0008804   0.0000842  -0.0000093
    3   0.0032927  -0.0032607  -0.0021568   0.0018155   0.0001704  -0.0000608
            7
    1  -0.0003582
    2   0.0001658
    3   0.0001997
 Gradient of SCF Energy
            1           2           3           4           5           6
    1   0.0100864   0.0239323   0.0003092   0.0027187  -0.0002775  -0.0117126
    2   0.0006340  -0.0048249  -0.0018843  -0.0012887   0.0011842   0.0000088
    3   0.0088826   0.0037975  -0.0049179  -0.0016204   0.0029993  -0.0081929
            7
    1  -0.0250564
    2   0.0061709
    3  -0.0009482
 Max gradient component =       2.506E-02
 RMS gradient           =       9.031E-03
 Computing fast CPCM-SWIG gradient
 Updating gradient with PCM contributions...
 -- total gradient after adding PCM contribution --
---------------------------------------------------
  Atom         X              Y              Z     
---------------------------------------------------
   1       0.000087      -0.000120      -0.000258
   2      -0.000259       0.000133       0.000153
   3       0.000068      -0.000081      -0.000159
   4       0.000013       0.000047       0.000170
   5      -0.000004       0.000010      -0.000030
   6      -0.000025       0.000020       0.000089
   7       0.000120      -0.000008       0.000036
---------------------------------------------------
 Number of fixed atoms: 0
 Gradient time:  CPU 31.17 s  wall 2.62 s
 ######################################################
 ######################################################
 # Starting finite difference calculation for IDERIV  #
 Finite diff step size:  1.88973e-03 a.u.
 ----------------------------------------------------------------
             Standard Nuclear Orientation (Angstroms)
    I     Atom           X                Y                Z
 ----------------------------------------------------------------
    1      C       3.3476170127     1.7927572670    -0.2277125758
    2      O       2.9455071800     2.3186652600     0.9282830223
    3      C       4.6908093839     1.4033196221    -0.3564885451
    4      O       5.1468341586     0.9030081349    -1.4059757422
    5      H       5.3345618322     1.5603909440     0.5180621995
    6      H       2.6308033005     1.6816281147    -1.0311096740
    7      H       2.0078102321     2.5486297573     0.8898985153
 ----------------------------------------------------------------
 Nuclear Repulsion Energy =         109.08425419 hartrees
 There are       16 alpha and       15 beta electrons
 Discretize the solute cavity surface with Lebedev spheres
	Using 110 Lebedev grid points for each H atom
	Using 194 Lebedev grid points for other atoms
	Atomic van der Waals radii will be scaled by 1.20
 Remove points where switching function is < 1.0e-08
 Keep 640 surface tesserae and discard 466 interior tesserae
 Molecular Surface Area = 80.740 Angst**2

                       Distance Matrix (Angstroms)
             C (  1)   O (  2)   C (  3)   O (  4)   H (  5)   H (  6)
   O (  2)  1.332140
   C (  3)  1.404425  2.352568
   O (  4)  2.327475  3.506949  1.248877
   H (  5)  2.134976  2.539851  1.097236  2.041890
   H (  6)  1.082413  2.084244  2.185451  2.660298  3.118484
   H (  7)  1.901442  0.966247  3.172334  4.222864  3.490294  2.197745

 
 Requested basis set is 6-311++G(2df,2p)
 There are 50 shells and 166 basis functions
 A cutoff of  1.0D-12 yielded   1240 shell pairs
 There are     13693 function pairs (     17188 Cartesian)
 Smallest overlap matrix eigenvalue = 8.93E-05
 Guess MOs from SCF MO coefficient file

 -----------------------------------------------------------------------
  General SCF calculation program by
  Eric Jon Sundstrom, Paul Horn, Yuezhi Mao, Dmitri Zuev, Alec White,
  David Stuck, Shaama M.S., Shane Yost, Joonho Lee, David Small,
  Daniel Levine, Susi Lehtola, Hugh Burton, Evgeny Epifanovsky,
  Bang C. Huynh
 -----------------------------------------------------------------------
 Exchange:     0.1500 Hartree-Fock + 1.0000 wB97M-V + LR-HF
 Correlation:  1.0000 wB97M-V
 Using SG-2 standard quadrature grid
 Nonlocal Correlation:  VV10 with C = 0.0100 and b = 6.00 and scale = 1.00000
 Grid used for NLC:  SG-1 standard quadrature
 
 Citation of the SMD model:
 Marenich, A.V.; Cramer, C.J.; Truhlar, D.G.
 J. Phys. Chem. B 2009, 113, 6378-6396.
 iSolventCode=           1
 Solvent: water                                                           
 
 vradii
            1           2           3           4           5           6
    1   1.8500000   1.5200000   1.8500000   1.5200000   1.2000000   1.2000000
            7
    1   1.2000000
 -------------------------------------------------------
 OpenMP BLAS3 based DFT computing Module                
 Release: version 1.0, May 2013, Q-Chem Inc. Pittsburgh 
 -------------------------------------------------------
 A unrestricted SCF calculation will be
 performed using Roothaan-Hall, DIIS, GDM
 SCF converges when RMS gradient is below 1.0e-07
 ---------------------------------------
  Cycle       Energy         DIIS error
 ---------------------------------------
    1    -228.3962277867      4.78e-04  Roothaan Step
 ---------------------------------------
  Cycle       Energy         DIIS error
 ---------------------------------------
    1    -228.4208044844      6.15e-04  
    2    -228.4233763308      7.53e-04  Done DIIS. Switching to GDM
 ---------------------------------------
  Cycle       Energy        RMS Gradient
 ---------------------------------------
    1    -228.4233763308      3.17e-02   Normal BFGS step
    2    -228.4206639946      5.60e-02  Line search: overstep
    3    -228.4283763938      7.57e-03   Normal BFGS step
    4    -228.4285827076      3.98e-03   Normal BFGS step
    5    -228.4286383761      1.07e-03   Normal BFGS step
    6    -228.4286472458      4.73e-04   Normal BFGS step
    7    -228.4286497157      2.47e-04   Normal BFGS step
    8    -228.4286500385      1.16e-04   Normal BFGS step
    9    -228.4286501304      4.34e-05   Normal BFGS step
   10    -228.4286501421      2.28e-05   Normal BFGS step
   11    -228.4286501443      1.15e-05   Normal BFGS step
   12    -228.4286501450      5.08e-06   Normal BFGS step
   13    -228.4286501451      2.08e-06   Normal BFGS step
   14    -228.4286501452      5.04e-07   Normal BFGS step
   15    -228.4286501452      1.58e-07   Normal BFGS step
   16    -228.4286501452      6.18e-08  Convergence criterion met
 ---------------------------------------
 SCF time:   CPU 230.56s  wall 15.00s 
<S^2> =          0.760071553
(3)  G-ENP(liq) elect-nuc-pol free energy of system     -228.428650145 a.u.
(4)  G-CDS(liq) cavity-dispersion-solvent structure 
     free energy                                                4.3901 kcal/mol
(6)  G-S(liq) free energy of system                     -228.421654143 a.u.
 SCF   energy in the final basis set =     -228.4216541425
 Total energy in the final basis set =     -228.4216541425
 
 --------------------------------------------------------------
 
                    Orbital Energies (a.u.)
 --------------------------------------------------------------
 
 Alpha MOs
 -- Occupied --
-19.3980 -19.3302 -10.4264 -10.4177  -1.2292  -1.1662  -0.8726  -0.7039
 -0.6849  -0.5999  -0.5612  -0.5512  -0.5032  -0.4977  -0.3817  -0.3080
 -- Virtual --
  0.0312   0.0451   0.0534   0.0823   0.0929   0.0937   0.1130   0.1309
  0.1393   0.1537   0.1632   0.1841   0.2223   0.2464   0.2466   0.2539
  0.2837   0.2912   0.3098   0.3129   0.3331   0.3447   0.3842   0.4284
  0.4559   0.4867   0.5655   0.5818   0.5867   0.6093   0.6198   0.6543
  0.6823   0.6905   0.7223   0.7365   0.7733   0.8326   0.8342   0.8400
  0.9173   0.9451   1.0056   1.0720   1.0726   1.1011   1.1094   1.1243
  1.1566   1.1679   1.2051   1.2085   1.2400   1.2837   1.3334   1.3850
  1.4343   1.4931   1.5041   1.5738   1.6155   1.6455   1.7609   1.7854
  1.8013   1.9041   1.9304   2.0494   2.1205   2.2071   2.2644   2.3710
  2.4655   2.5177   2.5826   2.6824   2.7323   2.7756   2.7915   2.8202
  2.8924   2.9482   3.0108   3.0530   3.1211   3.1559   3.1707   3.2495
  3.2952   3.3354   3.3502   3.3671   3.4656   3.5152   3.5375   3.5717
  3.5886   3.6724   3.7018   3.7388   3.7732   3.8373   3.9582   4.0047
  4.0725   4.2113   4.2425   4.2554   4.3110   4.3951   4.4089   4.5233
  4.8312   4.8423   5.1359   5.1624   5.1686   5.1884   5.2300   5.2613
  5.2852   5.3377   5.4964   5.5270   5.5479   5.6355   5.7012   5.7796
  5.8176   5.9418   6.2410   6.3237   6.6890   6.8062   6.9307   7.0000
  7.0033   7.1086   7.2220   7.2990   7.3088   7.3150   7.5337   7.6530
  7.7405   7.7730  24.7011  25.1204  50.5600  50.6761
 
 Beta MOs
 -- Occupied --
-19.3928 -19.3220 -10.4188 -10.4174  -1.2181  -1.1521  -0.8524  -0.6957
 -0.6762  -0.5936  -0.5421  -0.5239  -0.4909  -0.4568  -0.3720
 -- Virtual --
 -0.0230   0.0315   0.0455   0.0538   0.0934   0.0942   0.1016   0.1129
  0.1309   0.1543   0.1578   0.1627   0.1836   0.2241   0.2486   0.2583
  0.2589   0.2849   0.2961   0.3113   0.3188   0.3354   0.3460   0.3864
  0.4390   0.4612   0.4929   0.5693   0.5862   0.5964   0.6187   0.6282
  0.6536   0.6897   0.7000   0.7314   0.7481   0.7786   0.8362   0.8395
  0.8429   0.9288   0.9470   1.0094   1.0745   1.0778   1.1033   1.1190
  1.1270   1.1696   1.1732   1.2093   1.2184   1.2420   1.2900   1.3442
  1.3894   1.4452   1.4979   1.5087   1.5840   1.6225   1.6561   1.7757
  1.8002   1.8109   1.9137   1.9441   2.0582   2.1361   2.2120   2.2715
  2.3809   2.4690   2.5255   2.5947   2.7126   2.7441   2.7973   2.8377
  2.8476   2.9011   2.9734   3.0326   3.0750   3.1348   3.1734   3.1998
  3.2742   3.3097   3.3553   3.3701   3.3940   3.4789   3.5320   3.5559
  3.6009   3.6204   3.6951   3.7231   3.7466   3.7856   3.8514   3.9671
  4.0184   4.0799   4.2149   4.2496   4.2812   4.3285   4.4186   4.4336
  4.5329   4.8502   4.8652   5.1639   5.1840   5.1934   5.2294   5.2546
  5.2782   5.3001   5.3561   5.5167   5.5444   5.5683   5.6487   5.7188
  5.8002   5.8274   5.9600   6.2624   6.3324   6.6995   6.8158   6.9691
  7.0272   7.0357   7.1175   7.2446   7.3076   7.3299   7.3498   7.5431
  7.6649   7.7574   7.7803  24.7055  25.1249  50.5644  50.6820
 --------------------------------------------------------------
 
          Ground-State Mulliken Net Atomic Charges

     Atom                 Charge (a.u.)    Spin (a.u.)
  --------------------------------------------------------
      1 C                    -0.031895       0.525091
      2 O                    -0.254361       0.140525
      3 C                     0.025625       0.064001
      4 O                    -0.498875       0.284651
      5 H                     0.177778      -0.002774
      6 H                     0.219733      -0.008566
      7 H                     0.361994      -0.002929
  --------------------------------------------------------
  Sum of atomic charges =     0.000000
  Sum of spin   charges =     1.000000

 -----------------------------------------------------------------
                    Cartesian Multipole Moments
 -----------------------------------------------------------------
    Charge (ESU x 10^10)
                 0.0000
    Dipole Moment (Debye)
         X      -5.3664      Y       2.4560      Z       2.9390
       Tot       6.5930
    Quadrupole Moments (Debye-Ang)
        XX     -60.8152     XY       0.5869     YY     -16.8223
        XZ      15.9977     YZ       1.9379     ZZ     -29.6255
    Octopole Moments (Debye-Ang^2)
       XXX    -496.8368    XXY     -52.7602    XYY     -88.2564
       YYY     -98.2995    XXZ      97.8824    XYZ       8.8206
       YYZ       7.8154    XZZ    -128.0941    YZZ     -42.9425
       ZZZ      26.8222
    Hexadecapole Moments (Debye-Ang^3)
      XXXX   -3611.0783   XXXY    -522.2691   XXYY    -481.7544
      XYYY    -412.7003   YYYY    -394.3564   XXXZ     637.4962
      XXYZ      58.1601   XYYZ      38.8196   YYYZ       2.8943
      XXZZ    -601.4074   XYZZ    -172.8889   YYZZ     -98.6567
      XZZZ     163.3002   YZZZ       5.1284   ZZZZ    -155.4609
 -----------------------------------------------------------------
 Calculating analytic gradient of the SCF energy
 Gradient of CDS energy
            1           2           3           4           5           6
    1  -0.0021378   0.0013031   0.0021762  -0.0008470  -0.0000851  -0.0000507
    2   0.0017534  -0.0015304  -0.0013441   0.0008804   0.0000842  -0.0000093
    3   0.0033036  -0.0032711  -0.0021567   0.0018156   0.0001706  -0.0000614
            7
    1  -0.0003585
    2   0.0001657
    3   0.0001995
 Gradient of SCF Energy
            1           2           3           4           5           6
    1   0.0114365   0.0236575  -0.0003018   0.0026841  -0.0003044  -0.0120956
    2   0.0003777  -0.0047383  -0.0018000  -0.0012397   0.0011992  -0.0000083
    3   0.0089825   0.0038768  -0.0050311  -0.0015265   0.0030028  -0.0084494
            7
    1  -0.0250763
    2   0.0062094
    3  -0.0008551
 Max gradient component =       2.508E-02
 RMS gradient           =       9.115E-03
 Computing fast CPCM-SWIG gradient
 Updating gradient with PCM contributions...
 -- total gradient after adding PCM contribution --
---------------------------------------------------
  Atom         X              Y              Z     
---------------------------------------------------
   1       0.001424      -0.000378      -0.000154
   2      -0.000518       0.000219       0.000239
   3      -0.000553       0.000003      -0.000276
   4      -0.000022       0.000100       0.000273
   5      -0.000032       0.000025      -0.000026
   6      -0.000397       0.000001      -0.000180
   7       0.000099       0.000030       0.000125
---------------------------------------------------
 Number of fixed atoms: 0
 Gradient time:  CPU 28.98 s  wall 2.32 s
 ----------------------------------------------------------------
             Standard Nuclear Orientation (Angstroms)
    I     Atom           X                Y                Z
 ----------------------------------------------------------------
    1      C       3.3456170127     1.7927572670    -0.2277125758
    2      O       2.9455071800     2.3186652600     0.9282830223
    3      C       4.6908093839     1.4033196221    -0.3564885451
    4      O       5.1468341586     0.9030081349    -1.4059757422
    5      H       5.3345618322     1.5603909440     0.5180621995
    6      H       2.6308033005     1.6816281147    -1.0311096740
    7      H       2.0078102321     2.5486297573     0.8898985153
 ----------------------------------------------------------------
 Nuclear Repulsion Energy =         109.07071616 hartrees
 There are       16 alpha and       15 beta electrons
 Discretize the solute cavity surface with Lebedev spheres
	Using 110 Lebedev grid points for each H atom
	Using 194 Lebedev grid points for other atoms
	Atomic van der Waals radii will be scaled by 1.20
 Remove points where switching function is < 1.0e-08
 Keep 640 surface tesserae and discard 466 interior tesserae
 Molecular Surface Area = 80.744 Angst**2

                       Distance Matrix (Angstroms)
             C (  1)   O (  2)   C (  3)   O (  4)   H (  5)   H (  6)
   O (  2)  1.331538
   C (  3)  1.406338  2.352568
   O (  4)  2.329021  3.506949  1.248877
   H (  5)  2.136838  2.539851  1.097236  2.041890
   H (  6)  1.081090  2.084244  2.185451  2.660298  3.118484
   H (  7)  1.900033  0.966247  3.172334  4.222864  3.490294  2.197745

 
 Requested basis set is 6-311++G(2df,2p)
 There are 50 shells and 166 basis functions
 A cutoff of  1.0D-12 yielded   1240 shell pairs
 There are     13693 function pairs (     17188 Cartesian)
 Smallest overlap matrix eigenvalue = 9.01E-05
 Guess MOs from SCF MO coefficient file

 -----------------------------------------------------------------------
  General SCF calculation program by
  Eric Jon Sundstrom, Paul Horn, Yuezhi Mao, Dmitri Zuev, Alec White,
  David Stuck, Shaama M.S., Shane Yost, Joonho Lee, David Small,
  Daniel Levine, Susi Lehtola, Hugh Burton, Evgeny Epifanovsky,
  Bang C. Huynh
 -----------------------------------------------------------------------
 Exchange:     0.1500 Hartree-Fock + 1.0000 wB97M-V + LR-HF
 Correlation:  1.0000 wB97M-V
 Using SG-2 standard quadrature grid
 Nonlocal Correlation:  VV10 with C = 0.0100 and b = 6.00 and scale = 1.00000
 Grid used for NLC:  SG-1 standard quadrature
 
 Citation of the SMD model:
 Marenich, A.V.; Cramer, C.J.; Truhlar, D.G.
 J. Phys. Chem. B 2009, 113, 6378-6396.
 iSolventCode=           1
 Solvent: water                                                           
 
 vradii
            1           2           3           4           5           6
    1   1.8500000   1.5200000   1.8500000   1.5200000   1.2000000   1.2000000
            7
    1   1.2000000
 -------------------------------------------------------
 OpenMP BLAS3 based DFT computing Module                
 Release: version 1.0, May 2013, Q-Chem Inc. Pittsburgh 
 -------------------------------------------------------
 A unrestricted SCF calculation will be
 performed using Roothaan-Hall, DIIS, GDM
 SCF converges when RMS gradient is below 1.0e-07
 ---------------------------------------
  Cycle       Energy         DIIS error
 ---------------------------------------
    1    -228.3962400719      4.78e-04  Roothaan Step
 ---------------------------------------
  Cycle       Energy         DIIS error
 ---------------------------------------
    1    -228.4208234017      6.13e-04  
    2    -228.4234191047      7.50e-04  Done DIIS. Switching to GDM
 ---------------------------------------
  Cycle       Energy        RMS Gradient
 ---------------------------------------
    1    -228.4234191047      3.14e-02   Normal BFGS step
    2    -228.4207360504      5.59e-02  Line search: overstep
    3    -228.4283840299      7.69e-03   Normal BFGS step
    4    -228.4285906858      3.97e-03   Normal BFGS step
    5    -228.4286465863      1.07e-03   Normal BFGS step
    6    -228.4286556069      4.83e-04   Normal BFGS step
    7    -228.4286581159      2.49e-04   Normal BFGS step
    8    -228.4286584437      1.15e-04   Normal BFGS step
    9    -228.4286585290      4.54e-05   Normal BFGS step
   10    -228.4286585417      2.42e-05   Normal BFGS step
   11    -228.4286585440      1.16e-05   Normal BFGS step
   12    -228.4286585447      5.11e-06   Normal BFGS step
   13    -228.4286585448      2.05e-06   Normal BFGS step
   14    -228.4286585449      5.04e-07   Normal BFGS step
   15    -228.4286585449      1.51e-07   Normal BFGS step
   16    -228.4286585449      6.09e-08  Convergence criterion met
 ---------------------------------------
 SCF time:   CPU 229.76s  wall 14.00s 
<S^2> =          0.760041677
(3)  G-ENP(liq) elect-nuc-pol free energy of system     -228.428658545 a.u.
(4)  G-CDS(liq) cavity-dispersion-solvent structure 
     free energy                                                4.3951 kcal/mol
(6)  G-S(liq) free energy of system                     -228.421654475 a.u.
 SCF   energy in the final basis set =     -228.4216544749
 Total energy in the final basis set =     -228.4216544749
 
 --------------------------------------------------------------
 
                    Orbital Energies (a.u.)
 --------------------------------------------------------------
 
 Alpha MOs
 -- Occupied --
-19.3981 -19.3302 -10.4263 -10.4179  -1.2295  -1.1661  -0.8721  -0.7039
 -0.6850  -0.5998  -0.5612  -0.5511  -0.5032  -0.4980  -0.3816  -0.3076
 -- Virtual --
  0.0312   0.0451   0.0534   0.0821   0.0929   0.0937   0.1130   0.1309
  0.1392   0.1537   0.1632   0.1841   0.2223   0.2465   0.2466   0.2540
  0.2838   0.2912   0.3097   0.3130   0.3331   0.3447   0.3842   0.4284
  0.4554   0.4866   0.5656   0.5815   0.5868   0.6094   0.6201   0.6543
  0.6823   0.6902   0.7218   0.7366   0.7732   0.8324   0.8341   0.8400
  0.9171   0.9452   1.0057   1.0722   1.0727   1.1008   1.1093   1.1245
  1.1566   1.1678   1.2051   1.2085   1.2402   1.2834   1.3333   1.3850
  1.4335   1.4932   1.5043   1.5742   1.6156   1.6456   1.7608   1.7850
  1.8013   1.9040   1.9305   2.0487   2.1204   2.2068   2.2645   2.3713
  2.4652   2.5175   2.5822   2.6813   2.7326   2.7762   2.7918   2.8202
  2.8928   2.9483   3.0112   3.0534   3.1204   3.1560   3.1709   3.2494
  3.2950   3.3363   3.3501   3.3676   3.4650   3.5149   3.5384   3.5708
  3.5874   3.6731   3.7004   3.7387   3.7729   3.8386   3.9577   4.0039
  4.0713   4.2110   4.2422   4.2569   4.3096   4.3907   4.4082   4.5236
  4.8299   4.8409   5.1358   5.1624   5.1686   5.1885   5.2309   5.2613
  5.2858   5.3383   5.4964   5.5266   5.5476   5.6354   5.7010   5.7803
  5.8180   5.9428   6.2407   6.3251   6.6879   6.8068   6.9307   6.9998
  7.0033   7.1076   7.2222   7.2993   7.3092   7.3150   7.5334   7.6528
  7.7405   7.7730  24.7036  25.1165  50.5603  50.6759
 
 Beta MOs
 -- Occupied --
-19.3928 -19.3220 -10.4187 -10.4176  -1.2184  -1.1520  -0.8520  -0.6958
 -0.6762  -0.5935  -0.5421  -0.5239  -0.4912  -0.4569  -0.3719
 -- Virtual --
 -0.0227   0.0315   0.0455   0.0538   0.0934   0.0942   0.1015   0.1129
  0.1309   0.1543   0.1576   0.1627   0.1836   0.2241   0.2487   0.2583
  0.2588   0.2849   0.2961   0.3112   0.3188   0.3354   0.3461   0.3864
  0.4392   0.4607   0.4928   0.5694   0.5859   0.5966   0.6187   0.6286
  0.6536   0.6897   0.6997   0.7308   0.7483   0.7785   0.8362   0.8393
  0.8429   0.9286   0.9471   1.0095   1.0746   1.0779   1.1030   1.1189
  1.1272   1.1695   1.1731   1.2092   1.2184   1.2422   1.2897   1.3441
  1.3893   1.4443   1.4980   1.5088   1.5844   1.6226   1.6563   1.7756
  1.7997   1.8109   1.9136   1.9442   2.0574   2.1360   2.2117   2.2716
  2.3813   2.4687   2.5254   2.5943   2.7116   2.7444   2.7979   2.8377
  2.8479   2.9016   2.9735   3.0331   3.0754   3.1343   3.1733   3.2000
  3.2742   3.3096   3.3563   3.3700   3.3944   3.4783   3.5317   3.5568
  3.6000   3.6191   3.6958   3.7218   3.7465   3.7853   3.8526   3.9666
  4.0177   4.0787   4.2146   4.2494   4.2828   4.3273   4.4179   4.4292
  4.5332   4.8490   4.8638   5.1639   5.1839   5.1934   5.2293   5.2553
  5.2782   5.3007   5.3568   5.5166   5.5439   5.5681   5.6487   5.7189
  5.8004   5.8282   5.9610   6.2620   6.3338   6.6984   6.8164   6.9690
  7.0273   7.0354   7.1164   7.2448   7.3077   7.3304   7.3496   7.5428
  7.6647   7.7574   7.7803  24.7080  25.1209  50.5648  50.6818
 --------------------------------------------------------------
 
          Ground-State Mulliken Net Atomic Charges

     Atom                 Charge (a.u.)    Spin (a.u.)
  --------------------------------------------------------
      1 C                    -0.033144       0.526009
      2 O                    -0.253608       0.140567
      3 C                     0.026027       0.064087
      4 O                    -0.498957       0.283511
      5 H                     0.177857      -0.002752
      6 H                     0.219911      -0.008485
      7 H                     0.361914      -0.002936
  --------------------------------------------------------
  Sum of atomic charges =     0.000000
  Sum of spin   charges =     1.000000

 -----------------------------------------------------------------
                    Cartesian Multipole Moments
 -----------------------------------------------------------------
    Charge (ESU x 10^10)
                 0.0000
    Dipole Moment (Debye)
         X      -5.3683      Y       2.4577      Z       2.9420
       Tot       6.5965
    Quadrupole Moments (Debye-Ang)
        XX     -60.8291     XY       0.5893     YY     -16.8181
        XZ      16.0107     YZ       1.9442     ZZ     -29.6230
    Octopole Moments (Debye-Ang^2)
       XXX    -496.8849    XXY     -52.7628    XYY     -88.2408
       YYY     -98.2852    XXZ      97.9428    XYZ       8.8463
       YYZ       7.8322    XZZ    -128.0803    YZZ     -42.9356
       ZZZ      26.8295
    Hexadecapole Moments (Debye-Ang^3)
      XXXX   -3611.0924   XXXY    -522.2624   XXYY    -481.6990
      XYYY    -412.6221   YYYY    -394.3063   XXXZ     637.7896
      XXYZ      58.2694   XYYZ      38.8843   YYYZ       2.9429
      XXZZ    -601.3524   XYZZ    -172.8533   YYZZ     -98.6394
      XZZZ     163.3286   YZZZ       5.1461   ZZZZ    -155.4416
 -----------------------------------------------------------------
 Calculating analytic gradient of the SCF energy
 Gradient of CDS energy
            1           2           3           4           5           6
    1  -0.0021312   0.0012898   0.0021796  -0.0008471  -0.0000852  -0.0000480
    2   0.0017444  -0.0015208  -0.0013445   0.0008803   0.0000842  -0.0000094
    3   0.0032818  -0.0032503  -0.0021569   0.0018154   0.0001703  -0.0000602
            7
    1  -0.0003579
    2   0.0001658
    3   0.0001998
 Gradient of SCF Energy
            1           2           3           4           5           6
    1   0.0087391   0.0242070   0.0009167   0.0027531  -0.0002507  -0.0113288
    2   0.0008893  -0.0049116  -0.0019674  -0.0013376   0.0011692   0.0000260
    3   0.0087814   0.0037177  -0.0048044  -0.0017142   0.0029957  -0.0079349
            7
    1  -0.0250363
    2   0.0061322
    3  -0.0010414
 Max gradient component =       2.504E-02
 RMS gradient           =       8.959E-03
 Computing fast CPCM-SWIG gradient
 Updating gradient with PCM contributions...
 -- total gradient after adding PCM contribution --
---------------------------------------------------
  Atom         X              Y              Z     
---------------------------------------------------
   1      -0.001246       0.000136      -0.000364
   2       0.000001       0.000047       0.000066
   3       0.000685      -0.000165      -0.000042
   4       0.000048      -0.000005       0.000067
   5       0.000023      -0.000006      -0.000034
   6       0.000347       0.000040       0.000360
   7       0.000141      -0.000047      -0.000054
---------------------------------------------------
 Number of fixed atoms: 0
 Gradient time:  CPU 28.92 s  wall 2.33 s
 ----------------------------------------------------------------
             Standard Nuclear Orientation (Angstroms)
    I     Atom           X                Y                Z
 ----------------------------------------------------------------
    1      C       3.3466170127     1.7937572670    -0.2277125758
    2      O       2.9455071800     2.3186652600     0.9282830223
    3      C       4.6908093839     1.4033196221    -0.3564885451
    4      O       5.1468341586     0.9030081349    -1.4059757422
    5      H       5.3345618322     1.5603909440     0.5180621995
    6      H       2.6308033005     1.6816281147    -1.0311096740
    7      H       2.0078102321     2.5486297573     0.8898985153
 ----------------------------------------------------------------
 Nuclear Repulsion Energy =         109.07866010 hartrees
 There are       16 alpha and       15 beta electrons
 Discretize the solute cavity surface with Lebedev spheres
	Using 110 Lebedev grid points for each H atom
	Using 194 Lebedev grid points for other atoms
	Atomic van der Waals radii will be scaled by 1.20
 Remove points where switching function is < 1.0e-08
 Keep 640 surface tesserae and discard 466 interior tesserae
 Molecular Surface Area = 80.742 Angst**2

                       Distance Matrix (Angstroms)
             C (  1)   O (  2)   C (  3)   O (  4)   H (  5)   H (  6)
   O (  2)  1.331444
   C (  3)  1.405659  2.352568
   O (  4)  2.328630  3.506949  1.248877
   H (  5)  2.136016  2.539851  1.097236  2.041890
   H (  6)  1.081854  2.084244  2.185451  2.660298  3.118484
   H (  7)  1.900340  0.966247  3.172334  4.222864  3.490294  2.197745

 
 Requested basis set is 6-311++G(2df,2p)
 There are 50 shells and 166 basis functions
 A cutoff of  1.0D-12 yielded   1240 shell pairs
 There are     13693 function pairs (     17188 Cartesian)
 Smallest overlap matrix eigenvalue = 8.98E-05
 Guess MOs from SCF MO coefficient file

 -----------------------------------------------------------------------
  General SCF calculation program by
  Eric Jon Sundstrom, Paul Horn, Yuezhi Mao, Dmitri Zuev, Alec White,
  David Stuck, Shaama M.S., Shane Yost, Joonho Lee, David Small,
  Daniel Levine, Susi Lehtola, Hugh Burton, Evgeny Epifanovsky,
  Bang C. Huynh
 -----------------------------------------------------------------------
 Exchange:     0.1500 Hartree-Fock + 1.0000 wB97M-V + LR-HF
 Correlation:  1.0000 wB97M-V
 Using SG-2 standard quadrature grid
 Nonlocal Correlation:  VV10 with C = 0.0100 and b = 6.00 and scale = 1.00000
 Grid used for NLC:  SG-1 standard quadrature
 
 Citation of the SMD model:
 Marenich, A.V.; Cramer, C.J.; Truhlar, D.G.
 J. Phys. Chem. B 2009, 113, 6378-6396.
 iSolventCode=           1
 Solvent: water                                                           
 
 vradii
            1           2           3           4           5           6
    1   1.8500000   1.5200000   1.8500000   1.5200000   1.2000000   1.2000000
            7
    1   1.2000000
 -------------------------------------------------------
 OpenMP BLAS3 based DFT computing Module                
 Release: version 1.0, May 2013, Q-Chem Inc. Pittsburgh 
 -------------------------------------------------------
 A unrestricted SCF calculation will be
 performed using Roothaan-Hall, DIIS, GDM
 SCF converges when RMS gradient is below 1.0e-07
 ---------------------------------------
  Cycle       Energy         DIIS error
 ---------------------------------------
    1    -228.3962286444      4.78e-04  Roothaan Step
 ---------------------------------------
  Cycle       Energy         DIIS error
 ---------------------------------------
    1    -228.4208114021      6.15e-04  
    2    -228.4233863738      7.53e-04  Done DIIS. Switching to GDM
 ---------------------------------------
  Cycle       Energy        RMS Gradient
 ---------------------------------------
    1    -228.4233863738      3.17e-02   Normal BFGS step
    2    -228.4206751141      5.60e-02  Line search: overstep
    3    -228.4283843996      7.59e-03   Normal BFGS step
    4    -228.4285910708      4.01e-03   Normal BFGS step
    5    -228.4286469488      1.07e-03   Normal BFGS step
    6    -228.4286558779      4.77e-04   Normal BFGS step
    7    -228.4286583616      2.47e-04   Normal BFGS step
    8    -228.4286586851      1.16e-04   Normal BFGS step
    9    -228.4286587746      4.32e-05   Normal BFGS step
   10    -228.4286587864      2.25e-05   Normal BFGS step
   11    -228.4286587887      1.13e-05   Normal BFGS step
   12    -228.4286587893      5.10e-06   Normal BFGS step
   13    -228.4286587894      2.04e-06   Normal BFGS step
   14    -228.4286587895      5.04e-07   Normal BFGS step
   15    -228.4286587895      1.58e-07   Normal BFGS step
   16    -228.4286587895      1.07e-07   Normal BFGS step
   17    -228.4286587895      6.26e-08  Convergence criterion met
 ---------------------------------------
 SCF time:   CPU 242.71s  wall 15.00s 
<S^2> =          0.760047886
(3)  G-ENP(liq) elect-nuc-pol free energy of system     -228.428658789 a.u.
(4)  G-CDS(liq) cavity-dispersion-solvent structure 
     free energy                                                4.3947 kcal/mol
(6)  G-S(liq) free energy of system                     -228.421655452 a.u.
 SCF   energy in the final basis set =     -228.4216554519
 Total energy in the final basis set =     -228.4216554519
 
 --------------------------------------------------------------
 
                    Orbital Energies (a.u.)
 --------------------------------------------------------------
 
 Alpha MOs
 -- Occupied --
-19.3981 -19.3302 -10.4263 -10.4178  -1.2295  -1.1662  -0.8723  -0.7039
 -0.6850  -0.5998  -0.5612  -0.5512  -0.5032  -0.4979  -0.3817  -0.3077
 -- Virtual --
  0.0312   0.0451   0.0534   0.0822   0.0929   0.0937   0.1130   0.1309
  0.1393   0.1537   0.1632   0.1841   0.2223   0.2465   0.2466   0.2540
  0.2837   0.2912   0.3097   0.3130   0.3330   0.3447   0.3842   0.4284
  0.4556   0.4867   0.5655   0.5816   0.5867   0.6094   0.6200   0.6543
  0.6823   0.6903   0.7220   0.7365   0.7733   0.8324   0.8342   0.8400
  0.9172   0.9451   1.0057   1.0721   1.0727   1.1009   1.1093   1.1244
  1.1566   1.1678   1.2051   1.2085   1.2402   1.2835   1.3333   1.3849
  1.4339   1.4931   1.5042   1.5740   1.6155   1.6456   1.7609   1.7852
  1.8013   1.9040   1.9306   2.0490   2.1206   2.2070   2.2644   2.3713
  2.4655   2.5176   2.5825   2.6817   2.7326   2.7760   2.7917   2.8202
  2.8928   2.9483   3.0110   3.0532   3.1205   3.1559   3.1708   3.2494
  3.2951   3.3360   3.3503   3.3675   3.4651   3.5150   3.5380   3.5711
  3.5878   3.6731   3.7010   3.7388   3.7730   3.8382   3.9579   4.0041
  4.0718   4.2111   4.2423   4.2559   4.3101   4.3921   4.4084   4.5235
  4.8303   4.8411   5.1359   5.1624   5.1686   5.1885   5.2304   5.2613
  5.2858   5.3381   5.4964   5.5268   5.5479   5.6355   5.7012   5.7798
  5.8178   5.9432   6.2409   6.3250   6.6888   6.8069   6.9307   6.9998
  7.0033   7.1080   7.2222   7.2992   7.3092   7.3150   7.5335   7.6530
  7.7405   7.7731  24.7030  25.1179  50.5604  50.6760
 
 Beta MOs
 -- Occupied --
-19.3928 -19.3220 -10.4187 -10.4175  -1.2184  -1.1520  -0.8521  -0.6957
 -0.6763  -0.5935  -0.5421  -0.5240  -0.4911  -0.4569  -0.3719
 -- Virtual --
 -0.0228   0.0315   0.0455   0.0538   0.0934   0.0942   0.1015   0.1129
  0.1309   0.1543   0.1577   0.1627   0.1836   0.2241   0.2487   0.2583
  0.2588   0.2849   0.2961   0.3112   0.3189   0.3354   0.3460   0.3864
  0.4392   0.4609   0.4929   0.5693   0.5860   0.5965   0.6187   0.6285
  0.6536   0.6897   0.6998   0.7310   0.7482   0.7786   0.8362   0.8394
  0.8429   0.9287   0.9470   1.0095   1.0745   1.0779   1.1031   1.1189
  1.1271   1.1695   1.1731   1.2093   1.2184   1.2421   1.2898   1.3441
  1.3893   1.4447   1.4980   1.5087   1.5841   1.6226   1.6562   1.7756
  1.7999   1.8109   1.9137   1.9443   2.0578   2.1362   2.2118   2.2715
  2.3813   2.4690   2.5255   2.5946   2.7119   2.7443   2.7977   2.8377
  2.8478   2.9016   2.9736   3.0329   3.0752   3.1343   3.1733   3.1999
  3.2741   3.3096   3.3560   3.3702   3.3944   3.4785   3.5318   3.5564
  3.6003   3.6195   3.6958   3.7224   3.7466   3.7854   3.8523   3.9668
  4.0178   4.0793   4.2147   4.2495   4.2817   4.3277   4.4181   4.4307
  4.5331   4.8492   4.8641   5.1639   5.1839   5.1934   5.2294   5.2549
  5.2781   5.3007   5.3566   5.5167   5.5441   5.5683   5.6488   5.7191
  5.8001   5.8278   5.9614   6.2622   6.3337   6.6993   6.8165   6.9691
  7.0273   7.0355   7.1169   7.2448   7.3078   7.3303   7.3497   7.5430
  7.6650   7.7574   7.7804  24.7074  25.1223  50.5649  50.6819
 --------------------------------------------------------------
 
          Ground-State Mulliken Net Atomic Charges

     Atom                 Charge (a.u.)    Spin (a.u.)
  --------------------------------------------------------
      1 C                    -0.032682       0.525489
      2 O                    -0.253650       0.140591
      3 C                     0.025827       0.064217
      4 O                    -0.498998       0.283920
      5 H                     0.177764      -0.002762
      6 H                     0.219750      -0.008523
      7 H                     0.361988      -0.002933
  --------------------------------------------------------
  Sum of atomic charges =     0.000000
  Sum of spin   charges =     1.000000

 -----------------------------------------------------------------
                    Cartesian Multipole Moments
 -----------------------------------------------------------------
    Charge (ESU x 10^10)
                 0.0000
    Dipole Moment (Debye)
         X      -5.3693      Y       2.4581      Z       2.9430
       Tot       6.5980
    Quadrupole Moments (Debye-Ang)
        XX     -60.8377     XY       0.5897     YY     -16.8155
        XZ      16.0122     YZ       1.9463     ZZ     -29.6247
    Octopole Moments (Debye-Ang^2)
       XXX    -496.9572    XXY     -52.7726    XYY     -88.2397
       YYY     -98.2932    XXZ      97.9410    XYZ       8.8495
       YYZ       7.8374    XZZ    -128.0915    YZZ     -42.9448
       ZZZ      26.8338
    Hexadecapole Moments (Debye-Ang^3)
      XXXX   -3611.6438   XXXY    -522.3903   XXYY    -481.7426
      XYYY    -412.6824   YYYY    -394.3996   XXXZ     637.7490
      XXYZ      58.2688   XYYZ      38.8948   YYYZ       2.9589
      XXZZ    -601.4065   XYZZ    -172.8932   YYZZ     -98.6686
      XZZZ     163.3408   YZZZ       5.1558   ZZZZ    -155.4537
 -----------------------------------------------------------------
 Calculating analytic gradient of the SCF energy
 Gradient of CDS energy
            1           2           3           4           5           6
    1  -0.0021300   0.0012917   0.0021781  -0.0008473  -0.0000851  -0.0000493
    2   0.0017417  -0.0015165  -0.0013454   0.0008803   0.0000841  -0.0000097
    3   0.0032796  -0.0032470  -0.0021568   0.0018155   0.0001703  -0.0000611
            7
    1  -0.0003581
    2   0.0001654
    3   0.0001994
 Gradient of SCF Energy
            1           2           3           4           5           6
    1   0.0098320   0.0240459   0.0004432   0.0027582  -0.0002857  -0.0117332
    2   0.0010186  -0.0049807  -0.0020393  -0.0012840   0.0012093  -0.0000845
    3   0.0092025   0.0035923  -0.0049274  -0.0016429   0.0029880  -0.0082387
            7
    1  -0.0250604
    2   0.0061606
    3  -0.0009737
 Max gradient component =       2.506E-02
 RMS gradient           =       9.055E-03
 Computing fast CPCM-SWIG gradient
 Updating gradient with PCM contributions...
 -- total gradient after adding PCM contribution --
---------------------------------------------------
  Atom         X              Y              Z     
---------------------------------------------------
   1      -0.000169       0.000245       0.000064
   2      -0.000155      -0.000017      -0.000049
   3       0.000201      -0.000238      -0.000167
   4       0.000054       0.000050       0.000144
   5      -0.000009       0.000034      -0.000040
   6      -0.000049      -0.000054       0.000040
   7       0.000126      -0.000021       0.000008
---------------------------------------------------
 Number of fixed atoms: 0
 Gradient time:  CPU 29.65 s  wall 2.38 s
 ----------------------------------------------------------------
             Standard Nuclear Orientation (Angstroms)
    I     Atom           X                Y                Z
 ----------------------------------------------------------------
    1      C       3.3466170127     1.7917572670    -0.2277125758
    2      O       2.9455071800     2.3186652600     0.9282830223
    3      C       4.6908093839     1.4033196221    -0.3564885451
    4      O       5.1468341586     0.9030081349    -1.4059757422
    5      H       5.3345618322     1.5603909440     0.5180621995
    6      H       2.6308033005     1.6816281147    -1.0311096740
    7      H       2.0078102321     2.5486297573     0.8898985153
 ----------------------------------------------------------------
 Nuclear Repulsion Energy =         109.07628785 hartrees
 There are       16 alpha and       15 beta electrons
 Discretize the solute cavity surface with Lebedev spheres
	Using 110 Lebedev grid points for each H atom
	Using 194 Lebedev grid points for other atoms
	Atomic van der Waals radii will be scaled by 1.20
 Remove points where switching function is < 1.0e-08
 Keep 640 surface tesserae and discard 466 interior tesserae
 Molecular Surface Area = 80.742 Angst**2

                       Distance Matrix (Angstroms)
             C (  1)   O (  2)   C (  3)   O (  4)   H (  5)   H (  6)
   O (  2)  1.332234
   C (  3)  1.405105  2.352568
   O (  4)  2.327866  3.506949  1.248877
   H (  5)  2.135798  2.539851  1.097236  2.041890
   H (  6)  1.081649  2.084244  2.185451  2.660298  3.118484
   H (  7)  1.901135  0.966247  3.172334  4.222864  3.490294  2.197745

 
 Requested basis set is 6-311++G(2df,2p)
 There are 50 shells and 166 basis functions
 A cutoff of  1.0D-12 yielded   1240 shell pairs
 There are     13693 function pairs (     17188 Cartesian)
 Smallest overlap matrix eigenvalue = 8.96E-05
 Guess MOs from SCF MO coefficient file

 -----------------------------------------------------------------------
  General SCF calculation program by
  Eric Jon Sundstrom, Paul Horn, Yuezhi Mao, Dmitri Zuev, Alec White,
  David Stuck, Shaama M.S., Shane Yost, Joonho Lee, David Small,
  Daniel Levine, Susi Lehtola, Hugh Burton, Evgeny Epifanovsky,
  Bang C. Huynh
 -----------------------------------------------------------------------
 Exchange:     0.1500 Hartree-Fock + 1.0000 wB97M-V + LR-HF
 Correlation:  1.0000 wB97M-V
 Using SG-2 standard quadrature grid
 Nonlocal Correlation:  VV10 with C = 0.0100 and b = 6.00 and scale = 1.00000
 Grid used for NLC:  SG-1 standard quadrature
 
 Citation of the SMD model:
 Marenich, A.V.; Cramer, C.J.; Truhlar, D.G.
 J. Phys. Chem. B 2009, 113, 6378-6396.
 iSolventCode=           1
 Solvent: water                                                           
 
 vradii
            1           2           3           4           5           6
    1   1.8500000   1.5200000   1.8500000   1.5200000   1.2000000   1.2000000
            7
    1   1.2000000
 -------------------------------------------------------
 OpenMP BLAS3 based DFT computing Module                
 Release: version 1.0, May 2013, Q-Chem Inc. Pittsburgh 
 -------------------------------------------------------
 A unrestricted SCF calculation will be
 performed using Roothaan-Hall, DIIS, GDM
 SCF converges when RMS gradient is below 1.0e-07
 ---------------------------------------
  Cycle       Energy         DIIS error
 ---------------------------------------
    1    -228.3962182432      4.78e-04  Roothaan Step
 ---------------------------------------
  Cycle       Energy         DIIS error
 ---------------------------------------
    1    -228.4208003512      6.15e-04  
    2    -228.4233719427      7.53e-04  Done DIIS. Switching to GDM
 ---------------------------------------
  Cycle       Energy        RMS Gradient
 ---------------------------------------
    1    -228.4233719427      3.16e-02   Normal BFGS step
    2    -228.4206550040      5.60e-02  Line search: overstep
    3    -228.4283784842      7.58e-03   Normal BFGS step
    4    -228.4285844971      3.97e-03   Normal BFGS step
    5    -228.4286399525      1.07e-03   Normal BFGS step
    6    -228.4286488228      4.73e-04   Normal BFGS step
    7    -228.4286512922      2.48e-04   Normal BFGS step
    8    -228.4286516171      1.17e-04   Normal BFGS step
    9    -228.4286517116      4.35e-05   Normal BFGS step
   10    -228.4286517231      2.29e-05   Normal BFGS step
   11    -228.4286517254      1.15e-05   Normal BFGS step
   12    -228.4286517261      5.00e-06   Normal BFGS step
   13    -228.4286517262      2.10e-06   Normal BFGS step
   14    -228.4286517262      4.91e-07   Normal BFGS step
   15    -228.4286517262      2.37e-07   Normal BFGS step
   16    -228.4286517262      1.56e-07   Normal BFGS step
   17    -228.4286517262      8.51e-08  Convergence criterion met
 ---------------------------------------
 SCF time:   CPU 240.87s  wall 15.00s 
<S^2> =          0.760065349
(3)  G-ENP(liq) elect-nuc-pol free energy of system     -228.428651726 a.u.
(4)  G-CDS(liq) cavity-dispersion-solvent structure 
     free energy                                                4.3905 kcal/mol
(6)  G-S(liq) free energy of system                     -228.421654999 a.u.
 SCF   energy in the final basis set =     -228.4216549986
 Total energy in the final basis set =     -228.4216549986
 
 --------------------------------------------------------------
 
                    Orbital Energies (a.u.)
 --------------------------------------------------------------
 
 Alpha MOs
 -- Occupied --
-19.3980 -19.3302 -10.4263 -10.4178  -1.2292  -1.1662  -0.8724  -0.7039
 -0.6849  -0.5998  -0.5611  -0.5512  -0.5032  -0.4979  -0.3817  -0.3079
 -- Virtual --
  0.0312   0.0451   0.0534   0.0822   0.0929   0.0937   0.1130   0.1309
  0.1393   0.1537   0.1632   0.1841   0.2223   0.2464   0.2465   0.2540
  0.2837   0.2912   0.3097   0.3129   0.3331   0.3447   0.3842   0.4284
  0.4556   0.4866   0.5656   0.5817   0.5867   0.6094   0.6199   0.6543
  0.6823   0.6904   0.7221   0.7365   0.7732   0.8326   0.8340   0.8400
  0.9173   0.9452   1.0057   1.0721   1.0726   1.1010   1.1094   1.1244
  1.1566   1.1679   1.2051   1.2085   1.2401   1.2836   1.3335   1.3850
  1.4339   1.4932   1.5042   1.5741   1.6155   1.6455   1.7609   1.7852
  1.8013   1.9040   1.9303   2.0491   2.1203   2.2069   2.2645   2.3709
  2.4652   2.5176   2.5823   2.6820   2.7324   2.7758   2.7916   2.8202
  2.8923   2.9482   3.0110   3.0532   3.1210   3.1559   3.1708   3.2496
  3.2951   3.3356   3.3501   3.3671   3.4654   3.5150   3.5380   3.5714
  3.5882   3.6724   3.7012   3.7387   3.7731   3.8377   3.9580   4.0046
  4.0720   4.2112   4.2424   4.2564   4.3105   4.3936   4.4087   4.5234
  4.8308   4.8421   5.1358   5.1624   5.1686   5.1884   5.2305   5.2614
  5.2853   5.3379   5.4965   5.5268   5.5477   5.6354   5.7010   5.7801
  5.8178   5.9414   6.2408   6.3238   6.6881   6.8061   6.9307   6.9999
  7.0033   7.1082   7.2220   7.2991   7.3089   7.3149   7.5336   7.6528
  7.7405   7.7729  24.7017  25.1190  50.5599  50.6759
 
 Beta MOs
 -- Occupied --
-19.3927 -19.3220 -10.4187 -10.4175  -1.2181  -1.1521  -0.8522  -0.6957
 -0.6761  -0.5935  -0.5421  -0.5239  -0.4911  -0.4568  -0.3720
 -- Virtual --
 -0.0229   0.0315   0.0455   0.0538   0.0934   0.0942   0.1015   0.1129
  0.1309   0.1543   0.1577   0.1627   0.1836   0.2241   0.2486   0.2583
  0.2588   0.2849   0.2961   0.3112   0.3187   0.3354   0.3460   0.3864
  0.4391   0.4610   0.4928   0.5694   0.5861   0.5965   0.6187   0.6283
  0.6536   0.6897   0.6999   0.7312   0.7482   0.7785   0.8362   0.8394
  0.8428   0.9287   0.9471   1.0094   1.0746   1.0778   1.1032   1.1190
  1.1271   1.1696   1.1731   1.2093   1.2184   1.2421   1.2899   1.3442
  1.3894   1.4448   1.4980   1.5088   1.5842   1.6226   1.6562   1.7756
  1.8000   1.8109   1.9137   1.9441   2.0578   2.1359   2.2118   2.2716
  2.3808   2.4687   2.5254   2.5944   2.7122   2.7441   2.7975   2.8377
  2.8477   2.9011   2.9734   3.0328   3.0752   3.1347   3.1734   3.2000
  3.2742   3.3097   3.3556   3.3699   3.3940   3.4787   3.5318   3.5563
  3.6006   3.6199   3.6951   3.7225   3.7465   3.7855   3.8518   3.9669
  4.0183   4.0794   4.2148   4.2495   4.2823   4.3281   4.4184   4.4322
  4.5330   4.8499   4.8649   5.1639   5.1840   5.1934   5.2293   5.2550
  5.2783   5.3001   5.3563   5.5167   5.5441   5.5681   5.6487   5.7186
  5.8006   5.8278   5.9596   6.2622   6.3325   6.6986   6.8157   6.9691
  7.0273   7.0356   7.1170   7.2446   7.3075   7.3300   7.3497   7.5430
  7.6647   7.7574   7.7802  24.7060  25.1234  50.5644  50.6819
 --------------------------------------------------------------
 
          Ground-State Mulliken Net Atomic Charges

     Atom                 Charge (a.u.)    Spin (a.u.)
  --------------------------------------------------------
      1 C                    -0.032359       0.525613
      2 O                    -0.254319       0.140500
      3 C                     0.025829       0.063870
      4 O                    -0.498835       0.284240
      5 H                     0.177870      -0.002764
      6 H                     0.219893      -0.008528
      7 H                     0.361920      -0.002932
  --------------------------------------------------------
  Sum of atomic charges =     0.000000
  Sum of spin   charges =     1.000000

 -----------------------------------------------------------------
                    Cartesian Multipole Moments
 -----------------------------------------------------------------
    Charge (ESU x 10^10)
                 0.0000
    Dipole Moment (Debye)
         X      -5.3653      Y       2.4555      Z       2.9380
       Tot       6.5915
    Quadrupole Moments (Debye-Ang)
        XX     -60.8067     XY       0.5866     YY     -16.8249
        XZ      15.9962     YZ       1.9358     ZZ     -29.6238
    Octopole Moments (Debye-Ang^2)
       XXX    -496.7649    XXY     -52.7505    XYY     -88.2575
       YYY     -98.2916    XXZ      97.8844    XYZ       8.8173
       YYZ       7.8102    XZZ    -128.0829    YZZ     -42.9334
       ZZZ      26.8180
    Hexadecapole Moments (Debye-Ang^3)
      XXXX   -3610.5289   XXXY    -522.1417   XXYY    -481.7111
      XYYY    -412.6402   YYYY    -394.2632   XXXZ     637.5374
      XXYZ      58.1609   XYYZ      38.8092   YYYZ       2.8783
      XXZZ    -601.3535   XYZZ    -172.8491   YYZZ     -98.6275
      XZZZ     163.2881   YZZZ       5.1187   ZZZZ    -155.4489
 -----------------------------------------------------------------
 Calculating analytic gradient of the SCF energy
 Gradient of CDS energy
            1           2           3           4           5           6
    1  -0.0021390   0.0013012   0.0021777  -0.0008469  -0.0000852  -0.0000495
    2   0.0017561  -0.0015347  -0.0013432   0.0008804   0.0000843  -0.0000090
    3   0.0033057  -0.0032744  -0.0021568   0.0018156   0.0001706  -0.0000605
            7
    1  -0.0003582
    2   0.0001661
    3   0.0001999
 Gradient of SCF Energy
            1           2           3           4           5           6
    1   0.0103410   0.0238189   0.0001747   0.0026791  -0.0002694  -0.0116921
    2   0.0002496  -0.0046690  -0.0017293  -0.0012935   0.0011590   0.0001020
    3   0.0085638   0.0040019  -0.0049083  -0.0015980   0.0030106  -0.0081474
            7
    1  -0.0250523
    2   0.0061812
    3  -0.0009227
 Max gradient component =       2.505E-02
 RMS gradient           =       9.009E-03
 Computing fast CPCM-SWIG gradient
 Updating gradient with PCM contributions...
 -- total gradient after adding PCM contribution --
---------------------------------------------------
  Atom         X              Y              Z     
---------------------------------------------------
   1       0.000345      -0.000485      -0.000580
   2      -0.000362       0.000282       0.000354
   3      -0.000066       0.000075      -0.000151
   4      -0.000027       0.000044       0.000196
   5      -0.000000      -0.000015      -0.000021
   6      -0.000002       0.000094       0.000139
   7       0.000113       0.000004       0.000063
---------------------------------------------------
 Number of fixed atoms: 0
 Gradient time:  CPU 30.31 s  wall 2.50 s
 ----------------------------------------------------------------
             Standard Nuclear Orientation (Angstroms)
    I     Atom           X                Y                Z
 ----------------------------------------------------------------
    1      C       3.3466170127     1.7927572670    -0.2267125758
    2      O       2.9455071800     2.3186652600     0.9282830223
    3      C       4.6908093839     1.4033196221    -0.3564885451
    4      O       5.1468341586     0.9030081349    -1.4059757422
    5      H       5.3345618322     1.5603909440     0.5180621995
    6      H       2.6308033005     1.6816281147    -1.0311096740
    7      H       2.0078102321     2.5486297573     0.8898985153
 ----------------------------------------------------------------
 Nuclear Repulsion Energy =         109.08540415 hartrees
 There are       16 alpha and       15 beta electrons
 Discretize the solute cavity surface with Lebedev spheres
	Using 110 Lebedev grid points for each H atom
	Using 194 Lebedev grid points for other atoms
	Atomic van der Waals radii will be scaled by 1.20
 Remove points where switching function is < 1.0e-08
 Keep 640 surface tesserae and discard 466 interior tesserae
 Molecular Surface Area = 80.740 Angst**2

                       Distance Matrix (Angstroms)
             C (  1)   O (  2)   C (  3)   O (  4)   H (  5)   H (  6)
   O (  2)  1.330971
   C (  3)  1.405474  2.352568
   O (  4)  2.328754  3.506949  1.248877
   H (  5)  2.135558  2.539851  1.097236  2.041890
   H (  6)  1.082494  2.084244  2.185451  2.660298  3.118484
   H (  7)  1.900149  0.966247  3.172334  4.222864  3.490294  2.197745

 
 Requested basis set is 6-311++G(2df,2p)
 There are 50 shells and 166 basis functions
 A cutoff of  1.0D-12 yielded   1240 shell pairs
 There are     13693 function pairs (     17188 Cartesian)
 Smallest overlap matrix eigenvalue = 8.97E-05
 Guess MOs from SCF MO coefficient file

 -----------------------------------------------------------------------
  General SCF calculation program by
  Eric Jon Sundstrom, Paul Horn, Yuezhi Mao, Dmitri Zuev, Alec White,
  David Stuck, Shaama M.S., Shane Yost, Joonho Lee, David Small,
  Daniel Levine, Susi Lehtola, Hugh Burton, Evgeny Epifanovsky,
  Bang C. Huynh
 -----------------------------------------------------------------------
 Exchange:     0.1500 Hartree-Fock + 1.0000 wB97M-V + LR-HF
 Correlation:  1.0000 wB97M-V
 Using SG-2 standard quadrature grid
 Nonlocal Correlation:  VV10 with C = 0.0100 and b = 6.00 and scale = 1.00000
 Grid used for NLC:  SG-1 standard quadrature
 
 Citation of the SMD model:
 Marenich, A.V.; Cramer, C.J.; Truhlar, D.G.
 J. Phys. Chem. B 2009, 113, 6378-6396.
 iSolventCode=           1
 Solvent: water                                                           
 
 vradii
            1           2           3           4           5           6
    1   1.8500000   1.5200000   1.8500000   1.5200000   1.2000000   1.2000000
            7
    1   1.2000000
 -------------------------------------------------------
 OpenMP BLAS3 based DFT computing Module                
 Release: version 1.0, May 2013, Q-Chem Inc. Pittsburgh 
 -------------------------------------------------------
 A unrestricted SCF calculation will be
 performed using Roothaan-Hall, DIIS, GDM
 SCF converges when RMS gradient is below 1.0e-07
 ---------------------------------------
  Cycle       Energy         DIIS error
 ---------------------------------------
    1    -228.3962451245      4.77e-04  Roothaan Step
 ---------------------------------------
  Cycle       Energy         DIIS error
 ---------------------------------------
    1    -228.4208270861      6.13e-04  
    2    -228.4234165412      7.50e-04  Done DIIS. Switching to GDM
 ---------------------------------------
  Cycle       Energy        RMS Gradient
 ---------------------------------------
    1    -228.4234165412      3.15e-02   Normal BFGS step
    2    -228.4207287338      5.60e-02  Line search: overstep
    3    -228.4283856710      7.65e-03   Normal BFGS step
    4    -228.4285929736      4.01e-03   Normal BFGS step
    5    -228.4286492787      1.07e-03   Normal BFGS step
    6    -228.4286582884      4.82e-04   Normal BFGS step
    7    -228.4286607937      2.46e-04   Normal BFGS step
    8    -228.4286611179      1.13e-04   Normal BFGS step
    9    -228.4286611993      4.43e-05   Normal BFGS step
   10    -228.4286612122      2.34e-05   Normal BFGS step
   11    -228.4286612144      1.14e-05   Normal BFGS step
   12    -228.4286612151      5.19e-06   Normal BFGS step
   13    -228.4286612152      2.01e-06   Normal BFGS step
   14    -228.4286612152      5.13e-07   Normal BFGS step
   15    -228.4286612152      1.51e-07   Normal BFGS step
   16    -228.4286612152      6.07e-08  Convergence criterion met
 ---------------------------------------
 SCF time:   CPU 230.76s  wall 15.00s 
<S^2> =          0.760043256
(3)  G-ENP(liq) elect-nuc-pol free energy of system     -228.428661215 a.u.
(4)  G-CDS(liq) cavity-dispersion-solvent structure 
     free energy                                                4.3965 kcal/mol
(6)  G-S(liq) free energy of system                     -228.421654981 a.u.
 SCF   energy in the final basis set =     -228.4216549812
 Total energy in the final basis set =     -228.4216549812
 
 --------------------------------------------------------------
 
                    Orbital Energies (a.u.)
 --------------------------------------------------------------
 
 Alpha MOs
 -- Occupied --
-19.3981 -19.3302 -10.4264 -10.4178  -1.2297  -1.1661  -0.8723  -0.7039
 -0.6851  -0.5998  -0.5613  -0.5512  -0.5032  -0.4977  -0.3816  -0.3077
 -- Virtual --
  0.0312   0.0451   0.0534   0.0823   0.0929   0.0937   0.1130   0.1309
  0.1393   0.1537   0.1632   0.1841   0.2223   0.2465   0.2466   0.2539
  0.2837   0.2912   0.3098   0.3131   0.3330   0.3447   0.3842   0.4284
  0.4557   0.4868   0.5655   0.5816   0.5867   0.6094   0.6200   0.6543
  0.6822   0.6904   0.7221   0.7365   0.7734   0.8325   0.8342   0.8400
  0.9172   0.9450   1.0056   1.0720   1.0727   1.1009   1.1092   1.1245
  1.1566   1.1677   1.2052   1.2086   1.2402   1.2835   1.3332   1.3849
  1.4341   1.4930   1.5041   1.5737   1.6155   1.6456   1.7609   1.7854
  1.8012   1.9041   1.9308   2.0493   2.1208   2.2071   2.2644   2.3717
  2.4658   2.5177   2.5828   2.6818   2.7326   2.7760   2.7918   2.8202
  2.8931   2.9484   3.0109   3.0531   3.1204   3.1559   3.1706   3.2493
  3.2951   3.3360   3.3505   3.3678   3.4651   3.5151   3.5378   3.5711
  3.5879   3.6734   3.7014   3.7389   3.7731   3.8382   3.9579   4.0040
  4.0721   4.2110   4.2424   4.2549   4.3102   4.3924   4.4084   4.5235
  4.8302   4.8407   5.1359   5.1624   5.1686   5.1885   5.2300   5.2611
  5.2861   5.3381   5.4964   5.5269   5.5481   5.6357   5.7014   5.7793
  5.8177   5.9445   6.2410   6.3255   6.6898   6.8073   6.9308   6.9999
  7.0033   7.1083   7.2224   7.2993   7.3093   7.3151   7.5336   7.6533
  7.7406   7.7732  24.7033  25.1183  50.5608  50.6760
 
 Beta MOs
 -- Occupied --
-19.3929 -19.3220 -10.4188 -10.4174  -1.2186  -1.1520  -0.8522  -0.6957
 -0.6764  -0.5935  -0.5421  -0.5241  -0.4909  -0.4569  -0.3719
 -- Virtual --
 -0.0228   0.0315   0.0455   0.0538   0.0934   0.0942   0.1016   0.1129
  0.1309   0.1543   0.1577   0.1627   0.1836   0.2241   0.2487   0.2582
  0.2589   0.2849   0.2961   0.3112   0.3190   0.3353   0.3460   0.3864
  0.4392   0.4610   0.4930   0.5693   0.5860   0.5965   0.6187   0.6285
  0.6536   0.6896   0.6999   0.7311   0.7482   0.7787   0.8363   0.8394
  0.8430   0.9287   0.9469   1.0094   1.0745   1.0779   1.1031   1.1188
  1.1272   1.1695   1.1731   1.2094   1.2185   1.2421   1.2899   1.3440
  1.3893   1.4449   1.4979   1.5086   1.5838   1.6225   1.6562   1.7756
  1.8001   1.8109   1.9137   1.9445   2.0580   2.1365   2.2120   2.2715
  2.3816   2.4693   2.5255   2.5949   2.7121   2.7444   2.7976   2.8377
  2.8478   2.9019   2.9736   3.0327   3.0750   3.1342   3.1732   3.1997
  3.2741   3.3096   3.3560   3.3703   3.3947   3.4785   3.5319   3.5561
  3.6003   3.6196   3.6961   3.7227   3.7466   3.7855   3.8523   3.9668
  4.0177   4.0796   4.2147   4.2496   4.2807   4.3278   4.4181   4.4309
  4.5331   4.8489   4.8638   5.1640   5.1840   5.1934   5.2294   5.2546
  5.2780   5.3009   5.3566   5.5167   5.5443   5.5685   5.6489   5.7194
  5.7995   5.8275   5.9627   6.2623   6.3343   6.7004   6.8169   6.9691
  7.0273   7.0356   7.1172   7.2450   7.3079   7.3304   7.3498   7.5430
  7.6652   7.7575   7.7806  24.7077  25.1227  50.5653  50.6820
 --------------------------------------------------------------
 
          Ground-State Mulliken Net Atomic Charges

     Atom                 Charge (a.u.)    Spin (a.u.)
  --------------------------------------------------------
      1 C                    -0.032538       0.525066
      2 O                    -0.253331       0.140657
      3 C                     0.025686       0.064485
      4 O                    -0.499107       0.284038
      5 H                     0.177646      -0.002768
      6 H                     0.219566      -0.008547
      7 H                     0.362077      -0.002931
  --------------------------------------------------------
  Sum of atomic charges =     0.000000
  Sum of spin   charges =     1.000000

 -----------------------------------------------------------------
                    Cartesian Multipole Moments
 -----------------------------------------------------------------
    Charge (ESU x 10^10)
                 0.0000
    Dipole Moment (Debye)
         X      -5.3720      Y       2.4601      Z       2.9461
       Tot       6.6023
    Quadrupole Moments (Debye-Ang)
        XX     -60.8599     XY       0.5911     YY     -16.8080
        XZ      16.0214     YZ       1.9515     ZZ     -29.6252
    Octopole Moments (Debye-Ang^2)
       XXX    -497.1019    XXY     -52.7849    XYY     -88.2259
       YYY     -98.2496    XXZ      97.9649    XYZ       8.8642
       YYZ       7.8432    XZZ    -128.0965    YZZ     -42.9368
       ZZZ      26.8250
    Hexadecapole Moments (Debye-Ang^3)
      XXXX   -3612.5212   XXXY    -522.5128   XXYY    -481.7180
      XYYY    -412.5633   YYYY    -394.1836   XXXZ     637.7963
      XXYZ      58.3052   XYYZ      38.9068   YYYZ       2.9556
      XXZZ    -601.4382   XYZZ    -172.8727   YYZZ     -98.6365
      XZZZ     163.3124   YZZZ       5.1334   ZZZZ    -155.4484
 -----------------------------------------------------------------
 Calculating analytic gradient of the SCF energy
 Gradient of CDS energy
            1           2           3           4           5           6
    1  -0.0021237   0.0012861   0.0021780  -0.0008475  -0.0000850  -0.0000499
[...]


     2 Order 1, Length 21
    Atom      X          Y          Z
     1   -1.373764074153520e-01   5.500487242556409e-02   7.150477092511381e-02
     2    6.134239508517771e-01  -1.716303060148222e-01  -4.877215226669425e-02
     3    5.884741206450153e-03   1.456859777384877e-02   4.351469524817397e-02
     4   -1.706782209411059e-02   9.151545166070228e-03   9.961275391654454e-03
     5    1.791015630494870e-03  -1.641222311838479e-03  -1.662909463589292e-03
     6    1.264702726365109e-02  -5.435628760661846e-03  -1.327358272967805e-02
     7   -4.793024883575768e-01   9.998197246229498e-02  -6.127210948250184e-02

Order 1, Length 21
    Atom      X          Y          Z
     1    4.555407063291508e-02  -7.924028079955692e-02  -1.134758040594141e-01
     2   -1.716303060148222e-01   1.159396256823465e-01   1.360120378165803e-01
     3   -6.305696071044132e-03  -6.576421209264173e-04  -7.300338279246163e-03
     4    1.094784108145758e-02  -2.921315349336467e-03  -1.301332511750450e-02
     5   -1.106009288538205e-03  -1.171086170906074e-03   2.050345567319885e-03
     6    5.143182669727393e-03   5.595492608721482e-03  -9.257693966591653e-03
     7    1.173969857056351e-01  -3.754432298344584e-02   4.984807259570929e-03

Order 1, Length 21
    Atom      X          Y          Z
     1    4.565730946413615e-02  -1.066452034151286e-01  -2.860484498828696e-01
     2   -4.877215226669425e-02   1.360120378165803e-01   3.586176519560604e-01
     3   -1.332510250523235e-02   7.182943261828558e-03   1.087738688796562e-02
     4    1.475892519625027e-02  -1.421880187255917e-02  -2.397687387017387e-02
     5   -2.832558757149924e-04   1.704014564761499e-03   2.237247696971290e-03
     6    1.568586193578377e-02  -1.662330324059426e-02  -2.420251306138816e-02
     7   -1.372139568964950e-02  -7.410977767311939e-03  -3.750438809263706e-02


     3 Order 1, Length 21
    Atom      X          Y          Z
     1   -3.274805219578052e-01   7.062764994379794e-02   8.709021817937614e-03
     2    5.884741206450153e-03  -6.305696071044132e-03  -1.332510250523235e-02
     3    6.390755405441902e-01  -1.167992644297291e-01   1.791193396598070e-02
     4   -1.426843969472155e-01   6.169054617450168e-02   1.047226770888566e-01
     5   -1.632119935204904e-01  -1.605724187372936e-02  -1.205280279577787e-01
     6   -1.042405511979844e-02   6.235790314487622e-03   4.540048520435211e-03
     7   -1.158911746179198e-03   6.102191308469072e-04  -2.030519815636046e-03

Order 1, Length 21
    Atom      X          Y          Z
     1    4.460133034620592e-02  -8.263709014648841e-02  -2.199376748730592e-02
     2    1.456859777384877e-02  -6.576421209264173e-04   7.182943261828558e-03
     3   -1.167992644297291e-01   2.539637670838372e-01   1.935307382185794e-01
     4    7.076126006141203e-02  -1.255028734358316e-01  -1.551713117632340e-01
     5   -1.261415597162667e-02  -5.585513678729313e-02  -1.932622457327205e-02
     6   -3.062991771543873e-03   7.968718106397498e-03  -1.529375775371522e-03
     7    2.544857332702806e-03   2.718160421070476e-03  -2.693062477401804e-03

Order 1, Length 21
    Atom      X          Y          Z
     1   -6.191805360153663e-02  -4.082287203172110e-03  -1.174084349366156e-01
     2    4.351469524817397e-02  -7.300338279246163e-03   1.087738688796562e-02
     3    1.791193396598070e-02   1.935307382185794e-01   6.934194616787320e-01
     4    1.294837255834016e-01  -1.614234048490804e-01  -4.008602838347354e-01
     5   -1.110614435714303e-01  -2.179828272428173e-02  -1.883732096951159e-01
     6   -2.100219312227344e-02   5.009180271120170e-03   6.783186990700197e-03
     7    3.070736263769967e-03  -3.938369753398349e-03  -4.438320531322678e-03


     4 Order 1, Length 21
    Atom      X          Y          Z
     1   -1.864676953307798e-02   2.148541186503205e-02   3.745806311168783e-02
     2   -1.706782209411059e-02   1.094784108145758e-02   1.475892519625027e-02
     3   -1.426843969472155e-01   7.076126006141203e-02   1.294837255834016e-01
     4    1.516372363394214e-01  -9.697116338799858e-02  -1.749298535683346e-01
     5    2.163472145550283e-02  -4.658989979423661e-03  -7.833525017312722e-03
     6    3.222177639974828e-03  -1.905492135425592e-03  -7.986841674304057e-04
     7    1.904724048208588e-03   3.405029957375086e-04   1.861314962310148e-03

Order 1, Length 21
    Atom      X          Y          Z
     1    2.772380003015842e-02   1.514238955756110e-03  -9.661612768706479e-03
     2    9.151545166070228e-03  -2.921315349336467e-03  -1.421880187255917e-02
     3    6.169054617450168e-02  -1.255028734358316e-01  -1.614234048490804e-01
     4   -9.697116338799858e-02   1.207169348755914e-01   2.020977238620979e-01
     5    1.563418333934074e-03   7.733921324843671e-03  -1.750573289523498e-02
     6   -1.603441218087353e-03  -2.159495739370561e-03   1.506506419367867e-03
     7   -1.554580308621670e-03   6.194075215308966e-04  -7.945973209472773e-04

Order 1, Length 21
    Atom      X          Y          Z
     1    5.437792520887268e-02  -1.389535862878006e-02   1.169266466194751e-02
     2    9.961275391654454e-03  -1.301332511750450e-02  -2.397687387017387e-02
     3    1.047226770888566e-01  -1.551713117632340e-01  -4.008602838347354e-01
     4   -1.749298535683346e-01   2.020977238620979e-01   4.517323124665938e-01
     5    9.150035959402232e-03  -2.178628496266073e-02  -3.866608259346242e-02
     6    8.683880334119488e-06   1.290221836234764e-03   4.523419779001385e-04
     7   -3.290513798837394e-03   4.795086241075985e-04  -3.739329525301781e-04


     5 Order 1, Length 21
    Atom      X          Y          Z
     1   -1.472047605896654e-02  -2.248136651835669e-03  -2.617905251096541e-02
     2    1.791015630494870e-03  -1.106009288538205e-03  -2.832558757149924e-04
     3   -1.632119935204904e-01  -1.261415597162667e-02  -1.110614435714303e-01
     4    2.163472145550283e-02   1.563418333934074e-03   9.150035959402232e-03
     5    1.582670048809094e-01   1.222654932509428e-02   1.271238621371117e-01
     6   -4.060066098957954e-03   2.383239036950806e-03   1.095473299466690e-03
     7    2.998441366206627e-04  -2.047606414882490e-04   1.543869333306530e-04

Order 1, Length 21
    Atom      X          Y          Z
     1    8.109028788609231e-03   1.301475564606840e-02   2.186925493449311e-03
     2   -1.641222311838479e-03  -1.171086170906074e-03   1.704014564761499e-03
     3   -1.605724187372936e-02  -5.585513678729313e-02  -2.179828272428173e-02
     4   -4.658989979423661e-03   7.733921324843671e-03  -2.178628496266073e-02
     5    1.222654932509428e-02   3.424021037169104e-02   4.091797930926389e-02
     6    2.201318880570123e-03   2.622059745236599e-03  -1.525198240042483e-03
     7   -1.793387902040022e-04  -5.837250620182953e-04   3.008069685970839e-04

Order 1, Length 21
    Atom      X          Y          Z
     1    2.059161383252011e-03  -5.011695440183213e-03   2.080740476040795e-03
     2   -1.662909463589292e-03   2.050345567319885e-03   2.237247696971290e-03
     3   -1.205280279577787e-01  -1.932622457327205e-02  -1.883732096951159e-01
     4   -7.833525017312722e-03  -1.750573289523498e-02  -3.866608259346242e-02
     5    1.271238621371117e-01   4.091797930926389e-02   2.221919084785126e-01
     6    5.954089890932786e-04  -1.404346679357069e-03   3.375862657405403e-04
     7    2.461777796663261e-04   2.801505334018420e-04   1.918726238074692e-04


     6 Order 1, Length 21
    Atom      X          Y          Z
     1   -1.969196375328170e-01  -1.231982022500546e-02  -1.484602406604966e-01
     2    1.264702726365109e-02   5.143182669727393e-03   1.568586193578377e-02
     3   -1.042405511979844e-02  -3.062991771543873e-03  -2.100219312227344e-02
     4    3.222177639974828e-03  -1.603441218087353e-03   8.683880334119488e-06
     5   -4.060066098957954e-03   2.201318880570123e-03   5.954089890932786e-04
     6    1.930920014778371e-01   1.102757228832262e-02   1.530658219481593e-01
     7    2.442536217636952e-03  -1.385983574077548e-03   1.066472396253054e-04

Order 1, Length 21
    Atom      X          Y          Z
     1   -1.028278089985759e-02  -3.917926287978807e-02  -2.486512848367663e-02
     2   -5.435628760661846e-03   5.595492608721482e-03  -1.662330324059426e-02
     3    6.235790314487622e-03   7.968718106397498e-03   5.009180271120170e-03
     4   -1.905492135425592e-03  -2.159495739370561e-03   1.290221836234764e-03
     5    2.383239036950806e-03   2.622059745236599e-03  -1.404346679357069e-03
     6    1.102757228832262e-02   2.726492510615094e-02   3.525356668976972e-02
     7   -2.022702916874734e-03  -2.112379641987494e-03   1.339787860976335e-03

Order 1, Length 21
    Atom      X          Y          Z
     1   -1.430740615131973e-01  -2.623142347331847e-02  -2.048257202469748e-01
     2   -1.327358272967805e-02  -9.257693966591653e-03  -2.420251306138816e-02
     3    4.540048520435211e-03  -1.529375775371522e-03   6.783186990700197e-03
     4   -7.986841674304057e-04   1.506506419367867e-03   4.523419779001385e-04
     5    1.095473299466690e-03  -1.525198240042483e-03   3.375862657405403e-04
     6    1.530658219481593e-01   3.525356668976972e-02   2.208655417156913e-01
     7   -1.555124811369966e-03   1.783107854799674e-03   5.896055675270300e-04


     7 Order 1, Length 21
    Atom      X          Y          Z
     1   -1.112322569772311e-02   3.449007992264098e-03   1.331231723583354e-03
     2   -4.793024883575768e-01   1.173969857056351e-01  -1.372139568964950e-02
     3   -1.158911746179198e-03   2.544857332702806e-03   3.070736263769967e-03
     4    1.904724048208588e-03  -1.554580308621670e-03  -3.290513798837394e-03
     5    2.998441366206627e-04  -1.793387902040022e-04   2.461777796663261e-04
     6    2.442536217636952e-03  -2.022702916874734e-03  -1.555124811369966e-03
     7    4.869374799396355e-01  -1.196342782587725e-01   1.391888946793571e-02

Order 1, Length 21
    Atom      X          Y          Z
     1    2.029235664279118e-02  -6.425297076800635e-03  -2.742816327022670e-03
     2    9.998197246229498e-02  -3.754432298344584e-02  -7.410977767311939e-03
     3    6.102191308469072e-04   2.718160421070476e-03  -3.938369753398349e-03
     4    3.405029957375086e-04   6.194075215308966e-04   4.795086241075985e-04
     5   -2.047606414882490e-04  -5.837250620182953e-04   2.801505334018420e-04
     6   -1.385983574077548e-03  -2.112379641987494e-03   1.783107854799674e-03
     7   -1.196342782587725e-01   4.332826238850668e-02   1.154939216756782e-02

Order 1, Length 21
    Atom      X          Y          Z
     1    4.726137753701734e-02  -1.468725762941418e-02  -8.159622281053169e-03
     2   -6.127210948250184e-02   4.984807259570929e-03  -3.750438809263706e-02
     3   -2.030519815636046e-03  -2.693062477401804e-03  -4.438320531322678e-03
     4    1.861314962310148e-03  -7.945973209472773e-04  -3.739329525301781e-04
     5    1.543869333306530e-04   3.008069685970839e-04   1.918726238074692e-04
     6    1.066472396253054e-04   1.339787860976335e-03   5.896055675270300e-04
     7    1.391888946793571e-02   1.154939216756782e-02   4.969479597006566e-02




 # Finishing finite difference calculation for IDERIV #
 ######################################################
 ######################################################
 Requested basis set is 6-311++G(2df,2p)
 There are 50 shells and 166 basis functions
 **********************************************************************
 **                                                                  **
 **                       VIBRATIONAL ANALYSIS                       **
 **                       --------------------                       **
 **                                                                  **
 **        VIBRATIONAL FREQUENCIES (CM**-1) AND NORMAL MODES         **
 **     FORCE CONSTANTS (mDYN/ANGSTROM) AND REDUCED MASSES (AMU)     **
 **                  INFRARED INTENSITIES (KM/MOL)                   **
 **                                                                  **
 **********************************************************************
 

 Mode:                 1                      2                      3
 Frequency:       253.90                 334.88                 466.17
 Force Cnst:      0.1944                 0.2690                 0.1424
 Red. Mass:       5.1174                 4.0713                 1.1123
 IR Active:          YES                    YES                    YES
 IR Intens:       24.578                 30.621                229.137
 Raman Active:       YES                    YES                    YES
               X      Y      Z        X      Y      Z        X      Y      Z
 C         -0.080 -0.286  0.100    0.244 -0.010  0.151   -0.012 -0.058  0.022
 O          0.063  0.222 -0.081   -0.208  0.045 -0.045   -0.016 -0.052  0.019
 C         -0.077 -0.278  0.100    0.226 -0.027  0.108    0.011  0.028 -0.008
 O          0.068  0.249 -0.088   -0.190  0.012 -0.117   -0.002  0.004 -0.003
 H         -0.164 -0.594  0.221    0.486 -0.175 -0.068    0.052  0.176 -0.066
 H         -0.111 -0.388  0.143    0.464 -0.144 -0.029    0.023  0.062 -0.025
 H          0.065  0.231 -0.070   -0.239 -0.136 -0.416    0.228  0.887 -0.330
 TransDip  -0.041 -0.144  0.053    0.168 -0.057  0.009    0.123  0.439 -0.164

 Mode:                 4                      5                      6
 Frequency:       592.99                 803.97                 970.07
 Force Cnst:      1.7825                 0.4828                 0.9124
 Red. Mass:       8.6035                 1.2678                 1.6456
 IR Active:          YES                    YES                    YES
 IR Intens:        3.911                 18.760                  2.575
 Raman Active:       YES                    YES                    YES
               X      Y      Z        X      Y      Z        X      Y      Z
 C         -0.076  0.095  0.209   -0.034 -0.133  0.049    0.022  0.083 -0.030
 O         -0.301  0.172  0.258    0.009  0.036 -0.013   -0.002 -0.008  0.003
 C          0.023 -0.116 -0.300    0.004  0.014 -0.005   -0.051 -0.197  0.072
 O          0.372 -0.163 -0.189   -0.001 -0.004  0.001    0.011  0.044 -0.016
 H          0.058 -0.132 -0.316    0.061  0.239 -0.087    0.220  0.886 -0.322
 H         -0.251  0.188  0.346    0.217  0.852 -0.310   -0.014 -0.055  0.021
 H         -0.321  0.069 -0.058   -0.048 -0.183  0.067   -0.012 -0.046  0.015
 TransDip  -0.036 -0.009 -0.052    0.031  0.127 -0.046    0.010  0.048 -0.017

 Mode:                 7                      8                      9
 Frequency:      1124.61                1243.31                1265.22
 Force Cnst:      1.4277                 2.5709                 1.1897
 Red. Mass:       1.9159                 2.8227                 1.2614
 IR Active:          YES                    YES                    YES
 IR Intens:       66.554                734.398                 25.605
 Raman Active:       YES                    YES                    YES
               X      Y      Z        X      Y      Z        X      Y      Z
 C         -0.127 -0.021 -0.148    0.045 -0.101 -0.245    0.060 -0.001  0.039
 O         -0.048  0.032  0.052    0.001  0.086  0.236   -0.009  0.009  0.017
 C          0.176 -0.023  0.062    0.021 -0.019 -0.037   -0.121  0.017 -0.040
 O         -0.011 -0.003 -0.016   -0.041  0.024  0.037    0.020 -0.007 -0.005
 H          0.343 -0.100 -0.046   -0.205  0.092  0.113   -0.150  0.027 -0.032
 H          0.025 -0.114 -0.293    0.115 -0.144 -0.316    0.698 -0.352 -0.479
 H         -0.011  0.284  0.781   -0.063 -0.267 -0.766    0.003  0.114  0.315
 TransDip   0.252 -0.045  0.053    0.438 -0.355 -0.660   -0.119  0.063  0.090

 Mode:                10                     11                     12
 Frequency:      1359.04                1491.30                1631.39
 Force Cnst:      1.4025                 4.1831                 6.1034
 Red. Mass:       1.2888                 3.1924                 3.8923
 IR Active:          YES                    YES                    YES
 IR Intens:       87.907                214.264                 63.379
 Raman Active:       YES                    YES                    YES
               X      Y      Z        X      Y      Z        X      Y      Z
 C         -0.042  0.014  0.009    0.245 -0.084 -0.060   -0.214  0.112  0.158
 O          0.022 -0.006 -0.001   -0.083  0.018 -0.009    0.045 -0.028 -0.044
 C         -0.048 -0.014 -0.069    0.009 -0.088 -0.235    0.257 -0.150 -0.230
 O         -0.003  0.037  0.100   -0.073  0.081  0.169   -0.072  0.061  0.117
 H          0.678 -0.375 -0.562   -0.234  0.033 -0.071   -0.464  0.237  0.328
 H          0.073 -0.051 -0.089   -0.277  0.217  0.402    0.342 -0.210 -0.334
 H          0.010 -0.077 -0.203   -0.037  0.243  0.641    0.032 -0.113 -0.287
 TransDip   0.147 -0.122 -0.232    0.334 -0.185 -0.272    0.194 -0.098 -0.133

 Mode:                13                     14                     15
 Frequency:      3036.58                3216.38                3794.73
 Force Cnst:      5.9006                 6.6561                 9.0507
 Red. Mass:       1.0861                 1.0920                 1.0668
 IR Active:          YES                    YES                    YES
 IR Intens:       68.248                 16.257                399.425
 Raman Active:       YES                    YES                    YES
               X      Y      Z        X      Y      Z        X      Y      Z
 C          0.004 -0.002 -0.003   -0.060 -0.007 -0.063   -0.001 -0.000 -0.001
 O         -0.001  0.000  0.001    0.001  0.000  0.001   -0.061  0.015 -0.001
 C         -0.055 -0.009 -0.063    0.004 -0.001  0.001   -0.000  0.000  0.000
 O          0.001 -0.001 -0.001   -0.000 -0.000 -0.001    0.000 -0.000 -0.001
 H          0.605  0.133  0.781   -0.001 -0.001 -0.003    0.001  0.000  0.002
 H          0.004  0.001  0.005    0.668  0.097  0.733    0.007 -0.002  0.000
 H         -0.003  0.002  0.003   -0.005 -0.001 -0.005    0.968 -0.241  0.029
 TransDip  -0.074 -0.071 -0.244    0.098 -0.049 -0.068    0.581 -0.212 -0.166

 STANDARD THERMODYNAMIC QUANTITIES AT   298.15 K  AND     1.00 ATM

   This Molecule has  0 Imaginary Frequencies
   Zero point vibrational energy:       30.857 kcal/mol

   Atom    1 Element C  Has Mass   12.00000
   Atom    2 Element O  Has Mass   15.99491
   Atom    3 Element C  Has Mass   12.00000
   Atom    4 Element O  Has Mass   15.99491
   Atom    5 Element H  Has Mass    1.00783
   Atom    6 Element H  Has Mass    1.00783
   Atom    7 Element H  Has Mass    1.00783
   Molecular Mass:    59.013310 amu
   Principal axes and moments of inertia in amu*Bohr^2:
                             1           2           3
    Eigenvalues --       32.88007   400.72428   433.60418
          X               0.68722     0.68813     0.23280
          Y              -0.39779     0.08831     0.91322
          Z              -0.60785     0.72019    -0.33442
   Rotational Symmetry Number is   1
   The Molecule is an Asymmetric Top
   Translational Enthalpy:        0.889 kcal/mol
   Rotational Enthalpy:           0.889 kcal/mol
   Vibrational Enthalpy:         31.772 kcal/mol
   gas constant (RT):             0.592 kcal/mol
   Translational Entropy:        38.146  cal/mol.K
   Rotational Entropy:           23.261  cal/mol.K
   Vibrational Entropy:           4.622  cal/mol.K

   Total Enthalpy:               34.142 kcal/mol
   Total Entropy:                66.030  cal/mol.K
 Total job time:  751.91s(wall), 11515.13s(cpu) 
 Thu May  9 17:55:29 2024

        *************************************************************
        *                                                           *
        *  Thank you very much for using Q-Chem.  Have a nice day.  *
        *                                                           *
        *************************************************************


