
Running Job 1 of 2 Q_in.in
qchem Q_in.in_396782.0 /scratch/ari.fischer/qChem2235141.hpc-mn1/qchem396782/ 0
/usr/local/qchem-5.4.1/exe/qcprog.exe_s Q_in.in_396782.0 /scratch/ari.fischer/qChem2235141.hpc-mn1/qchem396782/
                  Welcome to Q-Chem
     A Quantum Leap Into The Future Of Chemistry


 Q-Chem 5.4, Q-Chem, Inc., Pleasanton, CA (2021)

 License issued to: Nanyang Technological University (site)

 E. Epifanovsky,  A. T. B. Gilbert,  Xintian Feng,  Joonho Lee,  Yuezhi Mao,  
 N. Mardirossian,  P. Pokhilko,  A. White,  M. Wormit,  M. P. Coons,  
 A. L. Dempwolff,  Zhengting Gan,  D. Hait,  P. R. Horn,  L. D. Jacobson,  
 I. Kaliman,  J. Kussmann,  A. W. Lange,  Ka Un Lao,  D. S. Levine,  Jie Liu,  
 S. C. McKenzie,  A. F. Morrison,  K. Nanda,  F. Plasser,  D. R. Rehn,  
 M. L. Vidal,  Zhi-Qiang You,  Ying Zhu,  B. Alam,  B. Albrecht,  
 A. Aldossary,  E. Alguire,  J. H. Andersen,  D. Barton,  K. Begam,  A. Behn,  
 Y. A. Bernard,  E. J. Berquist,  H. Burton,  A. Carreras,  K. Carter-Fenk,  
 R. Chakraborty,  A. D. Chien,  K. D. Closser,  V. Cofer-Shabica,  
 S. Dasgupta,  Jia Deng,  M. de Wergifosse,  M. Diedenhofen,  Hainam Do,  
 S. Ehlert,  Po-Tung Fang,  S. Fatehi,  Qingguo Feng,  T. Friedhoff,  
 J. Gayvert,  Qinghui Ge,  G. Gidofalvi,  M. Goldey,  J. Gomes,  
 C. Gonzalez-Espinoza,  S. Gulania,  A. Gunina,  M. W. D. Hanson-Heine,  
 P. H. P. Harbach,  A. W. Hauser,  M. F. Herbst,  M. Hernandez Vera,  
 M. Hodecker,  Z. C. Holden,  S. Houck,  Xunkun Huang,  Kerwin Hui,  
 B. C. Huynh,  M. Ivanov,  Hyunjun Ji,  Hanjie Jiang,  B. Kaduk,  S. Kaehler,  
 K. Khistyaev,  Jaehoon Kim,  P. Klunzinger,  Z. Koczor-Benda,  
 Joong Hoon Koh,  D. Kosenkov,  L. Koulias,  T. Kowalczyk,  C. M. Krauter,  
 K. Kue,  A. Kunitsa,  T. Kus,  A. Landau,  K. V. Lawler,  D. Lefrancois,  
 S. Lehtola,  Rain Li,  Yi-Pei Li,  Jiashu Liang,  M. Liebenthal,  
 Hung-Hsuan Lin,  You-Sheng Lin,  Fenglai Liu,  Kuan-Yu Liu,  
 M. Loipersberger,  A. Luenser,  A. Manjanath,  P. Manohar,  E. Mansoor,  
 S. F. Manzer,  Shan-Ping Mao,  A. V. Marenich,  T. Markovich,  S. Mason,  
 S. A. Maurer,  P. F. McLaughlin,  M. F. S. J. Menger,  J.-M. Mewes,  
 S. A. Mewes,  P. Morgante,  J. W. Mullinax,  K. J. Oosterbaan,  G. Paran,  
 Alexander C. Paul,  Suranjan K. Paul,  F. Pavosevic,  Zheng Pei,  S. Prager,  
 E. I. Proynov,  E. Ramos,  B. Rana,  A. E. Rask,  A. Rettig,  R. M. Richard,  
 F. Rob,  E. Rossomme,  T. Scheele,  M. Scheurer,  M. Schneider,  
 N. Sergueev,  S. M. Sharada,  W. Skomorowski,  D. W. Small,  C. J. Stein,  
 Yu-Chuan Su,  E. J. Sundstrom,  Zhen Tao,  J. Thirman,  T. Tsuchimochi,  
 N. M. Tubman,  S. P. Veccham,  O. Vydrov,  J. Wenzel,  J. Witte,  A. Yamada,  
 Kun Yao,  S. Yeganeh,  S. R. Yost,  A. Zech,  Igor Ying Zhang,  Xing Zhang,  
 Yu Zhang,  D. Zuev,  A. Aspuru-Guzik,  A. T. Bell,  N. A. Besley,  
 K. B. Bravaya,  B. R. Brooks,  D. Casanova,  Jeng-Da Chai,  S. Coriani,  
 C. J. Cramer,  A. E. DePrince, III,  R. A. DiStasio Jr.,  A. Dreuw,  
 B. D. Dunietz,  T. R. Furlani,  W. A. Goddard III,  S. Grimme,  
 S. Hammes-Schiffer,  T. Head-Gordon,  W. J. Hehre,  Chao-Ping Hsu,  
 T.-C. Jagau,  Yousung Jung,  A. Klamt,  Jing Kong,  D. S. Lambrecht,  
 WanZhen Liang,  N. J. Mayhall,  C. W. McCurdy,  J. B. Neaton,  
 C. Ochsenfeld,  J. A. Parkhill,  R. Peverati,  V. A. Rassolov,  Yihan Shao,  
 L. V. Slipchenko,  T. Stauch,  R. P. Steele,  J. E. Subotnik,  
 A. J. W. Thom,  A. Tkatchenko,  D. G. Truhlar,  T. Van Voorhis,  
 T. A. Wesolowski,  K. B. Whaley,  H. L. Woodcock III,  P. M. Zimmerman,  
 S. Faraji,  P. M. W. Gill,  M. Head-Gordon,  J. M. Herbert,  A. I. Krylov

 Additional authors for Version 5.4.1: 
 S. Kotaru,  Shaozhi Li,  Xiangyuan Li,  F. Matz,  A. Molle,  Haisheng Ren,  
 Yingli Su,  Hung-Yi Tsai,  C. Utku,  Fang Wang

 Contributors to earlier versions of Q-Chem not listed above: 
 R. D. Adamson,  B. Austin,  R. Baer,  J. Baker,  G. J. O. Beran,  
 K. Brandhorst,  S. T. Brown,  E. F. C. Byrd,  A. K. Chakraborty,  
 G. K. L. Chan,  Chun-Min Chang,  Yunqing Chen,  C.-L. Cheng,  
 Siu Hung Chien,  D. M. Chipman,  D. L. Crittenden,  H. Dachsel,  
 R. J. Doerksen,  A. D. Dutoi,  R. G. Edgar,  J. Fosso-Tande,  
 L. Fusti-Molnar,  D. Ghosh,  A. Ghysels,  A. Golubeva-Zadorozhnaya,  
 J. Gonthier,  M. S. Gordon,  S. R. Gwaltney,  G. Hawkins,  J. E. Herr,  
 A. Heyden,  S. Hirata,  E. G. Hohenstein,  G. Kedziora,  F. J. Keil,  
 C. Kelley,  Jihan Kim,  R. A. King,  R. Z. Khaliullin,  P. P. Korambath,  
 W. Kurlancheek,  A. Laurent,  A. M. Lee,  M. S. Lee,  S. V. Levchenko,  
 Ching Yeh Lin,  D. Liotard,  E. Livshits,  R. C. Lochan,  I. Lotan,  
 L. A. Martinez-Martinez,  P. E. Maslen,  N. Nair,  D. P. O'Neill,  
 D. Neuhauser,  E. Neuscamman,  C. M. Oana,  R. Olivares-Amaya,  R. Olson,  
 T. M. Perrine,  B. Peters,  P. A. Pieniazek,  A. Prociuk,  Y. M. Rhee,  
 J. Ritchie,  M. A. Rohrdanz,  E. Rosta,  N. J. Russ,  H. F. Schaefer III,  
 M. W. Schmidt,  N. E. Schultz,  S. Sharma,  N. Shenvi,  C. D. Sherrill,  
 A. C. Simmonett,  A. Sodt,  T. Stein,  D. Stuck,  K. S. Thanthiriwatte,  
 V. Vanovschi,  L. Vogt,  Tao Wang,  A. Warshel,  M. A. Watson,  
 C. F. Williams,  Q. Wu,  X. Xu,  Jun Yang,  W. Zhang,  Yan Zhao

 Please cite Q-Chem as follows:
 Y. Shao et al., Mol. Phys. 113, 184-215 (2015)
 DOI: 10.1080/00268976.2014.952696

 Q-Chem 5.4.1 for Intel X86 EM64T Linux

 Parts of Q-Chem use Armadillo 9.800.1 (Horizon Scraper).
 http://arma.sourceforge.net/

 Q-Chem begins on Sat Jul 13 08:33:43 2024  

 Host: 
0

     Scratch files written to /scratch/ari.fischer/qChem2235141.hpc-mn1/qchem396782//
 Aug1521 |scratch|qcdevops|jenkins|workspace|build_RNUM 8249   
 Processing $rem in /usr/local/qchem-5.4.1/config/preferences:
 Processing $rem in /home/ari.fischer/.qchemrc:
 Symmetry turned off for PCM/SM12/SMD calculation


!!********************************************.
!!******************Warning*******************.
!!Desired Analytical derivatives not available.
!!Finite difference job might take a long time.
!!********************************************.
!!********************************************.


 2-order derivative to be evaluated numerically with 1-order analytical derivatives

 Checking the input file for inconsistencies... 	...done.

--------------------------------------------------------------
User input:
--------------------------------------------------------------
$molecule
-1 2
O         0.9863786334   -0.7277017022    0.2431372294
C         2.2809832116   -0.2485899790   -0.0626964326
C         2.7820803057    0.6980485948    1.0094389159
O         2.0128853643    0.9095691819    1.9704649205
C         4.0735771173    1.2567779561    0.8018733079
C         4.7580626527    2.1377217661    1.6030881704
C         4.2151611665    2.9881039990    2.7313152983
O         3.5069480026    4.0794901394    2.1611266694
O         3.4449817137    2.3024861703    3.6793064579
H         0.7541421394   -0.3157929120    1.0912279768
H         2.2742025208    0.2790930864   -1.0193444622
H         2.9839714075   -1.0805671368   -0.1491762279
H         4.5751054064    0.9191419639   -0.0968766393
H         5.6627842829    2.5593671250    1.1842538647
H         5.0473984440    3.4350082456    3.2665314635
H         2.8438867479    3.7277570658    1.5534013006
H         2.8005516219    1.7514424349    3.1806576308
O         6.0101946484    1.0734699070    2.8679786368
O         7.0751141130    1.7636269938    3.1691893192
$end

$rem
BASIS = 6-311++G(2df,2p)
GUI = 2
JOB_TYPE = Frequency
METHOD = wB97M-V
SOLVENT_METHOD = SMD
SCF_ALGORITHM = DIIS_GDM
MAX_SCF_CYCLES = 400
SCF_CONVERGENCE = 7
THRESH = 12
$end

--------------------------------------------------------------
 ----------------------------------------------------------------
             Standard Nuclear Orientation (Angstroms)
    I     Atom           X                Y                Z
 ----------------------------------------------------------------
    1      O       0.9863786334    -0.7277017022     0.2431372294
    2      C       2.2809832116    -0.2485899790    -0.0626964326
    3      C       2.7820803057     0.6980485948     1.0094389159
    4      O       2.0128853643     0.9095691819     1.9704649205
    5      C       4.0735771173     1.2567779561     0.8018733079
    6      C       4.7580626527     2.1377217661     1.6030881704
    7      C       4.2151611665     2.9881039990     2.7313152983
    8      O       3.5069480026     4.0794901394     2.1611266694
    9      O       3.4449817137     2.3024861703     3.6793064579
   10      H       0.7541421394    -0.3157929120     1.0912279768
   11      H       2.2742025208     0.2790930864    -1.0193444622
   12      H       2.9839714075    -1.0805671368    -0.1491762279
   13      H       4.5751054064     0.9191419639    -0.0968766393
   14      H       5.6627842829     2.5593671250     1.1842538647
   15      H       5.0473984440     3.4350082456     3.2665314635
   16      H       2.8438867479     3.7277570658     1.5534013006
   17      H       2.8005516219     1.7514424349     3.1806576308
   18      O       6.0101946484     1.0734699070     2.8679786368
   19      O       7.0751141130     1.7636269938     3.1691893192
 ----------------------------------------------------------------
 Nuclear Repulsion Energy =         644.09149189 hartrees
 There are       44 alpha and       43 beta electrons
 Requested basis set is 6-311++G(2df,2p)
 There are 136 shells and 454 basis functions

 Total QAlloc Memory Limit 288000 MB
 Mega-Array Size       188 MB
 MEM_STATIC part       192 MB
 
 Citation of the SMD model:
 Marenich, A.V.; Cramer, C.J.; Truhlar, D.G.
 J. Phys. Chem. B 2009, 113, 6378-6396.
 iSolventCode=           1
 Solvent: water                                                           
 
 vradii
            1           2           3           4           5           6
    1   1.5200000   1.8500000   1.8500000   1.5200000   1.8500000   1.8500000
            7           8           9          10          11          12
    1   1.8500000   1.5200000   1.5200000   1.2000000   1.2000000   1.2000000
           13          14          15          16          17          18
    1   1.2000000   1.2000000   1.2000000   1.2000000   1.2000000   1.5200000
           19
    1   1.5200000
 Changing PCM_VDW_RADII to SMD_RADIUS
 Discretize the solute cavity surface with Lebedev spheres
	Using 110 Lebedev grid points for each H atom
	Using 194 Lebedev grid points for other atoms
	Atomic van der Waals radii will be scaled by 1.20
 Remove points where switching function is < 1.0e-08
 Keep 1534 surface tesserae and discard 1480 interior tesserae
 Molecular Surface Area = 174.860 Angst**2
 A cutoff of  1.0D-12 yielded   7888 shell pairs
 There are     86652 function pairs (    107840 Cartesian)
 Smallest overlap matrix eigenvalue = 3.03E-06
 Guess from superposition of atomic densities
 Warning:  Energy on first SCF cycle will be non-variational
 SAD guess density has 86.000000 electrons

 -----------------------------------------------------------------------
  General SCF calculation program by
  Eric Jon Sundstrom, Paul Horn, Yuezhi Mao, Dmitri Zuev, Alec White,
  David Stuck, Shaama M.S., Shane Yost, Joonho Lee, David Small,
  Daniel Levine, Susi Lehtola, Hugh Burton, Evgeny Epifanovsky,
  Bang C. Huynh
 -----------------------------------------------------------------------
 Exchange:     0.1500 Hartree-Fock + 1.0000 wB97M-V + LR-HF
 Correlation:  1.0000 wB97M-V
 Using SG-2 standard quadrature grid
 Nonlocal Correlation:  VV10 with C = 0.0100 and b = 6.00 and scale = 1.00000
 Grid used for NLC:  SG-1 standard quadrature
 using 16 threads for integral computing
 -------------------------------------------------------
 OpenMP Integral computing Module                
 Release: version 1.0, May 2013, Q-Chem Inc. Pittsburgh 
 -------------------------------------------------------
 
 Citation of the SMD model:
 Marenich, A.V.; Cramer, C.J.; Truhlar, D.G.
 J. Phys. Chem. B 2009, 113, 6378-6396.
 iSolventCode=           1
 Solvent: water                                                           
 
 vradii
            1           2           3           4           5           6
    1   1.5200000   1.8500000   1.8500000   1.5200000   1.8500000   1.8500000
            7           8           9          10          11          12
    1   1.8500000   1.5200000   1.5200000   1.2000000   1.2000000   1.2000000
           13          14          15          16          17          18
    1   1.2000000   1.2000000   1.2000000   1.2000000   1.2000000   1.5200000
           19
    1   1.5200000
 -------------------------------------------------------
 OpenMP BLAS3 based DFT computing Module                
 Release: version 1.0, May 2013, Q-Chem Inc. Pittsburgh 
 -------------------------------------------------------
 A unrestricted SCF calculation will be
 performed using DIIS, GDM
 SCF converges when RMS gradient is below 1.0e-07
 ---------------------------------------
  Cycle       Energy         DIIS error
 ---------------------------------------
    1    -648.5367712352      1.14e-02  
    2    -646.5147888344      1.54e-03  Done DIIS. Switching to GDM
 ---------------------------------------
  Cycle       Energy        RMS Gradient
 ---------------------------------------
    1    -646.5147888344      7.27e-02   Descent step
    2    -646.6842131133      3.06e-02   Normal BFGS step
    3    -646.7120561458      2.09e-02   Normal BFGS step
    4    -646.7140720106      1.59e-02   Normal BFGS step
    5    -646.7155747755      4.92e-03   Normal BFGS step
    6    -646.7157344704      4.50e-03   Normal BFGS step
    7    -646.7158432760      4.54e-03   Normal BFGS step
    8    -646.7159099554      4.29e-03   Normal BFGS step
    9    -646.7159920349      3.65e-03   Normal BFGS step
   10    -646.7161257667      3.72e-03   Normal BFGS step
   11    -646.7162171763      3.15e-03   Normal BFGS step
   12    -646.7162721622      1.80e-03   Normal BFGS step
   13    -646.7162919714      1.37e-03   Normal BFGS step
   14    -646.7162998192      1.02e-03   Normal BFGS step
   15    -646.7163036867      3.51e-04   Normal BFGS step
   16    -646.7163051592      2.33e-04   Normal BFGS step
   17    -646.7163054482      4.93e-05   Normal BFGS step
   18    -646.7163054964      2.62e-05   Normal BFGS step
   19    -646.7163055094      1.53e-05   Normal BFGS step
   20    -646.7163055109      9.98e-06   Normal BFGS step
   21    -646.7163055117      5.00e-06   Normal BFGS step
   22    -646.7163055119      1.92e-06   Normal BFGS step
   23    -646.7163055119      6.38e-07   Normal BFGS step
   24    -646.7163055119      4.11e-07   Normal BFGS step
   25    -646.7163055118      1.27e-07   Normal BFGS step
   26    -646.7163055118      2.11e-07   Normal BFGS step
   27    -646.7163055119      3.31e-08  Convergence criterion met
 ---------------------------------------
 SCF time:   CPU 3336.57s  wall 229.00s 
<S^2> =          0.758023997
(3)  G-ENP(liq) elect-nuc-pol free energy of system     -646.716305512 a.u.
(4)  G-CDS(liq) cavity-dispersion-solvent structure 
     free energy                                                3.2566 kcal/mol
(6)  G-S(liq) free energy of system                     -646.711115807 a.u.
 SCF   energy in the final basis set =     -646.7111158071
 Total energy in the final basis set =     -646.7111158071
 
 --------------------------------------------------------------
 
                    Orbital Energies (a.u.)
 --------------------------------------------------------------
 
 Alpha MOs
 -- Occupied --
-19.3723 -19.3589 -19.3424 -19.3337 -19.3262 -19.3261 -10.4431 -10.4331
-10.3858 -10.3854 -10.3227  -1.2552  -1.1949  -1.1814  -1.1430  -1.1228
 -0.9256  -0.8836  -0.8505  -0.7992  -0.7298  -0.6568  -0.6431  -0.6355
 -0.6016  -0.5967  -0.5788  -0.5572  -0.5544  -0.5381  -0.5299  -0.5257
 -0.4974  -0.4896  -0.4822  -0.4721  -0.4509  -0.4149  -0.4024  -0.3932
 -0.3712  -0.3635  -0.3381  -0.2926
 -- Virtual --
  0.0237   0.0284   0.0416   0.0444   0.0524   0.0622   0.0642   0.0711
  0.0888   0.0996   0.1108   0.1173   0.1244   0.1303   0.1366   0.1422
  0.1525   0.1603   0.1614   0.1667   0.1770   0.1780   0.1817   0.1882
  0.1950   0.2011   0.2046   0.2116   0.2291   0.2336   0.2404   0.2471
  0.2615   0.2728   0.2789   0.2837   0.2895   0.2982   0.2993   0.3020
  0.3076   0.3131   0.3180   0.3284   0.3293   0.3392   0.3439   0.3480
  0.3574   0.3610   0.3688   0.3708   0.3733   0.3776   0.3866   0.3949
  0.3958   0.4041   0.4103   0.4171   0.4188   0.4292   0.4446   0.4558
  0.4741   0.4810   0.4887   0.5022   0.5150   0.5298   0.5628   0.5697
  0.5913   0.6060   0.6122   0.6220   0.6288   0.6345   0.6460   0.6534
  0.6632   0.6757   0.6824   0.6919   0.7036   0.7177   0.7282   0.7364
  0.7437   0.7687   0.7692   0.7830   0.7929   0.8058   0.8308   0.8415
  0.8511   0.8518   0.8770   0.8797   0.9016   0.9346   0.9391   0.9526
  0.9665   0.9826   1.0337   1.0489   1.0502   1.0594   1.0833   1.0894
  1.1042   1.1078   1.1201   1.1304   1.1403   1.1556   1.1732   1.1746
  1.1839   1.1866   1.2089   1.2103   1.2187   1.2289   1.2348   1.2426
  1.2468   1.2555   1.2680   1.2748   1.2919   1.2925   1.3048   1.3154
  1.3329   1.3411   1.3531   1.3622   1.3852   1.3982   1.4201   1.4217
  1.4408   1.4505   1.4659   1.4744   1.4808   1.4992   1.5123   1.5229
  1.5306   1.5451   1.5506   1.5610   1.5829   1.6187   1.6216   1.6300
  1.6388   1.6496   1.6694   1.6893   1.6942   1.7070   1.7302   1.7626
  1.7767   1.7850   1.8105   1.8217   1.8619   1.8976   1.9307   1.9395
  1.9548   2.0024   2.0156   2.0483   2.0750   2.1029   2.1372   2.1796
  2.2228   2.2319   2.2387   2.2460   2.2629   2.3075   2.3397   2.3526
  2.3782   2.3994   2.4196   2.4493   2.4820   2.5232   2.5456   2.5791
  2.6189   2.6583   2.6833   2.7194   2.7603   2.7655   2.7915   2.7990
  2.8284   2.8630   2.8867   2.9059   2.9129   2.9411   2.9609   2.9801
  3.0033   3.0290   3.0317   3.0525   3.0828   3.1059   3.1353   3.1473
  3.1511   3.1911   3.2074   3.2209   3.2474   3.2625   3.2777   3.2951
  3.3196   3.3252   3.3724   3.3747   3.4069   3.4379   3.4540   3.4686
  3.4876   3.4995   3.5255   3.5266   3.5413   3.5556   3.6052   3.6223
  3.6344   3.6502   3.6693   3.7128   3.7270   3.7389   3.7473   3.7667
  3.7801   3.7958   3.8241   3.8330   3.8464   3.8592   3.8645   3.8874
  3.9044   3.9344   3.9434   3.9613   4.0034   4.0260   4.0571   4.0622
  4.1041   4.1555   4.1931   4.2003   4.2237   4.2401   4.2544   4.2641
  4.2878   4.3009   4.3065   4.3427   4.3826   4.3972   4.4235   4.4464
  4.4730   4.4810   4.5125   4.5247   4.5427   4.5941   4.6115   4.6288
  4.6500   4.6877   4.7348   4.7727   4.7913   4.8146   4.8351   4.8838
  4.9015   4.9441   5.0578   5.0951   5.1130   5.1269   5.1856   5.2033
  5.2184   5.2217   5.2277   5.2426   5.2529   5.2589   5.2644   5.2697
  5.2873   5.2951   5.3046   5.3250   5.3302   5.3525   5.3643   5.3691
  5.3951   5.4124   5.4387   5.4529   5.4565   5.4854   5.5277   5.5538
  5.5740   5.5763   5.6103   5.6122   5.6341   5.6495   5.6565   5.6610
  5.6989   5.7116   5.7336   5.7880   5.8045   5.8362   5.8632   5.9137
  6.0063   6.0203   6.0862   6.1469   6.1960   6.3154   6.5185   6.5519
  6.5883   6.6242   6.7413   6.8074   6.8523   6.8876   6.9767   7.0017
  7.0375   7.0903   7.1001   7.1119   7.1555   7.1584   7.1927   7.2440
  7.2658   7.2857   7.3057   7.3160   7.3316   7.3432   7.3748   7.4280
  7.4344   7.4443   7.4846   7.5223   7.5536   7.6272   7.6414   7.6886
  7.7564   7.8175   7.8613   7.8992   7.9280   8.0066   8.0752  24.5095
 24.7858  24.8344  24.9615  25.2177  50.4594  50.5550  50.6091  50.6154
 50.6549  50.7794
 
 Beta MOs
 -- Occupied --
-19.3577 -19.3435 -19.3424 -19.3337 -19.3263 -19.3261 -10.4431 -10.4331
-10.3859 -10.3854 -10.3228  -1.2255  -1.1948  -1.1816  -1.1431  -1.1228
 -0.9229  -0.8601  -0.8340  -0.7992  -0.7297  -0.6567  -0.6428  -0.6354
 -0.6014  -0.5950  -0.5789  -0.5413  -0.5395  -0.5297  -0.5155  -0.4980
 -0.4864  -0.4830  -0.4719  -0.4606  -0.4494  -0.4142  -0.4016  -0.3933
 -0.3712  -0.3562  -0.2749
 -- Virtual --
  0.0188   0.0256   0.0300   0.0419   0.0446   0.0529   0.0628   0.0649
  0.0712   0.0898   0.1001   0.1116   0.1178   0.1250   0.1312   0.1371
  0.1427   0.1531   0.1606   0.1618   0.1672   0.1774   0.1787   0.1821
  0.1890   0.1960   0.2018   0.2056   0.2131   0.2309   0.2348   0.2410
  0.2473   0.2621   0.2741   0.2795   0.2844   0.2908   0.2995   0.3002
  0.3066   0.3117   0.3143   0.3187   0.3291   0.3300   0.3403   0.3450
  0.3511   0.3576   0.3621   0.3696   0.3723   0.3778   0.3804   0.3874
  0.3957   0.3969   0.4044   0.4106   0.4177   0.4201   0.4309   0.4464
  0.4562   0.4748   0.4813   0.4894   0.5024   0.5161   0.5299   0.5628
  0.5699   0.5913   0.6061   0.6123   0.6220   0.6292   0.6347   0.6462
  0.6534   0.6633   0.6760   0.6829   0.6919   0.7037   0.7178   0.7284
  0.7363   0.7441   0.7690   0.7693   0.7834   0.7929   0.8060   0.8314
  0.8417   0.8516   0.8522   0.8770   0.8800   0.9023   0.9357   0.9397
  0.9528   0.9678   0.9830   1.0345   1.0504   1.0508   1.0606   1.0839
  1.0903   1.1050   1.1099   1.1209   1.1385   1.1442   1.1610   1.1748
  1.1758   1.1850   1.1897   1.2114   1.2172   1.2205   1.2322   1.2402
  1.2460   1.2569   1.2616   1.2700   1.2798   1.2928   1.2971   1.3060
  1.3169   1.3343   1.3447   1.3547   1.3670   1.3884   1.3993   1.4214
  1.4248   1.4425   1.4523   1.4660   1.4815   1.4867   1.5019   1.5132
  1.5277   1.5320   1.5466   1.5518   1.5625   1.5852   1.6214   1.6248
  1.6323   1.6395   1.6616   1.6789   1.6964   1.7054   1.7115   1.7343
  1.7689   1.7813   1.7864   1.8196   1.8256   1.8630   1.9072   1.9331
  1.9417   1.9552   2.0030   2.0204   2.0490   2.0791   2.1084   2.1377
  2.1801   2.2251   2.2337   2.2436   2.2492   2.2712   2.3116   2.3513
  2.3632   2.3812   2.4026   2.4202   2.4509   2.4821   2.5232   2.5456
  2.5792   2.6188   2.6588   2.6832   2.7263   2.7614   2.7657   2.7912
  2.7999   2.8283   2.8628   2.8867   2.9054   2.9124   2.9405   2.9607
  2.9797   3.0031   3.0285   3.0313   3.0524   3.0826   3.1057   3.1353
  3.1470   3.1512   3.1907   3.2071   3.2209   3.2471   3.2624   3.2775
  3.2950   3.3195   3.3250   3.3723   3.3746   3.4067   3.4376   3.4537
  3.4682   3.4873   3.4992   3.5253   3.5263   3.5411   3.5553   3.6050
  3.6223   3.6341   3.6501   3.6691   3.7126   3.7268   3.7388   3.7470
  3.7664   3.7798   3.7958   3.8240   3.8327   3.8464   3.8591   3.8642
  3.8873   3.9044   3.9343   3.9434   3.9610   4.0032   4.0257   4.0569
  4.0621   4.1040   4.1554   4.1932   4.2001   4.2238   4.2400   4.2541
  4.2640   4.2878   4.3006   4.3064   4.3428   4.3825   4.3971   4.4233
  4.4467   4.4732   4.4811   4.5129   4.5248   4.5428   4.5971   4.6156
  4.6464   4.6624   4.6968   4.7356   4.7850   4.8092   4.8246   4.8459
  4.8856   4.9134   4.9443   5.0589   5.1368   5.1528   5.1959   5.2035
  5.2095   5.2185   5.2269   5.2459   5.2572   5.2718   5.2855   5.2867
  5.2959   5.2999   5.3048   5.3218   5.3253   5.3317   5.3577   5.3698
  5.3892   5.3962   5.4192   5.4435   5.4568   5.4588   5.4870   5.5281
  5.5544   5.5743   5.5765   5.6106   5.6121   5.6357   5.6559   5.6742
  5.6790   5.7112   5.7128   5.7344   5.7878   5.8043   5.8362   5.8633
  5.9137   6.0061   6.0203   6.0862   6.1468   6.1961   6.3149   6.5604
  6.5667   6.5929   6.6246   6.7423   6.8080   6.9223   6.9572   6.9990
  7.0424   7.0832   7.1002   7.1092   7.1451   7.1599   7.1919   7.2002
  7.2471   7.2858   7.2941   7.3073   7.3162   7.3328   7.3455   7.3752
  7.4311   7.4431   7.4843   7.4852   7.5243   7.5679   7.6272   7.6418
  7.6885   7.7565   7.8176   7.8612   7.8995   7.9283   8.0231   8.0947
 24.5094  24.7858  24.8344  24.9614  25.2175  50.4708  50.5660  50.6092
 50.6155  50.6553  50.7792
 --------------------------------------------------------------
 
          Ground-State Mulliken Net Atomic Charges

     Atom                 Charge (a.u.)    Spin (a.u.)
  --------------------------------------------------------
      1 O                    -0.461370      -0.000054
      2 C                    -0.538716       0.000282
      3 C                     0.448004      -0.004885
      4 O                    -0.575883      -0.006513
      5 C                    -0.135741      -0.006098
      6 C                    -0.254281      -0.002310
      7 C                    -0.346864      -0.007657
      8 O                    -0.404106      -0.000996
      9 O                    -0.489410       0.003103
     10 H                     0.347038       0.000061
     11 H                     0.211822      -0.000241
     12 H                     0.208184      -0.000463
     13 H                     0.285607       0.000487
     14 H                     0.335035      -0.000320
     15 H                     0.268031      -0.000630
     16 H                     0.332611       0.000114
     17 H                     0.400062      -0.000318
     18 O                    -0.218947       0.486098
     19 O                    -0.411076       0.540341
  --------------------------------------------------------
  Sum of atomic charges =    -1.000000
  Sum of spin   charges =     1.000000

 -----------------------------------------------------------------
                    Cartesian Multipole Moments
 -----------------------------------------------------------------
    Charge (ESU x 10^10)
                -4.8032
    Dipole Moment (Debye)
         X     -23.0842      Y      -7.1618      Z     -16.8110
       Tot      29.4412
    Quadrupole Moments (Debye-Ang)
        XX    -210.4726     XY     -40.4858     YY     -92.5957
        XZ     -88.5586     YZ     -30.9178     ZZ    -123.9651
    Octopole Moments (Debye-Ang^2)
       XXX   -1712.0969    XXY    -327.8558    XYY    -355.2048
       YYY    -392.7579    XXZ    -640.4597    XYZ    -141.8570
       YYZ    -202.6154    XZZ    -544.0753    YZZ    -206.6336
       ZZZ    -565.9481
    Hexadecapole Moments (Debye-Ang^3)
      XXXX  -13488.0415   XXXY   -2740.1039   XXYY   -1914.7685
      XYYY   -1698.7015   YYYY   -2138.0664   XXXZ   -4937.4648
      XXYZ   -1022.1160   XYYZ    -861.1869   YYYZ   -1032.6696
      XXZZ   -3180.8743   XYZZ    -918.9959   YYZZ    -875.0352
      XZZZ   -2614.7866   YZZZ   -1129.1536   ZZZZ   -2709.3573
 -----------------------------------------------------------------
 Calculating analytic gradient of the SCF energy
 Gradient of CDS energy
            1           2           3           4           5           6
    1   0.0008988  -0.0012952  -0.0009572   0.0007930   0.0002390   0.0000583
    2   0.0003410  -0.0010542   0.0003165  -0.0002843  -0.0000089   0.0000595
    3  -0.0002065  -0.0005887   0.0013871  -0.0010229  -0.0001348   0.0000023
            7           8           9          10          11          12
    1  -0.0021778   0.0000863   0.0023216  -0.0003895   0.0001064   0.0002104
    2  -0.0014061  -0.0001980   0.0019643  -0.0001083   0.0002126   0.0000209
    3   0.0029966   0.0000927  -0.0027759   0.0001550  -0.0000089   0.0001146
           13          14          15          16          17          18
    1   0.0000729   0.0002088   0.0001888  -0.0002791  -0.0001489   0.0000546
    2  -0.0000474  -0.0000033  -0.0000726   0.0003575  -0.0001046   0.0000402
    3  -0.0001322  -0.0000173   0.0000368  -0.0001999   0.0002352   0.0000588
           19
    1   0.0000089
    2  -0.0000249
    3   0.0000080
 Gradient of SCF Energy
            1           2           3           4           5           6
    1  -0.0167896   0.0254072   0.0177828   0.0031579  -0.0144439   0.0422940
    2   0.0005637  -0.0026366   0.0043639  -0.0053545   0.0132452  -0.0292914
    3   0.0155097  -0.0157122   0.0050209  -0.0021749  -0.0080287  -0.0267455
            7           8           9          10          11          12
    1   0.0221474  -0.0129187  -0.0222462   0.0067065   0.0000012  -0.0109132
    2   0.0352587   0.0051952  -0.0254620  -0.0065588  -0.0061322   0.0135888
    3   0.0185248  -0.0070223   0.0007630  -0.0167302   0.0129405   0.0017912
           13          14          15          16          17          18
    1  -0.0110644  -0.0297128  -0.0304256   0.0104497   0.0199409  -0.0097362
    2   0.0070376  -0.0104467  -0.0136791   0.0030650   0.0190575  -0.0065430
    3   0.0154840   0.0085882  -0.0221945   0.0067966   0.0053634   0.0041861
           19
    1   0.0103630
    2   0.0047287
    3   0.0036401
 Max gradient component =       4.229E-02
 RMS gradient           =       1.585E-02
 Computing fast CPCM-SWIG gradient
 Updating gradient with PCM contributions...
 -- total gradient after adding PCM contribution --
---------------------------------------------------
  Atom         X              Y              Z     
---------------------------------------------------
   1      -0.000007      -0.000001       0.000002
   2       0.000010       0.000006      -0.000005
   3      -0.000002      -0.000016       0.000019
   4       0.000005      -0.000014      -0.000003
   5      -0.000010       0.000017      -0.000015
   6       0.000011      -0.000010       0.000008
   7      -0.000001      -0.000009       0.000008
   8      -0.000025      -0.000021      -0.000009
   9       0.000022       0.000011       0.000021
  10       0.000001      -0.000002       0.000007
  11      -0.000006       0.000005      -0.000002
  12       0.000003       0.000005      -0.000007
  13      -0.000005       0.000009      -0.000005
  14      -0.000005       0.000006      -0.000003
  15       0.000001       0.000001      -0.000000
  16       0.000013       0.000018       0.000023
  17      -0.000011      -0.000011      -0.000019
  18      -0.000006       0.000001      -0.000014
  19       0.000011       0.000006      -0.000005
---------------------------------------------------
 Number of fixed atoms: 0
 Gradient time:  CPU 329.91 s  wall 27.74 s
 ######################################################
 ######################################################
 # Starting finite difference calculation for IDERIV  #
 Finite diff step size:  1.88973e-03 a.u.
 ----------------------------------------------------------------
             Standard Nuclear Orientation (Angstroms)
    I     Atom           X                Y                Z
 ----------------------------------------------------------------
    1      O       0.9873786334    -0.7277017022     0.2431372294
    2      C       2.2809832116    -0.2485899790    -0.0626964326
    3      C       2.7820803057     0.6980485948     1.0094389159
    4      O       2.0128853643     0.9095691819     1.9704649205
    5      C       4.0735771173     1.2567779561     0.8018733079
    6      C       4.7580626527     2.1377217661     1.6030881704
    7      C       4.2151611665     2.9881039990     2.7313152983
    8      O       3.5069480026     4.0794901394     2.1611266694
    9      O       3.4449817137     2.3024861703     3.6793064579
   10      H       0.7541421394    -0.3157929120     1.0912279768
   11      H       2.2742025208     0.2790930864    -1.0193444622
   12      H       2.9839714075    -1.0805671368    -0.1491762279
   13      H       4.5751054064     0.9191419639    -0.0968766393
   14      H       5.6627842829     2.5593671250     1.1842538647
   15      H       5.0473984440     3.4350082456     3.2665314635
   16      H       2.8438867479     3.7277570658     1.5534013006
   17      H       2.8005516219     1.7514424349     3.1806576308
   18      O       6.0101946484     1.0734699070     2.8679786368
   19      O       7.0751141130     1.7636269938     3.1691893192
 ----------------------------------------------------------------
 Nuclear Repulsion Energy =         644.11465312 hartrees
 There are       44 alpha and       43 beta electrons
 Discretize the solute cavity surface with Lebedev spheres
	Using 110 Lebedev grid points for each H atom
	Using 194 Lebedev grid points for other atoms
	Atomic van der Waals radii will be scaled by 1.20
 Remove points where switching function is < 1.0e-08
 Keep 1534 surface tesserae and discard 1480 interior tesserae
 Molecular Surface Area = 174.853 Angst**2
 Requested basis set is 6-311++G(2df,2p)
 There are 136 shells and 454 basis functions
 A cutoff of  1.0D-12 yielded   7889 shell pairs
 There are     86653 function pairs (    107841 Cartesian)
 Smallest overlap matrix eigenvalue = 3.03E-06
 Guess MOs from SCF MO coefficient file

 -----------------------------------------------------------------------
  General SCF calculation program by
  Eric Jon Sundstrom, Paul Horn, Yuezhi Mao, Dmitri Zuev, Alec White,
  David Stuck, Shaama M.S., Shane Yost, Joonho Lee, David Small,
  Daniel Levine, Susi Lehtola, Hugh Burton, Evgeny Epifanovsky,
  Bang C. Huynh
 -----------------------------------------------------------------------
 Exchange:     0.1500 Hartree-Fock + 1.0000 wB97M-V + LR-HF
 Correlation:  1.0000 wB97M-V
 Using SG-2 standard quadrature grid
 Nonlocal Correlation:  VV10 with C = 0.0100 and b = 6.00 and scale = 1.00000
 Grid used for NLC:  SG-1 standard quadrature
 
 Citation of the SMD model:
 Marenich, A.V.; Cramer, C.J.; Truhlar, D.G.
 J. Phys. Chem. B 2009, 113, 6378-6396.
 iSolventCode=           1
 Solvent: water                                                           
 
 vradii
            1           2           3           4           5           6
    1   1.5200000   1.8500000   1.8500000   1.5200000   1.8500000   1.8500000
            7           8           9          10          11          12
    1   1.8500000   1.5200000   1.5200000   1.2000000   1.2000000   1.2000000
           13          14          15          16          17          18
    1   1.2000000   1.2000000   1.2000000   1.2000000   1.2000000   1.5200000
           19
    1   1.5200000
 -------------------------------------------------------
 OpenMP BLAS3 based DFT computing Module                
 Release: version 1.0, May 2013, Q-Chem Inc. Pittsburgh 
 -------------------------------------------------------
 A unrestricted SCF calculation will be
 performed using Roothaan-Hall, DIIS, GDM
 SCF converges when RMS gradient is below 1.0e-07
 ---------------------------------------
  Cycle       Energy         DIIS error
 ---------------------------------------
    1    -646.6004243358      2.20e-04  Roothaan Step
 ---------------------------------------
  Cycle       Energy         DIIS error
 ---------------------------------------
    1    -646.7036471086      2.64e-04  
    2    -646.7108754142      2.62e-04  Done DIIS. Switching to GDM
 ---------------------------------------
  Cycle       Energy        RMS Gradient
 ---------------------------------------
    1    -646.7108754142      1.69e-02   Normal BFGS step
    2    -646.7100771038      2.91e-02  Line search: overstep
    3    -646.7157581479      6.42e-03   Normal BFGS step
    4    -646.7160834648      7.26e-03   Normal BFGS step
    5    -646.7162746164      1.60e-03   Normal BFGS step
    6    -646.7162961232      6.24e-04   Normal BFGS step
    7    -646.7163038250      5.46e-04   Normal BFGS step
    8    -646.7163059005      2.31e-04   Normal BFGS step
    9    -646.7163062991      1.30e-04   Normal BFGS step
   10    -646.7163064609      8.88e-05   Normal BFGS step
   11    -646.7163065103      6.81e-05   Normal BFGS step
   12    -646.7163065361      6.75e-05   Normal BFGS step
   13    -646.7163065506      5.83e-05   Normal BFGS step
   14    -646.7163065704      3.64e-05   Normal BFGS step
   15    -646.7163065866      3.01e-05   Normal BFGS step
   16    -646.7163066036      3.48e-05   Normal BFGS step
   17    -646.7163066137      1.97e-05   Normal BFGS step
   18    -646.7163066181      1.36e-05   Normal BFGS step
   19    -646.7163066203      9.90e-06   Normal BFGS step
   20    -646.7163066211      3.00e-06   Normal BFGS step
   21    -646.7163066212      1.64e-06   Normal BFGS step
   22    -646.7163066213      7.18e-07   Normal BFGS step
   23    -646.7163066213      3.90e-07   Normal BFGS step
   24    -646.7163066212      2.29e-07   Normal BFGS step
   25    -646.7163066213      9.05e-08  Convergence criterion met
 ---------------------------------------
 SCF time:   CPU 3250.44s  wall 223.00s 
<S^2> =          0.758022957
(3)  G-ENP(liq) elect-nuc-pol free energy of system     -646.716306621 a.u.
(4)  G-CDS(liq) cavity-dispersion-solvent structure 
     free energy                                                3.2578 kcal/mol
(6)  G-S(liq) free energy of system                     -646.711115024 a.u.
 SCF   energy in the final basis set =     -646.7111150242
 Total energy in the final basis set =     -646.7111150242
 
 --------------------------------------------------------------
 
                    Orbital Energies (a.u.)
 --------------------------------------------------------------
 
 Alpha MOs
 -- Occupied --
-19.3723 -19.3589 -19.3424 -19.3336 -19.3262 -19.3261 -10.4431 -10.4330
-10.3858 -10.3854 -10.3227  -1.2552  -1.1949  -1.1815  -1.1432  -1.1228
 -0.9256  -0.8836  -0.8504  -0.7992  -0.7298  -0.6569  -0.6431  -0.6355
 -0.6016  -0.5967  -0.5789  -0.5572  -0.5544  -0.5381  -0.5299  -0.5257
 -0.4974  -0.4896  -0.4822  -0.4720  -0.4509  -0.4149  -0.4024  -0.3932
 -0.3712  -0.3635  -0.3381  -0.2926
 -- Virtual --
  0.0237   0.0285   0.0416   0.0444   0.0524   0.0622   0.0642   0.0711
  0.0888   0.0996   0.1108   0.1173   0.1244   0.1303   0.1366   0.1422
  0.1525   0.1603   0.1613   0.1667   0.1770   0.1780   0.1817   0.1882
  0.1950   0.2011   0.2046   0.2116   0.2291   0.2336   0.2404   0.2472
  0.2615   0.2729   0.2789   0.2838   0.2895   0.2982   0.2993   0.3020
  0.3076   0.3131   0.3181   0.3284   0.3294   0.3392   0.3439   0.3480
  0.3574   0.3610   0.3688   0.3708   0.3733   0.3776   0.3866   0.3950
  0.3958   0.4041   0.4103   0.4171   0.4188   0.4292   0.4446   0.4558
  0.4741   0.4810   0.4887   0.5023   0.5150   0.5299   0.5628   0.5697
  0.5913   0.6060   0.6122   0.6221   0.6288   0.6345   0.6460   0.6534
  0.6632   0.6757   0.6824   0.6919   0.7037   0.7177   0.7282   0.7364
  0.7437   0.7687   0.7693   0.7830   0.7929   0.8058   0.8308   0.8415
  0.8511   0.8518   0.8769   0.8797   0.9016   0.9346   0.9391   0.9526
  0.9665   0.9826   1.0337   1.0489   1.0502   1.0594   1.0833   1.0895
  1.1042   1.1078   1.1201   1.1304   1.1404   1.1556   1.1733   1.1746
  1.1839   1.1866   1.2089   1.2103   1.2188   1.2289   1.2348   1.2427
  1.2468   1.2555   1.2680   1.2748   1.2919   1.2925   1.3048   1.3154
  1.3329   1.3411   1.3531   1.3622   1.3853   1.3983   1.4201   1.4218
  1.4408   1.4506   1.4659   1.4744   1.4809   1.4992   1.5123   1.5229
  1.5306   1.5451   1.5506   1.5610   1.5829   1.6187   1.6216   1.6300
  1.6387   1.6496   1.6694   1.6892   1.6943   1.7070   1.7302   1.7625
  1.7767   1.7850   1.8105   1.8217   1.8621   1.8976   1.9306   1.9396
  1.9548   2.0025   2.0156   2.0484   2.0751   2.1031   2.1372   2.1796
  2.2229   2.2321   2.2387   2.2461   2.2630   2.3075   2.3397   2.3526
  2.3784   2.3997   2.4196   2.4493   2.4821   2.5234   2.5457   2.5792
  2.6189   2.6584   2.6833   2.7194   2.7603   2.7655   2.7915   2.7990
  2.8285   2.8630   2.8867   2.9059   2.9129   2.9411   2.9610   2.9801
  3.0034   3.0291   3.0317   3.0525   3.0829   3.1060   3.1355   3.1474
  3.1511   3.1911   3.2074   3.2209   3.2474   3.2625   3.2778   3.2954
  3.3198   3.3254   3.3724   3.3747   3.4069   3.4379   3.4541   3.4687
  3.4877   3.4995   3.5255   3.5267   3.5413   3.5556   3.6052   3.6223
  3.6344   3.6502   3.6693   3.7128   3.7272   3.7389   3.7474   3.7667
  3.7801   3.7960   3.8241   3.8331   3.8465   3.8594   3.8646   3.8874
  3.9045   3.9344   3.9434   3.9614   4.0034   4.0260   4.0572   4.0622
  4.1042   4.1555   4.1931   4.2003   4.2239   4.2403   4.2544   4.2640
  4.2877   4.3009   4.3065   4.3427   4.3826   4.3973   4.4236   4.4465
  4.4731   4.4811   4.5125   4.5247   4.5427   4.5941   4.6115   4.6288
  4.6500   4.6877   4.7348   4.7727   4.7913   4.8146   4.8351   4.8838
  4.9015   4.9441   5.0578   5.0951   5.1130   5.1270   5.1856   5.2034
  5.2184   5.2217   5.2277   5.2426   5.2529   5.2588   5.2644   5.2697
  5.2874   5.2951   5.3046   5.3254   5.3303   5.3525   5.3643   5.3691
  5.3951   5.4124   5.4388   5.4531   5.4565   5.4856   5.5277   5.5538
  5.5741   5.5764   5.6102   5.6121   5.6341   5.6495   5.6565   5.6610
  5.6989   5.7119   5.7336   5.7880   5.8045   5.8362   5.8633   5.9152
  6.0064   6.0217   6.0863   6.1470   6.1961   6.3155   6.5185   6.5519
  6.5885   6.6265   6.7413   6.8076   6.8523   6.8876   6.9767   7.0018
  7.0375   7.0903   7.1002   7.1119   7.1555   7.1584   7.1927   7.2440
  7.2658   7.2857   7.3058   7.3156   7.3315   7.3432   7.3747   7.4280
  7.4346   7.4442   7.4845   7.5222   7.5536   7.6281   7.6415   7.6886
  7.7564   7.8176   7.8614   7.8993   7.9280   8.0066   8.0752  24.5095
 24.7872  24.8346  24.9615  25.2177  50.4594  50.5550  50.6092  50.6157
 50.6549  50.7794
 
 Beta MOs
 -- Occupied --
-19.3577 -19.3435 -19.3424 -19.3336 -19.3263 -19.3261 -10.4431 -10.4331
-10.3858 -10.3854 -10.3228  -1.2254  -1.1948  -1.1816  -1.1433  -1.1228
 -0.9229  -0.8600  -0.8340  -0.7992  -0.7297  -0.6567  -0.6428  -0.6354
 -0.6015  -0.5950  -0.5790  -0.5413  -0.5396  -0.5297  -0.5155  -0.4980
 -0.4864  -0.4830  -0.4719  -0.4606  -0.4494  -0.4142  -0.4016  -0.3932
 -0.3712  -0.3562  -0.2749
 -- Virtual --
  0.0188   0.0256   0.0300   0.0419   0.0446   0.0529   0.0628   0.0649
  0.0712   0.0898   0.1001   0.1116   0.1178   0.1250   0.1312   0.1371
  0.1427   0.1531   0.1606   0.1618   0.1672   0.1774   0.1787   0.1821
  0.1890   0.1960   0.2018   0.2056   0.2131   0.2309   0.2348   0.2410
  0.2474   0.2621   0.2741   0.2795   0.2845   0.2908   0.2995   0.3002
  0.3066   0.3117   0.3143   0.3187   0.3291   0.3300   0.3403   0.3450
  0.3511   0.3576   0.3621   0.3697   0.3723   0.3778   0.3804   0.3874
  0.3957   0.3968   0.4044   0.4107   0.4177   0.4201   0.4309   0.4464
  0.4562   0.4749   0.4813   0.4894   0.5025   0.5161   0.5299   0.5628
  0.5699   0.5913   0.6061   0.6124   0.6220   0.6292   0.6347   0.6462
  0.6535   0.6633   0.6760   0.6829   0.6919   0.7037   0.7178   0.7284
  0.7363   0.7441   0.7690   0.7693   0.7834   0.7929   0.8060   0.8314
  0.8417   0.8516   0.8522   0.8770   0.8800   0.9023   0.9357   0.9397
  0.9528   0.9678   0.9830   1.0345   1.0504   1.0508   1.0606   1.0840
  1.0904   1.1051   1.1099   1.1209   1.1386   1.1442   1.1610   1.1748
  1.1758   1.1850   1.1897   1.2114   1.2172   1.2205   1.2322   1.2402
  1.2460   1.2569   1.2616   1.2700   1.2798   1.2929   1.2971   1.3060
  1.3169   1.3343   1.3447   1.3548   1.3670   1.3885   1.3994   1.4214
  1.4249   1.4425   1.4524   1.4660   1.4815   1.4867   1.5019   1.5132
  1.5277   1.5320   1.5466   1.5519   1.5625   1.5852   1.6214   1.6247
  1.6323   1.6395   1.6616   1.6788   1.6964   1.7054   1.7115   1.7343
  1.7689   1.7813   1.7864   1.8197   1.8256   1.8632   1.9071   1.9331
  1.9417   1.9552   2.0030   2.0205   2.0491   2.0791   2.1085   2.1377
  2.1801   2.2252   2.2339   2.2436   2.2494   2.2713   2.3116   2.3513
  2.3632   2.3815   2.4028   2.4203   2.4510   2.4822   2.5234   2.5457
  2.5793   2.6188   2.6590   2.6832   2.7263   2.7614   2.7658   2.7913
  2.7999   2.8284   2.8628   2.8867   2.9055   2.9125   2.9405   2.9608
  2.9797   3.0031   3.0286   3.0313   3.0524   3.0826   3.1057   3.1355
  3.1471   3.1513   3.1908   3.2072   3.2209   3.2471   3.2624   3.2776
  3.2952   3.3197   3.3251   3.3723   3.3747   3.4068   3.4376   3.4538
  3.4683   3.4875   3.4992   3.5253   3.5265   3.5411   3.5553   3.6050
  3.6223   3.6342   3.6501   3.6691   3.7126   3.7270   3.7388   3.7471
  3.7664   3.7799   3.7960   3.8241   3.8328   3.8465   3.8593   3.8642
  3.8873   3.9045   3.9344   3.9434   3.9610   4.0032   4.0257   4.0569
  4.0621   4.1041   4.1554   4.1932   4.2001   4.2239   4.2402   4.2541
  4.2639   4.2877   4.3006   4.3064   4.3429   4.3825   4.3972   4.4234
  4.4468   4.4733   4.4811   4.5129   4.5248   4.5428   4.5971   4.6156
  4.6464   4.6624   4.6968   4.7357   4.7849   4.8092   4.8246   4.8459
  4.8856   4.9134   4.9443   5.0590   5.1368   5.1528   5.1959   5.2036
  5.2095   5.2186   5.2269   5.2458   5.2571   5.2718   5.2855   5.2867
  5.2959   5.2999   5.3048   5.3218   5.3257   5.3317   5.3578   5.3698
  5.3892   5.3962   5.4192   5.4437   5.4569   5.4588   5.4873   5.5281
  5.5544   5.5744   5.5765   5.6104   5.6120   5.6357   5.6559   5.6743
  5.6790   5.7115   5.7129   5.7344   5.7878   5.8043   5.8363   5.8634
  5.9152   6.0062   6.0217   6.0863   6.1470   6.1962   6.3150   6.5604
  6.5667   6.5931   6.6269   6.7423   6.8082   6.9223   6.9572   6.9990
  7.0424   7.0832   7.1004   7.1092   7.1452   7.1599   7.1919   7.2002
  7.2471   7.2858   7.2941   7.3073   7.3158   7.3328   7.3455   7.3752
  7.4313   7.4430   7.4843   7.4851   7.5243   7.5679   7.6281   7.6418
  7.6886   7.7565   7.8177   7.8613   7.8995   7.9284   8.0231   8.0947
 24.5094  24.7872  24.8346  24.9615  25.2176  50.4708  50.5660  50.6093
 50.6158  50.6553  50.7793
 --------------------------------------------------------------
 
          Ground-State Mulliken Net Atomic Charges

     Atom                 Charge (a.u.)    Spin (a.u.)
  --------------------------------------------------------
      1 O                    -0.461158      -0.000055
      2 C                    -0.538603       0.000283
      3 C                     0.447885      -0.004884
      4 O                    -0.575969      -0.006511
      5 C                    -0.135734      -0.006097
      6 C                    -0.254278      -0.002306
      7 C                    -0.346853      -0.007658
      8 O                    -0.404110      -0.000996
      9 O                    -0.489417       0.003103
     10 H                     0.347149       0.000061
     11 H                     0.211713      -0.000241
     12 H                     0.208099      -0.000463
     13 H                     0.285598       0.000486
     14 H                     0.335026      -0.000320
     15 H                     0.268026      -0.000631
     16 H                     0.332610       0.000114
     17 H                     0.400064      -0.000318
     18 O                    -0.218955       0.486100
     19 O                    -0.411093       0.540332
  --------------------------------------------------------
  Sum of atomic charges =    -1.000000
  Sum of spin   charges =     1.000000

 -----------------------------------------------------------------
                    Cartesian Multipole Moments
 -----------------------------------------------------------------
    Charge (ESU x 10^10)
                -4.8032
    Dipole Moment (Debye)
         X     -23.0904      Y      -7.1630      Z     -16.8107
       Tot      29.4461
    Quadrupole Moments (Debye-Ang)
        XX    -210.4959     XY     -40.4875     YY     -92.5971
        XZ     -88.5612     YZ     -30.9196     ZZ    -123.9673
    Octopole Moments (Debye-Ang^2)
       XXX   -1712.2174    XXY    -327.8699    XYY    -355.2232
       YYY    -392.7665    XXZ    -640.4800    XYZ    -141.8639
       YYZ    -202.6183    XZZ    -544.0952    YZZ    -206.6389
       ZZZ    -565.9535
    Hexadecapole Moments (Debye-Ang^3)
      XXXX  -13488.6580   XXXY   -2740.1898   XXYY   -1914.8413
      XYYY   -1698.7172   YYYY   -2138.0862   XXXZ   -4937.6134
      XXYZ   -1022.1581   XYYZ    -861.2068   YYYZ   -1032.6842
      XXZZ   -3180.9667   XYZZ    -919.0146   YYZZ    -875.0469
      XZZZ   -2614.8260   YZZZ   -1129.1674   ZZZZ   -2709.3860
 -----------------------------------------------------------------
 Calculating analytic gradient of the SCF energy
 Gradient of CDS energy
            1           2           3           4           5           6
    1   0.0011068  -0.0015028  -0.0009573   0.0007930   0.0002390   0.0000583
    2   0.0004173  -0.0011296   0.0003164  -0.0002843  -0.0000089   0.0000595
    3  -0.0002553  -0.0005399   0.0013871  -0.0010229  -0.0001348   0.0000023
            7           8           9          10          11          12
    1  -0.0021778   0.0000863   0.0023216  -0.0003894   0.0001067   0.0002098
    2  -0.0014061  -0.0001980   0.0019643  -0.0001083   0.0002126   0.0000201
    3   0.0029966   0.0000927  -0.0027759   0.0001547  -0.0000088   0.0001148
           13          14          15          16          17          18
    1   0.0000729   0.0002088   0.0001888  -0.0002791  -0.0001489   0.0000546
    2  -0.0000474  -0.0000033  -0.0000726   0.0003575  -0.0001046   0.0000402
    3  -0.0001322  -0.0000173   0.0000368  -0.0001999   0.0002352   0.0000588
           19
    1   0.0000089
    2  -0.0000249
    3   0.0000080
 Gradient of SCF Energy
            1           2           3           4           5           6
    1  -0.0160171   0.0248436   0.0177194   0.0031669  -0.0144309   0.0422969
    2   0.0007265  -0.0028329   0.0043391  -0.0053498   0.0132399  -0.0292941
    3   0.0151863  -0.0156427   0.0050407  -0.0021696  -0.0080462  -0.0267457
            7           8           9          10          11          12
    1   0.0221496  -0.0129195  -0.0222460   0.0066228  -0.0000194  -0.0109668
    2   0.0352645   0.0051940  -0.0254636  -0.0064731  -0.0061496   0.0135746
    3   0.0185295  -0.0070245   0.0007617  -0.0165264   0.0129589   0.0018049
           13          14          15          16          17          18
    1  -0.0110673  -0.0297182  -0.0304286   0.0104499   0.0199401  -0.0097378
    2   0.0070419  -0.0104486  -0.0136802   0.0030661   0.0190586  -0.0065426
    3   0.0154917   0.0085900  -0.0221960   0.0067984   0.0053648   0.0041850
           19
    1   0.0103625
    2   0.0047293
    3   0.0036392
 Max gradient component =       4.230E-02
 RMS gradient           =       1.581E-02
 Computing fast CPCM-SWIG gradient
 Updating gradient with PCM contributions...
 -- total gradient after adding PCM contribution --
---------------------------------------------------
  Atom         X              Y              Z     
---------------------------------------------------
   1       0.000839       0.000196      -0.000321
   2      -0.000584      -0.000193       0.000073
   3      -0.000057      -0.000039       0.000028
   4       0.000008      -0.000008       0.000006
   5      -0.000015       0.000003      -0.000029
   6       0.000015      -0.000009       0.000017
   7      -0.000002      -0.000008       0.000009
   8      -0.000024      -0.000022      -0.000010
   9       0.000023       0.000011       0.000021
  10      -0.000105       0.000070       0.000210
  11      -0.000029      -0.000015       0.000014
  12      -0.000062      -0.000018       0.000009
  13      -0.000005       0.000010      -0.000005
  14      -0.000006       0.000006      -0.000004
  15       0.000002       0.000001      -0.000001
  16       0.000013       0.000018       0.000023
  17      -0.000012      -0.000011      -0.000019
  18      -0.000007       0.000003      -0.000017
  19       0.000008       0.000005      -0.000006
---------------------------------------------------
 Number of fixed atoms: 0
 Gradient time:  CPU 331.54 s  wall 28.18 s
 ----------------------------------------------------------------
             Standard Nuclear Orientation (Angstroms)
    I     Atom           X                Y                Z
 ----------------------------------------------------------------
    1      O       0.9853786334    -0.7277017022     0.2431372294
    2      C       2.2809832116    -0.2485899790    -0.0626964326
    3      C       2.7820803057     0.6980485948     1.0094389159
    4      O       2.0128853643     0.9095691819     1.9704649205
    5      C       4.0735771173     1.2567779561     0.8018733079
    6      C       4.7580626527     2.1377217661     1.6030881704
    7      C       4.2151611665     2.9881039990     2.7313152983
    8      O       3.5069480026     4.0794901394     2.1611266694
    9      O       3.4449817137     2.3024861703     3.6793064579
   10      H       0.7541421394    -0.3157929120     1.0912279768
   11      H       2.2742025208     0.2790930864    -1.0193444622
   12      H       2.9839714075    -1.0805671368    -0.1491762279
   13      H       4.5751054064     0.9191419639    -0.0968766393
   14      H       5.6627842829     2.5593671250     1.1842538647
   15      H       5.0473984440     3.4350082456     3.2665314635
   16      H       2.8438867479     3.7277570658     1.5534013006
   17      H       2.8005516219     1.7514424349     3.1806576308
   18      O       6.0101946484     1.0734699070     2.8679786368
   19      O       7.0751141130     1.7636269938     3.1691893192
 ----------------------------------------------------------------
 Nuclear Repulsion Energy =         644.06834245 hartrees
 There are       44 alpha and       43 beta electrons
 Discretize the solute cavity surface with Lebedev spheres
	Using 110 Lebedev grid points for each H atom
	Using 194 Lebedev grid points for other atoms
	Atomic van der Waals radii will be scaled by 1.20
 Remove points where switching function is < 1.0e-08
 Keep 1534 surface tesserae and discard 1480 interior tesserae
 Molecular Surface Area = 174.866 Angst**2
 Requested basis set is 6-311++G(2df,2p)
 There are 136 shells and 454 basis functions
 A cutoff of  1.0D-12 yielded   7888 shell pairs
 There are     86652 function pairs (    107840 Cartesian)
 Smallest overlap matrix eigenvalue = 3.03E-06
 Guess MOs from SCF MO coefficient file

 -----------------------------------------------------------------------
  General SCF calculation program by
  Eric Jon Sundstrom, Paul Horn, Yuezhi Mao, Dmitri Zuev, Alec White,
  David Stuck, Shaama M.S., Shane Yost, Joonho Lee, David Small,
  Daniel Levine, Susi Lehtola, Hugh Burton, Evgeny Epifanovsky,
  Bang C. Huynh
 -----------------------------------------------------------------------
 Exchange:     0.1500 Hartree-Fock + 1.0000 wB97M-V + LR-HF
 Correlation:  1.0000 wB97M-V
 Using SG-2 standard quadrature grid
 Nonlocal Correlation:  VV10 with C = 0.0100 and b = 6.00 and scale = 1.00000
 Grid used for NLC:  SG-1 standard quadrature
 
 Citation of the SMD model:
 Marenich, A.V.; Cramer, C.J.; Truhlar, D.G.
 J. Phys. Chem. B 2009, 113, 6378-6396.
 iSolventCode=           1
 Solvent: water                                                           
 
 vradii
            1           2           3           4           5           6
    1   1.5200000   1.8500000   1.8500000   1.5200000   1.8500000   1.8500000
            7           8           9          10          11          12
    1   1.8500000   1.5200000   1.5200000   1.2000000   1.2000000   1.2000000
           13          14          15          16          17          18
    1   1.2000000   1.2000000   1.2000000   1.2000000   1.2000000   1.5200000
           19
    1   1.5200000
 -------------------------------------------------------
 OpenMP BLAS3 based DFT computing Module                
 Release: version 1.0, May 2013, Q-Chem Inc. Pittsburgh 
 -------------------------------------------------------
 A unrestricted SCF calculation will be
 performed using Roothaan-Hall, DIIS, GDM
 SCF converges when RMS gradient is below 1.0e-07
 ---------------------------------------
  Cycle       Energy         DIIS error
 ---------------------------------------
    1    -646.6004145992      2.20e-04  Roothaan Step
 ---------------------------------------
  Cycle       Energy         DIIS error
 ---------------------------------------
    1    -646.7036349256      2.64e-04  
    2    -646.7108658942      2.62e-04  Done DIIS. Switching to GDM
 ---------------------------------------
  Cycle       Energy        RMS Gradient
 ---------------------------------------
    1    -646.7108658942      1.69e-02   Normal BFGS step
    2    -646.7100651194      2.91e-02  Line search: overstep
    3    -646.7157546601      6.41e-03   Normal BFGS step
    4    -646.7160800370      7.26e-03   Normal BFGS step
    5    -646.7162712069      1.60e-03   Normal BFGS step
    6    -646.7162927048      6.23e-04   Normal BFGS step
    7    -646.7163004089      5.46e-04   Normal BFGS step
    8    -646.7163024845      2.31e-04   Normal BFGS step
    9    -646.7163028825      1.30e-04   Normal BFGS step
   10    -646.7163030438      8.90e-05   Normal BFGS step
   11    -646.7163030927      6.70e-05   Normal BFGS step
   12    -646.7163031180      6.65e-05   Normal BFGS step
   13    -646.7163031320      5.76e-05   Normal BFGS step
   14    -646.7163031510      3.60e-05   Normal BFGS step
   15    -646.7163031666      2.95e-05   Normal BFGS step
   16    -646.7163031830      3.44e-05   Normal BFGS step
   17    -646.7163031929      1.96e-05   Normal BFGS step
   18    -646.7163031973      1.36e-05   Normal BFGS step
   19    -646.7163031994      9.89e-06   Normal BFGS step
   20    -646.7163032002      3.02e-06   Normal BFGS step
   21    -646.7163032004      1.65e-06   Normal BFGS step
   22    -646.7163032004      7.16e-07   Normal BFGS step
   23    -646.7163032004      3.91e-07   Normal BFGS step
   24    -646.7163032004      2.30e-07   Normal BFGS step
   25    -646.7163032004      8.85e-08  Convergence criterion met
 ---------------------------------------
 SCF time:   CPU 3236.82s  wall 222.00s 
<S^2> =          0.758025054
(3)  G-ENP(liq) elect-nuc-pol free energy of system     -646.716303200 a.u.
(4)  G-CDS(liq) cavity-dispersion-solvent structure 
     free energy                                                3.2556 kcal/mol
(6)  G-S(liq) free energy of system                     -646.711115012 a.u.
 SCF   energy in the final basis set =     -646.7111150125
 Total energy in the final basis set =     -646.7111150125
 
 --------------------------------------------------------------
 
                    Orbital Energies (a.u.)
 --------------------------------------------------------------
 
 Alpha MOs
 -- Occupied --
-19.3723 -19.3589 -19.3424 -19.3337 -19.3262 -19.3261 -10.4431 -10.4331
-10.3858 -10.3855 -10.3227  -1.2552  -1.1948  -1.1813  -1.1429  -1.1228
 -0.9256  -0.8836  -0.8505  -0.7992  -0.7298  -0.6567  -0.6431  -0.6355
 -0.6016  -0.5967  -0.5788  -0.5572  -0.5544  -0.5380  -0.5299  -0.5257
 -0.4974  -0.4896  -0.4822  -0.4721  -0.4510  -0.4149  -0.4024  -0.3933
 -0.3712  -0.3635  -0.3382  -0.2926
 -- Virtual --
  0.0237   0.0284   0.0416   0.0444   0.0524   0.0622   0.0642   0.0711
  0.0888   0.0996   0.1108   0.1173   0.1244   0.1303   0.1366   0.1422
  0.1525   0.1603   0.1614   0.1667   0.1770   0.1780   0.1817   0.1882
  0.1950   0.2011   0.2046   0.2116   0.2291   0.2336   0.2403   0.2471
  0.2615   0.2727   0.2788   0.2837   0.2895   0.2982   0.2993   0.3020
  0.3076   0.3131   0.3180   0.3284   0.3293   0.3392   0.3439   0.3480
  0.3573   0.3610   0.3687   0.3708   0.3732   0.3776   0.3866   0.3949
  0.3958   0.4041   0.4102   0.4171   0.4188   0.4292   0.4446   0.4558
  0.4741   0.4810   0.4887   0.5021   0.5150   0.5298   0.5627   0.5697
  0.5913   0.6060   0.6121   0.6220   0.6288   0.6345   0.6459   0.6534
  0.6632   0.6757   0.6824   0.6919   0.7036   0.7176   0.7281   0.7364
  0.7436   0.7687   0.7692   0.7830   0.7929   0.8058   0.8307   0.8415
  0.8511   0.8518   0.8770   0.8797   0.9016   0.9346   0.9391   0.9526
  0.9665   0.9826   1.0337   1.0489   1.0502   1.0594   1.0832   1.0894
  1.1042   1.1078   1.1200   1.1304   1.1403   1.1556   1.1732   1.1746
  1.1839   1.1866   1.2089   1.2103   1.2187   1.2289   1.2348   1.2426
  1.2468   1.2555   1.2680   1.2748   1.2919   1.2925   1.3048   1.3153
  1.3328   1.3410   1.3530   1.3622   1.3852   1.3982   1.4201   1.4216
  1.4408   1.4505   1.4659   1.4743   1.4808   1.4992   1.5122   1.5228
  1.5306   1.5451   1.5505   1.5610   1.5829   1.6187   1.6216   1.6300
  1.6389   1.6496   1.6695   1.6893   1.6942   1.7069   1.7302   1.7626
  1.7767   1.7850   1.8105   1.8217   1.8618   1.8976   1.9307   1.9395
  1.9548   2.0024   2.0155   2.0482   2.0750   2.1028   2.1372   2.1797
  2.2228   2.2317   2.2387   2.2460   2.2627   2.3075   2.3396   2.3525
  2.3780   2.3991   2.4195   2.4493   2.4820   2.5231   2.5455   2.5790
  2.6188   2.6581   2.6833   2.7194   2.7603   2.7654   2.7914   2.7990
  2.8283   2.8630   2.8867   2.9058   2.9128   2.9411   2.9608   2.9801
  3.0033   3.0290   3.0317   3.0525   3.0828   3.1059   3.1351   3.1473
  3.1510   3.1910   3.2073   3.2208   3.2474   3.2625   3.2775   3.2949
  3.3195   3.3250   3.3723   3.3746   3.4069   3.4378   3.4539   3.4685
  3.4874   3.4995   3.5256   3.5264   3.5414   3.5556   3.6052   3.6223
  3.6344   3.6502   3.6693   3.7128   3.7268   3.7389   3.7472   3.7667
  3.7800   3.7957   3.8240   3.8330   3.8464   3.8590   3.8645   3.8874
  3.9043   3.9343   3.9434   3.9613   4.0034   4.0259   4.0571   4.0622
  4.1040   4.1555   4.1931   4.2003   4.2236   4.2399   4.2544   4.2643
  4.2878   4.3009   4.3065   4.3427   4.3826   4.3972   4.4234   4.4463
  4.4729   4.4810   4.5125   4.5247   4.5427   4.5941   4.6115   4.6288
  4.6501   4.6877   4.7347   4.7727   4.7913   4.8146   4.8351   4.8838
  4.9015   4.9441   5.0577   5.0951   5.1130   5.1269   5.1856   5.2032
  5.2183   5.2218   5.2277   5.2427   5.2529   5.2589   5.2644   5.2698
  5.2873   5.2951   5.3046   5.3247   5.3302   5.3525   5.3643   5.3691
  5.3951   5.4124   5.4386   5.4527   5.4566   5.4851   5.5277   5.5537
  5.5739   5.5762   5.6105   5.6123   5.6341   5.6495   5.6565   5.6610
  5.6989   5.7113   5.7337   5.7880   5.8044   5.8362   5.8631   5.9122
  6.0062   6.0189   6.0860   6.1467   6.1960   6.3153   6.5185   6.5519
  6.5880   6.6219   6.7413   6.8072   6.8523   6.8876   6.9767   7.0017
  7.0375   7.0903   7.1000   7.1119   7.1555   7.1584   7.1926   7.2440
  7.2658   7.2857   7.3057   7.3165   7.3316   7.3432   7.3749   7.4279
  7.4343   7.4443   7.4847   7.5223   7.5536   7.6263   7.6414   7.6886
  7.7563   7.8174   7.8612   7.8992   7.9280   8.0066   8.0752  24.5094
 24.7844  24.8342  24.9614  25.2176  50.4594  50.5550  50.6091  50.6151
 50.6549  50.7794
 
 Beta MOs
 -- Occupied --
-19.3577 -19.3435 -19.3424 -19.3337 -19.3263 -19.3261 -10.4431 -10.4332
-10.3859 -10.3855 -10.3228  -1.2255  -1.1948  -1.1815  -1.1430  -1.1228
 -0.9230  -0.8601  -0.8340  -0.7992  -0.7297  -0.6566  -0.6428  -0.6354
 -0.6014  -0.5950  -0.5789  -0.5413  -0.5395  -0.5297  -0.5155  -0.4980
 -0.4864  -0.4830  -0.4720  -0.4606  -0.4495  -0.4142  -0.4016  -0.3933
 -0.3712  -0.3563  -0.2749
 -- Virtual --
  0.0188   0.0256   0.0300   0.0419   0.0446   0.0529   0.0628   0.0649
  0.0712   0.0898   0.1001   0.1116   0.1178   0.1250   0.1312   0.1370
  0.1427   0.1531   0.1606   0.1618   0.1672   0.1774   0.1787   0.1821
  0.1890   0.1960   0.2018   0.2056   0.2131   0.2309   0.2348   0.2409
  0.2473   0.2621   0.2740   0.2794   0.2844   0.2908   0.2995   0.3001
  0.3066   0.3117   0.3143   0.3187   0.3291   0.3300   0.3402   0.3450
  0.3511   0.3575   0.3621   0.3696   0.3723   0.3778   0.3804   0.3874
  0.3957   0.3969   0.4044   0.4106   0.4177   0.4201   0.4309   0.4464
  0.4562   0.4748   0.4813   0.4894   0.5023   0.5161   0.5298   0.5628
  0.5698   0.5913   0.6061   0.6123   0.6220   0.6292   0.6346   0.6462
  0.6534   0.6633   0.6759   0.6829   0.6919   0.7037   0.7178   0.7283
  0.7363   0.7441   0.7689   0.7692   0.7834   0.7929   0.8060   0.8314
  0.8417   0.8516   0.8522   0.8770   0.8800   0.9022   0.9357   0.9397
  0.9528   0.9678   0.9830   1.0345   1.0504   1.0509   1.0606   1.0838
  1.0903   1.1050   1.1099   1.1209   1.1385   1.1442   1.1610   1.1749
  1.1758   1.1849   1.1897   1.2114   1.2172   1.2204   1.2322   1.2401
  1.2459   1.2569   1.2616   1.2700   1.2798   1.2928   1.2971   1.3060
  1.3168   1.3343   1.3447   1.3547   1.3670   1.3884   1.3993   1.4214
  1.4247   1.4425   1.4523   1.4660   1.4814   1.4867   1.5018   1.5131
  1.5277   1.5320   1.5466   1.5517   1.5625   1.5852   1.6214   1.6248
  1.6323   1.6396   1.6616   1.6789   1.6965   1.7053   1.7115   1.7343
  1.7690   1.7813   1.7864   1.8196   1.8255   1.8629   1.9072   1.9331
  1.9416   1.9552   2.0029   2.0203   2.0489   2.0791   2.1083   2.1376
  2.1802   2.2251   2.2336   2.2436   2.2491   2.2711   2.3116   2.3512
  2.3631   2.3809   2.4024   2.4202   2.4509   2.4821   2.5231   2.5454
  2.5791   2.6188   2.6587   2.6832   2.7262   2.7614   2.7656   2.7912
  2.7999   2.8281   2.8628   2.8867   2.9054   2.9124   2.9405   2.9606
  2.9797   3.0031   3.0285   3.0313   3.0524   3.0826   3.1057   3.1351
  3.1470   3.1512   3.1907   3.2071   3.2208   3.2471   3.2624   3.2773
  3.2947   3.3193   3.3248   3.3722   3.3746   3.4067   3.4376   3.4536
  3.4681   3.4872   3.4992   3.5253   3.5261   3.5412   3.5553   3.6050
  3.6223   3.6341   3.6501   3.6691   3.7126   3.7267   3.7387   3.7469
  3.7664   3.7798   3.7957   3.8240   3.8327   3.8463   3.8589   3.8641
  3.8873   3.9043   3.9342   3.9434   3.9610   4.0032   4.0257   4.0569
  4.0621   4.1040   4.1554   4.1932   4.2001   4.2237   4.2398   4.2541
  4.2642   4.2878   4.3006   4.3064   4.3428   4.3825   4.3971   4.4232
  4.4466   4.4731   4.4810   4.5129   4.5248   4.5429   4.5971   4.6156
  4.6464   4.6624   4.6968   4.7355   4.7850   4.8092   4.8245   4.8459
  4.8856   4.9134   4.9444   5.0589   5.1368   5.1528   5.1959   5.2035
  5.2095   5.2184   5.2269   5.2461   5.2572   5.2717   5.2855   5.2867
  5.2959   5.2999   5.3048   5.3218   5.3250   5.3316   5.3577   5.3698
  5.3892   5.3962   5.4192   5.4433   5.4567   5.4587   5.4868   5.5281
  5.5543   5.5741   5.5764   5.6107   5.6122   5.6357   5.6559   5.6742
  5.6790   5.7110   5.7127   5.7344   5.7879   5.8042   5.8362   5.8632
  5.9122   6.0060   6.0188   6.0860   6.1467   6.1960   6.3148   6.5604
  6.5667   6.5926   6.6223   6.7422   6.8078   6.9223   6.9572   6.9990
  7.0424   7.0832   7.1001   7.1092   7.1451   7.1598   7.1918   7.2002
  7.2471   7.2858   7.2941   7.3072   7.3166   7.3329   7.3455   7.3753
  7.4309   7.4431   7.4843   7.4853   7.5244   7.5679   7.6263   7.6418
  7.6885   7.7564   7.8176   7.8611   7.8995   7.9283   8.0231   8.0947
 24.5093  24.7843  24.8342  24.9613  25.2175  50.4708  50.5660  50.6092
 50.6152  50.6552  50.7792
 --------------------------------------------------------------
 
          Ground-State Mulliken Net Atomic Charges

     Atom                 Charge (a.u.)    Spin (a.u.)
  --------------------------------------------------------
      1 O                    -0.461580      -0.000054
      2 C                    -0.538830       0.000282
      3 C                     0.448123      -0.004887
      4 O                    -0.575797      -0.006515
      5 C                    -0.135747      -0.006099
      6 C                    -0.254284      -0.002314
      7 C                    -0.346874      -0.007656
      8 O                    -0.404103      -0.000996
      9 O                    -0.489403       0.003103
     10 H                     0.346927       0.000061
     11 H                     0.211930      -0.000240
     12 H                     0.208269      -0.000462
     13 H                     0.285616       0.000487
     14 H                     0.335044      -0.000321
     15 H                     0.268036      -0.000630
     16 H                     0.332611       0.000114
     17 H                     0.400059      -0.000318
     18 O                    -0.218938       0.486097
     19 O                    -0.411059       0.540350
  --------------------------------------------------------
  Sum of atomic charges =    -1.000000
  Sum of spin   charges =     1.000000

 -----------------------------------------------------------------
                    Cartesian Multipole Moments
 -----------------------------------------------------------------
    Charge (ESU x 10^10)
                -4.8032
    Dipole Moment (Debye)
         X     -23.0780      Y      -7.1607      Z     -16.8113
       Tot      29.4362
    Quadrupole Moments (Debye-Ang)
        XX    -210.4494     XY     -40.4842     YY     -92.5943
        XZ     -88.5561     YZ     -30.9160     ZZ    -123.9629
    Octopole Moments (Debye-Ang^2)
       XXX   -1711.9764    XXY    -327.8417    XYY    -355.1865
       YYY    -392.7493    XXZ    -640.4393    XYZ    -141.8501
       YYZ    -202.6126    XZZ    -544.0554    YZZ    -206.6283
       ZZZ    -565.9428
    Hexadecapole Moments (Debye-Ang^3)
      XXXX  -13487.4251   XXXY   -2740.0178   XXYY   -1914.6957
      XYYY   -1698.6859   YYYY   -2138.0467   XXXZ   -4937.3160
      XXYZ   -1022.0738   XYYZ    -861.1669   YYYZ   -1032.6549
      XXZZ   -3180.7819   XYZZ    -918.9772   YYZZ    -875.0235
      XZZZ   -2614.7471   YZZZ   -1129.1399   ZZZZ   -2709.3287
 -----------------------------------------------------------------
 Calculating analytic gradient of the SCF energy
 Gradient of CDS energy
            1           2           3           4           5           6
    1   0.0007100  -0.0011068  -0.0009572   0.0007930   0.0002390   0.0000583
    2   0.0002719  -0.0009861   0.0003167  -0.0002843  -0.0000089   0.0000595
    3  -0.0001624  -0.0006329   0.0013871  -0.0010229  -0.0001348   0.0000023
            7           8           9          10          11          12
    1  -0.0021778   0.0000863   0.0023216  -0.0003896   0.0001062   0.0002111
    2  -0.0014061  -0.0001980   0.0019643  -0.0001083   0.0002125   0.0000218
    3   0.0029966   0.0000927  -0.0027759   0.0001552  -0.0000089   0.0001144
           13          14          15          16          17          18
    1   0.0000729   0.0002088   0.0001888  -0.0002791  -0.0001489   0.0000546
    2  -0.0000474  -0.0000033  -0.0000726   0.0003575  -0.0001046   0.0000402
    3  -0.0001322  -0.0000173   0.0000368  -0.0001999   0.0002352   0.0000588
           19
    1   0.0000089
    2  -0.0000249
    3   0.0000080
 Gradient of SCF Energy
            1           2           3           4           5           6
    1  -0.0175398   0.0259491   0.0178462   0.0031489  -0.0144569   0.0422910
    2   0.0004091  -0.0024486   0.0043886  -0.0053591   0.0132504  -0.0292887
    3   0.0158274  -0.0157765   0.0050009  -0.0021802  -0.0080112  -0.0267453
            7           8           9          10          11          12
    1   0.0221453  -0.0129180  -0.0222464   0.0067897   0.0000219  -0.0108597
    2   0.0352529   0.0051964  -0.0254605  -0.0066443  -0.0061148   0.0136030
    3   0.0185202  -0.0070201   0.0007643  -0.0169337   0.0129221   0.0017775
           13          14          15          16          17          18
    1  -0.0110615  -0.0297073  -0.0304225   0.0104496   0.0199418  -0.0097347
    2   0.0070333  -0.0104447  -0.0136781   0.0030639   0.0190563  -0.0065433
    3   0.0154763   0.0085863  -0.0221931   0.0067949   0.0053620   0.0041873
           19
    1   0.0103634
    2   0.0047282
    3   0.0036409
 Max gradient component =       4.229E-02
 RMS gradient           =       1.589E-02
 Computing fast CPCM-SWIG gradient
 Updating gradient with PCM contributions...
 -- total gradient after adding PCM contribution --
---------------------------------------------------
  Atom         X              Y              Z     
---------------------------------------------------
   1      -0.000830      -0.000191       0.000319
   2       0.000582       0.000196      -0.000078
   3       0.000053       0.000007       0.000009
   4       0.000002      -0.000021      -0.000011
   5      -0.000004       0.000032      -0.000001
   6       0.000007      -0.000010      -0.000001
   7       0.000001      -0.000010       0.000007
   8      -0.000025      -0.000020      -0.000009
   9       0.000021       0.000010       0.000022
  10       0.000106      -0.000075      -0.000197
  11       0.000018       0.000026      -0.000019
  12       0.000068       0.000029      -0.000022
  13      -0.000006       0.000008      -0.000005
  14      -0.000004       0.000006      -0.000002
  15       0.000001       0.000001       0.000000
  16       0.000014       0.000017       0.000023
  17      -0.000011      -0.000010      -0.000019
  18      -0.000005      -0.000002      -0.000012
  19       0.000013       0.000007      -0.000004
---------------------------------------------------
 Number of fixed atoms: 0
 Gradient time:  CPU 332.56 s  wall 28.32 s
 ----------------------------------------------------------------
             Standard Nuclear Orientation (Angstroms)
    I     Atom           X                Y                Z
 ----------------------------------------------------------------
    1      O       0.9863786334    -0.7267017022     0.2431372294
    2      C       2.2809832116    -0.2485899790    -0.0626964326
    3      C       2.7820803057     0.6980485948     1.0094389159
    4      O       2.0128853643     0.9095691819     1.9704649205
    5      C       4.0735771173     1.2567779561     0.8018733079
    6      C       4.7580626527     2.1377217661     1.6030881704
    7      C       4.2151611665     2.9881039990     2.7313152983
    8      O       3.5069480026     4.0794901394     2.1611266694
    9      O       3.4449817137     2.3024861703     3.6793064579
   10      H       0.7541421394    -0.3157929120     1.0912279768
   11      H       2.2742025208     0.2790930864    -1.0193444622
   12      H       2.9839714075    -1.0805671368    -0.1491762279
   13      H       4.5751054064     0.9191419639    -0.0968766393
   14      H       5.6627842829     2.5593671250     1.1842538647
   15      H       5.0473984440     3.4350082456     3.2665314635
   16      H       2.8438867479     3.7277570658     1.5534013006
   17      H       2.8005516219     1.7514424349     3.1806576308
   18      O       6.0101946484     1.0734699070     2.8679786368
   19      O       7.0751141130     1.7636269938     3.1691893192
 ----------------------------------------------------------------
 Nuclear Repulsion Energy =         644.10854891 hartrees
 There are       44 alpha and       43 beta electrons
 Discretize the solute cavity surface with Lebedev spheres
	Using 110 Lebedev grid points for each H atom
	Using 194 Lebedev grid points for other atoms
	Atomic van der Waals radii will be scaled by 1.20
 Remove points where switching function is < 1.0e-08
 Keep 1534 surface tesserae and discard 1480 interior tesserae
 Molecular Surface Area = 174.855 Angst**2
 Requested basis set is 6-311++G(2df,2p)
 There are 136 shells and 454 basis functions
 A cutoff of  1.0D-12 yielded   7889 shell pairs
 There are     86653 function pairs (    107841 Cartesian)
 Smallest overlap matrix eigenvalue = 3.03E-06
 Guess MOs from SCF MO coefficient file

 -----------------------------------------------------------------------
  General SCF calculation program by
  Eric Jon Sundstrom, Paul Horn, Yuezhi Mao, Dmitri Zuev, Alec White,
  David Stuck, Shaama M.S., Shane Yost, Joonho Lee, David Small,
  Daniel Levine, Susi Lehtola, Hugh Burton, Evgeny Epifanovsky,
  Bang C. Huynh
 -----------------------------------------------------------------------
 Exchange:     0.1500 Hartree-Fock + 1.0000 wB97M-V + LR-HF
 Correlation:  1.0000 wB97M-V
 Using SG-2 standard quadrature grid
 Nonlocal Correlation:  VV10 with C = 0.0100 and b = 6.00 and scale = 1.00000
 Grid used for NLC:  SG-1 standard quadrature
 
 Citation of the SMD model:
 Marenich, A.V.; Cramer, C.J.; Truhlar, D.G.
 J. Phys. Chem. B 2009, 113, 6378-6396.
 iSolventCode=           1
 Solvent: water                                                           
 
 vradii
            1           2           3           4           5           6
    1   1.5200000   1.8500000   1.8500000   1.5200000   1.8500000   1.8500000
            7           8           9          10          11          12
    1   1.8500000   1.5200000   1.5200000   1.2000000   1.2000000   1.2000000
           13          14          15          16          17          18
    1   1.2000000   1.2000000   1.2000000   1.2000000   1.2000000   1.5200000
           19
    1   1.5200000
 -------------------------------------------------------
 OpenMP BLAS3 based DFT computing Module                
 Release: version 1.0, May 2013, Q-Chem Inc. Pittsburgh 
 -------------------------------------------------------
 A unrestricted SCF calculation will be
 performed using Roothaan-Hall, DIIS, GDM
 SCF converges when RMS gradient is below 1.0e-07
 ---------------------------------------
  Cycle       Energy         DIIS error
 ---------------------------------------
    1    -646.6004207315      2.20e-04  Roothaan Step
 ---------------------------------------
  Cycle       Energy         DIIS error
 ---------------------------------------
    1    -646.7036465762      2.64e-04  
    2    -646.7108758897      2.62e-04  Done DIIS. Switching to GDM
 ---------------------------------------
  Cycle       Energy        RMS Gradient
 ---------------------------------------
    1    -646.7108758897      1.69e-02   Normal BFGS step
    2    -646.7100775932      2.91e-02  Line search: overstep
    3    -646.7157572905      6.41e-03   Normal BFGS step
    4    -646.7160827058      7.26e-03   Normal BFGS step
    5    -646.7162738126      1.60e-03   Normal BFGS step
    6    -646.7162953175      6.25e-04   Normal BFGS step
    7    -646.7163030233      5.46e-04   Normal BFGS step
    8    -646.7163051002      2.31e-04   Normal BFGS step
    9    -646.7163054992      1.30e-04   Normal BFGS step
   10    -646.7163056612      8.89e-05   Normal BFGS step
   11    -646.7163057107      6.83e-05   Normal BFGS step
   12    -646.7163057366      6.77e-05   Normal BFGS step
   13    -646.7163057512      5.85e-05   Normal BFGS step
   14    -646.7163057712      3.65e-05   Normal BFGS step
   15    -646.7163057876      3.03e-05   Normal BFGS step
   16    -646.7163058047      3.49e-05   Normal BFGS step
   17    -646.7163058149      1.98e-05   Normal BFGS step
   18    -646.7163058193      1.37e-05   Normal BFGS step
   19    -646.7163058215      9.90e-06   Normal BFGS step
   20    -646.7163058223      3.01e-06   Normal BFGS step
   21    -646.7163058224      1.64e-06   Normal BFGS step
   22    -646.7163058225      7.19e-07   Normal BFGS step
   23    -646.7163058224      3.90e-07   Normal BFGS step
   24    -646.7163058224      2.29e-07   Normal BFGS step
   25    -646.7163058225      9.05e-08  Convergence criterion met
 ---------------------------------------
 SCF time:   CPU 3252.15s  wall 223.00s 
<S^2> =          0.758023311
(3)  G-ENP(liq) elect-nuc-pol free energy of system     -646.716305822 a.u.
(4)  G-CDS(liq) cavity-dispersion-solvent structure 
     free energy                                                3.2570 kcal/mol
(6)  G-S(liq) free energy of system                     -646.711115446 a.u.
 SCF   energy in the final basis set =     -646.7111154461
 Total energy in the final basis set =     -646.7111154461
 
 --------------------------------------------------------------
 
                    Orbital Energies (a.u.)
 --------------------------------------------------------------
 
 Alpha MOs
 -- Occupied --
-19.3723 -19.3589 -19.3424 -19.3336 -19.3262 -19.3261 -10.4431 -10.4330
-10.3858 -10.3854 -10.3227  -1.2552  -1.1949  -1.1815  -1.1431  -1.1228
 -0.9256  -0.8836  -0.8505  -0.7992  -0.7298  -0.6568  -0.6431  -0.6355
 -0.6016  -0.5967  -0.5789  -0.5572  -0.5544  -0.5381  -0.5299  -0.5257
 -0.4974  -0.4896  -0.4822  -0.4721  -0.4509  -0.4149  -0.4024  -0.3932
 -0.3712  -0.3635  -0.3381  -0.2926
 -- Virtual --
  0.0237   0.0285   0.0416   0.0444   0.0524   0.0622   0.0642   0.0711
  0.0888   0.0996   0.1108   0.1173   0.1244   0.1303   0.1366   0.1422
  0.1525   0.1603   0.1613   0.1667   0.1770   0.1780   0.1817   0.1882
  0.1950   0.2011   0.2046   0.2116   0.2291   0.2336   0.2404   0.2471
  0.2615   0.2728   0.2789   0.2837   0.2895   0.2982   0.2993   0.3021
  0.3076   0.3131   0.3180   0.3284   0.3293   0.3392   0.3439   0.3480
[...]
 
                    Orbital Energies (a.u.)
 --------------------------------------------------------------
 
 Alpha MOs
 -- Occupied --
-19.3672 -19.3555 -19.3436 -19.3343 -19.3272 -19.3268 -10.4437 -10.4349
-10.3877 -10.3863 -10.3279  -1.2514  -1.1954  -1.1804  -1.1426  -1.1237
 -0.9243  -0.8809  -0.8534  -0.8000  -0.7320  -0.6577  -0.6446  -0.6361
 -0.6024  -0.5966  -0.5795  -0.5543  -0.5501  -0.5387  -0.5287  -0.5252
 -0.4995  -0.4929  -0.4819  -0.4718  -0.4503  -0.4163  -0.4034  -0.3939
 -0.3734  -0.3618  -0.3352  -0.2919
 -- Virtual --
  0.0178   0.0271   0.0416   0.0443   0.0520   0.0621   0.0641   0.0711
  0.0888   0.0997   0.1109   0.1174   0.1242   0.1306   0.1364   0.1411
  0.1526   0.1598   0.1607   0.1663   0.1765   0.1782   0.1810   0.1879
  0.1946   0.2012   0.2051   0.2108   0.2297   0.2327   0.2406   0.2467
  0.2608   0.2718   0.2779   0.2837   0.2895   0.2972   0.2994   0.3029
  0.3074   0.3124   0.3179   0.3276   0.3287   0.3388   0.3433   0.3474
  0.3576   0.3604   0.3687   0.3699   0.3738   0.3768   0.3866   0.3951
  0.3958   0.4038   0.4107   0.4175   0.4189   0.4283   0.4434   0.4554
  0.4737   0.4815   0.4876   0.4991   0.5126   0.5290   0.5616   0.5677
  0.5903   0.6049   0.6125   0.6198   0.6281   0.6325   0.6452   0.6529
  0.6625   0.6752   0.6831   0.6910   0.7031   0.7170   0.7272   0.7363
  0.7427   0.7671   0.7691   0.7798   0.7909   0.8037   0.8288   0.8402
  0.8475   0.8507   0.8760   0.8785   0.9001   0.9302   0.9369   0.9518
  0.9584   0.9795   1.0308   1.0461   1.0518   1.0594   1.0834   1.0890
  1.1034   1.1056   1.1185   1.1311   1.1405   1.1524   1.1720   1.1740
  1.1831   1.1863   1.2073   1.2108   1.2177   1.2269   1.2322   1.2402
  1.2453   1.2535   1.2658   1.2736   1.2895   1.2911   1.3022   1.3142
  1.3285   1.3381   1.3526   1.3594   1.3837   1.3969   1.4181   1.4199
  1.4405   1.4500   1.4650   1.4707   1.4790   1.4968   1.5115   1.5229
  1.5297   1.5443   1.5493   1.5606   1.5779   1.6142   1.6162   1.6264
  1.6381   1.6482   1.6698   1.6834   1.6931   1.7068   1.7311   1.7589
  1.7743   1.7843   1.8071   1.8185   1.8604   1.8946   1.9297   1.9383
  1.9541   1.9998   2.0147   2.0435   2.0698   2.0965   2.1336   2.1772
  2.2178   2.2286   2.2404   2.2460   2.2595   2.3056   2.3380   2.3528
  2.3755   2.3968   2.4201   2.4470   2.4809   2.5189   2.5412   2.5746
  2.6144   2.6574   2.6813   2.7158   2.7565   2.7606   2.7867   2.8007
  2.8279   2.8634   2.8799   2.9006   2.9127   2.9413   2.9551   2.9779
  2.9998   3.0261   3.0281   3.0496   3.0774   3.1074   3.1208   3.1380
  3.1448   3.1869   3.2038   3.2172   3.2436   3.2634   3.2701   3.2898
  3.3145   3.3206   3.3640   3.3703   3.4027   3.4358   3.4500   3.4663
  3.4814   3.4986   3.5211   3.5242   3.5366   3.5516   3.6042   3.6106
  3.6307   3.6424   3.6655   3.7043   3.7273   3.7365   3.7444   3.7605
  3.7810   3.7949   3.8237   3.8281   3.8427   3.8588   3.8645   3.8857
  3.9057   3.9363   3.9442   3.9572   4.0075   4.0251   4.0542   4.0562
  4.1032   4.1579   4.1958   4.2078   4.2269   4.2401   4.2526   4.2640
  4.2890   4.3014   4.3060   4.3420   4.3813   4.3994   4.4238   4.4502
  4.4737   4.4862   4.5090   4.5219   4.5373   4.5859   4.6060   4.6242
  4.6508   4.6805   4.7343   4.7647   4.7818   4.7942   4.8193   4.8850
  4.8965   4.9434   5.0575   5.0902   5.1124   5.1285   5.1854   5.2023
  5.2173   5.2191   5.2264   5.2380   5.2544   5.2556   5.2645   5.2662
  5.2843   5.2918   5.3035   5.3239   5.3285   5.3499   5.3632   5.3651
  5.3936   5.4029   5.4314   5.4515   5.4534   5.4831   5.5274   5.5508
  5.5712   5.5721   5.6078   5.6147   5.6353   5.6504   5.6570   5.6619
  5.7038   5.7114   5.7333   5.7830   5.8088   5.8379   5.8606   5.9120
  6.0077   6.0179   6.0854   6.1337   6.2029   6.2938   6.5234   6.5552
  6.5891   6.6244   6.7421   6.7874   6.8524   6.8857   6.9772   6.9998
  7.0300   7.0775   7.0993   7.1093   7.1520   7.1526   7.1882   7.2319
  7.2507   7.2837   7.3036   7.3133   7.3308   7.3400   7.3699   7.4270
  7.4330   7.4425   7.4832   7.5212   7.5337   7.6272   7.6388   7.6850
  7.7538   7.8163   7.8598   7.8997   7.9222   8.0082   8.0661  24.5349
 24.7892  24.8342  24.9289  25.2024  50.4597  50.5532  50.6079  50.6146
 50.6517  50.7696
 
 Beta MOs
 -- Occupied --
-19.3524 -19.3437 -19.3403 -19.3343 -19.3274 -19.3267 -10.4437 -10.4350
-10.3878 -10.3863 -10.3280  -1.2216  -1.1954  -1.1806  -1.1428  -1.1236
 -0.9228  -0.8609  -0.8322  -0.8001  -0.7319  -0.6576  -0.6444  -0.6360
 -0.6023  -0.5952  -0.5797  -0.5411  -0.5385  -0.5271  -0.5145  -0.4999
 -0.4876  -0.4828  -0.4717  -0.4590  -0.4487  -0.4158  -0.4026  -0.3940
 -0.3735  -0.3560  -0.2729
 -- Virtual --
  0.0168   0.0254   0.0278   0.0419   0.0444   0.0524   0.0626   0.0648
  0.0712   0.0898   0.1003   0.1118   0.1179   0.1247   0.1314   0.1369
  0.1415   0.1532   0.1598   0.1612   0.1669   0.1769   0.1789   0.1815
  0.1887   0.1956   0.2020   0.2060   0.2125   0.2314   0.2338   0.2412
  0.2469   0.2615   0.2731   0.2785   0.2843   0.2907   0.2985   0.3001
  0.3069   0.3119   0.3137   0.3186   0.3284   0.3295   0.3398   0.3443
  0.3506   0.3577   0.3615   0.3696   0.3715   0.3773   0.3804   0.3874
  0.3959   0.3970   0.4041   0.4110   0.4181   0.4201   0.4302   0.4453
  0.4557   0.4744   0.4819   0.4883   0.4993   0.5137   0.5290   0.5616
  0.5678   0.5903   0.6050   0.6127   0.6197   0.6285   0.6326   0.6454
  0.6529   0.6626   0.6755   0.6836   0.6910   0.7031   0.7171   0.7274
  0.7362   0.7431   0.7674   0.7691   0.7801   0.7909   0.8040   0.8293
  0.8404   0.8481   0.8509   0.8761   0.8788   0.9007   0.9316   0.9371
  0.9521   0.9597   0.9798   1.0317   1.0469   1.0528   1.0608   1.0840
  1.0899   1.1044   1.1074   1.1194   1.1385   1.1449   1.1585   1.1739
  1.1749   1.1847   1.1891   1.2101   1.2173   1.2194   1.2304   1.2377
  1.2448   1.2553   1.2592   1.2673   1.2776   1.2910   1.2948   1.3031
  1.3163   1.3315   1.3408   1.3544   1.3629   1.3876   1.3983   1.4203
  1.4221   1.4427   1.4518   1.4650   1.4807   1.4826   1.4996   1.5125
  1.5269   1.5314   1.5460   1.5507   1.5618   1.5801   1.6177   1.6183
  1.6284   1.6385   1.6602   1.6784   1.6927   1.7046   1.7096   1.7350
  1.7652   1.7795   1.7854   1.8164   1.8234   1.8617   1.9039   1.9333
  1.9394   1.9546   2.0004   2.0199   2.0441   2.0737   2.1026   2.1339
  2.1776   2.2211   2.2295   2.2430   2.2496   2.2691   2.3086   2.3525
  2.3619   2.3792   2.3996   2.4206   2.4488   2.4809   2.5189   2.5411
  2.5746   2.6142   2.6579   2.6812   2.7227   2.7571   2.7613   2.7864
  2.8016   2.8278   2.8632   2.8801   2.9001   2.9122   2.9407   2.9549
  2.9776   2.9994   3.0257   3.0277   3.0495   3.0770   3.1072   3.1209
  3.1379   3.1446   3.1865   3.2035   3.2171   3.2433   3.2633   3.2698
  3.2896   3.3144   3.3203   3.3641   3.3700   3.4026   3.4355   3.4497
  3.4659   3.4812   3.4984   3.5209   3.5239   3.5364   3.5513   3.6041
  3.6107   3.6304   3.6422   3.6653   3.7041   3.7272   3.7364   3.7442
  3.7602   3.7809   3.7948   3.8237   3.8278   3.8426   3.8586   3.8642
  3.8856   3.9056   3.9362   3.9442   3.9570   4.0073   4.0248   4.0540
  4.0560   4.1031   4.1578   4.1958   4.2076   4.2269   4.2400   4.2524
  4.2639   4.2890   4.3011   4.3059   4.3421   4.3812   4.3992   4.4236
  4.4505   4.4740   4.4861   4.5092   4.5219   4.5375   4.5871   4.6100
  4.6461   4.6613   4.6888   4.7349   4.7715   4.8023   4.8036   4.8355
  4.8863   4.9081   4.9439   5.0582   5.1321   5.1516   5.1969   5.2028
  5.2094   5.2175   5.2254   5.2439   5.2578   5.2699   5.2832   5.2863
  5.2933   5.2963   5.3034   5.3185   5.3241   5.3298   5.3543   5.3709
  5.3849   5.3967   5.4113   5.4351   5.4527   5.4549   5.4844   5.5278
  5.5514   5.5714   5.5721   5.6077   5.6148   5.6366   5.6564   5.6792
  5.6823   5.7109   5.7127   5.7336   5.7828   5.8087   5.8378   5.8607
  5.9119   6.0075   6.0178   6.0854   6.1336   6.2030   6.2933   6.5644
  6.5713   6.5935   6.6248   6.7430   6.7876   6.9218   6.9551   6.9974
  7.0428   7.0764   7.0995   7.1069   7.1335   7.1536   7.1876   7.2003
  7.2450   7.2674   7.2838   7.3039   7.3133   7.3317   7.3423   7.3702
  7.4286   7.4416   7.4830   7.4851   7.5234   7.5472   7.6272   7.6391
  7.6849   7.7539   7.8164   7.8597   7.9000   7.9225   8.0242   8.0865
 24.5349  24.7891  24.8342  24.9289  25.2022  50.4710  50.5644  50.6080
 50.6147  50.6520  50.7694
 --------------------------------------------------------------
 
          Ground-State Mulliken Net Atomic Charges

     Atom                 Charge (a.u.)    Spin (a.u.)
  --------------------------------------------------------
      1 O                    -0.460483      -0.000065
      2 C                    -0.536978       0.000307
      3 C                     0.449605      -0.005351
      4 O                    -0.577337      -0.006956
      5 C                    -0.144996      -0.006523
      6 C                    -0.202423      -0.001616
      7 C                    -0.365962      -0.007330
      8 O                    -0.399493      -0.001035
      9 O                    -0.486632       0.002769
     10 H                     0.347405       0.000063
     11 H                     0.212450      -0.000258
     12 H                     0.208842      -0.000469
     13 H                     0.289101       0.000696
     14 H                     0.344072      -0.000754
     15 H                     0.264823      -0.000680
     16 H                     0.332838       0.000124
     17 H                     0.397688      -0.000242
     18 O                    -0.252292       0.493294
     19 O                    -0.420227       0.534027
  --------------------------------------------------------
  Sum of atomic charges =    -1.000000
  Sum of spin   charges =     1.000000

 -----------------------------------------------------------------
                    Cartesian Multipole Moments
 -----------------------------------------------------------------
    Charge (ESU x 10^10)
                -4.8032
    Dipole Moment (Debye)
         X     -23.5407      Y      -7.1070      Z     -17.2308
       Tot      30.0262
    Quadrupole Moments (Debye-Ang)
        XX    -215.3688     XY     -40.8064     YY     -92.1994
        XZ     -91.8373     YZ     -31.3392     ZZ    -125.6201
    Octopole Moments (Debye-Ang^2)
       XXX   -1754.9674    XXY    -333.1800    XYY    -354.8443
       YYY    -391.1883    XXZ    -665.1052    XYZ    -145.6938
       YYZ    -203.2643    XZZ    -556.7536    YZZ    -208.6595
       ZZZ    -572.4892
    Hexadecapole Moments (Debye-Ang^3)
      XXXX  -13851.4050   XXXY   -2792.9374   XXYY   -1924.0788
      XYYY   -1695.2417   YYYY   -2135.5099   XXXZ   -5126.0567
      XXYZ   -1053.4569   XYYZ    -869.6765   YYYZ   -1033.9052
      XXZZ   -3277.3207   XYZZ    -935.4149   YYZZ    -880.9753
      XZZZ   -2667.5532   YZZZ   -1137.4451   ZZZZ   -2739.4105
 -----------------------------------------------------------------
 Calculating analytic gradient of the SCF energy
 Gradient of CDS energy
            1           2           3           4           5           6
    1   0.0009084  -0.0013145  -0.0010105   0.0008513   0.0002248   0.0000782
    2   0.0003493  -0.0010713   0.0003347  -0.0002994  -0.0000224   0.0000777
    3  -0.0002049  -0.0005871   0.0014593  -0.0011030  -0.0001493  -0.0000059
            7           8           9          10          11          12
    1  -0.0021832   0.0001475   0.0022672  -0.0003897   0.0001130   0.0002143
    2  -0.0012838  -0.0002926   0.0019439  -0.0001077   0.0002138   0.0000283
    3   0.0029108   0.0001390  -0.0027427   0.0001574  -0.0000051   0.0001136
           13          14          15          16          17          18
    1   0.0000739   0.0001976   0.0001890  -0.0002812  -0.0001512   0.0000558
    2  -0.0000469  -0.0000095  -0.0000790   0.0003579  -0.0001071   0.0000384
    3  -0.0001289  -0.0000045   0.0000426  -0.0001979   0.0002377   0.0000613
           19
    1   0.0000093
    2  -0.0000243
    3   0.0000077
 Gradient of SCF Energy
            1           2           3           4           5           6
    1  -0.0167976   0.0250572   0.0272570  -0.0020768  -0.0279468   0.0619406
    2   0.0004088  -0.0023090   0.0046263  -0.0041739  -0.0019485  -0.0097945
    3   0.0152646  -0.0145370  -0.0041627   0.0046759  -0.0183643  -0.0184949
            7           8           9          10          11          12
    1   0.0203877  -0.0112965  -0.0222778   0.0065083   0.0003109  -0.0105144
    2   0.0328741   0.0049842  -0.0254557  -0.0064688  -0.0056084   0.0135844
    3   0.0150112  -0.0055066   0.0017221  -0.0164772   0.0127724   0.0018104
           13          14          15          16          17          18
    1  -0.0115962  -0.0398140  -0.0298143   0.0099369   0.0201890  -0.0097247
    2   0.0079563  -0.0136264  -0.0135534   0.0022393   0.0194154  -0.0081948
    3   0.0170546   0.0115630  -0.0222342   0.0061851   0.0053738   0.0045974
           19
    1   0.0102714
    2   0.0050447
    3   0.0037464
 Max gradient component =       6.194E-02
 RMS gradient           =       1.713E-02
 Computing fast CPCM-SWIG gradient
 Updating gradient with PCM contributions...
 -- total gradient after adding PCM contribution --
---------------------------------------------------
  Atom         X              Y              Z     
---------------------------------------------------
   1      -0.000452      -0.000107       0.000139
   2       0.000506       0.000116       0.000148
   3       0.010834       0.000553      -0.008172
   4      -0.005962       0.001220       0.007209
   5      -0.015408      -0.016952      -0.013055
   6       0.021797       0.021860       0.008376
   7      -0.003549      -0.001921      -0.004643
   8       0.001021      -0.000005       0.001168
   9      -0.000293       0.000094       0.001139
  10      -0.000132      -0.000042       0.000022
  11       0.000301       0.000280       0.000431
  12       0.000067       0.000389       0.000161
  13      -0.000504       0.001192       0.002337
  14      -0.009769      -0.004362       0.003653
  15       0.000963      -0.000383       0.000013
  16       0.000004      -0.000657      -0.000163
  17       0.000321       0.000352       0.000396
  18       0.002605      -0.000640       0.001792
  19      -0.002350      -0.000987      -0.000953
---------------------------------------------------
 Number of fixed atoms: 0
 Gradient time:  CPU 341.17 s  wall 28.57 s
rPathMan2.  file_steps = 951
 IRC --- Status = 3.  Assess initial corrector step
 IRC --- bisector search: b =  0.000000 E =     -646.711321 G.B =  -0.001137
 IRC --- bisector search: b =  0.052701 E =     -646.710227 G.B =   0.041721
 IRC --- performed gradient/energy interpolation
 IRC --- bisector search:  estimate b(min) =   1.367970303135925E-003
 ----------------------------------------------------------------
             Standard Nuclear Orientation (Angstroms)
    I     Atom           X                Y                Z
 ----------------------------------------------------------------
    1      O       0.9839832099    -0.7317431103     0.2412646704
    2      C       2.2770758242    -0.2506986192    -0.0634818668
    3      C       2.7727001527     0.6973370180     1.0050150366
    4      O       2.0114210453     0.9103286067     1.9652643469
    5      C       4.0689533259     1.2646043491     0.7929453962
    6      C       4.7364969689     2.1532413975     1.5806961849
    7      C       4.2107830692     2.9887965346     2.7264136358
    8      O       3.5007852254     4.0860450000     2.1676650725
    9      O       3.4465082128     2.3017983782     3.6779615756
   10      H       0.7487299541    -0.3205532706     1.0886731947
   11      H       2.2730187111     0.2777776048    -1.0200399660
   12      H       2.9844482265    -1.0795819168    -0.1481264169
   13      H       4.5737339294     0.9192677986    -0.1007142608
   14      H       5.6610074943     2.5520069361     1.1833856292
   15      H       5.0485907545     3.4296091771     3.2582115088
   16      H       2.8404563586     3.7371993245     1.5552241032
   17      H       2.7990017340     1.7531064520     3.1840511472
   18      O       6.0446444993     1.0542618318     2.9054985270
   19      O       7.1060709479     1.7656493335     3.1849899525
 ----------------------------------------------------------------
 Nuclear Repulsion Energy =         642.00399011 hartrees
 There are       44 alpha and       43 beta electrons
 Discretize the solute cavity surface with Lebedev spheres
	Using 110 Lebedev grid points for each H atom
	Using 194 Lebedev grid points for other atoms
	Atomic van der Waals radii will be scaled by 1.20
 Remove points where switching function is < 1.0e-08
 Keep 1547 surface tesserae and discard 1467 interior tesserae
 Molecular Surface Area = 175.637 Angst**2
 Applying Cartesian multipole field
    Component          Value
    ---------          -----
     (2,0,0)        1.00000E-12
     (0,2,0)        2.00000E-11
     (0,0,2)       -3.00000E-11
 Nucleus-field energy     =    -0.0000000148 hartrees
 Requested basis set is 6-311++G(2df,2p)
 There are 136 shells and 454 basis functions
 A cutoff of  1.0D-12 yielded   7874 shell pairs
 There are     86442 function pairs (    107560 Cartesian)
 Smallest overlap matrix eigenvalue = 2.85E-06
 Guess MOs from SCF MO coefficient file

 -----------------------------------------------------------------------
  General SCF calculation program by
  Eric Jon Sundstrom, Paul Horn, Yuezhi Mao, Dmitri Zuev, Alec White,
  David Stuck, Shaama M.S., Shane Yost, Joonho Lee, David Small,
  Daniel Levine, Susi Lehtola, Hugh Burton, Evgeny Epifanovsky,
  Bang C. Huynh
 -----------------------------------------------------------------------
 Exchange:     0.1500 Hartree-Fock + 1.0000 wB97M-V + LR-HF
 Correlation:  1.0000 wB97M-V
 Using SG-2 standard quadrature grid
 Nonlocal Correlation:  VV10 with C = 0.0100 and b = 6.00 and scale = 1.00000
 Grid used for NLC:  SG-1 standard quadrature
 
 Citation of the SMD model:
 Marenich, A.V.; Cramer, C.J.; Truhlar, D.G.
 J. Phys. Chem. B 2009, 113, 6378-6396.
 iSolventCode=           1
 Solvent: water                                                           
 
 vradii
            1           2           3           4           5           6
    1   1.5200000   1.8500000   1.8500000   1.5200000   1.8500000   1.8500000
            7           8           9          10          11          12
    1   1.8500000   1.5200000   1.5200000   1.2000000   1.2000000   1.2000000
           13          14          15          16          17          18
    1   1.2000000   1.2000000   1.2000000   1.2000000   1.2000000   1.5200000
           19
    1   1.5200000
 -------------------------------------------------------
 OpenMP BLAS3 based DFT computing Module                
 Release: version 1.0, May 2013, Q-Chem Inc. Pittsburgh 
 -------------------------------------------------------
 A unrestricted SCF calculation will be
 performed using Roothaan-Hall, DIIS, GDM
 SCF converges when RMS gradient is below 1.0e-07
 ---------------------------------------
  Cycle       Energy         DIIS error
 ---------------------------------------
    1    -646.5962534978      2.42e-04  Roothaan Step
 ---------------------------------------
  Cycle       Energy         DIIS error
 ---------------------------------------
    1    -646.7020143028      2.74e-04  
    2    -646.7102656491      2.76e-04  Done DIIS. Switching to GDM
 ---------------------------------------
  Cycle       Energy        RMS Gradient
 ---------------------------------------
    1    -646.7102656491      1.67e-02   Normal BFGS step
    2    -646.7095878520      3.82e-02  Line search: overstep
    3    -646.7157269325      1.08e-02   Normal BFGS step
    4    -646.7162117194      6.99e-03   Normal BFGS step
    5    -646.7164944544      2.20e-03   Normal BFGS step
