
Running Job 1 of 2 Q_in.in
qchem Q_in.in_132161.0 /scratch/ari.fischer/qChem2233027.hpc-mn1/qchem132161/ 0
/usr/local/qchem-5.4.1/exe/qcprog.exe_s Q_in.in_132161.0 /scratch/ari.fischer/qChem2233027.hpc-mn1/qchem132161/
                  Welcome to Q-Chem
     A Quantum Leap Into The Future Of Chemistry


 Q-Chem 5.4, Q-Chem, Inc., Pleasanton, CA (2021)

 License issued to: Nanyang Technological University (site)

 E. Epifanovsky,  A. T. B. Gilbert,  Xintian Feng,  Joonho Lee,  Yuezhi Mao,  
 N. Mardirossian,  P. Pokhilko,  A. White,  M. Wormit,  M. P. Coons,  
 A. L. Dempwolff,  Zhengting Gan,  D. Hait,  P. R. Horn,  L. D. Jacobson,  
 I. Kaliman,  J. Kussmann,  A. W. Lange,  Ka Un Lao,  D. S. Levine,  Jie Liu,  
 S. C. McKenzie,  A. F. Morrison,  K. Nanda,  F. Plasser,  D. R. Rehn,  
 M. L. Vidal,  Zhi-Qiang You,  Ying Zhu,  B. Alam,  B. Albrecht,  
 A. Aldossary,  E. Alguire,  J. H. Andersen,  D. Barton,  K. Begam,  A. Behn,  
 Y. A. Bernard,  E. J. Berquist,  H. Burton,  A. Carreras,  K. Carter-Fenk,  
 R. Chakraborty,  A. D. Chien,  K. D. Closser,  V. Cofer-Shabica,  
 S. Dasgupta,  Jia Deng,  M. de Wergifosse,  M. Diedenhofen,  Hainam Do,  
 S. Ehlert,  Po-Tung Fang,  S. Fatehi,  Qingguo Feng,  T. Friedhoff,  
 J. Gayvert,  Qinghui Ge,  G. Gidofalvi,  M. Goldey,  J. Gomes,  
 C. Gonzalez-Espinoza,  S. Gulania,  A. Gunina,  M. W. D. Hanson-Heine,  
 P. H. P. Harbach,  A. W. Hauser,  M. F. Herbst,  M. Hernandez Vera,  
 M. Hodecker,  Z. C. Holden,  S. Houck,  Xunkun Huang,  Kerwin Hui,  
 B. C. Huynh,  M. Ivanov,  Hyunjun Ji,  Hanjie Jiang,  B. Kaduk,  S. Kaehler,  
 K. Khistyaev,  Jaehoon Kim,  P. Klunzinger,  Z. Koczor-Benda,  
 Joong Hoon Koh,  D. Kosenkov,  L. Koulias,  T. Kowalczyk,  C. M. Krauter,  
 K. Kue,  A. Kunitsa,  T. Kus,  A. Landau,  K. V. Lawler,  D. Lefrancois,  
 S. Lehtola,  Rain Li,  Yi-Pei Li,  Jiashu Liang,  M. Liebenthal,  
 Hung-Hsuan Lin,  You-Sheng Lin,  Fenglai Liu,  Kuan-Yu Liu,  
 M. Loipersberger,  A. Luenser,  A. Manjanath,  P. Manohar,  E. Mansoor,  
 S. F. Manzer,  Shan-Ping Mao,  A. V. Marenich,  T. Markovich,  S. Mason,  
 S. A. Maurer,  P. F. McLaughlin,  M. F. S. J. Menger,  J.-M. Mewes,  
 S. A. Mewes,  P. Morgante,  J. W. Mullinax,  K. J. Oosterbaan,  G. Paran,  
 Alexander C. Paul,  Suranjan K. Paul,  F. Pavosevic,  Zheng Pei,  S. Prager,  
 E. I. Proynov,  E. Ramos,  B. Rana,  A. E. Rask,  A. Rettig,  R. M. Richard,  
 F. Rob,  E. Rossomme,  T. Scheele,  M. Scheurer,  M. Schneider,  
 N. Sergueev,  S. M. Sharada,  W. Skomorowski,  D. W. Small,  C. J. Stein,  
 Yu-Chuan Su,  E. J. Sundstrom,  Zhen Tao,  J. Thirman,  T. Tsuchimochi,  
 N. M. Tubman,  S. P. Veccham,  O. Vydrov,  J. Wenzel,  J. Witte,  A. Yamada,  
 Kun Yao,  S. Yeganeh,  S. R. Yost,  A. Zech,  Igor Ying Zhang,  Xing Zhang,  
 Yu Zhang,  D. Zuev,  A. Aspuru-Guzik,  A. T. Bell,  N. A. Besley,  
 K. B. Bravaya,  B. R. Brooks,  D. Casanova,  Jeng-Da Chai,  S. Coriani,  
 C. J. Cramer,  A. E. DePrince, III,  R. A. DiStasio Jr.,  A. Dreuw,  
 B. D. Dunietz,  T. R. Furlani,  W. A. Goddard III,  S. Grimme,  
 S. Hammes-Schiffer,  T. Head-Gordon,  W. J. Hehre,  Chao-Ping Hsu,  
 T.-C. Jagau,  Yousung Jung,  A. Klamt,  Jing Kong,  D. S. Lambrecht,  
 WanZhen Liang,  N. J. Mayhall,  C. W. McCurdy,  J. B. Neaton,  
 C. Ochsenfeld,  J. A. Parkhill,  R. Peverati,  V. A. Rassolov,  Yihan Shao,  
 L. V. Slipchenko,  T. Stauch,  R. P. Steele,  J. E. Subotnik,  
 A. J. W. Thom,  A. Tkatchenko,  D. G. Truhlar,  T. Van Voorhis,  
 T. A. Wesolowski,  K. B. Whaley,  H. L. Woodcock III,  P. M. Zimmerman,  
 S. Faraji,  P. M. W. Gill,  M. Head-Gordon,  J. M. Herbert,  A. I. Krylov

 Additional authors for Version 5.4.1: 
 S. Kotaru,  Shaozhi Li,  Xiangyuan Li,  F. Matz,  A. Molle,  Haisheng Ren,  
 Yingli Su,  Hung-Yi Tsai,  C. Utku,  Fang Wang

 Contributors to earlier versions of Q-Chem not listed above: 
 R. D. Adamson,  B. Austin,  R. Baer,  J. Baker,  G. J. O. Beran,  
 K. Brandhorst,  S. T. Brown,  E. F. C. Byrd,  A. K. Chakraborty,  
 G. K. L. Chan,  Chun-Min Chang,  Yunqing Chen,  C.-L. Cheng,  
 Siu Hung Chien,  D. M. Chipman,  D. L. Crittenden,  H. Dachsel,  
 R. J. Doerksen,  A. D. Dutoi,  R. G. Edgar,  J. Fosso-Tande,  
 L. Fusti-Molnar,  D. Ghosh,  A. Ghysels,  A. Golubeva-Zadorozhnaya,  
 J. Gonthier,  M. S. Gordon,  S. R. Gwaltney,  G. Hawkins,  J. E. Herr,  
 A. Heyden,  S. Hirata,  E. G. Hohenstein,  G. Kedziora,  F. J. Keil,  
 C. Kelley,  Jihan Kim,  R. A. King,  R. Z. Khaliullin,  P. P. Korambath,  
 W. Kurlancheek,  A. Laurent,  A. M. Lee,  M. S. Lee,  S. V. Levchenko,  
 Ching Yeh Lin,  D. Liotard,  E. Livshits,  R. C. Lochan,  I. Lotan,  
 L. A. Martinez-Martinez,  P. E. Maslen,  N. Nair,  D. P. O'Neill,  
 D. Neuhauser,  E. Neuscamman,  C. M. Oana,  R. Olivares-Amaya,  R. Olson,  
 T. M. Perrine,  B. Peters,  P. A. Pieniazek,  A. Prociuk,  Y. M. Rhee,  
 J. Ritchie,  M. A. Rohrdanz,  E. Rosta,  N. J. Russ,  H. F. Schaefer III,  
 M. W. Schmidt,  N. E. Schultz,  S. Sharma,  N. Shenvi,  C. D. Sherrill,  
 A. C. Simmonett,  A. Sodt,  T. Stein,  D. Stuck,  K. S. Thanthiriwatte,  
 V. Vanovschi,  L. Vogt,  Tao Wang,  A. Warshel,  M. A. Watson,  
 C. F. Williams,  Q. Wu,  X. Xu,  Jun Yang,  W. Zhang,  Yan Zhao

 Please cite Q-Chem as follows:
 Y. Shao et al., Mol. Phys. 113, 184-215 (2015)
 DOI: 10.1080/00268976.2014.952696

 Q-Chem 5.4.1 for Intel X86 EM64T Linux

 Parts of Q-Chem use Armadillo 9.800.1 (Horizon Scraper).
 http://arma.sourceforge.net/

 Q-Chem begins on Thu Jul 11 20:37:09 2024  

 Host: 
0

     Scratch files written to /scratch/ari.fischer/qChem2233027.hpc-mn1/qchem132161//
 Aug1521 |scratch|qcdevops|jenkins|workspace|build_RNUM 8249   
 Processing $rem in /usr/local/qchem-5.4.1/config/preferences:
 Processing $rem in /home/ari.fischer/.qchemrc:
 Symmetry turned off for PCM/SM12/SMD calculation


!!********************************************.
!!******************Warning*******************.
!!Desired Analytical derivatives not available.
!!Finite difference job might take a long time.
!!********************************************.
!!********************************************.


 2-order derivative to be evaluated numerically with 1-order analytical derivatives

 Checking the input file for inconsistencies... 	...done.

--------------------------------------------------------------
User input:
--------------------------------------------------------------
$molecule
-1 2
O    0.9284835   -0.0596840   -0.1810432
C    2.3131923   -0.2921501    0.0621416
C    2.8637295    0.7711458    0.9956252
O    2.0083076    1.1789315    1.8919044
C    4.1461527    1.1891703    0.8301372
C    4.8916443    2.1547543    1.6697488
C    4.1453429    2.9311835    2.7597746
O    3.1419828    3.7283505    2.1701730
O    3.6238834    2.0919120    3.7599018
H    0.6195941    0.3948848    0.6184631
H    2.8371004   -0.2988504   -0.8908679
H    2.4466469   -1.2698377    0.5377012
H    4.6919050    0.7971135   -0.0187298
H    5.4495998    2.8711160    1.0676099
H    4.8474289    3.6065048    3.2436745
H    2.4735273    3.0974835    1.8460026
H    2.9366337    1.5606830    3.2917459
O    6.3606550    1.1506096    2.5905323
O    7.3625994    1.9051320    2.9404022
$end

$rem
BASIS = 6-311++G(2df,2p)
GUI = 2
JOB_TYPE = Frequency
METHOD = wB97M-V
SCF_ALGORITHM = DIIS_GDM
MAX_SCF_CYCLES = 400
SCF_CONVERGENCE = 6
THRESH = 11
solvent_method = SMD
$end

--------------------------------------------------------------
 ----------------------------------------------------------------
             Standard Nuclear Orientation (Angstroms)
    I     Atom           X                Y                Z
 ----------------------------------------------------------------
    1      O       0.9284835000    -0.0596840000    -0.1810432000
    2      C       2.3131923000    -0.2921501000     0.0621416000
    3      C       2.8637295000     0.7711458000     0.9956252000
    4      O       2.0083076000     1.1789315000     1.8919044000
    5      C       4.1461527000     1.1891703000     0.8301372000
    6      C       4.8916443000     2.1547543000     1.6697488000
    7      C       4.1453429000     2.9311835000     2.7597746000
    8      O       3.1419828000     3.7283505000     2.1701730000
    9      O       3.6238834000     2.0919120000     3.7599018000
   10      H       0.6195941000     0.3948848000     0.6184631000
   11      H       2.8371004000    -0.2988504000    -0.8908679000
   12      H       2.4466469000    -1.2698377000     0.5377012000
   13      H       4.6919050000     0.7971135000    -0.0187298000
   14      H       5.4495998000     2.8711160000     1.0676099000
   15      H       4.8474289000     3.6065048000     3.2436745000
   16      H       2.4735273000     3.0974835000     1.8460026000
   17      H       2.9366337000     1.5606830000     3.2917459000
   18      O       6.3606550000     1.1506096000     2.5905323000
   19      O       7.3625994000     1.9051320000     2.9404022000
 ----------------------------------------------------------------
 Nuclear Repulsion Energy =         645.35996136 hartrees
 There are       44 alpha and       43 beta electrons
 Requested basis set is 6-311++G(2df,2p)
 There are 136 shells and 454 basis functions

 Total QAlloc Memory Limit 288000 MB
 Mega-Array Size       188 MB
 MEM_STATIC part       192 MB
 
 Citation of the SMD model:
 Marenich, A.V.; Cramer, C.J.; Truhlar, D.G.
 J. Phys. Chem. B 2009, 113, 6378-6396.
 iSolventCode=           1
 Solvent: water                                                           
 
 vradii
            1           2           3           4           5           6
    1   1.5200000   1.8500000   1.8500000   1.5200000   1.8500000   1.8500000
            7           8           9          10          11          12
    1   1.8500000   1.5200000   1.5200000   1.2000000   1.2000000   1.2000000
           13          14          15          16          17          18
    1   1.2000000   1.2000000   1.2000000   1.2000000   1.2000000   1.5200000
           19
    1   1.5200000
 Changing PCM_VDW_RADII to SMD_RADIUS
 Discretize the solute cavity surface with Lebedev spheres
	Using 110 Lebedev grid points for each H atom
	Using 194 Lebedev grid points for other atoms
	Atomic van der Waals radii will be scaled by 1.20
 Remove points where switching function is < 1.0e-08
 Keep 1498 surface tesserae and discard 1516 interior tesserae
 Molecular Surface Area = 172.304 Angst**2
 A cutoff of  1.0D-11 yielded   7782 shell pairs
 There are     85199 function pairs (    105889 Cartesian)
 Smallest overlap matrix eigenvalue = 3.70E-06
 Guess from superposition of atomic densities
 Warning:  Energy on first SCF cycle will be non-variational
 SAD guess density has 86.000000 electrons

 -----------------------------------------------------------------------
  General SCF calculation program by
  Eric Jon Sundstrom, Paul Horn, Yuezhi Mao, Dmitri Zuev, Alec White,
  David Stuck, Shaama M.S., Shane Yost, Joonho Lee, David Small,
  Daniel Levine, Susi Lehtola, Hugh Burton, Evgeny Epifanovsky,
  Bang C. Huynh
 -----------------------------------------------------------------------
 Exchange:     0.1500 Hartree-Fock + 1.0000 wB97M-V + LR-HF
 Correlation:  1.0000 wB97M-V
 Using SG-2 standard quadrature grid
 Nonlocal Correlation:  VV10 with C = 0.0100 and b = 6.00 and scale = 1.00000
 Grid used for NLC:  SG-1 standard quadrature
 using 16 threads for integral computing
 -------------------------------------------------------
 OpenMP Integral computing Module                
 Release: version 1.0, May 2013, Q-Chem Inc. Pittsburgh 
 -------------------------------------------------------
 
 Citation of the SMD model:
 Marenich, A.V.; Cramer, C.J.; Truhlar, D.G.
 J. Phys. Chem. B 2009, 113, 6378-6396.
 iSolventCode=           1
 Solvent: water                                                           
 
 vradii
            1           2           3           4           5           6
    1   1.5200000   1.8500000   1.8500000   1.5200000   1.8500000   1.8500000
            7           8           9          10          11          12
    1   1.8500000   1.5200000   1.5200000   1.2000000   1.2000000   1.2000000
           13          14          15          16          17          18
    1   1.2000000   1.2000000   1.2000000   1.2000000   1.2000000   1.5200000
           19
    1   1.5200000
 -------------------------------------------------------
 OpenMP BLAS3 based DFT computing Module                
 Release: version 1.0, May 2013, Q-Chem Inc. Pittsburgh 
 -------------------------------------------------------
 A unrestricted SCF calculation will be
 performed using DIIS, GDM
 SCF converges when RMS gradient is below 1.0e-06
 ---------------------------------------
  Cycle       Energy         DIIS error
 ---------------------------------------
    1    -648.3790422010      1.12e-02  
    2    -646.4886223604      1.57e-03  Done DIIS. Switching to GDM
 ---------------------------------------
  Cycle       Energy        RMS Gradient
 ---------------------------------------
    1    -646.4886223604      8.07e-02   Descent step
    2    -646.6630756216      1.90e-02   Normal BFGS step
    3    -646.6902882001      3.85e-02   Normal BFGS step
    4    -646.6924951489      2.82e-02   Normal BFGS step
    5    -646.6949916077      4.91e-03   Normal BFGS step
    6    -646.6951307267      3.88e-03   Normal BFGS step
    7    -646.6952299111      2.39e-03   Normal BFGS step
    8    -646.6952612030      1.32e-03   Normal BFGS step
    9    -646.6952798499      1.30e-03   Normal BFGS step
   10    -646.6952907997      8.66e-04   Normal BFGS step
   11    -646.6952958466      6.35e-04   Normal BFGS step
   12    -646.6952988548      5.09e-04   Normal BFGS step
   13    -646.6953004751      5.08e-04   Normal BFGS step
   14    -646.6953015944      4.65e-04   Normal BFGS step
   15    -646.6953023437      2.33e-04   Normal BFGS step
   16    -646.6953027724      1.80e-04   Normal BFGS step
   17    -646.6953029406      8.52e-05   Normal BFGS step
   18    -646.6953029857      5.38e-05   Normal BFGS step
   19    -646.6953029997      2.48e-05   Normal BFGS step
   20    -646.6953030038      1.25e-05   Normal BFGS step
   21    -646.6953030051      3.40e-06   Normal BFGS step
   22    -646.6953030051      1.53e-06   Normal BFGS step
   23    -646.6953030051      6.85e-07  Convergence criterion met
 ---------------------------------------
 SCF time:   CPU 3020.84s  wall 209.00s 
<S^2> =          0.763766993
(3)  G-ENP(liq) elect-nuc-pol free energy of system     -646.695303005 a.u.
(4)  G-CDS(liq) cavity-dispersion-solvent structure 
     free energy                                                2.9726 kcal/mol
(6)  G-S(liq) free energy of system                     -646.690565907 a.u.
 SCF   energy in the final basis set =     -646.6905659067
 Total energy in the final basis set =     -646.6905659067
 
 --------------------------------------------------------------
 
                    Orbital Energies (a.u.)
 --------------------------------------------------------------
 
 Alpha MOs
 -- Occupied --
-19.4166 -19.3850 -19.3426 -19.3308 -19.3282 -19.3003 -10.4467 -10.4112
-10.4109 -10.3806 -10.3222  -1.2838  -1.1986  -1.1598  -1.1238  -1.1153
 -0.9285  -0.8968  -0.8469  -0.7938  -0.7295  -0.6454  -0.6386  -0.6317
 -0.5954  -0.5852  -0.5828  -0.5744  -0.5672  -0.5535  -0.5294  -0.5196
 -0.5010  -0.4932  -0.4779  -0.4653  -0.4382  -0.4136  -0.3988  -0.3875
 -0.3679  -0.3629  -0.3548  -0.3025
 -- Virtual --
  0.0133   0.0279   0.0417   0.0450   0.0524   0.0605   0.0669   0.0766
  0.0828   0.1082   0.1083   0.1139   0.1273   0.1300   0.1392   0.1415
  0.1502   0.1597   0.1618   0.1663   0.1712   0.1852   0.1857   0.1875
  0.1923   0.1965   0.2053   0.2127   0.2196   0.2261   0.2442   0.2566
  0.2617   0.2670   0.2707   0.2779   0.2838   0.2902   0.2963   0.2996
  0.3105   0.3156   0.3192   0.3224   0.3291   0.3370   0.3423   0.3454
  0.3519   0.3577   0.3652   0.3677   0.3740   0.3814   0.3854   0.3887
  0.3934   0.4011   0.4068   0.4196   0.4272   0.4324   0.4407   0.4455
  0.4575   0.4656   0.4980   0.5024   0.5181   0.5302   0.5475   0.5739
  0.5902   0.6057   0.6088   0.6196   0.6269   0.6373   0.6419   0.6561
  0.6634   0.6699   0.6824   0.6946   0.7053   0.7146   0.7258   0.7310
  0.7361   0.7474   0.7572   0.7752   0.7829   0.8057   0.8138   0.8415
  0.8519   0.8731   0.8818   0.9004   0.9065   0.9265   0.9456   0.9558
  0.9884   1.0156   1.0318   1.0408   1.0606   1.0716   1.0818   1.0945
  1.0971   1.1091   1.1243   1.1323   1.1392   1.1510   1.1625   1.1653
  1.1818   1.1878   1.1946   1.2158   1.2208   1.2240   1.2285   1.2381
  1.2528   1.2636   1.2677   1.2731   1.2813   1.2961   1.2998   1.3220
  1.3242   1.3421   1.3580   1.3645   1.3827   1.3983   1.4190   1.4269
  1.4399   1.4427   1.4539   1.4655   1.4800   1.4995   1.5056   1.5124
  1.5248   1.5435   1.5597   1.5619   1.5785   1.5831   1.5972   1.6245
  1.6380   1.6426   1.6472   1.6555   1.6574   1.6798   1.7064   1.7205
  1.7606   1.7733   1.7849   1.8063   1.8528   1.8882   1.9083   1.9391
  1.9699   1.9763   2.0140   2.0354   2.0969   2.1053   2.1645   2.1655
  2.1967   2.2107   2.2365   2.2489   2.2625   2.2985   2.3126   2.3488
  2.3704   2.3980   2.4109   2.4492   2.4940   2.5069   2.5362   2.5416
  2.5795   2.6150   2.6735   2.7027   2.7115   2.7299   2.7813   2.8079
  2.8285   2.8663   2.8878   2.9099   2.9230   2.9381   2.9606   2.9827
  3.0022   3.0135   3.0155   3.0575   3.0773   3.1071   3.1204   3.1660
  3.1778   3.1921   3.2072   3.2249   3.2586   3.2697   3.2847   3.3111
  3.3451   3.3616   3.3798   3.3917   3.4230   3.4451   3.4555   3.4747
  3.4796   3.4891   3.5160   3.5385   3.5584   3.5710   3.5821   3.6127
  3.6360   3.6570   3.6647   3.6837   3.7002   3.7133   3.7341   3.7621
  3.7843   3.7976   3.8032   3.8279   3.8424   3.8763   3.8953   3.9009
  3.9144   3.9244   3.9381   3.9507   3.9872   4.0146   4.0627   4.0829
  4.1435   4.1670   4.1744   4.2048   4.2176   4.2278   4.2414   4.2624
  4.2798   4.2888   4.3040   4.3642   4.3822   4.3918   4.4295   4.4450
  4.4599   4.4749   4.4957   4.5124   4.5391   4.5574   4.5871   4.5989
  4.6335   4.6686   4.7010   4.7384   4.7460   4.7698   4.7889   4.8320
  4.8440   4.8864   5.0366   5.0618   5.0804   5.0961   5.1626   5.1726
  5.2023   5.2278   5.2346   5.2405   5.2416   5.2567   5.2620   5.2760
  5.2800   5.2992   5.3165   5.3307   5.3400   5.3513   5.3653   5.3774
  5.3842   5.3909   5.4018   5.4285   5.4382   5.4776   5.5172   5.5420
  5.5761   5.5983   5.6082   5.6178   5.6221   5.6434   5.6478   5.6591
  5.6664   5.6868   5.7024   5.7504   5.7842   5.7889   5.8403   5.8963
  5.9470   5.9622   6.0072   6.0871   6.1501   6.1762   6.4996   6.5421
  6.5913   6.6041   6.6285   6.7326   6.8115   6.8566   6.9442   7.0000
  7.0153   7.0723   7.0960   7.1145   7.1280   7.1348   7.1894   7.2280
  7.2579   7.2814   7.2967   7.3231   7.3482   7.3634   7.3851   7.4053
  7.4360   7.4493   7.4762   7.5020   7.5514   7.5971   7.6576   7.6876
  7.7476   7.7916   7.8433   7.8783   7.8903   7.9735   8.0300  24.5220
 24.6519  24.7658  24.8159  25.2186  50.4313  50.5156  50.5954  50.6009
 50.6677  50.7508
 
 Beta MOs
 -- Occupied --
-19.4022 -19.3680 -19.3427 -19.3308 -19.3282 -19.3006 -10.4467 -10.4118
-10.4111 -10.3805 -10.3222  -1.2528  -1.1987  -1.1599  -1.1239  -1.1157
 -0.9173  -0.8686  -0.8428  -0.7939  -0.7295  -0.6452  -0.6383  -0.6312
 -0.5951  -0.5826  -0.5727  -0.5581  -0.5405  -0.5293  -0.5190  -0.5005
 -0.4930  -0.4839  -0.4776  -0.4657  -0.4388  -0.4123  -0.3989  -0.3875
 -0.3617  -0.3483  -0.2904
 -- Virtual --
  0.0026   0.0163   0.0281   0.0419   0.0452   0.0528   0.0608   0.0673
  0.0768   0.0835   0.1085   0.1093   0.1141   0.1280   0.1310   0.1391
  0.1421   0.1507   0.1600   0.1621   0.1665   0.1719   0.1858   0.1863
  0.1881   0.1929   0.1971   0.2055   0.2145   0.2205   0.2280   0.2450
  0.2570   0.2623   0.2679   0.2711   0.2813   0.2859   0.2921   0.3016
  0.3032   0.3110   0.3159   0.3204   0.3230   0.3311   0.3381   0.3430
  0.3494   0.3522   0.3579   0.3657   0.3700   0.3744   0.3817   0.3869
  0.3890   0.3950   0.4011   0.4072   0.4199   0.4275   0.4336   0.4418
  0.4463   0.4580   0.4662   0.4981   0.5032   0.5184   0.5303   0.5473
  0.5739   0.5905   0.6055   0.6090   0.6197   0.6270   0.6375   0.6421
  0.6560   0.6636   0.6699   0.6825   0.6943   0.7054   0.7149   0.7258
  0.7309   0.7360   0.7472   0.7572   0.7750   0.7834   0.8053   0.8137
  0.8416   0.8517   0.8733   0.8823   0.9009   0.9064   0.9264   0.9462
  0.9559   0.9883   1.0164   1.0335   1.0432   1.0612   1.0721   1.0839
  1.0952   1.0983   1.1117   1.1301   1.1358   1.1474   1.1547   1.1676
  1.1758   1.1838   1.1934   1.1968   1.2174   1.2229   1.2249   1.2396
  1.2428   1.2543   1.2643   1.2712   1.2778   1.2836   1.2974   1.3038
  1.3232   1.3271   1.3429   1.3591   1.3656   1.3860   1.3998   1.4211
  1.4285   1.4411   1.4442   1.4552   1.4685   1.4863   1.5023   1.5068
  1.5140   1.5304   1.5444   1.5606   1.5629   1.5814   1.5854   1.6041
  1.6285   1.6402   1.6469   1.6498   1.6627   1.6730   1.6890   1.7105
  1.7265   1.7645   1.7775   1.7850   1.8186   1.8593   1.8992   1.9089
  1.9404   1.9716   1.9767   2.0154   2.0358   2.0993   2.1075   2.1649
  2.1660   2.1990   2.2150   2.2449   2.2540   2.2635   2.3009   2.3353
  2.3494   2.3742   2.3988   2.4121   2.4505   2.4938   2.5070   2.5360
  2.5415   2.5795   2.6148   2.6744   2.7046   2.7142   2.7330   2.7819
  2.8071   2.8279   2.8659   2.8871   2.9094   2.9220   2.9374   2.9599
  2.9813   3.0010   3.0126   3.0146   3.0562   3.0762   3.1067   3.1199
  3.1654   3.1767   3.1907   3.2064   3.2243   3.2578   3.2690   3.2842
  3.3104   3.3447   3.3610   3.3792   3.3911   3.4222   3.4448   3.4549
  3.4742   3.4792   3.4882   3.5156   3.5379   3.5577   3.5705   3.5812
  3.6123   3.6355   3.6565   3.6638   3.6830   3.6994   3.7123   3.7330
  3.7616   3.7830   3.7963   3.8025   3.8270   3.8422   3.8755   3.8945
  3.9006   3.9140   3.9236   3.9372   3.9499   3.9869   4.0140   4.0618
  4.0819   4.1431   4.1665   4.1738   4.2040   4.2170   4.2274   4.2408
  4.2617   4.2793   4.2885   4.3036   4.3635   4.3821   4.3915   4.4293
  4.4447   4.4591   4.4764   4.4958   4.5120   4.5428   4.5579   4.5873
  4.6199   4.6441   4.6734   4.7063   4.7397   4.7482   4.7900   4.8100
  4.8325   4.8498   4.8976   5.0370   5.1096   5.1253   5.1671   5.1825
  5.1884   5.2290   5.2466   5.2514   5.2616   5.2663   5.2732   5.2791
  5.2837   5.2901   5.3042   5.3289   5.3367   5.3446   5.3537   5.3664
  5.3801   5.3869   5.3933   5.4131   5.4293   5.4383   5.4793   5.5175
  5.5417   5.5754   5.6020   5.6089   5.6179   5.6248   5.6461   5.6550
  5.6741   5.6877   5.6905   5.7024   5.7508   5.7840   5.7888   5.8403
  5.8959   5.9468   5.9618   6.0071   6.0870   6.1497   6.1756   6.5466
  6.5561   6.5913   6.6059   6.6290   6.7339   6.8860   6.9341   7.0087
  7.0463   7.0665   7.0776   7.0983   7.1150   7.1306   7.1734   7.1911
  7.2282   7.2807   7.2873   7.2994   7.3231   7.3493   7.3634   7.3848
  7.4350   7.4478   7.4602   7.4762   7.5028   7.5670   7.5975   7.6578
  7.6875   7.7476   7.7916   7.8432   7.8784   7.8901   7.9908   8.0514
 24.5216  24.6516  24.7658  24.8158  25.2184  50.4437  50.5272  50.5954
 50.6010  50.6677  50.7506
 --------------------------------------------------------------
 
          Ground-State Mulliken Net Atomic Charges

     Atom                 Charge (a.u.)    Spin (a.u.)
  --------------------------------------------------------
      1 O                    -0.459281      -0.000017
      2 C                    -0.503401      -0.000317
      3 C                     0.140087      -0.013969
      4 O                    -0.660046      -0.009455
      5 C                     0.145322       0.002167
      6 C                    -0.321427      -0.037394
      7 C                    -0.363452      -0.003482
      8 O                    -0.391422      -0.001903
      9 O                    -0.458301       0.001538
     10 H                     0.342472       0.000087
     11 H                     0.201567      -0.000184
     12 H                     0.190429      -0.001220
     13 H                     0.276154      -0.001218
     14 H                     0.317953       0.001167
     15 H                     0.257863      -0.000884
     16 H                     0.345041      -0.000185
     17 H                     0.378013      -0.000109
     18 O                    -0.149763       0.466270
     19 O                    -0.287808       0.599109
  --------------------------------------------------------
  Sum of atomic charges =    -1.000000
  Sum of spin   charges =     1.000000

 -----------------------------------------------------------------
                    Cartesian Multipole Moments
 -----------------------------------------------------------------
    Charge (ESU x 10^10)
                -4.8032
    Dipole Moment (Debye)
         X     -19.9442      Y      -7.9787      Z     -13.1064
       Tot      25.1637
    Quadrupole Moments (Debye-Ang)
        XX    -187.1066     XY     -34.6602     YY     -87.8546
        XZ     -69.2548     YZ     -25.2133     ZZ    -113.5118
    Octopole Moments (Debye-Ang^2)
       XXX   -1586.5293    XXY    -285.5477    XYY    -324.7378
       YYY    -379.4364    XXZ    -527.2679    XYZ    -110.7430
       YYZ    -175.8589    XZZ    -476.1759    YZZ    -187.0552
       ZZZ    -512.6022
    Hexadecapole Moments (Debye-Ang^3)
      XXXX  -13077.7678   XXXY   -2522.7734   XXYY   -1759.5576
      XYYY   -1529.8275   YYYY   -1871.1212   XXXZ   -4283.6460
      XXYZ    -855.5633   XYYZ    -741.0198   YYYZ    -916.4832
      XXZZ   -2780.7352   XYZZ    -806.8738   YYZZ    -760.9357
      XZZZ   -2335.0046   YZZZ   -1036.1404   ZZZZ   -2485.2906
 -----------------------------------------------------------------
 Calculating analytic gradient of the SCF energy
 Gradient of CDS energy
            1           2           3           4           5           6
    1   0.0001178  -0.0002029  -0.0014157   0.0012946   0.0001788   0.0001764
    2   0.0000551  -0.0008275   0.0007162  -0.0006207  -0.0000193   0.0000171
    3   0.0000131  -0.0007435   0.0016423  -0.0012989  -0.0001706   0.0000787
            7           8           9          10          11          12
    1  -0.0023242   0.0013112   0.0011915  -0.0004559   0.0001287  -0.0000047
    2  -0.0002637  -0.0010820   0.0017393   0.0000670   0.0001593  -0.0000317
    3   0.0017336   0.0007097  -0.0021863   0.0000434  -0.0000321   0.0001890
           13          14          15          16          17          18
    1   0.0000454   0.0001284   0.0001941  -0.0003092  -0.0001493   0.0000632
    2  -0.0000666   0.0001223   0.0000117   0.0002229  -0.0001909   0.0000275
    3  -0.0001555  -0.0000856   0.0000325  -0.0001174   0.0002681   0.0000771
           19
    1   0.0000319
    2  -0.0000361
    3   0.0000022
 Gradient of SCF Energy
            1           2           3           4           5           6
    1  -0.0247611   0.0367557   0.0528645  -0.0157339  -0.0686429   0.0676750
    2   0.0142866  -0.0309495   0.0101954   0.0028326  -0.0175698   0.0048734
    3   0.0086230   0.0022886  -0.0176453   0.0167095  -0.0273673  -0.0179169
            7           8           9          10          11          12
    1   0.0083230  -0.0276925  -0.0211627   0.0094406  -0.0087013  -0.0046625
    2   0.0433434  -0.0031241  -0.0203707  -0.0109609   0.0003515   0.0189575
    3   0.0128591  -0.0070138   0.0035574  -0.0166274   0.0176846  -0.0107482
           13          14          15          16          17          18
    1  -0.0124520  -0.0275390  -0.0215486   0.0183598   0.0189509   0.0097574
    2   0.0076047  -0.0113735  -0.0201564   0.0132341   0.0136406  -0.0213183
    3   0.0166558   0.0102614  -0.0181457   0.0069937   0.0045313   0.0116551
           19
    1   0.0107696
    2   0.0065033
    3   0.0036449
 Max gradient component =       6.864E-02
 RMS gradient           =       2.196E-02
 Computing fast CPCM-SWIG gradient
 Updating gradient with PCM contributions...
 -- total gradient after adding PCM contribution --
---------------------------------------------------
  Atom         X              Y              Z     
---------------------------------------------------
   1      -0.001542       0.000087      -0.001184
   2       0.002521      -0.002748       0.002419
   3       0.028167       0.006798      -0.017134
   4      -0.012541       0.004737       0.013686
   5      -0.044730      -0.020420      -0.020533
   6       0.031081       0.014663       0.023410
   7      -0.013497       0.009078      -0.009728
   8      -0.002757       0.001963       0.001914
   9       0.001770       0.000312       0.000260
  10       0.000786       0.000453       0.000473
  11      -0.000034      -0.000113      -0.000113
  12      -0.001441      -0.000799      -0.000783
  13       0.001307      -0.001420       0.000858
  14      -0.016651       0.010235      -0.006682
  15       0.000852      -0.000458      -0.000297
  16      -0.000056      -0.001106       0.000230
  17      -0.001717      -0.000963      -0.002263
  18       0.016894      -0.026503       0.011233
  19       0.011585       0.006205       0.004233
---------------------------------------------------
 Number of fixed atoms: 0
 Gradient time:  CPU 321.42 s  wall 27.58 s
 ######################################################
 ######################################################
 # Starting finite difference calculation for IDERIV  #
 Finite diff step size:  1.88973e-03 a.u.
 ----------------------------------------------------------------
             Standard Nuclear Orientation (Angstroms)
    I     Atom           X                Y                Z
 ----------------------------------------------------------------
    1      O       0.9294835000    -0.0596840000    -0.1810432000
    2      C       2.3131923000    -0.2921501000     0.0621416000
    3      C       2.8637295000     0.7711458000     0.9956252000
    4      O       2.0083076000     1.1789315000     1.8919044000
    5      C       4.1461527000     1.1891703000     0.8301372000
    6      C       4.8916443000     2.1547543000     1.6697488000
    7      C       4.1453429000     2.9311835000     2.7597746000
    8      O       3.1419828000     3.7283505000     2.1701730000
    9      O       3.6238834000     2.0919120000     3.7599018000
   10      H       0.6195941000     0.3948848000     0.6184631000
   11      H       2.8371004000    -0.2988504000    -0.8908679000
   12      H       2.4466469000    -1.2698377000     0.5377012000
   13      H       4.6919050000     0.7971135000    -0.0187298000
   14      H       5.4495998000     2.8711160000     1.0676099000
   15      H       4.8474289000     3.6065048000     3.2436745000
   16      H       2.4735273000     3.0974835000     1.8460026000
   17      H       2.9366337000     1.5606830000     3.2917459000
   18      O       6.3606550000     1.1506096000     2.5905323000
   19      O       7.3625994000     1.9051320000     2.9404022000
 ----------------------------------------------------------------
 Nuclear Repulsion Energy =         645.38419523 hartrees
 There are       44 alpha and       43 beta electrons
 Discretize the solute cavity surface with Lebedev spheres
	Using 110 Lebedev grid points for each H atom
	Using 194 Lebedev grid points for other atoms
	Atomic van der Waals radii will be scaled by 1.20
 Remove points where switching function is < 1.0e-08
 Keep 1499 surface tesserae and discard 1515 interior tesserae
 Molecular Surface Area = 172.297 Angst**2
 Requested basis set is 6-311++G(2df,2p)
 There are 136 shells and 454 basis functions
 A cutoff of  1.0D-11 yielded   7782 shell pairs
 There are     85199 function pairs (    105889 Cartesian)
 Smallest overlap matrix eigenvalue = 3.70E-06
 Guess MOs from SCF MO coefficient file

 -----------------------------------------------------------------------
  General SCF calculation program by
  Eric Jon Sundstrom, Paul Horn, Yuezhi Mao, Dmitri Zuev, Alec White,
  David Stuck, Shaama M.S., Shane Yost, Joonho Lee, David Small,
  Daniel Levine, Susi Lehtola, Hugh Burton, Evgeny Epifanovsky,
  Bang C. Huynh
 -----------------------------------------------------------------------
 Exchange:     0.1500 Hartree-Fock + 1.0000 wB97M-V + LR-HF
 Correlation:  1.0000 wB97M-V
 Using SG-2 standard quadrature grid
 Nonlocal Correlation:  VV10 with C = 0.0100 and b = 6.00 and scale = 1.00000
 Grid used for NLC:  SG-1 standard quadrature
 
 Citation of the SMD model:
 Marenich, A.V.; Cramer, C.J.; Truhlar, D.G.
 J. Phys. Chem. B 2009, 113, 6378-6396.
 iSolventCode=           1
 Solvent: water                                                           
 
 vradii
            1           2           3           4           5           6
    1   1.5200000   1.8500000   1.8500000   1.5200000   1.8500000   1.8500000
            7           8           9          10          11          12
    1   1.8500000   1.5200000   1.5200000   1.2000000   1.2000000   1.2000000
           13          14          15          16          17          18
    1   1.2000000   1.2000000   1.2000000   1.2000000   1.2000000   1.5200000
           19
    1   1.5200000
 -------------------------------------------------------
 OpenMP BLAS3 based DFT computing Module                
 Release: version 1.0, May 2013, Q-Chem Inc. Pittsburgh 
 -------------------------------------------------------
 A unrestricted SCF calculation will be
 performed using Roothaan-Hall, DIIS, GDM
 SCF converges when RMS gradient is below 1.0e-06
 ---------------------------------------
  Cycle       Energy         DIIS error
 ---------------------------------------
    1    -646.5959277343      1.64e-04  Roothaan Step
 ---------------------------------------
  Cycle       Energy         DIIS error
 ---------------------------------------
    1    -646.6892549726      1.82e-04  
    2    -646.6928354042      1.81e-04  Done DIIS. Switching to GDM
 ---------------------------------------
  Cycle       Energy        RMS Gradient
 ---------------------------------------
    1    -646.6928354042      1.20e-02   Normal BFGS step
    2    -646.6921211352      1.98e-02  Line search: overstep
    3    -646.6950712272      4.30e-03   Normal BFGS step
    4    -646.6952207048      4.84e-03   Normal BFGS step
    5    -646.6952907244      1.30e-03   Normal BFGS step
    6    -646.6953007032      4.78e-04   Normal BFGS step
    7    -646.6953040677      6.25e-04   Normal BFGS step
    8    -646.6953049473      2.31e-04   Normal BFGS step
    9    -646.6953053041      1.07e-04   Normal BFGS step
   10    -646.6953053990      9.63e-05   Normal BFGS step
   11    -646.6953054400      8.55e-05   Normal BFGS step
   12    -646.6953054594      3.08e-05   Normal BFGS step
   13    -646.6953054653      1.90e-05   Normal BFGS step
   14    -646.6953054686      1.28e-05   Normal BFGS step
   15    -646.6953054698      1.05e-05   Normal BFGS step
   16    -646.6953054704      8.46e-06   Normal BFGS step
   17    -646.6953054707      6.43e-06   Normal BFGS step
   18    -646.6953054710      5.10e-06   Normal BFGS step
   19    -646.6953054713      4.45e-06   Normal BFGS step
   20    -646.6953054716      2.42e-06   Normal BFGS step
   21    -646.6953054718      2.00e-06   Normal BFGS step
   22    -646.6953054722      5.41e-07  Convergence criterion met
 ---------------------------------------
 SCF time:   CPU 2986.95s  wall 207.00s 
<S^2> =          0.763764828
(3)  G-ENP(liq) elect-nuc-pol free energy of system     -646.695305472 a.u.
(4)  G-CDS(liq) cavity-dispersion-solvent structure 
     free energy                                                2.9727 kcal/mol
(6)  G-S(liq) free energy of system                     -646.690568151 a.u.
 SCF   energy in the final basis set =     -646.6905681508
 Total energy in the final basis set =     -646.6905681508
 
 --------------------------------------------------------------
 
                    Orbital Energies (a.u.)
 --------------------------------------------------------------
 
 Alpha MOs
 -- Occupied --
-19.4166 -19.3850 -19.3426 -19.3308 -19.3282 -19.3003 -10.4467 -10.4111
-10.4109 -10.3805 -10.3222  -1.2838  -1.1986  -1.1600  -1.1238  -1.1153
 -0.9285  -0.8968  -0.8468  -0.7938  -0.7295  -0.6454  -0.6386  -0.6317
 -0.5954  -0.5852  -0.5828  -0.5744  -0.5672  -0.5535  -0.5295  -0.5197
 -0.5009  -0.4932  -0.4778  -0.4653  -0.4382  -0.4136  -0.3988  -0.3874
 -0.3678  -0.3628  -0.3548  -0.3025
 -- Virtual --
  0.0133   0.0279   0.0417   0.0450   0.0524   0.0605   0.0669   0.0766
  0.0828   0.1082   0.1083   0.1139   0.1273   0.1300   0.1392   0.1415
  0.1502   0.1597   0.1618   0.1663   0.1712   0.1852   0.1857   0.1875
  0.1924   0.1965   0.2053   0.2127   0.2196   0.2261   0.2442   0.2566
  0.2617   0.2670   0.2708   0.2779   0.2838   0.2902   0.2964   0.2996
  0.3105   0.3156   0.3192   0.3225   0.3291   0.3371   0.3423   0.3454
  0.3519   0.3577   0.3652   0.3677   0.3740   0.3814   0.3855   0.3888
  0.3934   0.4011   0.4068   0.4196   0.4272   0.4324   0.4407   0.4456
  0.4575   0.4656   0.4980   0.5024   0.5181   0.5302   0.5475   0.5739
  0.5902   0.6057   0.6089   0.6196   0.6268   0.6373   0.6419   0.6561
  0.6634   0.6699   0.6825   0.6947   0.7053   0.7147   0.7258   0.7310
  0.7361   0.7474   0.7572   0.7752   0.7829   0.8057   0.8138   0.8414
  0.8519   0.8731   0.8818   0.9004   0.9065   0.9265   0.9456   0.9558
  0.9884   1.0156   1.0318   1.0409   1.0606   1.0716   1.0818   1.0944
  1.0971   1.1091   1.1244   1.1324   1.1393   1.1510   1.1625   1.1653
  1.1819   1.1879   1.1946   1.2158   1.2208   1.2240   1.2286   1.2381
  1.2528   1.2636   1.2677   1.2731   1.2813   1.2962   1.2999   1.3221
  1.3242   1.3421   1.3581   1.3645   1.3827   1.3983   1.4190   1.4270
  1.4400   1.4427   1.4540   1.4655   1.4800   1.4995   1.5056   1.5124
  1.5248   1.5435   1.5597   1.5619   1.5785   1.5831   1.5972   1.6246
  1.6379   1.6425   1.6471   1.6555   1.6574   1.6799   1.7063   1.7205
  1.7606   1.7733   1.7849   1.8063   1.8528   1.8882   1.9083   1.9391
  1.9699   1.9763   2.0141   2.0354   2.0970   2.1054   2.1646   2.1657
  2.1968   2.2109   2.2366   2.2489   2.2626   2.2986   2.3126   2.3493
  2.3705   2.3981   2.4109   2.4492   2.4941   2.5069   2.5362   2.5416
  2.5795   2.6150   2.6736   2.7028   2.7116   2.7299   2.7813   2.8079
  2.8286   2.8663   2.8879   2.9100   2.9231   2.9381   2.9606   2.9827
  3.0022   3.0136   3.0155   3.0575   3.0773   3.1073   3.1204   3.1661
  3.1778   3.1921   3.2072   3.2250   3.2586   3.2698   3.2848   3.3112
  3.3452   3.3617   3.3800   3.3918   3.4230   3.4452   3.4556   3.4748
  3.4796   3.4892   3.5160   3.5386   3.5585   3.5711   3.5822   3.6127
  3.6360   3.6570   3.6646   3.6837   3.7003   3.7133   3.7341   3.7622
  3.7844   3.7976   3.8034   3.8279   3.8425   3.8765   3.8953   3.9009
  3.9144   3.9245   3.9382   3.9507   3.9872   4.0146   4.0627   4.0829
  4.1435   4.1671   4.1744   4.2049   4.2176   4.2278   4.2414   4.2624
  4.2796   4.2890   4.3038   4.3642   4.3823   4.3919   4.4297   4.4450
  4.4599   4.4749   4.4958   4.5124   4.5391   4.5574   4.5871   4.5989
  4.6335   4.6686   4.7010   4.7384   4.7460   4.7698   4.7889   4.8320
  4.8440   4.8864   5.0365   5.0618   5.0804   5.0961   5.1626   5.1726
  5.2023   5.2279   5.2346   5.2405   5.2416   5.2567   5.2621   5.2760
  5.2800   5.2992   5.3165   5.3307   5.3400   5.3512   5.3653   5.3774
  5.3842   5.3911   5.4018   5.4287   5.4387   5.4776   5.5172   5.5420
  5.5762   5.5983   5.6082   5.6179   5.6222   5.6434   5.6479   5.6591
  5.6664   5.6868   5.7023   5.7504   5.7843   5.7889   5.8403   5.8970
  5.9470   5.9631   6.0089   6.0872   6.1501   6.1762   6.4997   6.5421
  6.5937   6.6041   6.6290   6.7326   6.8115   6.8566   6.9443   7.0000
  7.0153   7.0724   7.0960   7.1145   7.1280   7.1349   7.1894   7.2279
  7.2579   7.2814   7.2965   7.3223   7.3481   7.3639   7.3852   7.4053
  7.4360   7.4493   7.4762   7.5019   7.5514   7.5980   7.6576   7.6876
  7.7476   7.7918   7.8433   7.8783   7.8903   7.9735   8.0300  24.5220
 24.6520  24.7674  24.8159  25.2186  50.4313  50.5156  50.5955  50.6010
 50.6677  50.7508
 
 Beta MOs
 -- Occupied --
-19.4022 -19.3680 -19.3427 -19.3308 -19.3282 -19.3006 -10.4467 -10.4118
-10.4111 -10.3805 -10.3222  -1.2528  -1.1987  -1.1601  -1.1239  -1.1157
 -0.9173  -0.8686  -0.8428  -0.7939  -0.7295  -0.6453  -0.6384  -0.6312
 -0.5951  -0.5826  -0.5727  -0.5581  -0.5405  -0.5294  -0.5191  -0.5005
 -0.4930  -0.4839  -0.4776  -0.4657  -0.4388  -0.4123  -0.3989  -0.3874
 -0.3617  -0.3483  -0.2904
 -- Virtual --
  0.0026   0.0163   0.0281   0.0419   0.0452   0.0528   0.0608   0.0673
  0.0768   0.0835   0.1085   0.1093   0.1141   0.1280   0.1310   0.1391
  0.1421   0.1507   0.1600   0.1621   0.1665   0.1719   0.1858   0.1863
  0.1881   0.1929   0.1971   0.2055   0.2145   0.2205   0.2280   0.2451
  0.2570   0.2624   0.2679   0.2712   0.2813   0.2859   0.2921   0.3016
  0.3032   0.3110   0.3159   0.3204   0.3230   0.3311   0.3381   0.3430
  0.3495   0.3522   0.3580   0.3657   0.3700   0.3744   0.3818   0.3869
  0.3890   0.3950   0.4011   0.4072   0.4199   0.4275   0.4337   0.4419
  0.4464   0.4581   0.4662   0.4981   0.5032   0.5184   0.5302   0.5473
  0.5739   0.5905   0.6055   0.6091   0.6197   0.6269   0.6375   0.6421
  0.6560   0.6636   0.6699   0.6825   0.6944   0.7054   0.7149   0.7258
  0.7309   0.7360   0.7472   0.7572   0.7751   0.7834   0.8053   0.8137
  0.8416   0.8518   0.8734   0.8823   0.9009   0.9064   0.9264   0.9462
  0.9559   0.9883   1.0164   1.0335   1.0432   1.0612   1.0722   1.0839
  1.0952   1.0983   1.1118   1.1301   1.1359   1.1474   1.1547   1.1676
  1.1758   1.1839   1.1934   1.1968   1.2174   1.2230   1.2250   1.2396
  1.2428   1.2543   1.2644   1.2712   1.2778   1.2836   1.2974   1.3038
  1.3232   1.3272   1.3429   1.3591   1.3656   1.3860   1.3999   1.4211
  1.4285   1.4412   1.4442   1.4553   1.4685   1.4863   1.5023   1.5068
  1.5140   1.5303   1.5444   1.5607   1.5629   1.5814   1.5854   1.6041
  1.6285   1.6402   1.6468   1.6497   1.6628   1.6730   1.6891   1.7105
  1.7265   1.7645   1.7775   1.7850   1.8186   1.8593   1.8992   1.9089
  1.9404   1.9716   1.9767   2.0154   2.0358   2.0994   2.1076   2.1650
  2.1662   2.1990   2.2152   2.2450   2.2540   2.2635   2.3009   2.3353
  2.3499   2.3742   2.3989   2.4121   2.4506   2.4939   2.5070   2.5360
  2.5416   2.5795   2.6148   2.6744   2.7047   2.7142   2.7330   2.7820
  2.8071   2.8279   2.8659   2.8871   2.9094   2.9220   2.9374   2.9599
  2.9814   3.0010   3.0128   3.0146   3.0562   3.0762   3.1069   3.1199
  3.1655   3.1767   3.1907   3.2065   3.2244   3.2579   3.2691   3.2843
  3.3106   3.3448   3.3611   3.3793   3.3913   3.4222   3.4448   3.4550
  3.4742   3.4793   3.4883   3.5156   3.5380   3.5577   3.5705   3.5812
  3.6123   3.6354   3.6565   3.6637   3.6830   3.6995   3.7123   3.7330
  3.7617   3.7831   3.7963   3.8027   3.8270   3.8423   3.8757   3.8945
  3.9006   3.9140   3.9237   3.9373   3.9499   3.9869   4.0140   4.0618
  4.0819   4.1431   4.1666   4.1739   4.2040   4.2170   4.2275   4.2408
  4.2617   4.2791   4.2886   4.3034   4.3635   4.3822   4.3916   4.4294
  4.4448   4.4591   4.4764   4.4959   4.5120   4.5429   4.5579   4.5873
  4.6199   4.6441   4.6734   4.7063   4.7397   4.7482   4.7900   4.8100
  4.8325   4.8498   4.8976   5.0370   5.1096   5.1253   5.1671   5.1825
  5.1884   5.2290   5.2466   5.2514   5.2616   5.2663   5.2732   5.2791
  5.2838   5.2901   5.3042   5.3289   5.3367   5.3446   5.3537   5.3664
  5.3801   5.3870   5.3934   5.4132   5.4294   5.4388   5.4793   5.5176
  5.5417   5.5755   5.6020   5.6090   5.6181   5.6249   5.6462   5.6550
  5.6741   5.6876   5.6905   5.7023   5.7508   5.7841   5.7888   5.8403
  5.8966   5.9468   5.9627   6.0088   6.0871   6.1498   6.1757   6.5466
  6.5561   6.5937   6.6059   6.6295   6.7339   6.8860   6.9341   7.0087
  7.0463   7.0665   7.0776   7.0984   7.1150   7.1306   7.1734   7.1911
  7.2281   7.2807   7.2873   7.2992   7.3224   7.3492   7.3639   7.3849
  7.4350   7.4478   7.4602   7.4762   7.5028   7.5670   7.5984   7.6578
  7.6875   7.7476   7.7918   7.8432   7.8784   7.8901   7.9908   8.0514
 24.5217  24.6517  24.7673  24.8158  25.2184  50.4437  50.5273  50.5955
 50.6010  50.6677  50.7506
 --------------------------------------------------------------
 
          Ground-State Mulliken Net Atomic Charges

     Atom                 Charge (a.u.)    Spin (a.u.)
  --------------------------------------------------------
      1 O                    -0.458993      -0.000016
      2 C                    -0.503301      -0.000317
      3 C                     0.139897      -0.013965
      4 O                    -0.660124      -0.009452
      5 C                     0.145357       0.002161
      6 C                    -0.321417      -0.037386
      7 C                    -0.363455      -0.003482
      8 O                    -0.391432      -0.001903
      9 O                    -0.458306       0.001538
     10 H                     0.342593       0.000087
     11 H                     0.201509      -0.000184
     12 H                     0.190265      -0.001220
     13 H                     0.276137      -0.001218
     14 H                     0.317947       0.001166
     15 H                     0.257861      -0.000884
     16 H                     0.345047      -0.000185
     17 H                     0.378015      -0.000109
     18 O                    -0.149770       0.466271
     19 O                    -0.287829       0.599098
  --------------------------------------------------------
  Sum of atomic charges =    -1.000000
  Sum of spin   charges =     1.000000

 -----------------------------------------------------------------
                    Cartesian Multipole Moments
 -----------------------------------------------------------------
    Charge (ESU x 10^10)
                -4.8032
    Dipole Moment (Debye)
         X     -19.9509      Y      -7.9786      Z     -13.1072
       Tot      25.1693
    Quadrupole Moments (Debye-Ang)
        XX    -187.1319     XY     -34.6611     YY     -87.8571
        XZ     -69.2587     YZ     -25.2145     ZZ    -113.5140
    Octopole Moments (Debye-Ang^2)
       XXX   -1586.6630    XXY    -285.5616    XYY    -324.7579
       YYY    -379.4404    XXZ    -527.2936    XYZ    -110.7495
       YYZ    -175.8641    XZZ    -476.1961    YZZ    -187.0585
       ZZZ    -512.6094
    Hexadecapole Moments (Debye-Ang^3)
      XXXX  -13078.4744   XXXY   -2522.8860   XXYY   -1759.6388
      XYYY   -1529.8483   YYYY   -1871.1479   XXXZ   -4283.8154
      XXYZ    -855.6068   XYYZ    -741.0421   YYYZ    -916.4944
      XXZZ   -2780.8309   XYZZ    -806.8931   YYZZ    -760.9485
      XZZZ   -2335.0389   YZZZ   -1036.1534   ZZZZ   -2485.3158
 -----------------------------------------------------------------
 Calculating analytic gradient of the SCF energy
 Gradient of CDS energy
            1           2           3           4           5           6
    1   0.0001183  -0.0002029  -0.0014157   0.0012946   0.0001788   0.0001764
    2   0.0000554  -0.0008277   0.0007162  -0.0006207  -0.0000193   0.0000171
    3   0.0000133  -0.0007430   0.0016422  -0.0012989  -0.0001706   0.0000787
            7           8           9          10          11          12
    1  -0.0023242   0.0013112   0.0011915  -0.0004560   0.0001284  -0.0000048
    2  -0.0002637  -0.0010820   0.0017393   0.0000668   0.0001594  -0.0000318
    3   0.0017336   0.0007097  -0.0021863   0.0000431  -0.0000324   0.0001890
           13          14          15          16          17          18
    1   0.0000454   0.0001284   0.0001941  -0.0003092  -0.0001493   0.0000632
    2  -0.0000666   0.0001223   0.0000117   0.0002229  -0.0001909   0.0000275
    3  -0.0001555  -0.0000856   0.0000325  -0.0001174   0.0002681   0.0000771
           19
    1   0.0000319
    2  -0.0000361
    3   0.0000022
 Gradient of SCF Energy
            1           2           3           4           5           6
    1  -0.0241479   0.0364006   0.0528064  -0.0157255  -0.0686457   0.0676864
    2   0.0140813  -0.0309311   0.0101983   0.0028345  -0.0175712   0.0048713
    3   0.0084763   0.0022176  -0.0176547   0.0167147  -0.0273871  -0.0179153
            7           8           9          10          11          12
    1   0.0083242  -0.0276924  -0.0211629   0.0093179  -0.0087439  -0.0046999
    2   0.0433478  -0.0031250  -0.0203729  -0.0108107   0.0003594   0.0189799
    3   0.0128624  -0.0070149   0.0035560  -0.0163791   0.0176829  -0.0107629
           13          14          15          16          17          18
    1  -0.0124567  -0.0275423  -0.0215510   0.0183588   0.0189502   0.0097561
    2   0.0076099  -0.0113775  -0.0201583   0.0132350   0.0136429  -0.0213163
    3   0.0166608   0.0102641  -0.0181473   0.0069949   0.0045335   0.0116542
           19
    1   0.0107677
    2   0.0065028
    3   0.0036439
 Max gradient component =       6.865E-02
 RMS gradient           =       2.193E-02
 Computing fast CPCM-SWIG gradient
 Updating gradient with PCM contributions...
 -- total gradient after adding PCM contribution --
---------------------------------------------------
  Atom         X              Y              Z     
---------------------------------------------------
   1      -0.000832      -0.000124      -0.001292
   2       0.002130      -0.002714       0.002336
   3       0.028099       0.006805      -0.017151
   4      -0.012537       0.004738       0.013695
   5      -0.044735      -0.020432      -0.020547
   6       0.031085       0.014661       0.023417
   7      -0.013498       0.009078      -0.009727
   8      -0.002756       0.001962       0.001914
   9       0.001771       0.000313       0.000260
  10       0.000637       0.000603       0.000709
  11      -0.000089      -0.000105      -0.000121
  12      -0.001485      -0.000778      -0.000800
  13       0.001307      -0.001419       0.000857
  14      -0.016652       0.010234      -0.006683
  15       0.000853      -0.000458      -0.000297
  16      -0.000056      -0.001105       0.000230
  17      -0.001718      -0.000963      -0.002263
  18       0.016893      -0.026500       0.011232
  19       0.011582       0.006204       0.004232
---------------------------------------------------
 Number of fixed atoms: 0
 Gradient time:  CPU 339.59 s  wall 28.69 s
 ----------------------------------------------------------------
             Standard Nuclear Orientation (Angstroms)
    I     Atom           X                Y                Z
 ----------------------------------------------------------------
    1      O       0.9274835000    -0.0596840000    -0.1810432000
    2      C       2.3131923000    -0.2921501000     0.0621416000
    3      C       2.8637295000     0.7711458000     0.9956252000
    4      O       2.0083076000     1.1789315000     1.8919044000
    5      C       4.1461527000     1.1891703000     0.8301372000
    6      C       4.8916443000     2.1547543000     1.6697488000
    7      C       4.1453429000     2.9311835000     2.7597746000
    8      O       3.1419828000     3.7283505000     2.1701730000
    9      O       3.6238834000     2.0919120000     3.7599018000
   10      H       0.6195941000     0.3948848000     0.6184631000
   11      H       2.8371004000    -0.2988504000    -0.8908679000
   12      H       2.4466469000    -1.2698377000     0.5377012000
   13      H       4.6919050000     0.7971135000    -0.0187298000
   14      H       5.4495998000     2.8711160000     1.0676099000
   15      H       4.8474289000     3.6065048000     3.2436745000
   16      H       2.4735273000     3.0974835000     1.8460026000
   17      H       2.9366337000     1.5606830000     3.2917459000
   18      O       6.3606550000     1.1506096000     2.5905323000
   19      O       7.3625994000     1.9051320000     2.9404022000
 ----------------------------------------------------------------
 Nuclear Repulsion Energy =         645.33574343 hartrees
 There are       44 alpha and       43 beta electrons
 Discretize the solute cavity surface with Lebedev spheres
	Using 110 Lebedev grid points for each H atom
	Using 194 Lebedev grid points for other atoms
	Atomic van der Waals radii will be scaled by 1.20
 Remove points where switching function is < 1.0e-08
 Keep 1497 surface tesserae and discard 1517 interior tesserae
 Molecular Surface Area = 172.310 Angst**2
 Requested basis set is 6-311++G(2df,2p)
 There are 136 shells and 454 basis functions
 A cutoff of  1.0D-11 yielded   7782 shell pairs
 There are     85199 function pairs (    105889 Cartesian)
 Smallest overlap matrix eigenvalue = 3.70E-06
 Guess MOs from SCF MO coefficient file

 -----------------------------------------------------------------------
  General SCF calculation program by
  Eric Jon Sundstrom, Paul Horn, Yuezhi Mao, Dmitri Zuev, Alec White,
  David Stuck, Shaama M.S., Shane Yost, Joonho Lee, David Small,
  Daniel Levine, Susi Lehtola, Hugh Burton, Evgeny Epifanovsky,
  Bang C. Huynh
 -----------------------------------------------------------------------
 Exchange:     0.1500 Hartree-Fock + 1.0000 wB97M-V + LR-HF
 Correlation:  1.0000 wB97M-V
 Using SG-2 standard quadrature grid
 Nonlocal Correlation:  VV10 with C = 0.0100 and b = 6.00 and scale = 1.00000
 Grid used for NLC:  SG-1 standard quadrature
 
 Citation of the SMD model:
 Marenich, A.V.; Cramer, C.J.; Truhlar, D.G.
 J. Phys. Chem. B 2009, 113, 6378-6396.
 iSolventCode=           1
 Solvent: water                                                           
 
 vradii
            1           2           3           4           5           6
    1   1.5200000   1.8500000   1.8500000   1.5200000   1.8500000   1.8500000
            7           8           9          10          11          12
    1   1.8500000   1.5200000   1.5200000   1.2000000   1.2000000   1.2000000
           13          14          15          16          17          18
    1   1.2000000   1.2000000   1.2000000   1.2000000   1.2000000   1.5200000
           19
    1   1.5200000
 -------------------------------------------------------
 OpenMP BLAS3 based DFT computing Module                
 Release: version 1.0, May 2013, Q-Chem Inc. Pittsburgh 
 -------------------------------------------------------
 A unrestricted SCF calculation will be
 performed using Roothaan-Hall, DIIS, GDM
 SCF converges when RMS gradient is below 1.0e-06
 ---------------------------------------
  Cycle       Energy         DIIS error
 ---------------------------------------
    1    -646.5959204740      1.64e-04  Roothaan Step
 ---------------------------------------
  Cycle       Energy         DIIS error
 ---------------------------------------
    1    -646.6892425247      1.82e-04  
    2    -646.6928273104      1.82e-04  Done DIIS. Switching to GDM
 ---------------------------------------
  Cycle       Energy        RMS Gradient
 ---------------------------------------
    1    -646.6928273104      1.20e-02   Normal BFGS step
    2    -646.6921125008      1.98e-02  Line search: overstep
    3    -646.6950647588      4.29e-03   Normal BFGS step
    4    -646.6952144206      4.84e-03   Normal BFGS step
    5    -646.6952844536      1.30e-03   Normal BFGS step
    6    -646.6952944375      4.78e-04   Normal BFGS step
    7    -646.6952977996      6.25e-04   Normal BFGS step
    8    -646.6952986776      2.31e-04   Normal BFGS step
    9    -646.6952990339      1.06e-04   Normal BFGS step
   10    -646.6952991285      9.60e-05   Normal BFGS step
   11    -646.6952991694      8.53e-05   Normal BFGS step
   12    -646.6952991887      3.08e-05   Normal BFGS step
   13    -646.6952991945      1.90e-05   Normal BFGS step
   14    -646.6952991978      1.27e-05   Normal BFGS step
   15    -646.6952991990      1.04e-05   Normal BFGS step
   16    -646.6952991996      8.36e-06   Normal BFGS step
   17    -646.6952991998      6.37e-06   Normal BFGS step
   18    -646.6952992001      5.00e-06   Normal BFGS step
   19    -646.6952992004      4.40e-06   Normal BFGS step
   20    -646.6952992007      2.42e-06   Normal BFGS step
   21    -646.6952992010      1.99e-06   Normal BFGS step
   22    -646.6952992011      5.45e-07  Convergence criterion met
 ---------------------------------------
 SCF time:   CPU 3018.94s  wall 208.00s 
<S^2> =          0.763769410
(3)  G-ENP(liq) elect-nuc-pol free energy of system     -646.695299201 a.u.
(4)  G-CDS(liq) cavity-dispersion-solvent structure 
     free energy                                                2.9724 kcal/mol
(6)  G-S(liq) free energy of system                     -646.690562325 a.u.
 SCF   energy in the final basis set =     -646.6905623250
 Total energy in the final basis set =     -646.6905623250
 
 --------------------------------------------------------------
 
                    Orbital Energies (a.u.)
 --------------------------------------------------------------
 
 Alpha MOs
 -- Occupied --
-19.4166 -19.3850 -19.3426 -19.3309 -19.3282 -19.3003 -10.4467 -10.4112
-10.4109 -10.3806 -10.3223  -1.2839  -1.1986  -1.1596  -1.1237  -1.1153
 -0.9285  -0.8968  -0.8469  -0.7938  -0.7295  -0.6453  -0.6386  -0.6317
 -0.5953  -0.5852  -0.5828  -0.5744  -0.5671  -0.5535  -0.5294  -0.5196
 -0.5010  -0.4932  -0.4779  -0.4653  -0.4383  -0.4136  -0.3988  -0.3875
 -0.3679  -0.3629  -0.3548  -0.3025
 -- Virtual --
  0.0133   0.0279   0.0417   0.0450   0.0524   0.0605   0.0669   0.0766
  0.0828   0.1082   0.1083   0.1139   0.1273   0.1300   0.1391   0.1415
  0.1502   0.1597   0.1618   0.1663   0.1712   0.1852   0.1857   0.1875
  0.1923   0.1965   0.2053   0.2127   0.2196   0.2261   0.2442   0.2566
  0.2617   0.2670   0.2706   0.2780   0.2838   0.2902   0.2963   0.2996
  0.3104   0.3156   0.3191   0.3224   0.3291   0.3370   0.3423   0.3454
  0.3519   0.3577   0.3652   0.3677   0.3740   0.3813   0.3854   0.3887
  0.3934   0.4011   0.4067   0.4196   0.4272   0.4323   0.4407   0.4454
  0.4574   0.4656   0.4980   0.5024   0.5181   0.5302   0.5474   0.5739
  0.5902   0.6057   0.6087   0.6196   0.6269   0.6373   0.6419   0.6561
  0.6634   0.6699   0.6824   0.6946   0.7053   0.7146   0.7258   0.7309
  0.7361   0.7474   0.7572   0.7751   0.7828   0.8057   0.8138   0.8415
  0.8519   0.8731   0.8818   0.9004   0.9065   0.9265   0.9456   0.9558
  0.9884   1.0156   1.0318   1.0408   1.0605   1.0715   1.0817   1.0945
  1.0971   1.1091   1.1243   1.1323   1.1392   1.1510   1.1625   1.1652
  1.1818   1.1878   1.1946   1.2158   1.2208   1.2240   1.2285   1.2381
  1.2528   1.2636   1.2677   1.2731   1.2813   1.2961   1.2998   1.3220
  1.3241   1.3421   1.3580   1.3644   1.3827   1.3982   1.4189   1.4269
  1.4399   1.4426   1.4539   1.4654   1.4800   1.4995   1.5056   1.5124
  1.5248   1.5435   1.5597   1.5618   1.5785   1.5831   1.5972   1.6245
  1.6380   1.6426   1.6472   1.6555   1.6574   1.6798   1.7064   1.7205
  1.7606   1.7733   1.7849   1.8063   1.8528   1.8882   1.9083   1.9391
  1.9698   1.9763   2.0140   2.0354   2.0969   2.1052   2.1643   2.1653
  2.1967   2.2105   2.2364   2.2489   2.2624   2.2985   2.3126   2.3482
  2.3704   2.3979   2.4109   2.4491   2.4940   2.5069   2.5361   2.5415
  2.5795   2.6150   2.6735   2.7027   2.7115   2.7299   2.7812   2.8079
  2.8285   2.8663   2.8878   2.9099   2.9230   2.9380   2.9605   2.9826
  3.0022   3.0134   3.0155   3.0574   3.0773   3.1070   3.1203   3.1659
  3.1778   3.1921   3.2071   3.2248   3.2585   3.2696   3.2846   3.3109
  3.3449   3.3614   3.3797   3.3915   3.4229   3.4451   3.4554   3.4747
  3.4795   3.4890   3.5159   3.5384   3.5584   3.5709   3.5821   3.6126
  3.6361   3.6569   3.6648   3.6837   3.7000   3.7133   3.7341   3.7620
  3.7842   3.7975   3.8030   3.8278   3.8423   3.8761   3.8953   3.9008
  3.9144   3.9244   3.9380   3.9506   3.9872   4.0146   4.0626   4.0829
  4.1434   4.1669   4.1744   4.2048   4.2176   4.2277   4.2414   4.2624
  4.2799   4.2887   4.3043   4.3642   4.3821   4.3917   4.4294   4.4450
  4.4598   4.4749   4.4956   4.5124   4.5391   4.5574   4.5871   4.5989
  4.6335   4.6685   4.7010   4.7384   4.7460   4.7698   4.7889   4.8320
  4.8440   4.8864   5.0366   5.0618   5.0804   5.0961   5.1626   5.1726
  5.2023   5.2278   5.2346   5.2405   5.2415   5.2567   5.2619   5.2760
  5.2799   5.2992   5.3165   5.3306   5.3400   5.3513   5.3653   5.3773
  5.3842   5.3907   5.4018   5.4284   5.4378   5.4776   5.5172   5.5420
  5.5760   5.5984   5.6082   5.6177   5.6220   5.6434   5.6477   5.6590
  5.6664   5.6868   5.7025   5.7504   5.7841   5.7888   5.8402   5.8956
  5.9469   5.9613   6.0056   6.0871   6.1501   6.1762   6.4996   6.5421
  6.5889   6.6040   6.6281   6.7326   6.8115   6.8566   6.9442   7.0000
  7.0153   7.0723   7.0959   7.1145   7.1280   7.1348   7.1894   7.2281
  7.2579   7.2815   7.2969   7.3238   7.3483   7.3629   7.3851   7.4053
  7.4361   7.4493   7.4762   7.5020   7.5514   7.5963   7.6576   7.6875
  7.7476   7.7914   7.8433   7.8783   7.8903   7.9735   8.0300  24.5220
 24.6518  24.7643  24.8159  25.2185  50.4313  50.5155  50.5952  50.6009
 50.6676  50.7508
 
 Beta MOs
 -- Occupied --
-19.4022 -19.3680 -19.3427 -19.3309 -19.3282 -19.3006 -10.4467 -10.4118
-10.4112 -10.3806 -10.3223  -1.2528  -1.1987  -1.1598  -1.1239  -1.1157
 -0.9173  -0.8686  -0.8428  -0.7939  -0.7295  -0.6451  -0.6383  -0.6312
 -0.5951  -0.5826  -0.5726  -0.5581  -0.5405  -0.5293  -0.5190  -0.5005
 -0.4930  -0.4839  -0.4777  -0.4657  -0.4389  -0.4123  -0.3989  -0.3875
 -0.3617  -0.3483  -0.2904
 -- Virtual --
  0.0026   0.0163   0.0281   0.0419   0.0452   0.0528   0.0608   0.0673
  0.0768   0.0835   0.1085   0.1093   0.1141   0.1280   0.1310   0.1391
  0.1421   0.1507   0.1601   0.1621   0.1665   0.1719   0.1858   0.1863
  0.1881   0.1929   0.1971   0.2055   0.2145   0.2205   0.2280   0.2450
  0.2570   0.2623   0.2679   0.2710   0.2813   0.2859   0.2921   0.3016
  0.3032   0.3110   0.3159   0.3203   0.3230   0.3311   0.3381   0.3430
  0.3494   0.3521   0.3579   0.3656   0.3700   0.3744   0.3817   0.3868
  0.3890   0.3950   0.4011   0.4072   0.4199   0.4275   0.4336   0.4418
  0.4463   0.4580   0.4662   0.4981   0.5032   0.5184   0.5303   0.5473
  0.5739   0.5905   0.6055   0.6090   0.6197   0.6270   0.6375   0.6421
  0.6560   0.6635   0.6699   0.6825   0.6943   0.7054   0.7148   0.7257
  0.7309   0.7360   0.7472   0.7571   0.7750   0.7833   0.8053   0.8137
  0.8417   0.8517   0.8733   0.8823   0.9009   0.9064   0.9264   0.9462
  0.9559   0.9883   1.0164   1.0335   1.0432   1.0611   1.0721   1.0839
  1.0953   1.0983   1.1117   1.1301   1.1357   1.1474   1.1547   1.1676
  1.1758   1.1838   1.1934   1.1968   1.2174   1.2229   1.2249   1.2396
  1.2428   1.2543   1.2643   1.2712   1.2778   1.2836   1.2974   1.3037
  1.3232   1.3271   1.3429   1.3591   1.3656   1.3860   1.3998   1.4210
  1.4284   1.4411   1.4442   1.4552   1.4685   1.4863   1.5023   1.5068
  1.5140   1.5304   1.5443   1.5606   1.5628   1.5814   1.5854   1.6041
  1.6285   1.6402   1.6469   1.6498   1.6627   1.6730   1.6890   1.7106
  1.7265   1.7645   1.7776   1.7850   1.8185   1.8593   1.8992   1.9089
  1.9404   1.9715   1.9767   2.0154   2.0357   2.0992   2.1075   2.1648
  2.1657   2.1989   2.2147   2.2449   2.2539   2.2634   2.3009   2.3353
  2.3488   2.3742   2.3987   2.4121   2.4505   2.4937   2.5070   2.5359
  2.5414   2.5795   2.6148   2.6743   2.7046   2.7142   2.7330   2.7819
  2.8071   2.8278   2.8659   2.8871   2.9093   2.9219   2.9374   2.9598
  2.9813   3.0010   3.0125   3.0146   3.0561   3.0762   3.1066   3.1198
  3.1653   3.1767   3.1907   3.2064   3.2242   3.2578   3.2689   3.2840
  3.3103   3.3445   3.3608   3.3791   3.3910   3.4221   3.4447   3.4548
  3.4742   3.4792   3.4881   3.5156   3.5378   3.5576   3.5704   3.5811
  3.6123   3.6356   3.6564   3.6639   3.6829   3.6993   3.7123   3.7330
  3.7615   3.7829   3.7963   3.8023   3.8270   3.8421   3.8753   3.8945
  3.9005   3.9139   3.9235   3.9372   3.9499   3.9869   4.0140   4.0617
  4.0819   4.1430   4.1664   4.1738   4.2039   4.2170   4.2274   4.2408
  4.2617   4.2794   4.2883   4.3039   4.3634   4.3820   4.3915   4.4292
  4.4447   4.4591   4.4764   4.4958   4.5120   4.5428   4.5579   4.5873
  4.6198   4.6441   4.6734   4.7063   4.7397   4.7482   4.7900   4.8100
  4.8325   4.8498   4.8976   5.0370   5.1096   5.1253   5.1671   5.1825
  5.1884   5.2290   5.2466   5.2513   5.2616   5.2662   5.2732   5.2790
  5.2837   5.2901   5.3042   5.3289   5.3367   5.3446   5.3538   5.3663
  5.3800   5.3869   5.3931   5.4131   5.4292   5.4379   5.4793   5.5175
  5.5417   5.5753   5.6020   5.6089   5.6177   5.6247   5.6461   5.6550
  5.6740   5.6877   5.6905   5.7025   5.7508   5.7840   5.7887   5.8403
  5.8951   5.9468   5.9609   6.0055   6.0870   6.1497   6.1756   6.5465
  6.5561   6.5889   6.6059   6.6286   6.7339   6.8860   6.9341   7.0087
  7.0463   7.0665   7.0775   7.0983   7.1150   7.1305   7.1734   7.1911
  7.2283   7.2808   7.2873   7.2995   7.3239   7.3494   7.3629   7.3848
  7.4351   7.4478   7.4602   7.4762   7.5028   7.5669   7.5967   7.6578
  7.6875   7.7475   7.7914   7.8432   7.8784   7.8901   7.9908   8.0514
 24.5216  24.6516  24.7643  24.8158  25.2183  50.4437  50.5272  50.5952
 50.6009  50.6676  50.7506
 --------------------------------------------------------------
 
          Ground-State Mulliken Net Atomic Charges

     Atom                 Charge (a.u.)    Spin (a.u.)
  --------------------------------------------------------
      1 O                    -0.459570      -0.000018
      2 C                    -0.503498      -0.000316
      3 C                     0.140271      -0.013970
      4 O                    -0.659969      -0.009456
      5 C                     0.145290       0.002171
      6 C                    -0.321438      -0.037409
      7 C                    -0.363448      -0.003481
      8 O                    -0.391412      -0.001904
      9 O                    -0.458295       0.001538
     10 H                     0.342351       0.000087
     11 H                     0.201625      -0.000184
     12 H                     0.190593      -0.001219
     13 H                     0.276170      -0.001218
     14 H                     0.317960       0.001167
     15 H                     0.257865      -0.000884
     16 H                     0.345035      -0.000185
     17 H                     0.378010      -0.000109
     18 O                    -0.149751       0.466275
     19 O                    -0.287790       0.599116
  --------------------------------------------------------
  Sum of atomic charges =    -1.000000
  Sum of spin   charges =     1.000000

 -----------------------------------------------------------------
                    Cartesian Multipole Moments
 -----------------------------------------------------------------
    Charge (ESU x 10^10)
                -4.8032
    Dipole Moment (Debye)
         X     -19.9375      Y      -7.9788      Z     -13.1057
       Tot      25.1580
    Quadrupole Moments (Debye-Ang)
        XX    -187.0814     XY     -34.6594     YY     -87.8522
        XZ     -69.2509     YZ     -25.2120     ZZ    -113.5095
    Octopole Moments (Debye-Ang^2)
       XXX   -1586.3967    XXY    -285.5344    XYY    -324.7180
       YYY    -379.4325    XXZ    -527.2426    XYZ    -110.7369
       YYZ    -175.8538    XZZ    -476.1559    YZZ    -187.0521
       ZZZ    -512.5951
    Hexadecapole Moments (Debye-Ang^3)
      XXXX  -13077.0741   XXXY   -2522.6662   XXYY   -1759.4784
      XYYY   -1529.8073   YYYY   -1871.0947   XXXZ   -4283.4812
      XXYZ    -855.5219   XYYZ    -740.9983   YYYZ    -916.4723
      XXZZ   -2780.6415   XYZZ    -806.8554   YYZZ    -760.9232
      XZZZ   -2334.9712   YZZZ   -1036.1277   ZZZZ   -2485.2658
 -----------------------------------------------------------------
 Calculating analytic gradient of the SCF energy
 Gradient of CDS energy
            1           2           3           4           5           6
    1   0.0001174  -0.0002030  -0.0014156   0.0012946   0.0001788   0.0001764
    2   0.0000548  -0.0008273   0.0007162  -0.0006207  -0.0000193   0.0000171
    3   0.0000130  -0.0007440   0.0016424  -0.0012989  -0.0001706   0.0000787
            7           8           9          10          11          12
    1  -0.0023242   0.0013112   0.0011915  -0.0004558   0.0001291  -0.0000047
    2  -0.0002637  -0.0010820   0.0017393   0.0000671   0.0001592  -0.0000317
    3   0.0017336   0.0007097  -0.0021863   0.0000437  -0.0000318   0.0001890
           13          14          15          16          17          18
    1   0.0000454   0.0001284   0.0001941  -0.0003092  -0.0001493   0.0000632
    2  -0.0000666   0.0001223   0.0000117   0.0002229  -0.0001909   0.0000275
    3  -0.0001555  -0.0000856   0.0000325  -0.0001174   0.0002681   0.0000771
           19
    1   0.0000319
    2  -0.0000361
    3   0.0000022
 Gradient of SCF Energy
            1           2           3           4           5           6
    1  -0.0253707   0.0371077   0.0529224  -0.0157422  -0.0686400   0.0676634
    2   0.0144914  -0.0309673   0.0101925   0.0028306  -0.0175685   0.0048758
    3   0.0087705   0.0023591  -0.0176358   0.0167043  -0.0273475  -0.0179185
            7           8           9          10          11          12
    1   0.0083221  -0.0276925  -0.0211625   0.0095628  -0.0086587  -0.0046251
    2   0.0433389  -0.0031231  -0.0203684  -0.0111111   0.0003437   0.0189351
    3   0.0128556  -0.0070127   0.0035588  -0.0168758   0.0176864  -0.0107335
           13          14          15          16          17          18
    1  -0.0124474  -0.0275357  -0.0215462   0.0183609   0.0189515   0.0097585
    2   0.0075994  -0.0113696  -0.0201545   0.0132331   0.0136384  -0.0213204
    3   0.0166508   0.0102588  -0.0181442   0.0069925   0.0045291   0.0116560
           19
    1   0.0107718
    2   0.0065041
    3   0.0036460
 Max gradient component =       6.864E-02
 RMS gradient           =       2.200E-02
 Computing fast CPCM-SWIG gradient
 Updating gradient with PCM contributions...
 -- total gradient after adding PCM contribution --
---------------------------------------------------
  Atom         X              Y              Z     
---------------------------------------------------
   1      -0.002249       0.000298      -0.001076
   2       0.002910      -0.002783       0.002502
   3       0.028235       0.006790      -0.017116
   4      -0.012544       0.004735       0.013677
   5      -0.044724      -0.020407      -0.020519
   6       0.031078       0.014664       0.023402
   7      -0.013496       0.009077      -0.009730
   8      -0.002757       0.001964       0.001915
   9       0.001769       0.000312       0.000260
  10       0.000935       0.000302       0.000238
  11       0.000020      -0.000121      -0.000104
  12      -0.001397      -0.000821      -0.000766
  13       0.001307      -0.001422       0.000859
  14      -0.016649       0.010235      -0.006680
  15       0.000852      -0.000458      -0.000296
  16      -0.000055      -0.001106       0.000230
  17      -0.001717      -0.000963      -0.002263
  18       0.016894      -0.026506       0.011234
  19       0.011588       0.006207       0.004235
---------------------------------------------------
 Number of fixed atoms: 0
 Gradient time:  CPU 335.05 s  wall 28.32 s
 ----------------------------------------------------------------
             Standard Nuclear Orientation (Angstroms)
    I     Atom           X                Y                Z
 ----------------------------------------------------------------
    1      O       0.9284835000    -0.0586840000    -0.1810432000
    2      C       2.3131923000    -0.2921501000     0.0621416000
    3      C       2.8637295000     0.7711458000     0.9956252000
    4      O       2.0083076000     1.1789315000     1.8919044000
    5      C       4.1461527000     1.1891703000     0.8301372000
    6      C       4.8916443000     2.1547543000     1.6697488000
    7      C       4.1453429000     2.9311835000     2.7597746000
    8      O       3.1419828000     3.7283505000     2.1701730000
    9      O       3.6238834000     2.0919120000     3.7599018000
   10      H       0.6195941000     0.3948848000     0.6184631000
   11      H       2.8371004000    -0.2988504000    -0.8908679000
   12      H       2.4466469000    -1.2698377000     0.5377012000
   13      H       4.6919050000     0.7971135000    -0.0187298000
   14      H       5.4495998000     2.8711160000     1.0676099000
   15      H       4.8474289000     3.6065048000     3.2436745000
   16      H       2.4735273000     3.0974835000     1.8460026000
   17      H       2.9366337000     1.5606830000     3.2917459000
   18      O       6.3606550000     1.1506096000     2.5905323000
   19      O       7.3625994000     1.9051320000     2.9404022000
 ----------------------------------------------------------------
 Nuclear Repulsion Energy =         645.36713223 hartrees
 There are       44 alpha and       43 beta electrons
 Discretize the solute cavity surface with Lebedev spheres
	Using 110 Lebedev grid points for each H atom
	Using 194 Lebedev grid points for other atoms
	Atomic van der Waals radii will be scaled by 1.20
 Remove points where switching function is < 1.0e-08
 Keep 1498 surface tesserae and discard 1516 interior tesserae
 Molecular Surface Area = 172.303 Angst**2
 Requested basis set is 6-311++G(2df,2p)
 There are 136 shells and 454 basis functions
 A cutoff of  1.0D-11 yielded   7782 shell pairs
 There are     85199 function pairs (    105889 Cartesian)
 Smallest overlap matrix eigenvalue = 3.70E-06
 Guess MOs from SCF MO coefficient file

 -----------------------------------------------------------------------
  General SCF calculation program by
  Eric Jon Sundstrom, Paul Horn, Yuezhi Mao, Dmitri Zuev, Alec White,
  David Stuck, Shaama M.S., Shane Yost, Joonho Lee, David Small,
  Daniel Levine, Susi Lehtola, Hugh Burton, Evgeny Epifanovsky,
  Bang C. Huynh
 -----------------------------------------------------------------------
 Exchange:     0.1500 Hartree-Fock + 1.0000 wB97M-V + LR-HF
 Correlation:  1.0000 wB97M-V
 Using SG-2 standard quadrature grid
 Nonlocal Correlation:  VV10 with C = 0.0100 and b = 6.00 and scale = 1.00000
 Grid used for NLC:  SG-1 standard quadrature
 
 Citation of the SMD model:
 Marenich, A.V.; Cramer, C.J.; Truhlar, D.G.
 J. Phys. Chem. B 2009, 113, 6378-6396.
 iSolventCode=           1
 Solvent: water                                                           
 
 vradii
            1           2           3           4           5           6
    1   1.5200000   1.8500000   1.8500000   1.5200000   1.8500000   1.8500000
            7           8           9          10          11          12
    1   1.8500000   1.5200000   1.5200000   1.2000000   1.2000000   1.2000000
           13          14          15          16          17          18
    1   1.2000000   1.2000000   1.2000000   1.2000000   1.2000000   1.5200000
           19
    1   1.5200000
 -------------------------------------------------------
 OpenMP BLAS3 based DFT computing Module                
 Release: version 1.0, May 2013, Q-Chem Inc. Pittsburgh 
 -------------------------------------------------------
 A unrestricted SCF calculation will be
 performed using Roothaan-Hall, DIIS, GDM
 SCF converges when RMS gradient is below 1.0e-06
 ---------------------------------------
  Cycle       Energy         DIIS error
 ---------------------------------------
    1    -646.5959161550      1.64e-04  Roothaan Step
 ---------------------------------------
  Cycle       Energy         DIIS error
 ---------------------------------------
    1    -646.6892492055      1.82e-04  
    2    -646.6928325269      1.81e-04  Done DIIS. Switching to GDM
 ---------------------------------------
  Cycle       Energy        RMS Gradient
 ---------------------------------------
    1    -646.6928325269      1.20e-02   Normal BFGS step
    2    -646.6921182465      1.98e-02  Line search: overstep
    3    -646.6950683287      4.30e-03   Normal BFGS step
    4    -646.6952179362      4.84e-03   Normal BFGS step
    5    -646.6952878784      1.30e-03   Normal BFGS step
    6    -646.6952978708      4.79e-04   Normal BFGS step
    7    -646.6953012350      6.25e-04   Normal BFGS step
    8    -646.6953021151      2.31e-04   Normal BFGS step
    9    -646.6953024722      1.07e-04   Normal BFGS step
   10    -646.6953025672      9.63e-05   Normal BFGS step
   11    -646.6953026083      8.56e-05   Normal BFGS step
   12    -646.6953026277      3.08e-05   Normal BFGS step
   13    -646.6953026335      1.90e-05   Normal BFGS step
   14    -646.6953026369      1.28e-05   Normal BFGS step
   15    -646.6953026381      1.05e-05   Normal BFGS step
   16    -646.6953026387      8.46e-06   Normal BFGS step
   17    -646.6953026390      6.43e-06   Normal BFGS step
   18    -646.6953026393      5.10e-06   Normal BFGS step
   19    -646.6953026396      4.45e-06   Normal BFGS step
   20    -646.6953026399      2.42e-06   Normal BFGS step
   21    -646.6953026401      2.00e-06   Normal BFGS step
   22    -646.6953026403      5.43e-07  Convergence criterion met
 ---------------------------------------
 SCF time:   CPU 3032.14s  wall 209.00s 
<S^2> =          0.763766955
(3)  G-ENP(liq) elect-nuc-pol free energy of system     -646.695302640 a.u.
(4)  G-CDS(liq) cavity-dispersion-solvent structure 
     free energy                                                2.9726 kcal/mol
(6)  G-S(liq) free energy of system                     -646.690565437 a.u.
 SCF   energy in the final basis set =     -646.6905654368
 Total energy in the final basis set =     -646.6905654368
 
 --------------------------------------------------------------
 
                    Orbital Energies (a.u.)
 --------------------------------------------------------------
 
 Alpha MOs
 -- Occupied --
-19.4166 -19.3850 -19.3426 -19.3308 -19.3282 -19.3003 -10.4467 -10.4111
-10.4109 -10.3806 -10.3222  -1.2838  -1.1986  -1.1598  -1.1238  -1.1153
 -0.9285  -0.8968  -0.8469  -0.7938  -0.7295  -0.6454  -0.6386  -0.6317
 -0.5954  -0.5852  -0.5828  -0.5744  -0.5672  -0.5535  -0.5294  -0.5196
 -0.5010  -0.4932  -0.4779  -0.4653  -0.4382  -0.4136  -0.3988  -0.3875
 -0.3679  -0.3629  -0.3548  -0.3025
 -- Virtual --
  0.0133   0.0279   0.0417   0.0450   0.0524   0.0605   0.0669   0.0766
  0.0828   0.1082   0.1083   0.1139   0.1273   0.1300   0.1392   0.1415
  0.1502   0.1597   0.1618   0.1663   0.1712   0.1852   0.1857   0.1875
  0.1923   0.1965   0.2053   0.2127   0.2196   0.2261   0.2442   0.2566
  0.2617   0.2671   0.2707   0.2780   0.2838   0.2902   0.2963   0.2996
  0.3105   0.3156   0.3192   0.3224   0.3291   0.3371   0.3423   0.3454
  0.3519   0.3577   0.3652   0.3677   0.3740   0.3814   0.3854   0.3888
  0.3934   0.4011   0.4068   0.4196   0.4272   0.4324   0.4407   0.4455
  0.4575   0.4656   0.4980   0.5024   0.5181   0.5302   0.5475   0.5739
  0.5902   0.6058   0.6088   0.6196   0.6269   0.6373   0.6420   0.6561
  0.6634   0.6699   0.6824   0.6946   0.7053   0.7146   0.7258   0.7310
  0.7361   0.7474   0.7572   0.7751   0.7829   0.8057   0.8138   0.8415
  0.8519   0.8731   0.8818   0.9004   0.9065   0.9265   0.9456   0.9558
  0.9884   1.0156   1.0318   1.0409   1.0606   1.0715   1.0817   1.0945
  1.0971   1.1091   1.1243   1.1323   1.1392   1.1510   1.1625   1.1653
  1.1819   1.1878   1.1946   1.2158   1.2209   1.2240   1.2286   1.2381
  1.2528   1.2636   1.2677   1.2732   1.2813   1.2961   1.2998   1.3220
  1.3242   1.3421   1.3580   1.3645   1.3827   1.3982   1.4190   1.4269
  1.4399   1.4427   1.4539   1.4654   1.4800   1.4995   1.5056   1.5124
  1.5248   1.5436   1.5597   1.5619   1.5785   1.5832   1.5973   1.6246
[...]
    1  -0.0021778   0.0000863   0.0023216  -0.0003895   0.0001064   0.0002104
    2  -0.0014061  -0.0001980   0.0019643  -0.0001083   0.0002126   0.0000209
    3   0.0029966   0.0000927  -0.0027759   0.0001550  -0.0000089   0.0001146
           13          14          15          16          17          18
    1   0.0000729   0.0002088   0.0001888  -0.0002791  -0.0001489   0.0000546
    2  -0.0000474  -0.0000033  -0.0000726   0.0003575  -0.0001046   0.0000402
    3  -0.0001322  -0.0000173   0.0000368  -0.0001999   0.0002352   0.0000588
           19
    1   0.0000089
    2  -0.0000249
    3   0.0000080
 Gradient of SCF Energy
            1           2           3           4           5           6
    1  -0.0167896   0.0254072   0.0177828   0.0031579  -0.0144439   0.0422940
    2   0.0005637  -0.0026366   0.0043639  -0.0053545   0.0132452  -0.0292914
    3   0.0155097  -0.0157122   0.0050209  -0.0021749  -0.0080287  -0.0267455
            7           8           9          10          11          12
    1   0.0221474  -0.0129187  -0.0222462   0.0067065   0.0000012  -0.0109132
    2   0.0352587   0.0051952  -0.0254620  -0.0065588  -0.0061322   0.0135888
    3   0.0185248  -0.0070223   0.0007630  -0.0167302   0.0129405   0.0017912
           13          14          15          16          17          18
    1  -0.0110644  -0.0297128  -0.0304255   0.0104497   0.0199409  -0.0097362
    2   0.0070376  -0.0104466  -0.0136791   0.0030650   0.0190575  -0.0065430
    3   0.0154840   0.0085882  -0.0221945   0.0067966   0.0053634   0.0041861
           19
    1   0.0103630
    2   0.0047287
    3   0.0036401
 Max gradient component =       4.229E-02
 RMS gradient           =       1.585E-02
 Computing fast CPCM-SWIG gradient
 Updating gradient with PCM contributions...
 -- total gradient after adding PCM contribution --
---------------------------------------------------
  Atom         X              Y              Z     
---------------------------------------------------
   1      -0.000007      -0.000001       0.000002
   2       0.000010       0.000006      -0.000005
   3      -0.000002      -0.000016       0.000019
   4       0.000005      -0.000014      -0.000003
   5      -0.000010       0.000017      -0.000015
   6       0.000011      -0.000010       0.000008
   7      -0.000001      -0.000009       0.000008
   8      -0.000025      -0.000021      -0.000009
   9       0.000022       0.000011       0.000021
  10       0.000001      -0.000002       0.000007
  11      -0.000006       0.000005      -0.000002
  12       0.000003       0.000005      -0.000007
  13      -0.000005       0.000009      -0.000005
  14      -0.000005       0.000006      -0.000003
  15       0.000001       0.000001      -0.000000
  16       0.000013       0.000018       0.000023
  17      -0.000011      -0.000011      -0.000019
  18      -0.000006       0.000001      -0.000014
  19       0.000011       0.000006      -0.000005
---------------------------------------------------
 Number of fixed atoms: 0
 Gradient time:  CPU 413.39 s  wall 34.32 s
 Geometry Optimization Parameters
   NAtoms,    NIC,     NZ,  NCons,   NDum,   NFix, NCnnct, MaxDiis
       19     121       0       0       0       0       0       0

 Cartesian Hessian Update
 Hessian updated using Powell/Murtagh-Sargent update
  Mixing factors:     0.999907 Powell                      0.000093 Murtagh-Sargent


** GEOMETRY OPTIMIZATION IN DELOCALIZED INTERNAL COORDINATES **
   Searching for a Transition State

   Optimization Cycle:  45

                       Coordinates (Angstroms)
     ATOM                X               Y               Z
      1  O         0.9863786334   -0.7277017022    0.2431372294
      2  C         2.2809832116   -0.2485899790   -0.0626964326
      3  C         2.7820803057    0.6980485948    1.0094389159
      4  O         2.0128853643    0.9095691819    1.9704649205
      5  C         4.0735771173    1.2567779561    0.8018733079
      6  C         4.7580626527    2.1377217661    1.6030881704
      7  C         4.2151611665    2.9881039990    2.7313152983
      8  O         3.5069480026    4.0794901394    2.1611266694
      9  O         3.4449817137    2.3024861703    3.6793064579
     10  H         0.7541421394   -0.3157929120    1.0912279768
     11  H         2.2742025208    0.2790930864   -1.0193444622
     12  H         2.9839714075   -1.0805671368   -0.1491762279
     13  H         4.5751054064    0.9191419639   -0.0968766393
     14  H         5.6627842829    2.5593671250    1.1842538647
     15  H         5.0473984440    3.4350082456    3.2665314635
     16  H         2.8438867479    3.7277570658    1.5534013006
     17  H         2.8005516219    1.7514424349    3.1806576308
     18  O         6.0101946484    1.0734699070    2.8679786368
     19  O         7.0751141130    1.7636269938    3.1691893192
   Point Group: c1    Number of degrees of freedom:    51


   Energy is   -646.711115806

 Hessian updated using Powell/Murtagh-Sargent update
  Mixing factors:     0.998420 Powell                      0.001580 Murtagh-Sargent

 51 Hessian modes will be used to form the next step
  Hessian Eigenvalues:
    -0.037823    0.001003    0.006841    0.008609    0.009349    0.011113
     0.012924    0.015036    0.020352    0.028961    0.035303    0.043944
     0.051355    0.057123    0.057398    0.068999    0.069936    0.081301
     0.096168    0.101149    0.118115    0.125861    0.134067    0.150111
     0.158657    0.170559    0.179120    0.183642    0.201837    0.223824
     0.231440    0.232809    0.241958    0.264397    0.303440    0.320854
     0.343302    0.343877    0.345936    0.358188    0.368961    0.381161
     0.400636    0.427384    0.451781    0.469343    0.486766    0.500170
     0.557247    0.585388    1.186400

 Transition state search - taking P-RFO step
 Searching for Lamda that Maximizes Along the Lowest mode
 Value Taken    Lamda =   0.00000000
 Searching for Lamda that Minimizes Along All other modes
 Value Taken    Lamda =  -0.00000012
 Step Taken.  Stepsize is  0.005064

                             Maximum     Tolerance    Cnvgd?
         Gradient           0.000022      0.000300     YES
         Displacement       0.002193      0.001200      NO
         Energy change     -0.000001      0.000001     YES

 Final energy is   -646.711115805791     


 ******************************
 **  OPTIMIZATION CONVERGED  **
 ******************************

                       Coordinates (Angstroms)
     ATOM                X               Y               Z
      1  O         0.9863786334   -0.7277017022    0.2431372294
      2  C         2.2809832116   -0.2485899790   -0.0626964326
      3  C         2.7820803057    0.6980485948    1.0094389159
      4  O         2.0128853643    0.9095691819    1.9704649205
      5  C         4.0735771173    1.2567779561    0.8018733079
      6  C         4.7580626527    2.1377217661    1.6030881704
      7  C         4.2151611665    2.9881039990    2.7313152983
      8  O         3.5069480026    4.0794901394    2.1611266694
      9  O         3.4449817137    2.3024861703    3.6793064579
     10  H         0.7541421394   -0.3157929120    1.0912279768
     11  H         2.2742025208    0.2790930864   -1.0193444622
     12  H         2.9839714075   -1.0805671368   -0.1491762279
     13  H         4.5751054064    0.9191419639   -0.0968766393
     14  H         5.6627842829    2.5593671250    1.1842538647
     15  H         5.0473984440    3.4350082456    3.2665314635
     16  H         2.8438867479    3.7277570658    1.5534013006
     17  H         2.8005516219    1.7514424349    3.1806576308
     18  O         6.0101946484    1.0734699070    2.8679786368
     19  O         7.0751141130    1.7636269938    3.1691893192

Z-matrix Print:
$molecule
-1 2
O 
C  1 1.248989
C  2 1.422401 1 127.224190
H  3 1.083181 2 114.774087 1 178.982958 0
C  3 1.373509 2 128.265049 1 0.302669 0
H  5 1.082464 3 116.144991 2 -170.651926 0
C  5 1.513535 3 128.056420 2 -15.577850 0
H  7 1.085725 5 108.891674 3 170.133734 0
O  7 1.400691 5 115.259565 3 50.160320 0
H  9 0.983662 7 106.938526 5 -47.727047 0
O  7 1.420495 5 108.137535 3 -75.944761 0
H  11 0.965762 7 108.364966 5 54.361815 0
C  2 1.515486 1 116.519212 3 -179.374827 0
H  13 1.092552 2 108.651586 1 121.686355 0
H  13 1.092638 2 108.595511 1 -121.546513 0
O  13 1.413889 2 111.185936 1 0.082698 0
H  16 0.971010 13 105.317622 2 -0.439810 0
O  5 2.073744 3 109.120273 2 94.234990 0
O  18 1.304262 5 111.241578 3 149.957621 0
$end

 
 --------------------------------------------------------------
 
                    Orbital Energies (a.u.)
 --------------------------------------------------------------
 
 Alpha MOs
 -- Occupied --
-19.3723 -19.3589 -19.3424 -19.3337 -19.3262 -19.3261 -10.4431 -10.4331
-10.3858 -10.3854 -10.3227  -1.2552  -1.1949  -1.1814  -1.1430  -1.1228
 -0.9256  -0.8836  -0.8505  -0.7992  -0.7298  -0.6568  -0.6431  -0.6355
 -0.6016  -0.5967  -0.5788  -0.5572  -0.5544  -0.5381  -0.5299  -0.5257
 -0.4974  -0.4896  -0.4822  -0.4721  -0.4509  -0.4149  -0.4024  -0.3932
 -0.3712  -0.3635  -0.3381  -0.2926
 -- Virtual --
  0.0237   0.0284   0.0416   0.0444   0.0524   0.0622   0.0642   0.0711
  0.0888   0.0996   0.1108   0.1173   0.1244   0.1303   0.1366   0.1422
  0.1525   0.1603   0.1614   0.1667   0.1770   0.1780   0.1817   0.1882
  0.1950   0.2011   0.2046   0.2116   0.2291   0.2336   0.2404   0.2471
  0.2615   0.2728   0.2789   0.2837   0.2895   0.2982   0.2993   0.3020
  0.3076   0.3131   0.3180   0.3284   0.3293   0.3392   0.3439   0.3480
  0.3574   0.3610   0.3688   0.3708   0.3733   0.3776   0.3866   0.3949
  0.3958   0.4041   0.4103   0.4171   0.4188   0.4292   0.4446   0.4558
  0.4741   0.4810   0.4887   0.5022   0.5150   0.5298   0.5628   0.5697
  0.5913   0.6060   0.6122   0.6220   0.6288   0.6345   0.6460   0.6534
  0.6632   0.6757   0.6824   0.6919   0.7036   0.7177   0.7282   0.7364
  0.7437   0.7687   0.7692   0.7830   0.7929   0.8058   0.8308   0.8415
  0.8511   0.8518   0.8770   0.8797   0.9016   0.9346   0.9391   0.9526
  0.9665   0.9826   1.0337   1.0489   1.0502   1.0594   1.0833   1.0894
  1.1042   1.1078   1.1201   1.1304   1.1403   1.1556   1.1732   1.1746
  1.1839   1.1866   1.2089   1.2103   1.2187   1.2289   1.2348   1.2426
  1.2468   1.2555   1.2680   1.2748   1.2919   1.2925   1.3048   1.3154
  1.3329   1.3411   1.3531   1.3622   1.3852   1.3982   1.4201   1.4217
  1.4408   1.4505   1.4659   1.4744   1.4808   1.4992   1.5123   1.5229
  1.5306   1.5451   1.5506   1.5610   1.5829   1.6187   1.6216   1.6300
  1.6388   1.6496   1.6694   1.6893   1.6942   1.7070   1.7302   1.7626
  1.7767   1.7850   1.8105   1.8217   1.8619   1.8976   1.9307   1.9395
  1.9548   2.0024   2.0156   2.0483   2.0750   2.1029   2.1372   2.1796
  2.2228   2.2319   2.2387   2.2460   2.2629   2.3075   2.3397   2.3526
  2.3782   2.3994   2.4196   2.4493   2.4820   2.5232   2.5456   2.5791
  2.6189   2.6583   2.6833   2.7194   2.7603   2.7655   2.7915   2.7990
  2.8284   2.8630   2.8867   2.9059   2.9129   2.9411   2.9609   2.9801
  3.0033   3.0290   3.0317   3.0525   3.0828   3.1059   3.1353   3.1473
  3.1511   3.1911   3.2074   3.2209   3.2474   3.2625   3.2777   3.2951
  3.3196   3.3252   3.3724   3.3747   3.4069   3.4379   3.4540   3.4686
  3.4876   3.4995   3.5255   3.5266   3.5413   3.5556   3.6052   3.6223
  3.6344   3.6502   3.6693   3.7128   3.7270   3.7389   3.7473   3.7667
  3.7801   3.7958   3.8241   3.8330   3.8464   3.8592   3.8645   3.8874
  3.9044   3.9344   3.9434   3.9613   4.0034   4.0260   4.0571   4.0622
  4.1041   4.1555   4.1931   4.2003   4.2237   4.2401   4.2544   4.2641
  4.2878   4.3009   4.3065   4.3427   4.3826   4.3972   4.4235   4.4464
  4.4730   4.4810   4.5125   4.5247   4.5427   4.5941   4.6115   4.6288
  4.6500   4.6877   4.7348   4.7727   4.7913   4.8146   4.8351   4.8838
  4.9015   4.9441   5.0578   5.0951   5.1130   5.1269   5.1856   5.2033
  5.2184   5.2217   5.2277   5.2426   5.2529   5.2589   5.2644   5.2697
  5.2873   5.2951   5.3046   5.3250   5.3302   5.3525   5.3643   5.3691
  5.3951   5.4124   5.4387   5.4529   5.4565   5.4854   5.5277   5.5538
  5.5740   5.5763   5.6103   5.6122   5.6341   5.6495   5.6565   5.6610
  5.6989   5.7116   5.7336   5.7880   5.8045   5.8362   5.8632   5.9137
  6.0063   6.0203   6.0862   6.1469   6.1960   6.3154   6.5185   6.5519
  6.5883   6.6242   6.7413   6.8074   6.8523   6.8876   6.9767   7.0017
  7.0375   7.0903   7.1001   7.1119   7.1555   7.1584   7.1927   7.2440
  7.2658   7.2857   7.3057   7.3160   7.3316   7.3432   7.3748   7.4280
  7.4344   7.4443   7.4846   7.5223   7.5536   7.6272   7.6414   7.6886
  7.7564   7.8175   7.8613   7.8992   7.9280   8.0066   8.0752  24.5095
 24.7858  24.8344  24.9615  25.2177  50.4594  50.5550  50.6091  50.6154
 50.6549  50.7794
 
 Beta MOs
 -- Occupied --
-19.3577 -19.3435 -19.3424 -19.3337 -19.3263 -19.3261 -10.4431 -10.4331
-10.3859 -10.3854 -10.3228  -1.2255  -1.1948  -1.1816  -1.1431  -1.1228
 -0.9229  -0.8601  -0.8340  -0.7992  -0.7297  -0.6567  -0.6428  -0.6354
 -0.6014  -0.5950  -0.5789  -0.5413  -0.5395  -0.5297  -0.5155  -0.4980
 -0.4864  -0.4830  -0.4719  -0.4606  -0.4494  -0.4142  -0.4016  -0.3933
 -0.3712  -0.3562  -0.2749
 -- Virtual --
  0.0188   0.0256   0.0300   0.0419   0.0446   0.0529   0.0628   0.0649
  0.0712   0.0898   0.1001   0.1116   0.1178   0.1250   0.1312   0.1371
  0.1427   0.1531   0.1606   0.1618   0.1672   0.1774   0.1787   0.1821
  0.1890   0.1960   0.2018   0.2056   0.2131   0.2309   0.2348   0.2410
  0.2473   0.2621   0.2741   0.2795   0.2844   0.2908   0.2995   0.3002
  0.3066   0.3117   0.3143   0.3187   0.3291   0.3300   0.3403   0.3450
  0.3511   0.3576   0.3621   0.3696   0.3723   0.3778   0.3804   0.3874
  0.3957   0.3969   0.4044   0.4106   0.4177   0.4201   0.4309   0.4464
  0.4562   0.4748   0.4813   0.4894   0.5024   0.5161   0.5299   0.5628
  0.5699   0.5913   0.6061   0.6123   0.6220   0.6292   0.6347   0.6462
  0.6534   0.6633   0.6760   0.6829   0.6919   0.7037   0.7178   0.7284
  0.7363   0.7441   0.7690   0.7693   0.7834   0.7929   0.8060   0.8314
  0.8417   0.8516   0.8522   0.8770   0.8800   0.9023   0.9357   0.9397
  0.9528   0.9678   0.9830   1.0345   1.0504   1.0508   1.0606   1.0839
  1.0903   1.1050   1.1099   1.1209   1.1385   1.1442   1.1610   1.1748
  1.1758   1.1850   1.1897   1.2114   1.2172   1.2205   1.2322   1.2402
  1.2460   1.2569   1.2616   1.2700   1.2798   1.2928   1.2971   1.3060
  1.3169   1.3343   1.3447   1.3547   1.3670   1.3884   1.3993   1.4214
  1.4248   1.4425   1.4523   1.4660   1.4815   1.4867   1.5019   1.5132
  1.5277   1.5320   1.5466   1.5518   1.5625   1.5852   1.6214   1.6248
  1.6323   1.6395   1.6616   1.6789   1.6964   1.7054   1.7115   1.7343
  1.7689   1.7813   1.7864   1.8196   1.8256   1.8630   1.9072   1.9331
  1.9417   1.9552   2.0030   2.0204   2.0490   2.0791   2.1084   2.1377
  2.1801   2.2251   2.2337   2.2436   2.2492   2.2712   2.3116   2.3513
  2.3632   2.3812   2.4026   2.4202   2.4509   2.4821   2.5232   2.5456
  2.5792   2.6188   2.6588   2.6832   2.7263   2.7614   2.7657   2.7912
  2.7999   2.8283   2.8628   2.8867   2.9054   2.9124   2.9405   2.9607
  2.9797   3.0031   3.0285   3.0313   3.0524   3.0826   3.1057   3.1353
  3.1470   3.1512   3.1907   3.2071   3.2209   3.2471   3.2624   3.2775
  3.2950   3.3195   3.3250   3.3723   3.3746   3.4067   3.4376   3.4537
  3.4682   3.4873   3.4992   3.5253   3.5263   3.5411   3.5553   3.6050
  3.6223   3.6341   3.6501   3.6691   3.7126   3.7268   3.7388   3.7470
  3.7664   3.7798   3.7958   3.8240   3.8327   3.8464   3.8591   3.8642
  3.8873   3.9044   3.9343   3.9434   3.9610   4.0032   4.0257   4.0569
  4.0621   4.1040   4.1554   4.1932   4.2001   4.2238   4.2400   4.2541
  4.2640   4.2878   4.3006   4.3064   4.3428   4.3825   4.3971   4.4233
  4.4467   4.4732   4.4811   4.5129   4.5248   4.5428   4.5971   4.6156
  4.6464   4.6624   4.6968   4.7356   4.7850   4.8092   4.8246   4.8459
  4.8856   4.9134   4.9443   5.0589   5.1368   5.1528   5.1959   5.2035
  5.2095   5.2185   5.2269   5.2459   5.2572   5.2718   5.2855   5.2867
  5.2959   5.2999   5.3048   5.3218   5.3253   5.3317   5.3577   5.3698
  5.3892   5.3962   5.4192   5.4435   5.4568   5.4588   5.4870   5.5281
  5.5544   5.5743   5.5765   5.6106   5.6121   5.6357   5.6559   5.6742
  5.6790   5.7112   5.7128   5.7344   5.7878   5.8043   5.8362   5.8633
  5.9137   6.0061   6.0203   6.0862   6.1468   6.1961   6.3149   6.5604
  6.5667   6.5929   6.6246   6.7423   6.8080   6.9223   6.9572   6.9990
  7.0424   7.0832   7.1002   7.1092   7.1451   7.1599   7.1919   7.2002
  7.2471   7.2858   7.2941   7.3073   7.3162   7.3328   7.3455   7.3752
  7.4311   7.4431   7.4843   7.4852   7.5243   7.5679   7.6272   7.6418
  7.6885   7.7565   7.8176   7.8612   7.8995   7.9283   8.0231   8.0947
 24.5094  24.7858  24.8344  24.9614  25.2175  50.4708  50.5660  50.6092
 50.6155  50.6553  50.7792
 --------------------------------------------------------------
 
          Ground-State Mulliken Net Atomic Charges

     Atom                 Charge (a.u.)    Spin (a.u.)
  --------------------------------------------------------
      1 O                    -0.461370      -0.000054
      2 C                    -0.538716       0.000282
      3 C                     0.448004      -0.004885
      4 O                    -0.575883      -0.006513
      5 C                    -0.135741      -0.006098
      6 C                    -0.254281      -0.002310
      7 C                    -0.346864      -0.007657
      8 O                    -0.404106      -0.000996
      9 O                    -0.489410       0.003103
     10 H                     0.347038       0.000061
     11 H                     0.211822      -0.000241
     12 H                     0.208184      -0.000463
     13 H                     0.285607       0.000487
     14 H                     0.335035      -0.000320
     15 H                     0.268031      -0.000630
     16 H                     0.332611       0.000114
     17 H                     0.400062      -0.000318
     18 O                    -0.218947       0.486098
     19 O                    -0.411076       0.540341
  --------------------------------------------------------
  Sum of atomic charges =    -1.000000
  Sum of spin   charges =     1.000000

 -----------------------------------------------------------------
                    Cartesian Multipole Moments
 -----------------------------------------------------------------
    Charge (ESU x 10^10)
                -4.8032
    Dipole Moment (Debye)
         X     -23.0842      Y      -7.1618      Z     -16.8110
       Tot      29.4412
    Quadrupole Moments (Debye-Ang)
        XX    -210.4726     XY     -40.4858     YY     -92.5957
        XZ     -88.5586     YZ     -30.9178     ZZ    -123.9651
    Octopole Moments (Debye-Ang^2)
       XXX   -1712.0969    XXY    -327.8558    XYY    -355.2048
       YYY    -392.7579    XXZ    -640.4597    XYZ    -141.8570
       YYZ    -202.6154    XZZ    -544.0753    YZZ    -206.6336
       ZZZ    -565.9481
    Hexadecapole Moments (Debye-Ang^3)
      XXXX  -13488.0413   XXXY   -2740.1038   XXYY   -1914.7685
      XYYY   -1698.7015   YYYY   -2138.0665   XXXZ   -4937.4647
      XXYZ   -1022.1159   XYYZ    -861.1868   YYYZ   -1032.6696
      XXZZ   -3180.8743   XYZZ    -918.9959   YYZZ    -875.0352
      XZZZ   -2614.7865   YZZZ   -1129.1536   ZZZZ   -2709.3573
 -----------------------------------------------------------------
 Total job time:  13188.20s(wall), 186586.20s(cpu) 
 Fri Jul 12 07:58:12 2024

        *************************************************************
        *                                                           *
        *  Thank you very much for using Q-Chem.  Have a nice day.  *
        *                                                           *
        *************************************************************


