
Running Job 1 of 1 Q_in.in
qchem Q_in.in_131564.0 /scratch/ari.fischer/qChem2187301.hpc-mn1/qchem131564/ 0
/usr/local/qchem-5.4.1/exe/qcprog.exe_s Q_in.in_131564.0 /scratch/ari.fischer/qChem2187301.hpc-mn1/qchem131564/
                  Welcome to Q-Chem
     A Quantum Leap Into The Future Of Chemistry


 Q-Chem 5.4, Q-Chem, Inc., Pleasanton, CA (2021)

 License issued to: Nanyang Technological University (site)

 E. Epifanovsky,  A. T. B. Gilbert,  Xintian Feng,  Joonho Lee,  Yuezhi Mao,  
 N. Mardirossian,  P. Pokhilko,  A. White,  M. Wormit,  M. P. Coons,  
 A. L. Dempwolff,  Zhengting Gan,  D. Hait,  P. R. Horn,  L. D. Jacobson,  
 I. Kaliman,  J. Kussmann,  A. W. Lange,  Ka Un Lao,  D. S. Levine,  Jie Liu,  
 S. C. McKenzie,  A. F. Morrison,  K. Nanda,  F. Plasser,  D. R. Rehn,  
 M. L. Vidal,  Zhi-Qiang You,  Ying Zhu,  B. Alam,  B. Albrecht,  
 A. Aldossary,  E. Alguire,  J. H. Andersen,  D. Barton,  K. Begam,  A. Behn,  
 Y. A. Bernard,  E. J. Berquist,  H. Burton,  A. Carreras,  K. Carter-Fenk,  
 R. Chakraborty,  A. D. Chien,  K. D. Closser,  V. Cofer-Shabica,  
 S. Dasgupta,  Jia Deng,  M. de Wergifosse,  M. Diedenhofen,  Hainam Do,  
 S. Ehlert,  Po-Tung Fang,  S. Fatehi,  Qingguo Feng,  T. Friedhoff,  
 J. Gayvert,  Qinghui Ge,  G. Gidofalvi,  M. Goldey,  J. Gomes,  
 C. Gonzalez-Espinoza,  S. Gulania,  A. Gunina,  M. W. D. Hanson-Heine,  
 P. H. P. Harbach,  A. W. Hauser,  M. F. Herbst,  M. Hernandez Vera,  
 M. Hodecker,  Z. C. Holden,  S. Houck,  Xunkun Huang,  Kerwin Hui,  
 B. C. Huynh,  M. Ivanov,  Hyunjun Ji,  Hanjie Jiang,  B. Kaduk,  S. Kaehler,  
 K. Khistyaev,  Jaehoon Kim,  P. Klunzinger,  Z. Koczor-Benda,  
 Joong Hoon Koh,  D. Kosenkov,  L. Koulias,  T. Kowalczyk,  C. M. Krauter,  
 K. Kue,  A. Kunitsa,  T. Kus,  A. Landau,  K. V. Lawler,  D. Lefrancois,  
 S. Lehtola,  Rain Li,  Yi-Pei Li,  Jiashu Liang,  M. Liebenthal,  
 Hung-Hsuan Lin,  You-Sheng Lin,  Fenglai Liu,  Kuan-Yu Liu,  
 M. Loipersberger,  A. Luenser,  A. Manjanath,  P. Manohar,  E. Mansoor,  
 S. F. Manzer,  Shan-Ping Mao,  A. V. Marenich,  T. Markovich,  S. Mason,  
 S. A. Maurer,  P. F. McLaughlin,  M. F. S. J. Menger,  J.-M. Mewes,  
 S. A. Mewes,  P. Morgante,  J. W. Mullinax,  K. J. Oosterbaan,  G. Paran,  
 Alexander C. Paul,  Suranjan K. Paul,  F. Pavosevic,  Zheng Pei,  S. Prager,  
 E. I. Proynov,  E. Ramos,  B. Rana,  A. E. Rask,  A. Rettig,  R. M. Richard,  
 F. Rob,  E. Rossomme,  T. Scheele,  M. Scheurer,  M. Schneider,  
 N. Sergueev,  S. M. Sharada,  W. Skomorowski,  D. W. Small,  C. J. Stein,  
 Yu-Chuan Su,  E. J. Sundstrom,  Zhen Tao,  J. Thirman,  T. Tsuchimochi,  
 N. M. Tubman,  S. P. Veccham,  O. Vydrov,  J. Wenzel,  J. Witte,  A. Yamada,  
 Kun Yao,  S. Yeganeh,  S. R. Yost,  A. Zech,  Igor Ying Zhang,  Xing Zhang,  
 Yu Zhang,  D. Zuev,  A. Aspuru-Guzik,  A. T. Bell,  N. A. Besley,  
 K. B. Bravaya,  B. R. Brooks,  D. Casanova,  Jeng-Da Chai,  S. Coriani,  
 C. J. Cramer,  A. E. DePrince, III,  R. A. DiStasio Jr.,  A. Dreuw,  
 B. D. Dunietz,  T. R. Furlani,  W. A. Goddard III,  S. Grimme,  
 S. Hammes-Schiffer,  T. Head-Gordon,  W. J. Hehre,  Chao-Ping Hsu,  
 T.-C. Jagau,  Yousung Jung,  A. Klamt,  Jing Kong,  D. S. Lambrecht,  
 WanZhen Liang,  N. J. Mayhall,  C. W. McCurdy,  J. B. Neaton,  
 C. Ochsenfeld,  J. A. Parkhill,  R. Peverati,  V. A. Rassolov,  Yihan Shao,  
 L. V. Slipchenko,  T. Stauch,  R. P. Steele,  J. E. Subotnik,  
 A. J. W. Thom,  A. Tkatchenko,  D. G. Truhlar,  T. Van Voorhis,  
 T. A. Wesolowski,  K. B. Whaley,  H. L. Woodcock III,  P. M. Zimmerman,  
 S. Faraji,  P. M. W. Gill,  M. Head-Gordon,  J. M. Herbert,  A. I. Krylov

 Additional authors for Version 5.4.1: 
 S. Kotaru,  Shaozhi Li,  Xiangyuan Li,  F. Matz,  A. Molle,  Haisheng Ren,  
 Yingli Su,  Hung-Yi Tsai,  C. Utku,  Fang Wang

 Contributors to earlier versions of Q-Chem not listed above: 
 R. D. Adamson,  B. Austin,  R. Baer,  J. Baker,  G. J. O. Beran,  
 K. Brandhorst,  S. T. Brown,  E. F. C. Byrd,  A. K. Chakraborty,  
 G. K. L. Chan,  Chun-Min Chang,  Yunqing Chen,  C.-L. Cheng,  
 Siu Hung Chien,  D. M. Chipman,  D. L. Crittenden,  H. Dachsel,  
 R. J. Doerksen,  A. D. Dutoi,  R. G. Edgar,  J. Fosso-Tande,  
 L. Fusti-Molnar,  D. Ghosh,  A. Ghysels,  A. Golubeva-Zadorozhnaya,  
 J. Gonthier,  M. S. Gordon,  S. R. Gwaltney,  G. Hawkins,  J. E. Herr,  
 A. Heyden,  S. Hirata,  E. G. Hohenstein,  G. Kedziora,  F. J. Keil,  
 C. Kelley,  Jihan Kim,  R. A. King,  R. Z. Khaliullin,  P. P. Korambath,  
 W. Kurlancheek,  A. Laurent,  A. M. Lee,  M. S. Lee,  S. V. Levchenko,  
 Ching Yeh Lin,  D. Liotard,  E. Livshits,  R. C. Lochan,  I. Lotan,  
 L. A. Martinez-Martinez,  P. E. Maslen,  N. Nair,  D. P. O'Neill,  
 D. Neuhauser,  E. Neuscamman,  C. M. Oana,  R. Olivares-Amaya,  R. Olson,  
 T. M. Perrine,  B. Peters,  P. A. Pieniazek,  A. Prociuk,  Y. M. Rhee,  
 J. Ritchie,  M. A. Rohrdanz,  E. Rosta,  N. J. Russ,  H. F. Schaefer III,  
 M. W. Schmidt,  N. E. Schultz,  S. Sharma,  N. Shenvi,  C. D. Sherrill,  
 A. C. Simmonett,  A. Sodt,  T. Stein,  D. Stuck,  K. S. Thanthiriwatte,  
 V. Vanovschi,  L. Vogt,  Tao Wang,  A. Warshel,  M. A. Watson,  
 C. F. Williams,  Q. Wu,  X. Xu,  Jun Yang,  W. Zhang,  Yan Zhao

 Please cite Q-Chem as follows:
 Y. Shao et al., Mol. Phys. 113, 184-215 (2015)
 DOI: 10.1080/00268976.2014.952696

 Q-Chem 5.4.1 for Intel X86 EM64T Linux

 Parts of Q-Chem use Armadillo 9.800.1 (Horizon Scraper).
 http://arma.sourceforge.net/

 Q-Chem begins on Tue Jun 25 21:17:21 2024  

 Host: 
0

     Scratch files written to /scratch/ari.fischer/qChem2187301.hpc-mn1/qchem131564//
 Aug1521 |scratch|qcdevops|jenkins|workspace|build_RNUM 8249   
 Processing $rem in /usr/local/qchem-5.4.1/config/preferences:
 Processing $rem in /home/ari.fischer/.qchemrc:
 Symmetry turned off for PCM/SM12/SMD calculation


!!********************************************.
!!******************Warning*******************.
!!Desired Analytical derivatives not available.
!!Finite difference job might take a long time.
!!********************************************.
!!********************************************.


 2-order derivative to be evaluated numerically with 1-order analytical derivatives

 Checking the input file for inconsistencies... 	...done.

--------------------------------------------------------------
User input:
--------------------------------------------------------------
$molecule
0 2
C         2.3933011767   -1.0092531978   -0.9494533288
O         1.1454541618   -0.7223250869   -0.3651960457
C         3.4644114298   -0.4989429957    0.0352642237
O         3.4257056803   -1.3484646556    1.1427902312
C         3.3010003111    0.9278403127    0.3865907803
H         2.5037625890   -0.5025317401   -1.9049966674
H         0.4659882081   -0.8575363479   -1.0355436143
H         2.6964498882    1.1882492152    1.2407965474
H         3.6712101394    1.6977398625   -0.2711676930
O         2.5452001211   -2.3812855146   -1.2080936865
H         2.5659421141   -2.8467409548   -0.3610106393
O         4.7714989222   -0.7597202089   -0.5386740507
O         4.9214455069    0.0044832675   -1.7325110410
H         3.8644383191   -0.9148629448    1.8852190188
H         5.4571237324    0.7542028890   -1.4344134345
$end

$rem
BASIS = 6-311++G(2df,2p)
GUI = 2
JOB_TYPE = Frequency
METHOD = wB97M-V
SOLVENT_METHOD = SMD
SCF_ALGORITHM = DIIS_GDM
MAX_SCF_CYCLES = 400
SCF_CONVERGENCE = 7
THRESH = 12
$end
--------------------------------------------------------------
 ----------------------------------------------------------------
             Standard Nuclear Orientation (Angstroms)
    I     Atom           X                Y                Z
 ----------------------------------------------------------------
    1      C       2.3933011767    -1.0092531978    -0.9494533288
    2      O       1.1454541618    -0.7223250869    -0.3651960457
    3      C       3.4644114298    -0.4989429957     0.0352642237
    4      O       3.4257056803    -1.3484646556     1.1427902312
    5      C       3.3010003111     0.9278403127     0.3865907803
    6      H       2.5037625890    -0.5025317401    -1.9049966674
    7      H       0.4659882081    -0.8575363479    -1.0355436143
    8      H       2.6964498882     1.1882492152     1.2407965474
    9      H       3.6712101394     1.6977398625    -0.2711676930
   10      O       2.5452001211    -2.3812855146    -1.2080936865
   11      H       2.5659421141    -2.8467409548    -0.3610106393
   12      O       4.7714989222    -0.7597202089    -0.5386740507
   13      O       4.9214455069     0.0044832675    -1.7325110410
   14      H       3.8644383191    -0.9148629448     1.8852190188
   15      H       5.4571237324     0.7542028890    -1.4344134345
 ----------------------------------------------------------------
 Nuclear Repulsion Energy =         434.08335710 hartrees
 There are       33 alpha and       32 beta electrons
 Requested basis set is 6-311++G(2df,2p)
 There are 106 shells and 342 basis functions

 Total QAlloc Memory Limit 288000 MB
 Mega-Array Size       188 MB
 MEM_STATIC part       192 MB
 
 Citation of the SMD model:
 Marenich, A.V.; Cramer, C.J.; Truhlar, D.G.
 J. Phys. Chem. B 2009, 113, 6378-6396.
 iSolventCode=           1
 Solvent: water                                                           
 
 vradii
            1           2           3           4           5           6
    1   1.8500000   1.5200000   1.8500000   1.5200000   1.8500000   1.2000000
            7           8           9          10          11          12
    1   1.2000000   1.2000000   1.2000000   1.5200000   1.2000000   1.5200000
           13          14          15
    1   1.5200000   1.2000000   1.2000000
 Changing PCM_VDW_RADII to SMD_RADIUS
 Discretize the solute cavity surface with Lebedev spheres
	Using 110 Lebedev grid points for each H atom
	Using 194 Lebedev grid points for other atoms
	Atomic van der Waals radii will be scaled by 1.20
 Remove points where switching function is < 1.0e-08
 Keep 1196 surface tesserae and discard 1126 interior tesserae
 Molecular Surface Area = 136.412 Angst**2

                       Distance Matrix (Angstroms)
             C (  1)   O (  2)   C (  3)   O (  4)   C (  5)   H (  6)
   O (  2)  1.407411
   C (  3)  1.541870  2.363859
   O (  4)  2.357627  2.804571  1.396352
   C (  5)  2.522154  2.816844  1.478460  2.401865
   H (  6)  1.087213  2.065017  2.165057  3.294630  2.816545
   H (  7)  1.935191  0.964013  3.204023  3.707570  3.639688  2.243769
   H (  8)  3.117388  2.938553  2.211264  2.641276  1.078407  3.576574
   H (  9)  3.069354  3.499285  2.227573  3.367330  1.078168  2.978846
   O ( 10)  1.404436  2.328501  2.436001  2.714528  3.750275  2.004272
   H ( 11)  1.937119  2.555572  2.544884  2.290293  3.917484  2.807682
   O ( 12)  2.426279  3.630385  1.451168  2.232734  2.422053  2.660002
   O ( 13)  2.834141  4.081165  2.345510  3.512131  2.822946  2.476289
   H ( 14)  3.195078  3.534730  1.937871  0.965245  2.441087  4.048109
   H ( 15)  3.568189  4.681224  2.775109  3.897416  2.827556  3.243944
             H (  7)   H (  8)   H (  9)   O ( 10)   H ( 11)   O ( 12)
   H (  8)  3.787073
   H (  9)  4.169791  1.869699
   O ( 10)  2.583545  4.331457  4.334072
   H ( 11)  2.970141  4.343267  4.677819  0.966762
   O ( 12)  4.335190  3.356625  2.705791  2.834432  3.041661
   O ( 13)  4.591290  3.897751  2.562368  3.407851  3.944476  1.425390
   H ( 14)  4.481473  2.490494  3.393086  3.668701  3.234779  2.592699
   H ( 15)  5.260060  3.868652  2.330856  4.285068  4.741089  1.887960
             O ( 13)   H ( 14)
   H ( 14)  3.879489
   H ( 15)  0.968449  4.042572
 
 A cutoff of  1.0D-12 yielded   5272 shell pairs
 There are     55354 function pairs (     69039 Cartesian)
 Smallest overlap matrix eigenvalue = 1.48E-05
 Guess from superposition of atomic densities
 Warning:  Energy on first SCF cycle will be non-variational
 SAD guess density has 65.000000 electrons

 -----------------------------------------------------------------------
  General SCF calculation program by
  Eric Jon Sundstrom, Paul Horn, Yuezhi Mao, Dmitri Zuev, Alec White,
  David Stuck, Shaama M.S., Shane Yost, Joonho Lee, David Small,
  Daniel Levine, Susi Lehtola, Hugh Burton, Evgeny Epifanovsky,
  Bang C. Huynh
 -----------------------------------------------------------------------
 Exchange:     0.1500 Hartree-Fock + 1.0000 wB97M-V + LR-HF
 Correlation:  1.0000 wB97M-V
 Using SG-2 standard quadrature grid
 Nonlocal Correlation:  VV10 with C = 0.0100 and b = 6.00 and scale = 1.00000
 Grid used for NLC:  SG-1 standard quadrature
 using 16 threads for integral computing
 -------------------------------------------------------
 OpenMP Integral computing Module                
 Release: version 1.0, May 2013, Q-Chem Inc. Pittsburgh 
 -------------------------------------------------------
 
 Citation of the SMD model:
 Marenich, A.V.; Cramer, C.J.; Truhlar, D.G.
 J. Phys. Chem. B 2009, 113, 6378-6396.
 iSolventCode=           1
 Solvent: water                                                           
 
 vradii
            1           2           3           4           5           6
    1   1.8500000   1.5200000   1.8500000   1.5200000   1.8500000   1.2000000
            7           8           9          10          11          12
    1   1.2000000   1.2000000   1.2000000   1.5200000   1.2000000   1.5200000
           13          14          15
    1   1.5200000   1.2000000   1.2000000
 -------------------------------------------------------
 OpenMP BLAS3 based DFT computing Module                
 Release: version 1.0, May 2013, Q-Chem Inc. Pittsburgh 
 -------------------------------------------------------
 A unrestricted SCF calculation will be
 performed using DIIS, GDM
 SCF converges when RMS gradient is below 1.0e-07
 ---------------------------------------
  Cycle       Energy         DIIS error
 ---------------------------------------
    1    -495.9102194379      1.30e-02  
    2    -494.3957790527      1.74e-03  Done DIIS. Switching to GDM
 ---------------------------------------
  Cycle       Energy        RMS Gradient
 ---------------------------------------
    1    -494.3957790527      4.19e-02   Descent step
    2    -494.5214260914      3.49e-02   Normal BFGS step
    3    -494.5374353641      1.26e-02   Normal BFGS step
    4    -494.5388118206      6.19e-03   Normal BFGS step
    5    -494.5390196877      2.31e-03   Normal BFGS step
    6    -494.5390869966      7.46e-04   Normal BFGS step
    7    -494.5390955201      4.74e-04   Normal BFGS step
    8    -494.5390977527      1.78e-04   Normal BFGS step
    9    -494.5390979607      5.82e-05   Normal BFGS step
   10    -494.5390980336      3.92e-05   Normal BFGS step
   11    -494.5390980389      1.36e-05   Normal BFGS step
   12    -494.5390980406      3.23e-06   Normal BFGS step
   13    -494.5390980407      1.02e-06   Normal BFGS step
   14    -494.5390980408      3.15e-07   Normal BFGS step
   15    -494.5390980408      1.13e-07   Normal BFGS step
   16    -494.5390980408      5.29e-08  Convergence criterion met
 ---------------------------------------
 SCF time:   CPU 1234.04s  wall 85.00s 
<S^2> =          0.753420486
(3)  G-ENP(liq) elect-nuc-pol free energy of system     -494.539098041 a.u.
(4)  G-CDS(liq) cavity-dispersion-solvent structure 
     free energy                                                3.8178 kcal/mol
(6)  G-S(liq) free energy of system                     -494.533014038 a.u.
 SCF   energy in the final basis set =     -494.5330140384
 Total energy in the final basis set =     -494.5330140384
 
 --------------------------------------------------------------
 
                    Orbital Energies (a.u.)
 --------------------------------------------------------------
 
 Alpha MOs
 -- Occupied --
-19.4039 -19.3980 -19.3615 -19.3485 -19.3477 -10.4667 -10.4492 -10.3575
 -1.2782  -1.2127  -1.1837  -1.1381  -1.0382  -0.8884  -0.8085  -0.7359
 -0.6897  -0.6510  -0.6432  -0.6095  -0.5816  -0.5770  -0.5631  -0.5345
 -0.5144  -0.4896  -0.4629  -0.4512  -0.4340  -0.4154  -0.4134  -0.3968
 -0.3212
 -- Virtual --
  0.0274   0.0388   0.0430   0.0493   0.0659   0.0708   0.0779   0.0963
  0.1051   0.1229   0.1315   0.1394   0.1422   0.1430   0.1500   0.1614
  0.1702   0.1806   0.1922   0.1983   0.2148   0.2225   0.2375   0.2462
  0.2575   0.2628   0.2730   0.2784   0.2841   0.2941   0.2974   0.3104
  0.3163   0.3247   0.3341   0.3398   0.3478   0.3510   0.3578   0.3698
  0.3706   0.3793   0.3925   0.4058   0.4101   0.4186   0.4314   0.4382
  0.4431   0.4512   0.4697   0.4888   0.4928   0.5569   0.5725   0.5787
  0.6069   0.6199   0.6315   0.6450   0.6488   0.6561   0.6613   0.6768
  0.6823   0.7102   0.7245   0.7462   0.7535   0.7666   0.7940   0.8164
  0.8295   0.8626   0.8782   0.9140   0.9318   0.9397   0.9593   0.9822
  1.0015   1.0226   1.0597   1.0659   1.0868   1.0893   1.1067   1.1240
  1.1326   1.1446   1.1672   1.1805   1.1907   1.1991   1.2084   1.2172
  1.2364   1.2506   1.2640   1.2803   1.2843   1.2900   1.3302   1.3404
  1.3445   1.3652   1.4010   1.4085   1.4292   1.4370   1.4690   1.4950
  1.5101   1.5214   1.5291   1.5408   1.5543   1.5637   1.6165   1.6499
  1.6517   1.6624   1.6880   1.6982   1.7207   1.7515   1.7734   1.8290
  1.8543   1.8745   1.9191   1.9439   1.9774   1.9895   2.0058   2.0505
  2.1059   2.1258   2.1952   2.2188   2.2536   2.2859   2.3049   2.3638
  2.3831   2.4151   2.4430   2.4581   2.4648   2.4759   2.5146   2.5544
  2.6417   2.6573   2.6822   2.7417   2.7996   2.8196   2.8397   2.8519
  2.8763   2.9241   2.9825   3.0253   3.0315   3.0651   3.1281   3.1481
  3.1707   3.1790   3.2176   3.2543   3.3201   3.3365   3.3594   3.3681
  3.4100   3.4253   3.4348   3.4874   3.5244   3.5652   3.6171   3.6438
  3.6634   3.6954   3.7095   3.7618   3.7706   3.7983   3.8160   3.8279
  3.8316   3.8611   3.8831   3.8891   3.9133   3.9234   3.9444   3.9622
  3.9912   4.0720   4.0870   4.1169   4.1958   4.2007   4.2173   4.2383
  4.2537   4.2819   4.2857   4.3167   4.3223   4.3506   4.3823   4.4110
  4.4486   4.4838   4.5274   4.5648   4.6098   4.7102   4.7546   4.8523
  4.9511   5.0137   5.0444   5.0881   5.2028   5.2132   5.2367   5.2433
  5.2742   5.2804   5.2833   5.2992   5.3230   5.3367   5.3604   5.3737
  5.3892   5.4029   5.4409   5.4576   5.4911   5.5134   5.5268   5.5551
  5.5867   5.5966   5.6119   5.6163   5.6381   5.6691   5.6749   5.7099
  5.7258   5.7769   5.8117   5.8646   5.9506   6.0260   6.0638   6.0904
  6.1480   6.1574   6.2370   6.4874   6.5655   6.7460   6.7915   6.8597
  7.0146   7.0390   7.0784   7.0907   7.1155   7.1482   7.2419   7.2642
  7.2761   7.2927   7.3018   7.3148   7.3519   7.3984   7.4107   7.4175
  7.4793   7.4876   7.5707   7.5962   7.6605   7.6936   7.7641   7.8155
  7.8486   7.8648   7.9027   8.0039   8.1801  24.5610  24.7845  24.8572
 50.4846  50.5653  50.6152  50.6334  50.6785
 
 Beta MOs
 -- Occupied --
-19.4032 -19.3980 -19.3611 -19.3482 -19.3474 -10.4676 -10.4483 -10.3445
 -1.2772  -1.2118  -1.1826  -1.1373  -1.0370  -0.8755  -0.7916  -0.7314
 -0.6876  -0.6500  -0.6387  -0.6011  -0.5799  -0.5749  -0.5598  -0.5328
 -0.5054  -0.4850  -0.4605  -0.4496  -0.4323  -0.4130  -0.4068  -0.3924
 -- Virtual --
 -0.0077   0.0274   0.0387   0.0452   0.0511   0.0656   0.0706   0.0779
  0.0958   0.1086   0.1232   0.1301   0.1386   0.1426   0.1434   0.1498
  0.1613   0.1692   0.1804   0.1916   0.1967   0.2160   0.2237   0.2377
  0.2474   0.2593   0.2657   0.2730   0.2791   0.2849   0.2959   0.2972
  0.3139   0.3168   0.3266   0.3364   0.3415   0.3494   0.3540   0.3595
  0.3704   0.3718   0.3801   0.3945   0.4063   0.4106   0.4199   0.4333
  0.4387   0.4438   0.4543   0.4713   0.4892   0.4969   0.5639   0.5742
  0.5808   0.6077   0.6257   0.6362   0.6488   0.6632   0.6647   0.6705
  0.6841   0.6936   0.7148   0.7283   0.7490   0.7592   0.7690   0.7985
  0.8198   0.8349   0.8670   0.8827   0.9149   0.9336   0.9433   0.9623
  0.9851   1.0030   1.0272   1.0626   1.0694   1.0887   1.0914   1.1085
  1.1249   1.1346   1.1457   1.1688   1.1817   1.1924   1.2015   1.2108
  1.2183   1.2413   1.2543   1.2657   1.2844   1.2862   1.2926   1.3332
  1.3422   1.3523   1.3696   1.4028   1.4207   1.4338   1.4405   1.4743
  1.5012   1.5132   1.5229   1.5365   1.5501   1.5570   1.5660   1.6192
  1.6543   1.6600   1.6756   1.6956   1.7002   1.7232   1.7555   1.7756
  1.8302   1.8571   1.8769   1.9195   1.9466   1.9796   1.9913   2.0071
  2.0523   2.1083   2.1270   2.1971   2.2211   2.2553   2.2905   2.3099
  2.3653   2.3851   2.4210   2.4460   2.4593   2.4675   2.4786   2.5193
  2.5557   2.6545   2.6712   2.6910   2.7537   2.8088   2.8351   2.8539
  2.8746   2.9067   2.9581   3.0031   3.0575   3.0759   3.1108   3.1567
  3.1741   3.2017   3.2145   3.2410   3.2692   3.3394   3.3475   3.3810
  3.4159   3.4286   3.4497   3.4539   3.5191   3.5346   3.5873   3.6332
  3.6560   3.6780   3.7032   3.7313   3.7776   3.7853   3.8054   3.8202
  3.8320   3.8447   3.8666   3.8881   3.8941   3.9198   3.9322   3.9559
  3.9665   4.0076   4.0801   4.1037   4.1230   4.2021   4.2110   4.2374
  4.2466   4.2594   4.2898   4.3167   4.3326   4.3498   4.3637   4.3919
  4.4205   4.4586   4.4968   4.5540   4.5759   4.6182   4.7130   4.7581
  4.8547   4.9617   5.0367   5.0458   5.1125   5.2046   5.2141   5.2398
  5.2461   5.2753   5.2831   5.2849   5.3005   5.3267   5.3408   5.3661
  5.3755   5.3943   5.4064   5.4441   5.4610   5.4940   5.5225   5.5357
  5.5591   5.5915   5.6161   5.6245   5.6334   5.6691   5.6708   5.7013
  5.7120   5.7315   5.7794   5.8140   5.8668   5.9553   6.0278   6.0664
  6.0912   6.1501   6.1584   6.2383   6.4913   6.5667   6.7472   6.7931
  6.8603   7.0152   7.0396   7.0796   7.0919   7.1165   7.1499   7.2427
  7.2653   7.2771   7.2940   7.3028   7.3156   7.3531   7.4001   7.4121
  7.4186   7.4809   7.4889   7.5726   7.5967   7.6612   7.6945   7.7656
  7.8171   7.8498   7.8658   7.9036   8.0054   8.1808  24.5696  24.7895
 24.8585  50.4847  50.5657  50.6155  50.6338  50.6788
 --------------------------------------------------------------
 
          Ground-State Mulliken Net Atomic Charges

     Atom                 Charge (a.u.)    Spin (a.u.)
  --------------------------------------------------------
      1 C                    -0.136377       0.026755
      2 O                    -0.423508       0.004914
      3 C                     0.258431      -0.033344
      4 O                    -0.414895       0.008690
      5 C                    -0.477516       0.984965
      6 H                     0.276199       0.003585
      7 H                     0.341077      -0.000684
      8 H                     0.234690      -0.011768
      9 H                     0.229062      -0.012516
     10 O                    -0.444964       0.008345
     11 H                     0.350367      -0.000780
     12 O                    -0.195453       0.018983
     13 O                    -0.276627       0.001386
     14 H                     0.346227       0.000414
     15 H                     0.333287       0.001053
  --------------------------------------------------------
  Sum of atomic charges =     0.000000
  Sum of spin   charges =     1.000000

 -----------------------------------------------------------------
                    Cartesian Multipole Moments
 -----------------------------------------------------------------
    Charge (ESU x 10^10)
                -0.0000
    Dipole Moment (Debye)
         X      -0.2034      Y       4.4363      Z       1.5788
       Tot       4.7132
    Quadrupole Moments (Debye-Ang)
        XX     -45.7247     XY      20.3983     YY     -50.4157
        XZ      10.9848     YZ      -5.9405     ZZ     -46.2298
    Octopole Moments (Debye-Ang^2)
       XXX    -445.6071    XXY     126.6974    XYY    -161.8226
       YYY     105.6314    XXZ      59.0417    XYZ     -29.5442
       YYZ      28.8543    XZZ    -153.3351    YZZ      43.5562
       ZZZ      73.4041
    Hexadecapole Moments (Debye-Ang^3)
      XXXX   -3296.5267   XXXY     729.9957   XXYY    -671.1887
      XYYY     299.6408   YYYY    -443.0450   XXXZ     328.5788
      XXYZ    -154.9542   XYYZ      87.5993   YYYZ     -95.9018
      XXZZ    -621.8509   XYZZ     127.1439   YYZZ    -156.7948
      XZZZ     278.9345   YZZZ     -82.9539   ZZZZ    -318.5471
 -----------------------------------------------------------------
 Calculating analytic gradient of the SCF energy
 Gradient of CDS energy
            1           2           3           4           5           6
    1  -0.0017178   0.0021152  -0.0000451   0.0000577  -0.0000734   0.0002308
    2  -0.0026159  -0.0006474  -0.0024300   0.0022544   0.0013269  -0.0000026
    3  -0.0000260  -0.0007478   0.0026710  -0.0030050   0.0002938  -0.0001007
            7           8           9          10          11          12
    1  -0.0005126  -0.0001354   0.0001148  -0.0002492  -0.0000277  -0.0001076
    2   0.0000609  -0.0002556  -0.0001923   0.0032629  -0.0004819  -0.0001223
    3  -0.0000463   0.0000925  -0.0001358   0.0006338   0.0001131  -0.0001352
           13          14          15
    1  -0.0001735   0.0001184   0.0004054
    2  -0.0001873  -0.0002227   0.0002527
    3   0.0001429   0.0004481  -0.0001984
 Gradient of SCF Energy
            1           2           3           4           5           6
    1   0.0000849   0.0051433   0.0023039  -0.0060423  -0.0024409  -0.0029747
    2  -0.0011294   0.0013596   0.0071172  -0.0076103  -0.0136141   0.0029798
    3   0.0008531   0.0119824   0.0007889  -0.0099811   0.0002291  -0.0011185
            7           8           9          10          11          12
    1  -0.0072596  -0.0032633   0.0055387   0.0044090  -0.0020855   0.0010313
    2  -0.0003063   0.0024881   0.0080278  -0.0030811  -0.0006770  -0.0047121
    3  -0.0094538   0.0074239  -0.0070515  -0.0045302   0.0016301   0.0011368
           13          14          15
    1  -0.0069913   0.0055185   0.0070280
    2  -0.0132766   0.0074258   0.0150087
    3  -0.0076465   0.0106916   0.0050459
 Max gradient component =       1.501E-02
 RMS gradient           =       6.427E-03
 Computing fast CPCM-SWIG gradient
 Updating gradient with PCM contributions...
 -- total gradient after adding PCM contribution --
---------------------------------------------------
  Atom         X              Y              Z     
---------------------------------------------------
   1       0.000006       0.000008       0.000003
   2       0.000000       0.000002       0.000003
   3      -0.000048       0.000019      -0.000008
   4       0.000041       0.000001       0.000014
   5       0.000015       0.000000      -0.000005
   6      -0.000008      -0.000010      -0.000003
   7      -0.000013      -0.000027      -0.000004
   8      -0.000033       0.000016      -0.000026
   9       0.000016       0.000007      -0.000010
  10      -0.000018      -0.000029       0.000003
  11       0.000025      -0.000015       0.000043
  12       0.000018      -0.000020       0.000018
  13       0.000000       0.000014      -0.000033
  14      -0.000009       0.000028       0.000026
  15       0.000007       0.000006      -0.000020
---------------------------------------------------
 Number of fixed atoms: 0
 Gradient time:  CPU 194.89 s  wall 16.26 s
 ######################################################
 ######################################################
 # Starting finite difference calculation for IDERIV  #
 Finite diff step size:  1.88973e-03 a.u.
 ----------------------------------------------------------------
             Standard Nuclear Orientation (Angstroms)
    I     Atom           X                Y                Z
 ----------------------------------------------------------------
    1      C       2.3943011767    -1.0092531978    -0.9494533288
    2      O       1.1454541618    -0.7223250869    -0.3651960457
    3      C       3.4644114298    -0.4989429957     0.0352642237
    4      O       3.4257056803    -1.3484646556     1.1427902312
    5      C       3.3010003111     0.9278403127     0.3865907803
    6      H       2.5037625890    -0.5025317401    -1.9049966674
    7      H       0.4659882081    -0.8575363479    -1.0355436143
    8      H       2.6964498882     1.1882492152     1.2407965474
    9      H       3.6712101394     1.6977398625    -0.2711676930
   10      O       2.5452001211    -2.3812855146    -1.2080936865
   11      H       2.5659421141    -2.8467409548    -0.3610106393
   12      O       4.7714989222    -0.7597202089    -0.5386740507
   13      O       4.9214455069     0.0044832675    -1.7325110410
   14      H       3.8644383191    -0.9148629448     1.8852190188
   15      H       5.4571237324     0.7542028890    -1.4344134345
 ----------------------------------------------------------------
 Nuclear Repulsion Energy =         434.08911304 hartrees
 There are       33 alpha and       32 beta electrons
 Discretize the solute cavity surface with Lebedev spheres
	Using 110 Lebedev grid points for each H atom
	Using 194 Lebedev grid points for other atoms
	Atomic van der Waals radii will be scaled by 1.20
 Remove points where switching function is < 1.0e-08
 Keep 1196 surface tesserae and discard 1126 interior tesserae
 Molecular Surface Area = 136.412 Angst**2

                       Distance Matrix (Angstroms)
             C (  1)   O (  2)   C (  3)   O (  4)   C (  5)   H (  6)
   O (  2)  1.408298
   C (  3)  1.541175  2.363859
   O (  4)  2.357190  2.804571  1.396352
   C (  5)  2.521795  2.816844  1.478460  2.401865
   H (  6)  1.087112  2.065017  2.165057  3.294630  2.816545
   H (  7)  1.936187  0.964013  3.204023  3.707570  3.639688  2.243769
   H (  8)  3.117291  2.938553  2.211264  2.641276  1.078407  3.576574
   H (  9)  3.068938  3.499285  2.227573  3.367330  1.078168  2.978846
   O ( 10)  1.404328  2.328501  2.436001  2.714528  3.750275  2.004272
   H ( 11)  1.937030  2.555572  2.544884  2.290293  3.917484  2.807682
   O ( 12)  2.425299  3.630385  1.451168  2.232734  2.422053  2.660002
   O ( 13)  2.833249  4.081165  2.345510  3.512131  2.822946  2.476289
   H ( 14)  3.194617  3.534730  1.937871  0.965245  2.441087  4.048109
   H ( 15)  3.567330  4.681224  2.775109  3.897416  2.827556  3.243944
             H (  7)   H (  8)   H (  9)   O ( 10)   H ( 11)   O ( 12)
   H (  8)  3.787073
   H (  9)  4.169791  1.869699
   O ( 10)  2.583545  4.331457  4.334072
   H ( 11)  2.970141  4.343267  4.677819  0.966762
   O ( 12)  4.335190  3.356625  2.705791  2.834432  3.041661
   O ( 13)  4.591290  3.897751  2.562368  3.407851  3.944476  1.425390
   H ( 14)  4.481473  2.490494  3.393086  3.668701  3.234779  2.592699
   H ( 15)  5.260060  3.868652  2.330856  4.285068  4.741089  1.887960
             O ( 13)   H ( 14)
   H ( 14)  3.879489
   H ( 15)  0.968449  4.042572
 
 Requested basis set is 6-311++G(2df,2p)
 There are 106 shells and 342 basis functions
 A cutoff of  1.0D-12 yielded   5273 shell pairs
 There are     55355 function pairs (     69040 Cartesian)
 Smallest overlap matrix eigenvalue = 1.48E-05
 Guess MOs from SCF MO coefficient file

 -----------------------------------------------------------------------
  General SCF calculation program by
  Eric Jon Sundstrom, Paul Horn, Yuezhi Mao, Dmitri Zuev, Alec White,
  David Stuck, Shaama M.S., Shane Yost, Joonho Lee, David Small,
  Daniel Levine, Susi Lehtola, Hugh Burton, Evgeny Epifanovsky,
  Bang C. Huynh
 -----------------------------------------------------------------------
 Exchange:     0.1500 Hartree-Fock + 1.0000 wB97M-V + LR-HF
 Correlation:  1.0000 wB97M-V
 Using SG-2 standard quadrature grid
 Nonlocal Correlation:  VV10 with C = 0.0100 and b = 6.00 and scale = 1.00000
 Grid used for NLC:  SG-1 standard quadrature
 
 Citation of the SMD model:
 Marenich, A.V.; Cramer, C.J.; Truhlar, D.G.
 J. Phys. Chem. B 2009, 113, 6378-6396.
 iSolventCode=           1
 Solvent: water                                                           
 
 vradii
            1           2           3           4           5           6
    1   1.8500000   1.5200000   1.8500000   1.5200000   1.8500000   1.2000000
            7           8           9          10          11          12
    1   1.2000000   1.2000000   1.2000000   1.5200000   1.2000000   1.5200000
           13          14          15
    1   1.5200000   1.2000000   1.2000000
 -------------------------------------------------------
 OpenMP BLAS3 based DFT computing Module                
 Release: version 1.0, May 2013, Q-Chem Inc. Pittsburgh 
 -------------------------------------------------------
 A unrestricted SCF calculation will be
 performed using Roothaan-Hall, DIIS, GDM
 SCF converges when RMS gradient is below 1.0e-07
 ---------------------------------------
  Cycle       Energy         DIIS error
 ---------------------------------------
    1    -494.4951304842      2.69e-04  Roothaan Step
 ---------------------------------------
  Cycle       Energy         DIIS error
 ---------------------------------------
    1    -494.5317384078      2.89e-04  
    2    -494.5375321159      1.90e-04  Done DIIS. Switching to GDM
 ---------------------------------------
  Cycle       Energy        RMS Gradient
 ---------------------------------------
    1    -494.5375321159      5.20e-03   Normal BFGS step
    2    -494.5379400582      4.16e-03   Normal BFGS step
    3    -494.5390663255      6.79e-04   Normal BFGS step
    4    -494.5390798207      6.12e-04   Normal BFGS step
    5    -494.5390932848      1.28e-04   Normal BFGS step
    6    -494.5390935787      7.76e-05   Normal BFGS step
    7    -494.5390939291      2.97e-05   Normal BFGS step
    8    -494.5390939378      1.78e-05   Normal BFGS step
    9    -494.5390939408      3.67e-06   Normal BFGS step
   10    -494.5390939412      1.58e-06   Normal BFGS step
   11    -494.5390939412      1.10e-06   Normal BFGS step
   12    -494.5390939412      4.67e-07   Normal BFGS step
   13    -494.5390939412      2.74e-07   Normal BFGS step
   14    -494.5390939412      9.91e-08  Convergence criterion met
 ---------------------------------------
 SCF time:   CPU 1180.66s  wall 81.00s 
<S^2> =          0.753420130
(3)  G-ENP(liq) elect-nuc-pol free energy of system     -494.539093941 a.u.
(4)  G-CDS(liq) cavity-dispersion-solvent structure 
     free energy                                                3.8158 kcal/mol
(6)  G-S(liq) free energy of system                     -494.533013016 a.u.
 SCF   energy in the final basis set =     -494.5330130157
 Total energy in the final basis set =     -494.5330130157
 
 --------------------------------------------------------------
 
                    Orbital Energies (a.u.)
 --------------------------------------------------------------
 
 Alpha MOs
 -- Occupied --
-19.4039 -19.3980 -19.3616 -19.3484 -19.3478 -10.4667 -10.4492 -10.3575
 -1.2783  -1.2126  -1.1837  -1.1380  -1.0382  -0.8885  -0.8086  -0.7360
 -0.6897  -0.6509  -0.6432  -0.6095  -0.5816  -0.5770  -0.5630  -0.5345
 -0.5144  -0.4896  -0.4630  -0.4512  -0.4340  -0.4153  -0.4134  -0.3969
 -0.3212
 -- Virtual --
  0.0274   0.0388   0.0430   0.0493   0.0659   0.0708   0.0779   0.0963
  0.1051   0.1229   0.1315   0.1394   0.1422   0.1430   0.1500   0.1614
  0.1702   0.1806   0.1922   0.1983   0.2147   0.2225   0.2375   0.2462
  0.2575   0.2628   0.2730   0.2784   0.2840   0.2941   0.2974   0.3104
  0.3163   0.3247   0.3341   0.3398   0.3478   0.3510   0.3577   0.3698
  0.3706   0.3793   0.3925   0.4058   0.4101   0.4187   0.4314   0.4382
  0.4431   0.4512   0.4697   0.4888   0.4928   0.5570   0.5725   0.5789
  0.6069   0.6199   0.6314   0.6450   0.6487   0.6561   0.6612   0.6768
  0.6823   0.7102   0.7245   0.7462   0.7535   0.7667   0.7941   0.8164
  0.8296   0.8626   0.8782   0.9140   0.9318   0.9397   0.9593   0.9822
  1.0014   1.0226   1.0597   1.0659   1.0869   1.0893   1.1066   1.1240
  1.1326   1.1446   1.1673   1.1805   1.1907   1.1991   1.2083   1.2172
  1.2364   1.2507   1.2639   1.2803   1.2843   1.2900   1.3302   1.3405
  1.3446   1.3652   1.4010   1.4084   1.4292   1.4370   1.4690   1.4950
  1.5102   1.5215   1.5292   1.5408   1.5544   1.5637   1.6166   1.6500
  1.6517   1.6625   1.6880   1.6983   1.7208   1.7515   1.7735   1.8291
  1.8543   1.8745   1.9191   1.9439   1.9775   1.9895   2.0058   2.0504
  2.1059   2.1258   2.1952   2.2187   2.2535   2.2859   2.3048   2.3637
  2.3828   2.4151   2.4430   2.4581   2.4648   2.4759   2.5146   2.5544
  2.6417   2.6573   2.6821   2.7417   2.7997   2.8198   2.8397   2.8520
  2.8762   2.9241   2.9826   3.0253   3.0316   3.0652   3.1281   3.1481
  3.1707   3.1790   3.2176   3.2545   3.3198   3.3366   3.3594   3.3681
  3.4101   3.4254   3.4347   3.4873   3.5242   3.5652   3.6170   3.6439
  3.6634   3.6955   3.7093   3.7618   3.7706   3.7982   3.8161   3.8280
  3.8318   3.8611   3.8831   3.8891   3.9133   3.9233   3.9444   3.9620
  3.9912   4.0722   4.0873   4.1171   4.1958   4.2007   4.2176   4.2386
  4.2538   4.2819   4.2857   4.3167   4.3223   4.3510   4.3825   4.4112
  4.4485   4.4839   4.5279   4.5651   4.6101   4.7103   4.7546   4.8523
  4.9512   5.0138   5.0444   5.0883   5.2027   5.2132   5.2368   5.2432
  5.2742   5.2804   5.2833   5.2992   5.3230   5.3367   5.3605   5.3738
  5.3893   5.4032   5.4410   5.4576   5.4911   5.5132   5.5267   5.5550
  5.5867   5.5967   5.6119   5.6161   5.6382   5.6690   5.6749   5.7098
  5.7257   5.7768   5.8115   5.8645   5.9505   6.0258   6.0637   6.0904
  6.1471   6.1564   6.2370   6.4874   6.5650   6.7453   6.7914   6.8597
  7.0146   7.0390   7.0783   7.0907   7.1155   7.1482   7.2419   7.2641
  7.2760   7.2927   7.3017   7.3148   7.3519   7.3984   7.4106   7.4175
  7.4792   7.4876   7.5707   7.5962   7.6604   7.6936   7.7641   7.8156
  7.8485   7.8648   7.9025   8.0039   8.1801  24.5609  24.7839  24.8577
 50.4846  50.5653  50.6150  50.6335  50.6784
 
 Beta MOs
 -- Occupied --
-19.4032 -19.3980 -19.3611 -19.3481 -19.3474 -10.4676 -10.4483 -10.3445
 -1.2773  -1.2117  -1.1826  -1.1372  -1.0371  -0.8756  -0.7916  -0.7315
 -0.6876  -0.6499  -0.6387  -0.6012  -0.5798  -0.5749  -0.5597  -0.5328
 -0.5055  -0.4851  -0.4606  -0.4497  -0.4323  -0.4129  -0.4068  -0.3925
 -- Virtual --
 -0.0077   0.0274   0.0387   0.0452   0.0511   0.0656   0.0706   0.0779
  0.0958   0.1086   0.1232   0.1300   0.1386   0.1426   0.1434   0.1498
  0.1613   0.1692   0.1805   0.1916   0.1967   0.2160   0.2236   0.2377
  0.2474   0.2593   0.2657   0.2730   0.2790   0.2848   0.2959   0.2972
  0.3139   0.3168   0.3266   0.3364   0.3414   0.3494   0.3540   0.3595
  0.3704   0.3718   0.3801   0.3944   0.4063   0.4106   0.4199   0.4333
  0.4386   0.4438   0.4544   0.4712   0.4893   0.4969   0.5640   0.5742
  0.5809   0.6077   0.6257   0.6362   0.6487   0.6632   0.6647   0.6705
  0.6841   0.6937   0.7148   0.7283   0.7490   0.7592   0.7691   0.7986
  0.8198   0.8350   0.8670   0.8827   0.9149   0.9336   0.9433   0.9623
  0.9851   1.0030   1.0272   1.0627   1.0694   1.0888   1.0914   1.1085
  1.1249   1.1346   1.1457   1.1689   1.1817   1.1924   1.2015   1.2107
  1.2183   1.2413   1.2543   1.2657   1.2844   1.2862   1.2926   1.3332
  1.3423   1.3524   1.3697   1.4028   1.4206   1.4338   1.4404   1.4743
  1.5012   1.5132   1.5230   1.5365   1.5501   1.5571   1.5661   1.6193
  1.6544   1.6599   1.6757   1.6956   1.7003   1.7232   1.7554   1.7757
  1.8303   1.8571   1.8769   1.9196   1.9465   1.9796   1.9913   2.0072
  2.0522   2.1083   2.1269   2.1971   2.2210   2.2552   2.2904   2.3098
  2.3652   2.3848   2.4210   2.4460   2.4593   2.4675   2.4785   2.5193
  2.5557   2.6545   2.6713   2.6908   2.7537   2.8090   2.8352   2.8539
  2.8745   2.9068   2.9581   3.0032   3.0576   3.0759   3.1109   3.1567
  3.1741   3.2016   3.2145   3.2411   3.2693   3.3391   3.3476   3.3810
  3.4160   3.4288   3.4496   3.4538   3.5190   3.5343   3.5873   3.6331
  3.6561   3.6781   3.7033   3.7312   3.7776   3.7853   3.8053   3.8203
  3.8321   3.8450   3.8666   3.8881   3.8942   3.9199   3.9321   3.9559
  3.9662   4.0077   4.0803   4.1039   4.1233   4.2022   4.2112   4.2377
  4.2468   4.2595   4.2898   4.3167   4.3326   4.3498   4.3639   4.3920
  4.4207   4.4584   4.4969   4.5546   4.5762   4.6184   4.7131   4.7581
  4.8548   4.9618   5.0368   5.0458   5.1127   5.2046   5.2141   5.2397
  5.2461   5.2752   5.2831   5.2849   5.3005   5.3266   5.3408   5.3662
  5.3756   5.3943   5.4067   5.4442   5.4610   5.4940   5.5224   5.5355
  5.5590   5.5916   5.6160   5.6245   5.6335   5.6691   5.6707   5.7013
  5.7119   5.7315   5.7793   5.8138   5.8666   5.9551   6.0276   6.0662
  6.0912   6.1491   6.1575   6.2382   6.4912   6.5662   6.7465   6.7930
  6.8603   7.0152   7.0396   7.0796   7.0919   7.1165   7.1499   7.2427
  7.2652   7.2770   7.2940   7.3027   7.3156   7.3531   7.4000   7.4120
  7.4186   7.4808   7.4890   7.5727   7.5967   7.6612   7.6944   7.7655
  7.8171   7.8497   7.8658   7.9034   8.0054   8.1808  24.5695  24.7889
 24.8591  50.4847  50.5657  50.6153  50.6339  50.6787
 --------------------------------------------------------------
 
          Ground-State Mulliken Net Atomic Charges

     Atom                 Charge (a.u.)    Spin (a.u.)
  --------------------------------------------------------
      1 C                    -0.136558       0.026670
      2 O                    -0.424038       0.004922
      3 C                     0.258606      -0.033263
      4 O                    -0.414881       0.008687
      5 C                    -0.477426       0.984959
      6 H                     0.276388       0.003587
      7 H                     0.341039      -0.000681
      8 H                     0.234695      -0.011770
      9 H                     0.229090      -0.012518
     10 O                    -0.444855       0.008336
     11 H                     0.350401      -0.000778
     12 O                    -0.195423       0.018998
     13 O                    -0.276572       0.001388
     14 H                     0.346237       0.000411
     15 H                     0.333298       0.001053
  --------------------------------------------------------
  Sum of atomic charges =     0.000000
  Sum of spin   charges =     1.000000

 -----------------------------------------------------------------
                    Cartesian Multipole Moments
 -----------------------------------------------------------------
    Charge (ESU x 10^10)
                 0.0000
    Dipole Moment (Debye)
         X      -0.1968      Y       4.4354      Z       1.5778
       Tot       4.7118
    Quadrupole Moments (Debye-Ang)
        XX     -45.6973     XY      20.3919     YY     -50.4091
        XZ      10.9799     YZ      -5.9378     ZZ     -46.2246
    Octopole Moments (Debye-Ang^2)
       XXX    -445.5187    XXY     126.6755    XYY    -161.8036
       YYY     105.6143    XXZ      59.0262    XYZ     -29.5358
       YYZ      28.8476    XZZ    -153.3203    YZZ      43.5503
       ZZZ      73.3958
    Hexadecapole Moments (Debye-Ang^3)
      XXXX   -3296.2727   XXXY     729.9419   XXYY    -671.1350
      XYYY     299.6121   YYYY    -442.9716   XXXZ     328.5429
      XXYZ    -154.9306   XYYZ      87.5876   YYYZ     -95.8783
      XXZZ    -621.8072   XYZZ     127.1304   YYZZ    -156.7765
      XZZZ     278.9259   YZZZ     -82.9429   ZZZZ    -318.5112
 -----------------------------------------------------------------
 Calculating analytic gradient of the SCF energy
 Gradient of CDS energy
            1           2           3           4           5           6
    1  -0.0015384   0.0019415  -0.0000452   0.0000574  -0.0000736   0.0002274
    2  -0.0026845  -0.0006056  -0.0024301   0.0022545   0.0013269  -0.0000006
    3  -0.0001106  -0.0006677   0.0026709  -0.0030050   0.0002937  -0.0001010
            7           8           9          10          11          12
    1  -0.0005130  -0.0001355   0.0001148  -0.0002502  -0.0000279  -0.0001076
    2   0.0000611  -0.0002557  -0.0001923   0.0032874  -0.0004817  -0.0001223
    3  -0.0000463   0.0000924  -0.0001358   0.0006386   0.0001132  -0.0001352
           13          14          15
    1  -0.0001734   0.0001184   0.0004054
    2  -0.0001871  -0.0002227   0.0002527
    3   0.0001430   0.0004481  -0.0001984
 Gradient of SCF Energy
            1           2           3           4           5           6
    1   0.0011525   0.0045972   0.0021078  -0.0060481  -0.0024289  -0.0030779
    2  -0.0011221   0.0014035   0.0070860  -0.0076116  -0.0136308   0.0029535
    3   0.0007888   0.0120986   0.0006875  -0.0099855   0.0002306  -0.0010989
            7           8           9          10          11          12
    1  -0.0073091  -0.0032634   0.0055403   0.0042907  -0.0020824   0.0009640
    2  -0.0002887   0.0024916   0.0080331  -0.0030676  -0.0006796  -0.0047224
    3  -0.0094067   0.0074233  -0.0070535  -0.0045287   0.0016287   0.0011208
           13          14          15
    1  -0.0069962   0.0055241   0.0070294
    2  -0.0132824   0.0074247   0.0150128
    3  -0.0076494   0.0106966   0.0050478
 Max gradient component =       1.501E-02
 RMS gradient           =       6.423E-03
 Computing fast CPCM-SWIG gradient
 Updating gradient with PCM contributions...
 -- total gradient after adding PCM contribution --
---------------------------------------------------
  Atom         X              Y              Z     
---------------------------------------------------
   1       0.001076       0.000015      -0.000066
   2      -0.000523       0.000048       0.000129
   3      -0.000242      -0.000004      -0.000110
   4       0.000043      -0.000001       0.000015
   5       0.000026      -0.000013      -0.000005
   6      -0.000113      -0.000034       0.000021
   7      -0.000081      -0.000010       0.000034
   8      -0.000036       0.000018      -0.000027
   9       0.000015       0.000009      -0.000009
  10      -0.000129      -0.000026       0.000001
  11       0.000021      -0.000013       0.000043
  12      -0.000054      -0.000033       0.000004
  13      -0.000002       0.000013      -0.000035
  14      -0.000008       0.000025       0.000026
  15       0.000006       0.000006      -0.000020
---------------------------------------------------
 Number of fixed atoms: 0
 Gradient time:  CPU 191.69 s  wall 16.22 s
 ----------------------------------------------------------------
             Standard Nuclear Orientation (Angstroms)
    I     Atom           X                Y                Z
 ----------------------------------------------------------------
    1      C       2.3923011767    -1.0092531978    -0.9494533288
    2      O       1.1454541618    -0.7223250869    -0.3651960457
    3      C       3.4644114298    -0.4989429957     0.0352642237
    4      O       3.4257056803    -1.3484646556     1.1427902312
    5      C       3.3010003111     0.9278403127     0.3865907803
    6      H       2.5037625890    -0.5025317401    -1.9049966674
    7      H       0.4659882081    -0.8575363479    -1.0355436143
    8      H       2.6964498882     1.1882492152     1.2407965474
    9      H       3.6712101394     1.6977398625    -0.2711676930
   10      O       2.5452001211    -2.3812855146    -1.2080936865
   11      H       2.5659421141    -2.8467409548    -0.3610106393
   12      O       4.7714989222    -0.7597202089    -0.5386740507
   13      O       4.9214455069     0.0044832675    -1.7325110410
   14      H       3.8644383191    -0.9148629448     1.8852190188
   15      H       5.4571237324     0.7542028890    -1.4344134345
 ----------------------------------------------------------------
 Nuclear Repulsion Energy =         434.07760830 hartrees
 There are       33 alpha and       32 beta electrons
 Discretize the solute cavity surface with Lebedev spheres
	Using 110 Lebedev grid points for each H atom
	Using 194 Lebedev grid points for other atoms
	Atomic van der Waals radii will be scaled by 1.20
 Remove points where switching function is < 1.0e-08
 Keep 1196 surface tesserae and discard 1126 interior tesserae
 Molecular Surface Area = 136.411 Angst**2

                       Distance Matrix (Angstroms)
             C (  1)   O (  2)   C (  3)   O (  4)   C (  5)   H (  6)
   O (  2)  1.406525
   C (  3)  1.542565  2.363859
   O (  4)  2.358065  2.804571  1.396352
   C (  5)  2.522514  2.816844  1.478460  2.401865
   H (  6)  1.087315  2.065017  2.165057  3.294630  2.816545
   H (  7)  1.934195  0.964013  3.204023  3.707570  3.639688  2.243769
   H (  8)  3.117486  2.938553  2.211264  2.641276  1.078407  3.576574
   H (  9)  3.069771  3.499285  2.227573  3.367330  1.078168  2.978846
   O ( 10)  1.404545  2.328501  2.436001  2.714528  3.750275  2.004272
   H ( 11)  1.937209  2.555572  2.544884  2.290293  3.917484  2.807682
   O ( 12)  2.427259  3.630385  1.451168  2.232734  2.422053  2.660002
   O ( 13)  2.835033  4.081165  2.345510  3.512131  2.822946  2.476289
   H ( 14)  3.195538  3.534730  1.937871  0.965245  2.441087  4.048109
   H ( 15)  3.569048  4.681224  2.775109  3.897416  2.827556  3.243944
             H (  7)   H (  8)   H (  9)   O ( 10)   H ( 11)   O ( 12)
   H (  8)  3.787073
   H (  9)  4.169791  1.869699
   O ( 10)  2.583545  4.331457  4.334072
   H ( 11)  2.970141  4.343267  4.677819  0.966762
   O ( 12)  4.335190  3.356625  2.705791  2.834432  3.041661
   O ( 13)  4.591290  3.897751  2.562368  3.407851  3.944476  1.425390
   H ( 14)  4.481473  2.490494  3.393086  3.668701  3.234779  2.592699
   H ( 15)  5.260060  3.868652  2.330856  4.285068  4.741089  1.887960
             O ( 13)   H ( 14)
   H ( 14)  3.879489
   H ( 15)  0.968449  4.042572
 
 Requested basis set is 6-311++G(2df,2p)
 There are 106 shells and 342 basis functions
 A cutoff of  1.0D-12 yielded   5272 shell pairs
 There are     55354 function pairs (     69039 Cartesian)
 Smallest overlap matrix eigenvalue = 1.48E-05
 Guess MOs from SCF MO coefficient file

 -----------------------------------------------------------------------
  General SCF calculation program by
  Eric Jon Sundstrom, Paul Horn, Yuezhi Mao, Dmitri Zuev, Alec White,
  David Stuck, Shaama M.S., Shane Yost, Joonho Lee, David Small,
  Daniel Levine, Susi Lehtola, Hugh Burton, Evgeny Epifanovsky,
  Bang C. Huynh
 -----------------------------------------------------------------------
 Exchange:     0.1500 Hartree-Fock + 1.0000 wB97M-V + LR-HF
 Correlation:  1.0000 wB97M-V
 Using SG-2 standard quadrature grid
 Nonlocal Correlation:  VV10 with C = 0.0100 and b = 6.00 and scale = 1.00000
 Grid used for NLC:  SG-1 standard quadrature
 
 Citation of the SMD model:
 Marenich, A.V.; Cramer, C.J.; Truhlar, D.G.
 J. Phys. Chem. B 2009, 113, 6378-6396.
 iSolventCode=           1
 Solvent: water                                                           
 
 vradii
            1           2           3           4           5           6
    1   1.8500000   1.5200000   1.8500000   1.5200000   1.8500000   1.2000000
            7           8           9          10          11          12
    1   1.2000000   1.2000000   1.2000000   1.5200000   1.2000000   1.5200000
           13          14          15
    1   1.5200000   1.2000000   1.2000000
 -------------------------------------------------------
 OpenMP BLAS3 based DFT computing Module                
 Release: version 1.0, May 2013, Q-Chem Inc. Pittsburgh 
 -------------------------------------------------------
 A unrestricted SCF calculation will be
 performed using Roothaan-Hall, DIIS, GDM
 SCF converges when RMS gradient is below 1.0e-07
 ---------------------------------------
  Cycle       Energy         DIIS error
 ---------------------------------------
    1    -494.4951354481      2.69e-04  Roothaan Step
 ---------------------------------------
  Cycle       Energy         DIIS error
 ---------------------------------------
    1    -494.5317541883      2.89e-04  
    2    -494.5375491375      1.89e-04  Done DIIS. Switching to GDM
 ---------------------------------------
  Cycle       Energy        RMS Gradient
 ---------------------------------------
    1    -494.5375491375      5.18e-03   Normal BFGS step
    2    -494.5379577128      4.12e-03   Normal BFGS step
    3    -494.5390728519      6.77e-04   Normal BFGS step
    4    -494.5390863369      6.11e-04   Normal BFGS step
    5    -494.5390998012      1.28e-04   Normal BFGS step
    6    -494.5391000940      7.76e-05   Normal BFGS step
    7    -494.5391004437      2.97e-05   Normal BFGS step
    8    -494.5391004525      1.79e-05   Normal BFGS step
    9    -494.5391004555      3.78e-06   Normal BFGS step
   10    -494.5391004559      1.71e-06   Normal BFGS step
   11    -494.5391004560      1.17e-06   Normal BFGS step
   12    -494.5391004560      4.85e-07   Normal BFGS step
   13    -494.5391004560      2.79e-07   Normal BFGS step
   14    -494.5391004560      9.79e-08  Convergence criterion met
 ---------------------------------------
 SCF time:   CPU 1169.02s  wall 80.00s 
<S^2> =          0.753420850
(3)  G-ENP(liq) elect-nuc-pol free energy of system     -494.539100456 a.u.
(4)  G-CDS(liq) cavity-dispersion-solvent structure 
     free energy                                                3.8199 kcal/mol
(6)  G-S(liq) free energy of system                     -494.533013039 a.u.
 SCF   energy in the final basis set =     -494.5330130389
 Total energy in the final basis set =     -494.5330130389
 
 --------------------------------------------------------------
 
                    Orbital Energies (a.u.)
 --------------------------------------------------------------
 
 Alpha MOs
 -- Occupied --
-19.4039 -19.3980 -19.3615 -19.3486 -19.3477 -10.4667 -10.4491 -10.3575
 -1.2782  -1.2127  -1.1837  -1.1382  -1.0382  -0.8884  -0.8085  -0.7359
 -0.6898  -0.6510  -0.6431  -0.6094  -0.5817  -0.5770  -0.5631  -0.5345
 -0.5144  -0.4895  -0.4629  -0.4512  -0.4340  -0.4154  -0.4134  -0.3967
 -0.3211
 -- Virtual --
  0.0274   0.0388   0.0430   0.0493   0.0659   0.0708   0.0779   0.0963
  0.1051   0.1229   0.1315   0.1394   0.1422   0.1430   0.1500   0.1614
  0.1702   0.1806   0.1922   0.1983   0.2148   0.2225   0.2375   0.2462
  0.2575   0.2628   0.2730   0.2785   0.2841   0.2941   0.2975   0.3104
  0.3163   0.3247   0.3341   0.3398   0.3477   0.3509   0.3578   0.3698
  0.3706   0.3793   0.3925   0.4059   0.4101   0.4186   0.4314   0.4382
  0.4431   0.4512   0.4698   0.4888   0.4928   0.5569   0.5725   0.5786
  0.6069   0.6199   0.6315   0.6450   0.6488   0.6561   0.6613   0.6768
  0.6823   0.7102   0.7245   0.7461   0.7535   0.7666   0.7939   0.8165
  0.8294   0.8626   0.8781   0.9140   0.9318   0.9397   0.9594   0.9821
  1.0015   1.0226   1.0597   1.0660   1.0868   1.0893   1.1067   1.1240
  1.1326   1.1446   1.1672   1.1806   1.1907   1.1990   1.2085   1.2172
  1.2364   1.2506   1.2640   1.2802   1.2844   1.2901   1.3302   1.3404
  1.3445   1.3652   1.4010   1.4085   1.4292   1.4370   1.4690   1.4950
  1.5101   1.5213   1.5291   1.5408   1.5542   1.5636   1.6165   1.6498
  1.6518   1.6623   1.6880   1.6981   1.7207   1.7516   1.7733   1.8290
  1.8542   1.8744   1.9190   1.9440   1.9774   1.9895   2.0057   2.0506
  2.1059   2.1259   2.1952   2.2190   2.2537   2.2860   2.3050   2.3639
  2.3834   2.4151   2.4429   2.4581   2.4648   2.4759   2.5146   2.5544
  2.6417   2.6573   2.6823   2.7417   2.7996   2.8195   2.8398   2.8519
  2.8765   2.9240   2.9824   3.0253   3.0315   3.0650   3.1281   3.1482
  3.1707   3.1790   3.2175   3.2541   3.3204   3.3365   3.3595   3.3682
  3.4099   3.4253   3.4350   3.4874   3.5246   3.5652   3.6171   3.6436
  3.6634   3.6952   3.7097   3.7618   3.7705   3.7985   3.8160   3.8279
  3.8313   3.8611   3.8832   3.8890   3.9134   3.9234   3.9444   3.9625
  3.9912   4.0719   4.0867   4.1167   4.1959   4.2006   4.2170   4.2381
  4.2536   4.2819   4.2856   4.3167   4.3223   4.3502   4.3822   4.4108
  4.4487   4.4837   4.5270   4.5644   4.6095   4.7101   4.7546   4.8522
  4.9511   5.0136   5.0444   5.0879   5.2028   5.2133   5.2367   5.2434
  5.2742   5.2804   5.2832   5.2992   5.3230   5.3367   5.3603   5.3737
  5.3891   5.4026   5.4409   5.4576   5.4910   5.5136   5.5268   5.5552
  5.5867   5.5965   5.6119   5.6164   5.6381   5.6691   5.6749   5.7100
  5.7258   5.7770   5.8119   5.8647   5.9508   6.0262   6.0640   6.0904
  6.1488   6.1585   6.2371   6.4875   6.5660   6.7468   6.7917   6.8597
  7.0146   7.0389   7.0784   7.0907   7.1155   7.1481   7.2420   7.2643
  7.2761   7.2927   7.3019   7.3149   7.3519   7.3985   7.4108   7.4175
  7.4794   7.4876   7.5706   7.5962   7.6605   7.6937   7.7642   7.8155
  7.8487   7.8648   7.9029   8.0039   8.1800  24.5610  24.7850  24.8566
 50.4846  50.5653  50.6154  50.6334  50.6786
 
 Beta MOs
 -- Occupied --
-19.4032 -19.3980 -19.3610 -19.3483 -19.3473 -10.4676 -10.4483 -10.3444
 -1.2772  -1.2118  -1.1826  -1.1374  -1.0370  -0.8754  -0.7915  -0.7314
 -0.6877  -0.6501  -0.6387  -0.6011  -0.5800  -0.5749  -0.5598  -0.5328
 -0.5054  -0.4850  -0.4605  -0.4496  -0.4323  -0.4130  -0.4068  -0.3923
 -- Virtual --
 -0.0076   0.0274   0.0387   0.0452   0.0511   0.0656   0.0706   0.0779
  0.0958   0.1086   0.1232   0.1301   0.1386   0.1426   0.1434   0.1498
  0.1613   0.1692   0.1804   0.1916   0.1967   0.2161   0.2237   0.2377
  0.2474   0.2593   0.2657   0.2730   0.2791   0.2850   0.2959   0.2972
  0.3139   0.3168   0.3266   0.3364   0.3415   0.3493   0.3540   0.3595
  0.3705   0.3718   0.3801   0.3945   0.4064   0.4106   0.4199   0.4332
  0.4387   0.4438   0.4543   0.4713   0.4892   0.4969   0.5639   0.5742
  0.5807   0.6077   0.6257   0.6363   0.6488   0.6632   0.6647   0.6705
  0.6841   0.6936   0.7148   0.7283   0.7489   0.7592   0.7690   0.7984
  0.8198   0.8348   0.8671   0.8826   0.9149   0.9336   0.9433   0.9623
  0.9850   1.0030   1.0272   1.0626   1.0694   1.0886   1.0914   1.1085
  1.1249   1.1346   1.1457   1.1688   1.1817   1.1924   1.2014   1.2109
  1.2184   1.2413   1.2543   1.2657   1.2844   1.2863   1.2926   1.3331
  1.3422   1.3522   1.3696   1.4027   1.4207   1.4338   1.4405   1.4743
  1.5012   1.5132   1.5228   1.5364   1.5501   1.5570   1.5660   1.6191
  1.6543   1.6600   1.6756   1.6956   1.7001   1.7231   1.7555   1.7755
  1.8301   1.8570   1.8768   1.9195   1.9466   1.9796   1.9913   2.0071
  2.0525   2.1083   2.1270   2.1972   2.2212   2.2553   2.2905   2.3100
  2.3653   2.3854   2.4210   2.4459   2.4593   2.4675   2.4786   2.5193
  2.5557   2.6545   2.6712   2.6911   2.7537   2.8087   2.8351   2.8540
  2.8746   2.9067   2.9581   3.0029   3.0573   3.0760   3.1106   3.1568
  3.1741   3.2017   3.2144   3.2410   3.2690   3.3397   3.3475   3.3811
  3.4159   3.4284   3.4499   3.4540   3.5191   3.5348   3.5872   3.6332
  3.6559   3.6780   3.7031   3.7315   3.7775   3.7853   3.8056   3.8202
  3.8320   3.8445   3.8666   3.8882   3.8941   3.9198   3.9322   3.9558
  3.9667   4.0076   4.0800   4.1035   4.1227   4.2021   4.2109   4.2372
  4.2464   4.2593   4.2898   4.3166   4.3325   4.3497   4.3635   4.3918
  4.4203   4.4588   4.4966   4.5535   4.5756   4.6180   4.7129   4.7580
  4.8546   4.9617   5.0367   5.0458   5.1123   5.2046   5.2141   5.2398
  5.2461   5.2753   5.2831   5.2849   5.3005   5.3267   5.3409   5.3659
  5.3754   5.3942   5.4061   5.4441   5.4610   5.4939   5.5226   5.5360
  5.5592   5.5914   5.6162   5.6246   5.6333   5.6691   5.6710   5.7013
  5.7121   5.7315   5.7794   5.8142   5.8669   5.9554   6.0280   6.0665
  6.0912   6.1509   6.1594   6.2383   6.4913   6.5672   6.7479   6.7932
  6.8603   7.0152   7.0395   7.0797   7.0919   7.1165   7.1498   7.2428
  7.2653   7.2771   7.2940   7.3029   7.3157   7.3531   7.4001   7.4122
  7.4186   7.4810   7.4889   7.5726   7.5967   7.6613   7.6945   7.7656
  7.8171   7.8498   7.8658   7.9037   8.0054   8.1808  24.5697  24.7901
 24.8579  50.4847  50.5657  50.6157  50.6338  50.6789
 --------------------------------------------------------------
 
          Ground-State Mulliken Net Atomic Charges

     Atom                 Charge (a.u.)    Spin (a.u.)
  --------------------------------------------------------
      1 C                    -0.136198       0.026840
      2 O                    -0.422978       0.004906
      3 C                     0.258258      -0.033425
      4 O                    -0.414909       0.008694
      5 C                    -0.477605       0.984970
      6 H                     0.276011       0.003584
      7 H                     0.341115      -0.000687
      8 H                     0.234684      -0.011766
      9 H                     0.229034      -0.012514
     10 O                    -0.445074       0.008354
     11 H                     0.350333      -0.000781
     12 O                    -0.195482       0.018968
     13 O                    -0.276683       0.001385
     14 H                     0.346217       0.000417
     15 H                     0.333276       0.001053
  --------------------------------------------------------
  Sum of atomic charges =     0.000000
  Sum of spin   charges =     1.000000

 -----------------------------------------------------------------
                    Cartesian Multipole Moments
 -----------------------------------------------------------------
    Charge (ESU x 10^10)
                 0.0000
    Dipole Moment (Debye)
         X      -0.2099      Y       4.4372      Z       1.5798
       Tot       4.7147
    Quadrupole Moments (Debye-Ang)
        XX     -45.7520     XY      20.4047     YY     -50.4222
        XZ      10.9897     YZ      -5.9432     ZZ     -46.2350
    Octopole Moments (Debye-Ang^2)
       XXX    -445.6956    XXY     126.7193    XYY    -161.8417
       YYY     105.6485    XXZ      59.0572    XYZ     -29.5526
       YYZ      28.8610    XZZ    -153.3500    YZZ      43.5620
       ZZZ      73.4125
    Hexadecapole Moments (Debye-Ang^3)
      XXXX   -3296.7806   XXXY     730.0495   XXYY    -671.2425
      XYYY     299.6695   YYYY    -443.1184   XXXZ     328.6145
      XXYZ    -154.9777   XYYZ      87.6111   YYYZ     -95.9254
      XXZZ    -621.8947   XYZZ     127.1573   YYZZ    -156.8130
      XZZZ     278.9432   YZZZ     -82.9649   ZZZZ    -318.5831
 -----------------------------------------------------------------
 Calculating analytic gradient of the SCF energy
 Gradient of CDS energy
            1           2           3           4           5           6
    1  -0.0018958   0.0022860  -0.0000449   0.0000580  -0.0000731   0.0002356
    2  -0.0025462  -0.0006892  -0.0024299   0.0022544   0.0013269  -0.0000053
    3   0.0000564  -0.0008256   0.0026712  -0.0030050   0.0002939  -0.0001004
            7           8           9          10          11          12
    1  -0.0005121  -0.0001352   0.0001148  -0.0002481  -0.0000276  -0.0001077
    2   0.0000607  -0.0002556  -0.0001923   0.0032382  -0.0004820  -0.0001223
    3  -0.0000464   0.0000925  -0.0001358   0.0006290   0.0001130  -0.0001353
           13          14          15
    1  -0.0001736   0.0001184   0.0004054
    2  -0.0001875  -0.0002227   0.0002527
    3   0.0001428   0.0004481  -0.0001984
 Gradient of SCF Energy
            1           2           3           4           5           6
    1  -0.0009832   0.0056888   0.0024993  -0.0060365  -0.0024528  -0.0028699
    2  -0.0011347   0.0013152   0.0071479  -0.0076090  -0.0135974   0.0030054
    3   0.0009174   0.0118675   0.0008894  -0.0099767   0.0002275  -0.0011384
            7           8           9          10          11          12
    1  -0.0072098  -0.0032630   0.0055370   0.0045275  -0.0020886   0.0010984
    2  -0.0003240   0.0024847   0.0080225  -0.0030951  -0.0006745  -0.0047018
    3  -0.0095010   0.0074245  -0.0070495  -0.0045319   0.0016314   0.0011527
           13          14          15
    1  -0.0069864   0.0055128   0.0070266
    2  -0.0132708   0.0074269   0.0150047
    3  -0.0076436   0.0106867   0.0050439
 Max gradient component =       1.500E-02
 RMS gradient           =       6.437E-03
 Computing fast CPCM-SWIG gradient
 Updating gradient with PCM contributions...
 -- total gradient after adding PCM contribution --
---------------------------------------------------
  Atom         X              Y              Z     
---------------------------------------------------
   1      -0.001064       0.000003       0.000072
   2       0.000523      -0.000044      -0.000122
   3       0.000145       0.000043       0.000094
   4       0.000039       0.000003       0.000014
   5       0.000003       0.000013      -0.000006
   6       0.000098       0.000015      -0.000027
   7       0.000056      -0.000044      -0.000042
   8      -0.000030       0.000013      -0.000025
   9       0.000017       0.000005      -0.000011
  10       0.000093      -0.000034       0.000004
  11       0.000029      -0.000017       0.000042
  12       0.000089      -0.000008       0.000032
  13       0.000003       0.000015      -0.000030
  14      -0.000010       0.000030       0.000025
  15       0.000008       0.000006      -0.000020
---------------------------------------------------
 Number of fixed atoms: 0
 Gradient time:  CPU 201.26 s  wall 17.51 s
 ----------------------------------------------------------------
             Standard Nuclear Orientation (Angstroms)
    I     Atom           X                Y                Z
 ----------------------------------------------------------------
    1      C       2.3933011767    -1.0082531978    -0.9494533288
    2      O       1.1454541618    -0.7223250869    -0.3651960457
    3      C       3.4644114298    -0.4989429957     0.0352642237
    4      O       3.4257056803    -1.3484646556     1.1427902312
    5      C       3.3010003111     0.9278403127     0.3865907803
    6      H       2.5037625890    -0.5025317401    -1.9049966674
    7      H       0.4659882081    -0.8575363479    -1.0355436143
    8      H       2.6964498882     1.1882492152     1.2407965474
    9      H       3.6712101394     1.6977398625    -0.2711676930
   10      O       2.5452001211    -2.3812855146    -1.2080936865
   11      H       2.5659421141    -2.8467409548    -0.3610106393
   12      O       4.7714989222    -0.7597202089    -0.5386740507
   13      O       4.9214455069     0.0044832675    -1.7325110410
   14      H       3.8644383191    -0.9148629448     1.8852190188
   15      H       5.4571237324     0.7542028890    -1.4344134345
 ----------------------------------------------------------------
 Nuclear Repulsion Energy =         434.08043703 hartrees
 There are       33 alpha and       32 beta electrons
 Discretize the solute cavity surface with Lebedev spheres
	Using 110 Lebedev grid points for each H atom
	Using 194 Lebedev grid points for other atoms
	Atomic van der Waals radii will be scaled by 1.20
 Remove points where switching function is < 1.0e-08
 Keep 1196 surface tesserae and discard 1126 interior tesserae
 Molecular Surface Area = 136.412 Angst**2

                       Distance Matrix (Angstroms)
             C (  1)   O (  2)   C (  3)   O (  4)   C (  5)   H (  6)
   O (  2)  1.407208
   C (  3)  1.541539  2.363859
   O (  4)  2.357771  2.804571  1.396352
   C (  5)  2.521386  2.816844  1.478460  2.401865
   H (  6)  1.086747  2.065017  2.165057  3.294630  2.816545
   H (  7)  1.935113  0.964013  3.204023  3.707570  3.639688  2.243769
   H (  8)  3.116684  2.938553  2.211264  2.641276  1.078407  3.576574
   H (  9)  3.068472  3.499285  2.227573  3.367330  1.078168  2.978846
   O ( 10)  1.405413  2.328501  2.436001  2.714528  3.750275  2.004272
   H ( 11)  1.938068  2.555572  2.544884  2.290293  3.917484  2.807682
   O ( 12)  2.426177  3.630385  1.451168  2.232734  2.422053  2.660002
   O ( 13)  2.833783  4.081165  2.345510  3.512131  2.822946  2.476289
   H ( 14)  3.195048  3.534730  1.937871  0.965245  2.441087  4.048109
   H ( 15)  3.567695  4.681224  2.775109  3.897416  2.827556  3.243944
             H (  7)   H (  8)   H (  9)   O ( 10)   H ( 11)   O ( 12)
   H (  8)  3.787073
   H (  9)  4.169791  1.869699
   O ( 10)  2.583545  4.331457  4.334072
   H ( 11)  2.970141  4.343267  4.677819  0.966762
   O ( 12)  4.335190  3.356625  2.705791  2.834432  3.041661
   O ( 13)  4.591290  3.897751  2.562368  3.407851  3.944476  1.425390
   H ( 14)  4.481473  2.490494  3.393086  3.668701  3.234779  2.592699
   H ( 15)  5.260060  3.868652  2.330856  4.285068  4.741089  1.887960
             O ( 13)   H ( 14)
   H ( 14)  3.879489
   H ( 15)  0.968449  4.042572
 
 Requested basis set is 6-311++G(2df,2p)
 There are 106 shells and 342 basis functions
 A cutoff of  1.0D-12 yielded   5272 shell pairs
 There are     55354 function pairs (     69039 Cartesian)
 Smallest overlap matrix eigenvalue = 1.48E-05
 Guess MOs from SCF MO coefficient file

 -----------------------------------------------------------------------
  General SCF calculation program by
  Eric Jon Sundstrom, Paul Horn, Yuezhi Mao, Dmitri Zuev, Alec White,
  David Stuck, Shaama M.S., Shane Yost, Joonho Lee, David Small,
  Daniel Levine, Susi Lehtola, Hugh Burton, Evgeny Epifanovsky,
  Bang C. Huynh
 -----------------------------------------------------------------------
 Exchange:     0.1500 Hartree-Fock + 1.0000 wB97M-V + LR-HF
 Correlation:  1.0000 wB97M-V
 Using SG-2 standard quadrature grid
 Nonlocal Correlation:  VV10 with C = 0.0100 and b = 6.00 and scale = 1.00000
 Grid used for NLC:  SG-1 standard quadrature
 
 Citation of the SMD model:
 Marenich, A.V.; Cramer, C.J.; Truhlar, D.G.
 J. Phys. Chem. B 2009, 113, 6378-6396.
 iSolventCode=           1
 Solvent: water                                                           
 
 vradii
            1           2           3           4           5           6
    1   1.8500000   1.5200000   1.8500000   1.5200000   1.8500000   1.2000000
            7           8           9          10          11          12
    1   1.2000000   1.2000000   1.2000000   1.5200000   1.2000000   1.5200000
           13          14          15
    1   1.5200000   1.2000000   1.2000000
 -------------------------------------------------------
 OpenMP BLAS3 based DFT computing Module                
 Release: version 1.0, May 2013, Q-Chem Inc. Pittsburgh 
 -------------------------------------------------------
 A unrestricted SCF calculation will be
 performed using Roothaan-Hall, DIIS, GDM
 SCF converges when RMS gradient is below 1.0e-07
 ---------------------------------------
  Cycle       Energy         DIIS error
 ---------------------------------------
    1    -494.4951207045      2.69e-04  Roothaan Step
 ---------------------------------------
  Cycle       Energy         DIIS error
 ---------------------------------------
    1    -494.5317258487      2.89e-04  
    2    -494.5375238362      1.91e-04  Done DIIS. Switching to GDM
 ---------------------------------------
  Cycle       Energy        RMS Gradient
 ---------------------------------------
    1    -494.5375238362      5.20e-03   Normal BFGS step
    2    -494.5379305318      4.17e-03   Normal BFGS step
    3    -494.5390645321      6.82e-04   Normal BFGS step
    4    -494.5390780832      6.12e-04   Normal BFGS step
    5    -494.5390915443      1.28e-04   Normal BFGS step
    6    -494.5390918388      7.80e-05   Normal BFGS step
    7    -494.5390921902      2.97e-05   Normal BFGS step
    8    -494.5390921989      1.78e-05   Normal BFGS step
    9    -494.5390922020      3.70e-06   Normal BFGS step
   10    -494.5390922023      1.59e-06   Normal BFGS step
   11    -494.5390922024      1.11e-06   Normal BFGS step
   12    -494.5390922024      4.71e-07   Normal BFGS step
   13    -494.5390922024      2.76e-07   Normal BFGS step
   14    -494.5390922024      9.96e-08  Convergence criterion met
 ---------------------------------------
 SCF time:   CPU 1175.88s  wall 81.00s 
<S^2> =          0.753420241
(3)  G-ENP(liq) elect-nuc-pol free energy of system     -494.539092202 a.u.
(4)  G-CDS(liq) cavity-dispersion-solvent structure 
     free energy                                                3.8148 kcal/mol
(6)  G-S(liq) free energy of system                     -494.533012918 a.u.
 SCF   energy in the final basis set =     -494.5330129177
 Total energy in the final basis set =     -494.5330129177
 
 --------------------------------------------------------------
 
                    Orbital Energies (a.u.)
 --------------------------------------------------------------
 
 Alpha MOs
 -- Occupied --
-19.4039 -19.3980 -19.3615 -19.3485 -19.3476 -10.4667 -10.4492 -10.3575
 -1.2783  -1.2126  -1.1837  -1.1380  -1.0382  -0.8885  -0.8086  -0.7359
 -0.6897  -0.6510  -0.6431  -0.6095  -0.5816  -0.5770  -0.5631  -0.5344
 -0.5144  -0.4895  -0.4630  -0.4512  -0.4341  -0.4153  -0.4135  -0.3969
 -0.3212
 -- Virtual --
  0.0274   0.0388   0.0430   0.0493   0.0659   0.0708   0.0779   0.0963
  0.1051   0.1229   0.1315   0.1394   0.1422   0.1430   0.1500   0.1614
  0.1702   0.1806   0.1922   0.1983   0.2147   0.2225   0.2375   0.2461
  0.2575   0.2628   0.2730   0.2783   0.2841   0.2941   0.2975   0.3104
  0.3163   0.3247   0.3341   0.3398   0.3478   0.3510   0.3578   0.3697
  0.3706   0.3793   0.3924   0.4058   0.4101   0.4186   0.4314   0.4382
  0.4432   0.4511   0.4697   0.4888   0.4928   0.5569   0.5726   0.5787
  0.6069   0.6199   0.6315   0.6450   0.6488   0.6561   0.6612   0.6768
  0.6823   0.7103   0.7245   0.7462   0.7536   0.7666   0.7940   0.8164
  0.8295   0.8626   0.8782   0.9140   0.9318   0.9397   0.9593   0.9822
  1.0014   1.0226   1.0597   1.0660   1.0869   1.0893   1.1067   1.1241
  1.1327   1.1446   1.1672   1.1806   1.1907   1.1990   1.2085   1.2172
  1.2364   1.2506   1.2639   1.2803   1.2843   1.2901   1.3302   1.3405
  1.3445   1.3652   1.4010   1.4085   1.4292   1.4370   1.4690   1.4950
  1.5102   1.5214   1.5291   1.5408   1.5543   1.5636   1.6166   1.6500
  1.6519   1.6624   1.6880   1.6981   1.7207   1.7515   1.7734   1.8290
  1.8543   1.8744   1.9191   1.9439   1.9775   1.9895   2.0058   2.0505
  2.1059   2.1259   2.1951   2.2186   2.2535   2.2860   2.3049   2.3638
  2.3831   2.4151   2.4427   2.4581   2.4646   2.4758   2.5145   2.5544
  2.6418   2.6574   2.6821   2.7416   2.7995   2.8196   2.8397   2.8519
  2.8762   2.9239   2.9823   3.0253   3.0316   3.0652   3.1281   3.1482
  3.1707   3.1791   3.2175   3.2543   3.3200   3.3363   3.3593   3.3681
  3.4101   3.4253   3.4347   3.4873   3.5244   3.5652   3.6169   3.6436
  3.6635   3.6954   3.7096   3.7618   3.7707   3.7983   3.8160   3.8279
  3.8315   3.8612   3.8832   3.8891   3.9133   3.9235   3.9444   3.9623
  3.9913   4.0722   4.0871   4.1169   4.1959   4.2009   4.2174   4.2384
  4.2537   4.2820   4.2857   4.3167   4.3224   4.3506   4.3823   4.4110
  4.4491   4.4841   4.5276   4.5652   4.6101   4.7102   4.7546   4.8523
  4.9511   5.0137   5.0444   5.0882   5.2027   5.2132   5.2368   5.2432
  5.2741   5.2804   5.2833   5.2992   5.3230   5.3367   5.3603   5.3737
  5.3892   5.4031   5.4412   5.4575   5.4910   5.5133   5.5267   5.5552
  5.5868   5.5967   5.6119   5.6162   5.6381   5.6689   5.6749   5.7100
  5.7258   5.7770   5.8115   5.8645   5.9505   6.0261   6.0632   6.0900
  6.1475   6.1560   6.2370   6.4876   6.5654   6.7448   6.7915   6.8596
  7.0146   7.0390   7.0783   7.0907   7.1155   7.1482   7.2418   7.2642
  7.2760   7.2926   7.3018   7.3148   7.3518   7.3985   7.4107   7.4174
  7.4793   7.4876   7.5705   7.5962   7.6602   7.6936   7.7641   7.8156
  7.8486   7.8648   7.9026   8.0039   8.1801  24.5608  24.7842  24.8574
 50.4845  50.5652  50.6153  50.6333  50.6784
 
 Beta MOs
 -- Occupied --
-19.4032 -19.3980 -19.3611 -19.3482 -19.3472 -10.4676 -10.4483 -10.3445
 -1.2772  -1.2117  -1.1826  -1.1372  -1.0371  -0.8756  -0.7916  -0.7314
 -0.6876  -0.6500  -0.6387  -0.6011  -0.5799  -0.5749  -0.5598  -0.5327
 -0.5055  -0.4850  -0.4606  -0.4497  -0.4323  -0.4129  -0.4068  -0.3924
 -- Virtual --
 -0.0077   0.0274   0.0387   0.0452   0.0511   0.0656   0.0705   0.0779
  0.0958   0.1086   0.1232   0.1301   0.1386   0.1426   0.1434   0.1497
  0.1613   0.1692   0.1804   0.1916   0.1967   0.2160   0.2237   0.2377
  0.2473   0.2593   0.2657   0.2730   0.2790   0.2849   0.2958   0.2972
  0.3139   0.3168   0.3266   0.3364   0.3415   0.3494   0.3540   0.3596
  0.3704   0.3718   0.3801   0.3944   0.4063   0.4106   0.4199   0.4332
  0.4387   0.4438   0.4543   0.4713   0.4892   0.4969   0.5639   0.5743
  0.5808   0.6077   0.6257   0.6362   0.6487   0.6632   0.6647   0.6704
  0.6840   0.6936   0.7149   0.7284   0.7490   0.7592   0.7691   0.7986
  0.8198   0.8349   0.8670   0.8827   0.9149   0.9336   0.9433   0.9623
  0.9851   1.0029   1.0272   1.0626   1.0694   1.0887   1.0914   1.1085
  1.1249   1.1347   1.1457   1.1688   1.1817   1.1924   1.2014   1.2110
  1.2183   1.2413   1.2542   1.2657   1.2844   1.2862   1.2926   1.3332
  1.3423   1.3523   1.3696   1.4028   1.4207   1.4338   1.4404   1.4743
  1.5012   1.5132   1.5229   1.5365   1.5501   1.5570   1.5660   1.6193
  1.6545   1.6600   1.6756   1.6956   1.7001   1.7232   1.7555   1.7756
  1.8302   1.8571   1.8768   1.9195   1.9465   1.9797   1.9912   2.0072
  2.0523   2.1083   2.1270   2.1970   2.2208   2.2552   2.2905   2.3099
  2.3652   2.3851   2.4210   2.4457   2.4593   2.4673   2.4785   2.5192
  2.5556   2.6546   2.6713   2.6909   2.7536   2.8088   2.8351   2.8539
  2.8745   2.9067   2.9580   3.0029   3.0576   3.0760   3.1108   3.1566
  3.1742   3.2017   3.2143   3.2410   3.2692   3.3391   3.3474   3.3809
  3.4159   3.4286   3.4498   3.4539   3.5189   3.5347   3.5872   3.6329
  3.6559   3.6781   3.7033   3.7315   3.7775   3.7854   3.8055   3.8202
  3.8320   3.8447   3.8667   3.8882   3.8942   3.9199   3.9323   3.9558
  3.9665   4.0077   4.0803   4.1038   4.1230   4.2022   4.2112   4.2377
  4.2466   4.2594   4.2898   4.3168   4.3326   4.3497   4.3636   4.3919
  4.4206   4.4593   4.4969   4.5542   4.5763   4.6185   4.7130   4.7581
  4.8547   4.9617   5.0367   5.0458   5.1126   5.2045   5.2141   5.2398
  5.2460   5.2752   5.2830   5.2849   5.3005   5.3266   5.3408   5.3660
  5.3754   5.3943   5.4066   5.4444   5.4610   5.4939   5.5224   5.5357
  5.5593   5.5915   5.6160   5.6246   5.6335   5.6690   5.6708   5.7013
  5.7121   5.7316   5.7794   5.8137   5.8667   5.9551   6.0279   6.0657
  6.0907   6.1495   6.1571   6.2382   6.4914   6.5666   6.7459   6.7931
  6.8602   7.0152   7.0396   7.0796   7.0919   7.1166   7.1499   7.2426
  7.2652   7.2770   7.2940   7.3028   7.3156   7.3531   7.4001   7.4121
  7.4185   7.4809   7.4890   7.5724   7.5967   7.6610   7.6945   7.7655
  7.8171   7.8498   7.8658   7.9034   8.0054   8.1808  24.5695  24.7893
 24.8587  50.4847  50.5656  50.6156  50.6337  50.6787
 --------------------------------------------------------------
 
          Ground-State Mulliken Net Atomic Charges

     Atom                 Charge (a.u.)    Spin (a.u.)
  --------------------------------------------------------
      1 C                    -0.136293       0.026676
      2 O                    -0.423278       0.004908
      3 C                     0.258210      -0.033276
      4 O                    -0.414892       0.008689
      5 C                    -0.477433       0.984973
      6 H                     0.276463       0.003589
      7 H                     0.341127      -0.000684
      8 H                     0.234701      -0.011769
      9 H                     0.229072      -0.012521
     10 O                    -0.445538       0.008357
     11 H                     0.350310      -0.000778
     12 O                    -0.195406       0.018987
     13 O                    -0.276574       0.001384
     14 H                     0.346237       0.000412
     15 H                     0.333294       0.001054
  --------------------------------------------------------
  Sum of atomic charges =    -0.000000
  Sum of spin   charges =     1.000000

 -----------------------------------------------------------------
                    Cartesian Multipole Moments
 -----------------------------------------------------------------
    Charge (ESU x 10^10)
                -0.0000
    Dipole Moment (Debye)
[...]
 Raman Active:       YES                    YES                    YES
               X      Y      Z        X      Y      Z        X      Y      Z
 C         -0.035 -0.059 -0.017   -0.021  0.024  0.021    0.032 -0.038 -0.033
 O         -0.049 -0.019 -0.042   -0.052 -0.020 -0.012    0.083  0.024  0.026
 C         -0.006 -0.013 -0.003   -0.009  0.008  0.028   -0.012  0.019 -0.033
 O          0.059  0.048  0.046    0.058 -0.096 -0.048   -0.046  0.101  0.029
 C          0.077 -0.005  0.013    0.002  0.027 -0.070   -0.107 -0.026  0.112
 H         -0.040 -0.043 -0.009   -0.017  0.034  0.026    0.020 -0.058 -0.046
 H         -0.029 -0.066 -0.054   -0.018 -0.027 -0.045    0.025  0.088  0.072
 H          0.296  0.037  0.156    0.072  0.174 -0.065    0.064 -0.238  0.299
 H          0.253 -0.018  0.099   -0.018 -0.107 -0.237   -0.098  0.109  0.276
 O         -0.153 -0.067 -0.078    0.003  0.030  0.025   -0.008 -0.050 -0.031
 H          0.790 -0.036 -0.083   -0.082  0.033  0.029    0.022 -0.053 -0.033
 O          0.047  0.079  0.060    0.009  0.062  0.061   -0.028 -0.016 -0.043
 O         -0.001  0.009  0.010   -0.035  0.009  0.018    0.011  0.006 -0.038
 H         -0.188  0.226  0.089   -0.093 -0.096  0.040    0.148  0.086 -0.076
 H          0.024  0.019 -0.059    0.750 -0.470 -0.198    0.661 -0.423 -0.136
 TransDip   0.315  0.030  0.031    0.232 -0.149 -0.062    0.318 -0.133 -0.052

 Mode:                13                     14                     15
 Frequency:       487.07                 519.22                 567.45
 Force Cnst:      0.5675                 0.5490                 0.8118
 Red. Mass:       4.0601                 3.4565                 4.2789
 IR Active:          YES                    YES                    YES
 IR Intens:       11.081                 34.094                 17.643
 Raman Active:       YES                    YES                    YES
               X      Y      Z        X      Y      Z        X      Y      Z
 C         -0.033 -0.027 -0.114   -0.024 -0.087  0.079    0.133 -0.049  0.027
 O          0.063  0.057  0.031    0.005  0.169  0.035    0.163 -0.072 -0.020
 C         -0.069  0.060 -0.121   -0.146 -0.063  0.082   -0.057  0.135  0.129
 O          0.204  0.018 -0.156   -0.025 -0.087  0.101    0.018 -0.089 -0.035
 C         -0.056  0.080 -0.039   -0.060 -0.028 -0.100    0.066  0.259  0.112
 H         -0.116 -0.105 -0.164    0.074 -0.059  0.104    0.234 -0.055  0.034
 H         -0.079  0.096  0.169   -0.063 -0.012  0.139    0.176  0.086 -0.060
 H          0.403  0.031  0.300    0.444  0.308  0.148   -0.286  0.491 -0.203
 H          0.371  0.168  0.308    0.555 -0.224  0.020   -0.234  0.090 -0.267
 O          0.071 -0.045 -0.010    0.139 -0.057 -0.065   -0.126 -0.089 -0.049
 H         -0.142  0.005  0.023   -0.030 -0.237 -0.161    0.149 -0.120 -0.073
 O         -0.144 -0.054  0.114   -0.110  0.097 -0.044   -0.199 -0.003 -0.052
 O         -0.093 -0.084  0.184    0.104  0.024 -0.093    0.046 -0.020 -0.024
 H          0.070  0.170 -0.169   -0.010 -0.060  0.078   -0.129 -0.241  0.138
 H         -0.216 -0.008  0.210   -0.036  0.098 -0.024   -0.041 -0.002  0.088
 TransDip  -0.079  0.068  0.021   -0.064 -0.126  0.122   -0.014  0.097  0.092

 Mode:                16                     17                     18
 Frequency:       584.23                 678.04                 807.60
 Force Cnst:      0.5227                 1.2047                 1.3776
 Red. Mass:       2.5993                 4.4475                 3.5849
 IR Active:          YES                    YES                    YES
 IR Intens:      143.557                 48.629                 76.223
 Raman Active:       YES                    YES                    YES
               X      Y      Z        X      Y      Z        X      Y      Z
 C         -0.106 -0.083 -0.035   -0.039 -0.113  0.191    0.124 -0.020  0.298
 O         -0.057  0.111  0.026   -0.155  0.107  0.007   -0.005  0.004 -0.009
 C         -0.039 -0.005 -0.048    0.152  0.102  0.042    0.033 -0.007 -0.076
 O          0.017  0.042 -0.014   -0.034 -0.014 -0.100   -0.026  0.090 -0.156
 C          0.203 -0.031  0.128   -0.099  0.231 -0.000    0.062 -0.153 -0.058
 H         -0.166 -0.150 -0.077   -0.061 -0.150  0.173    0.256  0.052  0.352
 H         -0.168  0.028  0.153   -0.016 -0.074 -0.103    0.344 -0.133 -0.337
 H         -0.465 -0.062 -0.331    0.018  0.004  0.159    0.005 -0.410 -0.026
 H         -0.512 -0.056 -0.312   -0.033  0.424  0.261   -0.052 -0.023  0.040
 O          0.103 -0.091 -0.054    0.055 -0.108 -0.085   -0.024  0.038 -0.003
 H         -0.060 -0.169 -0.092   -0.020 -0.436 -0.266    0.042 -0.324 -0.208
 O         -0.028  0.056  0.042    0.183 -0.122 -0.033   -0.143  0.091  0.017
 O          0.002 -0.008  0.013   -0.039  0.004  0.016    0.002 -0.038  0.045
 H          0.038  0.123 -0.074   -0.177 -0.272  0.130   -0.081  0.063 -0.114
 H          0.081 -0.048 -0.029   -0.012 -0.006 -0.011   -0.006 -0.026  0.032
 TransDip  -0.315 -0.118 -0.185    0.065 -0.134  0.166    0.235 -0.150 -0.020

 Mode:                19                     20                     21
 Frequency:       927.07                1015.00                1053.14
 Force Cnst:      1.1101                 3.5524                 2.8759
 Red. Mass:       2.1922                 5.8524                 4.4010
 IR Active:          YES                    YES                    YES
 IR Intens:       59.949                 22.653                 54.068
 Raman Active:       YES                    YES                    YES
               X      Y      Z        X      Y      Z        X      Y      Z
 C          0.020 -0.007  0.036    0.018 -0.023  0.077   -0.004  0.031 -0.067
 O          0.011 -0.000  0.003    0.044 -0.007 -0.004   -0.050  0.008  0.006
 C         -0.138 -0.010  0.059   -0.245 -0.087 -0.084    0.266  0.137  0.118
 O          0.012  0.099 -0.128    0.027 -0.049 -0.016    0.016  0.097 -0.067
 C         -0.065 -0.064  0.120    0.064  0.106 -0.036   -0.046 -0.155  0.004
 H          0.088  0.023  0.063    0.151  0.042  0.129   -0.124 -0.033 -0.113
 H          0.044 -0.008 -0.028    0.149 -0.046 -0.102   -0.146  0.044  0.096
 H          0.006  0.620 -0.042   -0.080 -0.284 -0.006    0.089  0.079  0.010
 H          0.198 -0.559 -0.310   -0.161  0.419  0.200    0.174 -0.431 -0.179
 O         -0.004  0.007  0.004   -0.007  0.060  0.024    0.006 -0.075 -0.030
 H          0.012 -0.061 -0.034    0.033 -0.118 -0.079   -0.032  0.116  0.082
 O          0.113 -0.067 -0.016    0.027 -0.204  0.307   -0.147 -0.090  0.192
 O         -0.016  0.009  0.009    0.019  0.175 -0.272    0.024  0.094 -0.167
 H          0.032  0.147 -0.172    0.075  0.368 -0.281   -0.098 -0.498  0.337
 H         -0.030  0.027 -0.022    0.022  0.058  0.035   -0.046  0.034  0.134
 TransDip  -0.178 -0.063  0.161   -0.149 -0.025 -0.023    0.142 -0.010  0.187

 Mode:                22                     23                     24
 Frequency:      1105.77                1177.21                1219.49
 Force Cnst:      1.6159                 1.5888                 1.1394
 Red. Mass:       2.2429                 1.9458                 1.3003
 IR Active:          YES                    YES                    YES
 IR Intens:      276.120                167.932                 32.145
 Raman Active:       YES                    YES                    YES
               X      Y      Z        X      Y      Z        X      Y      Z
 C         -0.011 -0.006 -0.029   -0.107 -0.086  0.025   -0.021  0.052 -0.002
 O          0.014 -0.008 -0.011    0.102 -0.025 -0.067    0.022  0.022  0.035
 C         -0.176  0.082  0.193   -0.002  0.084  0.009   -0.070  0.084  0.015
 O          0.035  0.062 -0.062    0.007 -0.005  0.018    0.011 -0.013  0.023
 C          0.062 -0.059 -0.096   -0.001 -0.039 -0.007    0.009 -0.030 -0.016
 H          0.296  0.122  0.075   -0.367 -0.503 -0.228   -0.541 -0.002 -0.088
 H         -0.259  0.096  0.251   -0.065  0.046  0.098    0.580 -0.177 -0.502
 H         -0.042 -0.579 -0.016    0.010 -0.058  0.001   -0.008 -0.142  0.001
 H         -0.054  0.181  0.139    0.026 -0.079 -0.032    0.023 -0.056 -0.029
 O         -0.000 -0.023 -0.010   -0.016  0.150  0.053    0.006 -0.055 -0.022
 H          0.000  0.118  0.072    0.059 -0.544 -0.350   -0.033  0.109  0.075
 O          0.056 -0.008 -0.033    0.013 -0.010 -0.001    0.022 -0.013 -0.008
 O         -0.003 -0.008  0.019   -0.001  0.001  0.002   -0.001  0.001  0.005
 H         -0.076 -0.392  0.261   -0.021 -0.159  0.123    0.004 -0.079  0.067
 H          0.011  0.018 -0.081   -0.006  0.010 -0.013   -0.004  0.017 -0.033
 TransDip  -0.326 -0.034  0.420   -0.230 -0.345 -0.009    0.007  0.176 -0.042

 Mode:                25                     26                     27
 Frequency:      1272.41                1287.78                1330.84
 Force Cnst:      2.2944                 2.7584                 3.0657
 Red. Mass:       2.4053                 2.8231                 2.9378
 IR Active:          YES                    YES                    YES
 IR Intens:      152.424                359.542                107.739
 Raman Active:       YES                    YES                    YES
               X      Y      Z        X      Y      Z        X      Y      Z
 C          0.198  0.061 -0.098   -0.138  0.248  0.101   -0.015 -0.120  0.098
 O         -0.134  0.007  0.080    0.101 -0.036 -0.091    0.017 -0.001 -0.029
 C         -0.033  0.164  0.011    0.034  0.084  0.025   -0.040  0.257 -0.231
 O         -0.013 -0.074  0.035   -0.024 -0.059  0.004    0.002 -0.070  0.093
 C          0.005 -0.040 -0.018   -0.007 -0.022 -0.017   -0.011 -0.042  0.034
 H          0.286 -0.364 -0.320   -0.100  0.340  0.150    0.313  0.175  0.296
 H         -0.061  0.024 -0.004   -0.291  0.080  0.299   -0.173  0.052  0.159
 H         -0.007 -0.214  0.017    0.007 -0.123  0.019   -0.012 -0.102  0.035
 H          0.065 -0.144 -0.093    0.045 -0.085 -0.055    0.122 -0.338 -0.226
 O         -0.013 -0.006  0.025    0.010 -0.153  0.008   -0.004  0.015 -0.045
 H          0.054 -0.463 -0.242    0.046 -0.369 -0.119   -0.056  0.507  0.243
 O          0.009 -0.018 -0.007    0.011 -0.007  0.001    0.035 -0.036  0.008
 O         -0.003  0.000  0.006   -0.000  0.001  0.003   -0.010  0.004  0.015
 H          0.085  0.360 -0.262    0.083  0.459 -0.349   -0.015 -0.110  0.126
 H         -0.014  0.032 -0.054   -0.007  0.030 -0.054   -0.020  0.065 -0.114
 TransDip   0.264  0.079 -0.284   -0.308  0.519  0.068   -0.065  0.283 -0.162

 Mode:                28                     29                     30
 Frequency:      1359.04                1408.96                1438.84
 Force Cnst:      1.7699                 1.3204                 1.5699
 Red. Mass:       1.6264                 1.1289                 1.2870
 IR Active:          YES                    YES                    YES
 IR Intens:       15.834                 74.170                 75.990
 Raman Active:       YES                    YES                    YES
               X      Y      Z        X      Y      Z        X      Y      Z
 C          0.006 -0.127  0.031    0.006 -0.002  0.008   -0.056  0.023  0.024
 O          0.010  0.008 -0.021    0.000 -0.000 -0.003    0.010 -0.005  0.012
 C          0.057  0.036  0.152   -0.016  0.031 -0.001    0.003  0.065  0.011
 O         -0.030 -0.037 -0.040   -0.001 -0.008  0.004   -0.003 -0.015  0.004
 C          0.005  0.005 -0.022    0.004 -0.015 -0.005    0.014 -0.119 -0.030
 H         -0.287 -0.144  0.003   -0.019  0.007  0.010    0.293 -0.285 -0.102
 H         -0.058  0.024  0.048   -0.022  0.007  0.018    0.085 -0.018 -0.066
 H         -0.005 -0.174  0.025    0.006  0.015 -0.015    0.105  0.563 -0.176
 H          0.033 -0.017 -0.025   -0.007  0.010  0.019   -0.279  0.390  0.400
 O         -0.004  0.045 -0.037   -0.001 -0.002 -0.003    0.003 -0.007 -0.023
 H         -0.047  0.466  0.207   -0.003  0.020  0.010    0.000  0.138  0.061
 O         -0.015  0.002 -0.006    0.039  0.042 -0.010    0.004 -0.007  0.001
 O          0.005  0.000 -0.001   -0.025 -0.022 -0.048   -0.000  0.002  0.002
 H          0.092  0.573 -0.452    0.008  0.022 -0.017    0.014  0.075 -0.055
 H         -0.003  0.020 -0.034   -0.062 -0.394  0.911    0.020  0.013 -0.061
 TransDip   0.034  0.118  0.035   -0.089 -0.103  0.240   -0.075  0.269  0.004

 Mode:                31                     32                     33
 Frequency:      1443.63                1464.05                3136.51
 Force Cnst:      1.6232                 2.1597                 6.3082
 Red. Mass:       1.3220                 1.7101                 1.0883
 IR Active:          YES                    YES                    YES
 IR Intens:       26.965                 79.934                 23.169
 Raman Active:       YES                    YES                    YES
               X      Y      Z        X      Y      Z        X      Y      Z
 C          0.108 -0.071 -0.042   -0.147 -0.098 -0.127    0.006  0.040 -0.075
 O         -0.020  0.011 -0.021    0.020  0.010  0.045    0.000 -0.000  0.001
 C         -0.015  0.047 -0.004    0.059  0.050  0.048    0.000  0.000 -0.000
 O          0.000 -0.009  0.007   -0.011 -0.015 -0.008    0.000 -0.000  0.001
 C          0.011 -0.063 -0.014   -0.002  0.001 -0.003   -0.000 -0.001  0.000
 H         -0.517  0.594  0.246    0.516  0.494  0.243   -0.089 -0.463  0.877
 H         -0.153  0.034  0.116    0.359 -0.102 -0.292   -0.000 -0.004 -0.005
 H          0.051  0.291 -0.096    0.000 -0.068  0.019   -0.002  0.000  0.003
 H         -0.146  0.199  0.206    0.031 -0.048 -0.039    0.003  0.005 -0.005
 O         -0.010  0.009  0.036    0.005  0.030  0.046   -0.000 -0.001  0.002
 H         -0.003 -0.206 -0.087    0.036 -0.270 -0.129    0.000  0.001 -0.019
 O         -0.002 -0.007 -0.000   -0.006  0.003 -0.001   -0.000  0.000 -0.000
 O          0.001  0.002  0.003   -0.000 -0.002 -0.002    0.001  0.000  0.000
 H          0.004  0.006 -0.003    0.021  0.162 -0.126    0.000 -0.001  0.001
 H          0.011  0.019 -0.057   -0.006 -0.013  0.035    0.001 -0.001  0.000
 TransDip   0.101 -0.098 -0.088    0.048 -0.203 -0.196    0.055  0.078 -0.121

 Mode:                34                     35                     36
 Frequency:      3185.15                3301.87                3762.41
 Force Cnst:      6.2814                 7.2057                 8.9120
 Red. Mass:       1.0509                 1.1218                 1.0685
 IR Active:          YES                    YES                    YES
 IR Intens:        0.203                  0.081                134.437
 Raman Active:       YES                    YES                    YES
               X      Y      Z        X      Y      Z        X      Y      Z
 C          0.000 -0.000  0.001    0.000  0.000 -0.000   -0.000 -0.000 -0.000
 O         -0.000  0.000  0.000    0.000  0.000  0.000   -0.000 -0.000 -0.000
 C         -0.000  0.004  0.001    0.000  0.000 -0.001   -0.001  0.000  0.000
 O         -0.000 -0.000 -0.000   -0.000 -0.000  0.000    0.001  0.001  0.001
 C          0.014 -0.059 -0.014    0.053  0.029 -0.082   -0.000 -0.000  0.000
 H          0.000  0.003 -0.006   -0.000 -0.001  0.003   -0.000 -0.000  0.000
 H         -0.000  0.000  0.000   -0.000  0.000  0.000    0.002  0.000  0.001
 H         -0.401  0.169  0.570   -0.387  0.171  0.546    0.000 -0.000 -0.000
 H          0.244  0.491 -0.425   -0.246 -0.513  0.435    0.001  0.000 -0.001
 O         -0.000 -0.000 -0.000   -0.000  0.000  0.000    0.000 -0.000  0.000
 H          0.000 -0.000  0.001   -0.000 -0.000 -0.000   -0.000  0.004 -0.007
 O         -0.000 -0.000  0.000   -0.000  0.000 -0.000    0.001  0.001 -0.001
 O         -0.000  0.000  0.000    0.000 -0.000 -0.000   -0.035 -0.049 -0.019
 H          0.002  0.000  0.003    0.001 -0.002  0.000   -0.010 -0.010 -0.018
 H         -0.000 -0.000  0.000   -0.000  0.001  0.001    0.554  0.767  0.317
 TransDip  -0.003 -0.007 -0.012    0.001  0.009 -0.001    0.231  0.291  0.001

 Mode:                37                     38                     39
 Frequency:      3781.54                3804.15                3824.77
 Force Cnst:      8.9787                 9.0961                 9.1938
 Red. Mass:       1.0657                 1.0668                 1.0667
 IR Active:          YES                    YES                    YES
 IR Intens:      132.319                168.414                144.238
 Raman Active:       YES                    YES                    YES
               X      Y      Z        X      Y      Z        X      Y      Z
 C          0.000  0.001 -0.002   -0.000 -0.000  0.000   -0.000  0.000 -0.002
 O         -0.001 -0.001 -0.001   -0.000 -0.000 -0.000   -0.045 -0.008 -0.042
 C          0.000 -0.000 -0.000   -0.000 -0.001 -0.001    0.000 -0.000  0.000
 O         -0.000 -0.000  0.000   -0.028 -0.027 -0.049    0.000  0.000  0.001
 C         -0.000  0.000 -0.000   -0.000  0.000  0.000    0.000 -0.000 -0.000
 H         -0.001 -0.009  0.013    0.001  0.000  0.001    0.004 -0.002  0.003
 H          0.017  0.004  0.016    0.006  0.001  0.006    0.712  0.134  0.686
 H          0.000 -0.000 -0.000    0.001  0.001 -0.001   -0.000  0.000  0.000
 H         -0.000 -0.000  0.000   -0.001 -0.003  0.001   -0.000  0.000 -0.000
 O         -0.001  0.031 -0.053    0.000  0.000  0.000    0.000 -0.001  0.001
 H          0.022 -0.498  0.864   -0.000  0.000 -0.001   -0.001  0.012 -0.020
 O         -0.000  0.000 -0.000   -0.000 -0.000  0.000    0.000  0.000  0.000
 O         -0.000 -0.000 -0.000   -0.001 -0.001 -0.000    0.000  0.000  0.000
 H          0.001  0.001  0.000    0.449  0.438  0.776   -0.004 -0.004 -0.007
 H          0.005  0.006  0.003    0.013  0.017  0.007   -0.001 -0.002 -0.001
 TransDip   0.041 -0.236  0.280    0.146  0.110  0.373    0.329  0.025  0.198

 STANDARD THERMODYNAMIC QUANTITIES AT   298.15 K  AND     1.00 ATM

   This Molecule has  0 Imaginary Frequencies
   Zero point vibrational energy:       70.089 kcal/mol

   Atom    1 Element C  Has Mass   12.00000
   Atom    2 Element O  Has Mass   15.99491
   Atom    3 Element C  Has Mass   12.00000
   Atom    4 Element O  Has Mass   15.99491
   Atom    5 Element C  Has Mass   12.00000
   Atom    6 Element H  Has Mass    1.00783
   Atom    7 Element H  Has Mass    1.00783
   Atom    8 Element H  Has Mass    1.00783
   Atom    9 Element H  Has Mass    1.00783
   Atom   10 Element O  Has Mass   15.99491
   Atom   11 Element H  Has Mass    1.00783
   Atom   12 Element O  Has Mass   15.99491
   Atom   13 Element O  Has Mass   15.99491
   Atom   14 Element H  Has Mass    1.00783
   Atom   15 Element H  Has Mass    1.00783
   Molecular Mass:   123.029360 amu
   Principal axes and moments of inertia in amu*Bohr^2:
                             1           2           3
    Eigenvalues --      676.31691  1013.95627  1142.89353
          X               0.90753    -0.14476    -0.39425
          Y               0.40284     0.56552     0.71966
          Z              -0.11878     0.81193    -0.57154
   Rotational Symmetry Number is   1
   The Molecule is an Asymmetric Top
   Translational Enthalpy:        0.889 kcal/mol
   Rotational Enthalpy:           0.889 kcal/mol
   Vibrational Enthalpy:         74.604 kcal/mol
   gas constant (RT):             0.592 kcal/mol
   Translational Entropy:        40.336  cal/mol.K
   Rotational Entropy:           28.151  cal/mol.K
   Vibrational Entropy:          27.575  cal/mol.K

   Total Enthalpy:               76.974 kcal/mol
   Total Entropy:                96.062  cal/mol.K
 Total job time:  8895.52s(wall), 125723.11s(cpu) 
 Tue Jun 25 23:45:36 2024

        *************************************************************
        *                                                           *
        *  Thank you very much for using Q-Chem.  Have a nice day.  *
        *                                                           *
        *************************************************************


