
Running Job 1 of 1 Q_in.in
qchem Q_in.in_135586.0 /scratch/ari.fischer/qChem2186983.hpc-mn1/qchem135586/ 0
/usr/local/qchem-5.4.1/exe/qcprog.exe_s Q_in.in_135586.0 /scratch/ari.fischer/qChem2186983.hpc-mn1/qchem135586/
                  Welcome to Q-Chem
     A Quantum Leap Into The Future Of Chemistry


 Q-Chem 5.4, Q-Chem, Inc., Pleasanton, CA (2021)

 License issued to: Nanyang Technological University (site)

 E. Epifanovsky,  A. T. B. Gilbert,  Xintian Feng,  Joonho Lee,  Yuezhi Mao,  
 N. Mardirossian,  P. Pokhilko,  A. White,  M. Wormit,  M. P. Coons,  
 A. L. Dempwolff,  Zhengting Gan,  D. Hait,  P. R. Horn,  L. D. Jacobson,  
 I. Kaliman,  J. Kussmann,  A. W. Lange,  Ka Un Lao,  D. S. Levine,  Jie Liu,  
 S. C. McKenzie,  A. F. Morrison,  K. Nanda,  F. Plasser,  D. R. Rehn,  
 M. L. Vidal,  Zhi-Qiang You,  Ying Zhu,  B. Alam,  B. Albrecht,  
 A. Aldossary,  E. Alguire,  J. H. Andersen,  D. Barton,  K. Begam,  A. Behn,  
 Y. A. Bernard,  E. J. Berquist,  H. Burton,  A. Carreras,  K. Carter-Fenk,  
 R. Chakraborty,  A. D. Chien,  K. D. Closser,  V. Cofer-Shabica,  
 S. Dasgupta,  Jia Deng,  M. de Wergifosse,  M. Diedenhofen,  Hainam Do,  
 S. Ehlert,  Po-Tung Fang,  S. Fatehi,  Qingguo Feng,  T. Friedhoff,  
 J. Gayvert,  Qinghui Ge,  G. Gidofalvi,  M. Goldey,  J. Gomes,  
 C. Gonzalez-Espinoza,  S. Gulania,  A. Gunina,  M. W. D. Hanson-Heine,  
 P. H. P. Harbach,  A. W. Hauser,  M. F. Herbst,  M. Hernandez Vera,  
 M. Hodecker,  Z. C. Holden,  S. Houck,  Xunkun Huang,  Kerwin Hui,  
 B. C. Huynh,  M. Ivanov,  Hyunjun Ji,  Hanjie Jiang,  B. Kaduk,  S. Kaehler,  
 K. Khistyaev,  Jaehoon Kim,  P. Klunzinger,  Z. Koczor-Benda,  
 Joong Hoon Koh,  D. Kosenkov,  L. Koulias,  T. Kowalczyk,  C. M. Krauter,  
 K. Kue,  A. Kunitsa,  T. Kus,  A. Landau,  K. V. Lawler,  D. Lefrancois,  
 S. Lehtola,  Rain Li,  Yi-Pei Li,  Jiashu Liang,  M. Liebenthal,  
 Hung-Hsuan Lin,  You-Sheng Lin,  Fenglai Liu,  Kuan-Yu Liu,  
 M. Loipersberger,  A. Luenser,  A. Manjanath,  P. Manohar,  E. Mansoor,  
 S. F. Manzer,  Shan-Ping Mao,  A. V. Marenich,  T. Markovich,  S. Mason,  
 S. A. Maurer,  P. F. McLaughlin,  M. F. S. J. Menger,  J.-M. Mewes,  
 S. A. Mewes,  P. Morgante,  J. W. Mullinax,  K. J. Oosterbaan,  G. Paran,  
 Alexander C. Paul,  Suranjan K. Paul,  F. Pavosevic,  Zheng Pei,  S. Prager,  
 E. I. Proynov,  E. Ramos,  B. Rana,  A. E. Rask,  A. Rettig,  R. M. Richard,  
 F. Rob,  E. Rossomme,  T. Scheele,  M. Scheurer,  M. Schneider,  
 N. Sergueev,  S. M. Sharada,  W. Skomorowski,  D. W. Small,  C. J. Stein,  
 Yu-Chuan Su,  E. J. Sundstrom,  Zhen Tao,  J. Thirman,  T. Tsuchimochi,  
 N. M. Tubman,  S. P. Veccham,  O. Vydrov,  J. Wenzel,  J. Witte,  A. Yamada,  
 Kun Yao,  S. Yeganeh,  S. R. Yost,  A. Zech,  Igor Ying Zhang,  Xing Zhang,  
 Yu Zhang,  D. Zuev,  A. Aspuru-Guzik,  A. T. Bell,  N. A. Besley,  
 K. B. Bravaya,  B. R. Brooks,  D. Casanova,  Jeng-Da Chai,  S. Coriani,  
 C. J. Cramer,  A. E. DePrince, III,  R. A. DiStasio Jr.,  A. Dreuw,  
 B. D. Dunietz,  T. R. Furlani,  W. A. Goddard III,  S. Grimme,  
 S. Hammes-Schiffer,  T. Head-Gordon,  W. J. Hehre,  Chao-Ping Hsu,  
 T.-C. Jagau,  Yousung Jung,  A. Klamt,  Jing Kong,  D. S. Lambrecht,  
 WanZhen Liang,  N. J. Mayhall,  C. W. McCurdy,  J. B. Neaton,  
 C. Ochsenfeld,  J. A. Parkhill,  R. Peverati,  V. A. Rassolov,  Yihan Shao,  
 L. V. Slipchenko,  T. Stauch,  R. P. Steele,  J. E. Subotnik,  
 A. J. W. Thom,  A. Tkatchenko,  D. G. Truhlar,  T. Van Voorhis,  
 T. A. Wesolowski,  K. B. Whaley,  H. L. Woodcock III,  P. M. Zimmerman,  
 S. Faraji,  P. M. W. Gill,  M. Head-Gordon,  J. M. Herbert,  A. I. Krylov

 Additional authors for Version 5.4.1: 
 S. Kotaru,  Shaozhi Li,  Xiangyuan Li,  F. Matz,  A. Molle,  Haisheng Ren,  
 Yingli Su,  Hung-Yi Tsai,  C. Utku,  Fang Wang

 Contributors to earlier versions of Q-Chem not listed above: 
 R. D. Adamson,  B. Austin,  R. Baer,  J. Baker,  G. J. O. Beran,  
 K. Brandhorst,  S. T. Brown,  E. F. C. Byrd,  A. K. Chakraborty,  
 G. K. L. Chan,  Chun-Min Chang,  Yunqing Chen,  C.-L. Cheng,  
 Siu Hung Chien,  D. M. Chipman,  D. L. Crittenden,  H. Dachsel,  
 R. J. Doerksen,  A. D. Dutoi,  R. G. Edgar,  J. Fosso-Tande,  
 L. Fusti-Molnar,  D. Ghosh,  A. Ghysels,  A. Golubeva-Zadorozhnaya,  
 J. Gonthier,  M. S. Gordon,  S. R. Gwaltney,  G. Hawkins,  J. E. Herr,  
 A. Heyden,  S. Hirata,  E. G. Hohenstein,  G. Kedziora,  F. J. Keil,  
 C. Kelley,  Jihan Kim,  R. A. King,  R. Z. Khaliullin,  P. P. Korambath,  
 W. Kurlancheek,  A. Laurent,  A. M. Lee,  M. S. Lee,  S. V. Levchenko,  
 Ching Yeh Lin,  D. Liotard,  E. Livshits,  R. C. Lochan,  I. Lotan,  
 L. A. Martinez-Martinez,  P. E. Maslen,  N. Nair,  D. P. O'Neill,  
 D. Neuhauser,  E. Neuscamman,  C. M. Oana,  R. Olivares-Amaya,  R. Olson,  
 T. M. Perrine,  B. Peters,  P. A. Pieniazek,  A. Prociuk,  Y. M. Rhee,  
 J. Ritchie,  M. A. Rohrdanz,  E. Rosta,  N. J. Russ,  H. F. Schaefer III,  
 M. W. Schmidt,  N. E. Schultz,  S. Sharma,  N. Shenvi,  C. D. Sherrill,  
 A. C. Simmonett,  A. Sodt,  T. Stein,  D. Stuck,  K. S. Thanthiriwatte,  
 V. Vanovschi,  L. Vogt,  Tao Wang,  A. Warshel,  M. A. Watson,  
 C. F. Williams,  Q. Wu,  X. Xu,  Jun Yang,  W. Zhang,  Yan Zhao

 Please cite Q-Chem as follows:
 Y. Shao et al., Mol. Phys. 113, 184-215 (2015)
 DOI: 10.1080/00268976.2014.952696

 Q-Chem 5.4.1 for Intel X86 EM64T Linux

 Parts of Q-Chem use Armadillo 9.800.1 (Horizon Scraper).
 http://arma.sourceforge.net/

 Q-Chem begins on Tue Jun 25 16:04:40 2024  

 Host: 
0

     Scratch files written to /scratch/ari.fischer/qChem2186983.hpc-mn1/qchem135586//
 Aug1521 |scratch|qcdevops|jenkins|workspace|build_RNUM 8249   
 Processing $rem in /usr/local/qchem-5.4.1/config/preferences:
 Processing $rem in /home/ari.fischer/.qchemrc:
 Symmetry turned off for PCM/SM12/SMD calculation

 Checking the input file for inconsistencies... 	...done.

--------------------------------------------------------------
User input:
--------------------------------------------------------------
$molecule
0 2
C         2.3802935007   -1.0014066005   -0.9573593264
O         1.1378017363   -0.6984577049   -0.3664908411
C         3.4564729392   -0.4948394965    0.0247675365
O         3.3922271143   -1.3501883342    1.1320247236
C         3.3092922588    0.9364138713    0.3839139109
H         2.4969909734   -0.5056974481   -1.9242254265
H         0.4556068514   -0.9287668221   -1.0189194236
H         2.6711350582    1.2030027604    1.2174203377
H         3.6904797708    1.7104156697   -0.2699699373
O         2.5300940484   -2.3778396611   -1.1999352592
H         2.5698113748   -2.8059039936   -0.3253028490
O         4.7603268282   -0.7760417324   -0.5448565268
O         4.9260327986    0.0282158395   -1.7211036922
H         3.9270642517   -0.9578962533    1.8436938732
H         5.4893027953    0.7498418057   -1.3840564995
$end

$rem
BASIS = 6-311++G(2df,2p)
GUI = 2
JOB_TYPE = Optimization
METHOD = wB97M-V
SCF_ALGORITHM = DIIS_GDM
MAX_SCF_CYCLES = 400
GEOM_OPT_MAX_CYCLES = 150
SCF_CONVERGENCE = 7
THRESH = 12
Solvent_method = SMD
$end
--------------------------------------------------------------
 ----------------------------------------------------------------
             Standard Nuclear Orientation (Angstroms)
    I     Atom           X                Y                Z
 ----------------------------------------------------------------
    1      C       2.3802935007    -1.0014066005    -0.9573593264
    2      O       1.1378017363    -0.6984577049    -0.3664908411
    3      C       3.4564729392    -0.4948394965     0.0247675365
    4      O       3.3922271143    -1.3501883342     1.1320247236
    5      C       3.3092922588     0.9364138713     0.3839139109
    6      H       2.4969909734    -0.5056974481    -1.9242254265
    7      H       0.4556068514    -0.9287668221    -1.0189194236
    8      H       2.6711350582     1.2030027604     1.2174203377
    9      H       3.6904797708     1.7104156697    -0.2699699373
   10      O       2.5300940484    -2.3778396611    -1.1999352592
   11      H       2.5698113748    -2.8059039936    -0.3253028490
   12      O       4.7603268282    -0.7760417324    -0.5448565268
   13      O       4.9260327986     0.0282158395    -1.7211036922
   14      H       3.9270642517    -0.9578962533     1.8436938732
   15      H       5.4893027953     0.7498418057    -1.3840564995
 ----------------------------------------------------------------
 Nuclear Repulsion Energy =         433.82253604 hartrees
 There are       33 alpha and       32 beta electrons
 Requested basis set is 6-311++G(2df,2p)
 There are 106 shells and 342 basis functions

 Total QAlloc Memory Limit 288000 MB
 Mega-Array Size       188 MB
 MEM_STATIC part       192 MB
 
 Citation of the SMD model:
 Marenich, A.V.; Cramer, C.J.; Truhlar, D.G.
 J. Phys. Chem. B 2009, 113, 6378-6396.
 iSolventCode=           1
 Solvent: water                                                           
 
 vradii
            1           2           3           4           5           6
    1   1.8500000   1.5200000   1.8500000   1.5200000   1.8500000   1.2000000
            7           8           9          10          11          12
    1   1.2000000   1.2000000   1.2000000   1.5200000   1.2000000   1.5200000
           13          14          15
    1   1.5200000   1.2000000   1.2000000
 Changing PCM_VDW_RADII to SMD_RADIUS
 Discretize the solute cavity surface with Lebedev spheres
	Using 110 Lebedev grid points for each H atom
	Using 194 Lebedev grid points for other atoms
	Atomic van der Waals radii will be scaled by 1.20
 Remove points where switching function is < 1.0e-08
 Keep 1188 surface tesserae and discard 1134 interior tesserae
 Molecular Surface Area = 136.487 Angst**2
 A cutoff of  1.0D-12 yielded   5275 shell pairs
 There are     55399 function pairs (     69093 Cartesian)
 Smallest overlap matrix eigenvalue = 1.51E-05

 Scale SEOQF with 1.000000e-02/1.000000e-01/1.000000e-01

 Standard Electronic Orientation quadrupole field applied
 Nucleus-field energy     =     0.0000000025 hartrees
 Guess from superposition of atomic densities
 Warning:  Energy on first SCF cycle will be non-variational
 SAD guess density has 65.000000 electrons

 -----------------------------------------------------------------------
  General SCF calculation program by
  Eric Jon Sundstrom, Paul Horn, Yuezhi Mao, Dmitri Zuev, Alec White,
  David Stuck, Shaama M.S., Shane Yost, Joonho Lee, David Small,
  Daniel Levine, Susi Lehtola, Hugh Burton, Evgeny Epifanovsky,
  Bang C. Huynh
 -----------------------------------------------------------------------
 Exchange:     0.1500 Hartree-Fock + 1.0000 wB97M-V + LR-HF
 Correlation:  1.0000 wB97M-V
 Using SG-2 standard quadrature grid
 Nonlocal Correlation:  VV10 with C = 0.0100 and b = 6.00 and scale = 1.00000
 Grid used for NLC:  SG-1 standard quadrature
 
 Citation of the SMD model:
 Marenich, A.V.; Cramer, C.J.; Truhlar, D.G.
 J. Phys. Chem. B 2009, 113, 6378-6396.
 iSolventCode=           1
 Solvent: water                                                           
 
 vradii
            1           2           3           4           5           6
    1   1.8500000   1.5200000   1.8500000   1.5200000   1.8500000   1.2000000
            7           8           9          10          11          12
    1   1.2000000   1.2000000   1.2000000   1.5200000   1.2000000   1.5200000
           13          14          15
    1   1.5200000   1.2000000   1.2000000
 using 16 threads for integral computing
 -------------------------------------------------------
 OpenMP Integral computing Module                
 Release: version 1.0, May 2013, Q-Chem Inc. Pittsburgh 
 -------------------------------------------------------
 -------------------------------------------------------
 OpenMP BLAS3 based DFT computing Module                
 Release: version 1.0, May 2013, Q-Chem Inc. Pittsburgh 
 -------------------------------------------------------
 A unrestricted SCF calculation will be
 performed using DIIS, GDM
 SCF converges when RMS gradient is below 1.0e-07
 ---------------------------------------
  Cycle       Energy         DIIS error
 ---------------------------------------
    1    -495.8603720454      1.29e-02  
    2    -494.3957572761      1.74e-03  Done DIIS. Switching to GDM
 ---------------------------------------
  Cycle       Energy        RMS Gradient
 ---------------------------------------
    1    -494.3957572761      4.63e-02   Descent step
    2    -494.5208438607      3.45e-02   Normal BFGS step
    3    -494.5367201125      1.17e-02   Normal BFGS step
    4    -494.5380968287      5.93e-03   Normal BFGS step
    5    -494.5383068867      2.12e-03   Normal BFGS step
    6    -494.5383773915      7.78e-04   Normal BFGS step
    7    -494.5383860740      5.12e-04   Normal BFGS step
    8    -494.5383884845      1.96e-04   Normal BFGS step
    9    -494.5383887006      6.29e-05   Normal BFGS step
   10    -494.5383887793      4.18e-05   Normal BFGS step
   11    -494.5383887853      1.42e-05   Normal BFGS step
   12    -494.5383887872      3.15e-06   Normal BFGS step
   13    -494.5383887874      1.07e-06   Normal BFGS step
   14    -494.5383887874      3.41e-07   Normal BFGS step
   15    -494.5383887875      1.20e-07   Normal BFGS step
   16    -494.5383887875      4.07e-08  Convergence criterion met
 ---------------------------------------
 SCF time:   CPU 1205.68s  wall 82.00s 
<S^2> =          0.753442784
(3)  G-ENP(liq) elect-nuc-pol free energy of system     -494.538388787 a.u.
(4)  G-CDS(liq) cavity-dispersion-solvent structure 
     free energy                                                3.7915 kcal/mol
(6)  G-S(liq) free energy of system                     -494.532346705 a.u.
 SCF   energy in the final basis set =     -494.5323467052
 Total energy in the final basis set =     -494.5323467052
 
 --------------------------------------------------------------
 
                    Orbital Energies (a.u.)
 --------------------------------------------------------------
 
 Alpha MOs
 -- Occupied --
-19.4050 -19.3992 -19.3625 -19.3497 -19.3491 -10.4675 -10.4497 -10.3588
 -1.2755  -1.2123  -1.1817  -1.1372  -1.0381  -0.8871  -0.8064  -0.7326
 -0.6877  -0.6478  -0.6406  -0.6095  -0.5791  -0.5765  -0.5615  -0.5366
 -0.5123  -0.4921  -0.4653  -0.4495  -0.4329  -0.4166  -0.4147  -0.3974
 -0.3217
 -- Virtual --
  0.0274   0.0384   0.0429   0.0493   0.0659   0.0700   0.0778   0.0960
  0.1045   0.1201   0.1312   0.1385   0.1416   0.1426   0.1494   0.1617
  0.1699   0.1807   0.1918   0.1976   0.2136   0.2227   0.2358   0.2465
  0.2563   0.2620   0.2731   0.2780   0.2819   0.2936   0.2968   0.3097
  0.3138   0.3228   0.3309   0.3390   0.3442   0.3504   0.3576   0.3686
  0.3708   0.3766   0.3904   0.4053   0.4123   0.4156   0.4299   0.4361
  0.4464   0.4498   0.4653   0.4873   0.4915   0.5594   0.5696   0.5772
  0.6038   0.6179   0.6290   0.6433   0.6476   0.6552   0.6647   0.6734
  0.6855   0.7057   0.7219   0.7459   0.7502   0.7626   0.7873   0.8259
  0.8302   0.8581   0.8788   0.9191   0.9276   0.9346   0.9568   0.9788
  1.0054   1.0195   1.0573   1.0672   1.0849   1.0881   1.1057   1.1207
  1.1362   1.1473   1.1697   1.1779   1.1967   1.1982   1.2054   1.2160
  1.2310   1.2509   1.2637   1.2844   1.2889   1.2899   1.3365   1.3389
  1.3445   1.3663   1.3995   1.4058   1.4286   1.4453   1.4678   1.4895
  1.5099   1.5181   1.5295   1.5357   1.5487   1.5603   1.6173   1.6437
  1.6503   1.6568   1.6856   1.6942   1.7188   1.7487   1.7788   1.8243
  1.8513   1.8787   1.9188   1.9410   1.9750   1.9830   1.9938   2.0448
  2.1025   2.1229   2.1977   2.2182   2.2512   2.2814   2.3014   2.3666
  2.3803   2.4170   2.4392   2.4552   2.4696   2.4817   2.5229   2.5605
  2.6403   2.6562   2.6808   2.7474   2.7975   2.8091   2.8376   2.8569
  2.8706   2.9371   2.9787   3.0211   3.0292   3.0627   3.1243   3.1436
  3.1697   3.1768   3.2109   3.2513   3.3214   3.3324   3.3628   3.3662
  3.4004   3.4270   3.4381   3.4770   3.5213   3.5621   3.6108   3.6398
  3.6550   3.6970   3.7010   3.7588   3.7651   3.7932   3.8158   3.8326
  3.8339   3.8614   3.8735   3.8819   3.9110   3.9199   3.9442   3.9598
  3.9880   4.0657   4.0771   4.1117   4.1872   4.1949   4.2067   4.2327
  4.2463   4.2664   4.2725   4.3126   4.3161   4.3438   4.3771   4.3974
  4.4378   4.4803   4.5260   4.5575   4.6051   4.7015   4.7498   4.8489
  4.9406   5.0084   5.0442   5.0852   5.2009   5.2124   5.2343   5.2376
  5.2735   5.2797   5.2805   5.2987   5.3261   5.3383   5.3589   5.3711
  5.3941   5.4018   5.4368   5.4571   5.4846   5.5107   5.5253   5.5531
  5.5834   5.5933   5.5973   5.6114   5.6218   5.6543   5.6648   5.7046
  5.7217   5.7731   5.8084   5.8547   5.9424   6.0017   6.0340   6.0589
  6.1234   6.1533   6.2084   6.4798   6.5597   6.7384   6.7819   6.8271
  7.0120   7.0362   7.0740   7.0839   7.1120   7.1515   7.2194   7.2394
  7.2506   7.2785   7.2844   7.3001   7.3401   7.3963   7.4048   7.4144
  7.4741   7.4803   7.5682   7.5777   7.6443   7.6891   7.7551   7.8136
  7.8458   7.8621   7.8987   7.9954   8.1890  24.5445  24.7679  24.8434
 50.4835  50.5624  50.6129  50.6287  50.6756
 
 Beta MOs
 -- Occupied --
-19.4043 -19.3992 -19.3620 -19.3494 -19.3487 -10.4684 -10.4489 -10.3458
 -1.2745  -1.2114  -1.1806  -1.1365  -1.0371  -0.8741  -0.7893  -0.7282
 -0.6855  -0.6470  -0.6365  -0.6013  -0.5772  -0.5743  -0.5588  -0.5346
 -0.5032  -0.4879  -0.4629  -0.4478  -0.4310  -0.4151  -0.4076  -0.3929
 -- Virtual --
 -0.0083   0.0274   0.0383   0.0453   0.0509   0.0656   0.0699   0.0778
  0.0955   0.1078   0.1205   0.1298   0.1377   0.1418   0.1430   0.1491
  0.1617   0.1684   0.1808   0.1914   0.1958   0.2146   0.2239   0.2361
  0.2477   0.2581   0.2650   0.2732   0.2786   0.2830   0.2950   0.2965
  0.3137   0.3146   0.3249   0.3331   0.3399   0.3487   0.3522   0.3584
  0.3706   0.3712   0.3771   0.3924   0.4057   0.4130   0.4167   0.4308
  0.4369   0.4473   0.4526   0.4672   0.4877   0.4950   0.5670   0.5715
  0.5787   0.6047   0.6226   0.6340   0.6466   0.6584   0.6666   0.6743
  0.6839   0.6940   0.7104   0.7261   0.7490   0.7566   0.7652   0.7910
  0.8295   0.8364   0.8624   0.8828   0.9205   0.9291   0.9379   0.9596
  0.9821   1.0069   1.0249   1.0605   1.0695   1.0872   1.0894   1.1078
  1.1212   1.1381   1.1486   1.1710   1.1796   1.1990   1.2001   1.2085
  1.2170   1.2367   1.2540   1.2653   1.2871   1.2905   1.2934   1.3391
  1.3449   1.3483   1.3707   1.4035   1.4181   1.4332   1.4485   1.4718
  1.4953   1.5129   1.5206   1.5358   1.5457   1.5520   1.5618   1.6201
  1.6509   1.6565   1.6702   1.6927   1.6957   1.7214   1.7535   1.7804
  1.8251   1.8538   1.8808   1.9196   1.9433   1.9768   1.9849   1.9957
  2.0468   2.1041   2.1246   2.1993   2.2206   2.2529   2.2860   2.3068
  2.3680   2.3821   2.4227   2.4426   2.4561   2.4726   2.4846   2.5281
  2.5617   2.6519   2.6730   2.6878   2.7590   2.8097   2.8235   2.8500
  2.8769   2.9008   2.9702   3.0004   3.0567   3.0674   3.1101   3.1536
  3.1693   3.1993   3.2151   3.2301   3.2678   3.3372   3.3479   3.3871
  3.4089   3.4247   3.4509   3.4561   3.5100   3.5313   3.5855   3.6293
  3.6470   3.6692   3.7056   3.7254   3.7736   3.7795   3.8010   3.8219
  3.8362   3.8447   3.8670   3.8792   3.8867   3.9178   3.9275   3.9559
  3.9645   4.0042   4.0750   4.0962   4.1161   4.1947   4.2013   4.2291
  4.2367   4.2547   4.2768   4.2996   4.3267   4.3452   4.3584   4.3862
  4.4069   4.4478   4.4937   4.5531   4.5689   4.6128   4.7049   4.7533
  4.8513   4.9547   5.0291   5.0450   5.1090   5.2026   5.2131   5.2373
  5.2407   5.2748   5.2815   5.2832   5.3002   5.3293   5.3418   5.3660
  5.3723   5.3988   5.4054   5.4396   5.4616   5.4864   5.5231   5.5411
  5.5565   5.5877   5.6074   5.6087   5.6229   5.6543   5.6601   5.6887
  5.7087   5.7245   5.7753   5.8104   5.8568   5.9466   6.0039   6.0369
  6.0597   6.1254   6.1542   6.2097   6.4834   6.5609   6.7395   6.7834
  6.8277   7.0126   7.0368   7.0752   7.0850   7.1130   7.1531   7.2199
  7.2403   7.2517   7.2792   7.2855   7.3015   7.3415   7.3978   7.4062
  7.4155   7.4754   7.4818   7.5701   7.5783   7.6451   7.6899   7.7565
  7.8151   7.8471   7.8629   7.8996   7.9968   8.1897  24.5534  24.7728
 24.8445  50.4837  50.5628  50.6132  50.6291  50.6759
 --------------------------------------------------------------
 
          Ground-State Mulliken Net Atomic Charges

     Atom                 Charge (a.u.)    Spin (a.u.)
  --------------------------------------------------------
      1 C                    -0.135825       0.027368
      2 O                    -0.425344       0.005063
      3 C                     0.248297      -0.035395
      4 O                    -0.409365       0.009022
      5 C                    -0.464924       0.988363
      6 H                     0.272670       0.003531
      7 H                     0.344799      -0.000704
      8 H                     0.230588      -0.012760
      9 H                     0.225369      -0.012400
     10 O                    -0.442513       0.008621
     11 H                     0.350353      -0.000879
     12 O                    -0.201141       0.017681
     13 O                    -0.275139       0.001207
     14 H                     0.346994       0.000284
     15 H                     0.335180       0.000998
  --------------------------------------------------------
  Sum of atomic charges =     0.000000
  Sum of spin   charges =     1.000000

 -----------------------------------------------------------------
                    Cartesian Multipole Moments
 -----------------------------------------------------------------
    Charge (ESU x 10^10)
                 0.0000
    Dipole Moment (Debye)
         X       0.1122      Y       4.1743      Z       1.6229
       Tot       4.4801
    Quadrupole Moments (Debye-Ang)
        XX     -43.0672     XY      19.6262     YY     -50.4133
        XZ      11.3688     YZ      -5.8537     ZZ     -46.8092
    Octopole Moments (Debye-Ang^2)
       XXX    -427.1991    XXY     122.4152    XYY    -161.4401
       YYY     106.1864    XXZ      62.0719    XYZ     -29.8430
       YYZ      29.5106    XZZ    -154.5360    YZZ      42.2706
       ZZZ      72.6617
    Hexadecapole Moments (Debye-Ang^3)
      XXXX   -3180.3791   XXXY     707.0290   XXYY    -666.2770
      XYYY     298.5376   YYYY    -449.9175   XXXZ     346.5377
      XXYZ    -156.4245   XYYZ      90.7297   YYYZ     -96.6602
      XXZZ    -624.2829   XYZZ     121.3857   YYZZ    -155.2036
      XZZZ     277.5090   YZZZ     -80.4794   ZZZZ    -318.6764
 -----------------------------------------------------------------
 Calculating analytic gradient of the SCF energy
 Gradient of CDS energy
            1           2           3           4           5           6
    1  -0.0015160   0.0018408  -0.0000841   0.0000843  -0.0000510   0.0002717
    2  -0.0023537  -0.0005995  -0.0020992   0.0019438   0.0013260  -0.0000179
    3  -0.0001007  -0.0005957   0.0022195  -0.0025564   0.0003086  -0.0001048
            7           8           9          10          11          12
    1  -0.0005180  -0.0001686   0.0001199  -0.0002181  -0.0000234  -0.0001151
    2   0.0000292  -0.0002633  -0.0001879   0.0029941  -0.0004771  -0.0001154
    3  -0.0000313   0.0000911  -0.0001444   0.0005430   0.0001263  -0.0001442
           13          14          15
    1  -0.0001740   0.0001345   0.0004169
    2  -0.0001766  -0.0002438   0.0002414
    3   0.0001344   0.0004411  -0.0001867
 Gradient of SCF Energy
            1           2           3           4           5           6
    1  -0.0022533   0.0087143   0.0025942  -0.0139867  -0.0013667  -0.0015567
    2  -0.0038186   0.0064783   0.0075778  -0.0125245  -0.0139201   0.0034716
    3   0.0038514   0.0195290  -0.0009562  -0.0129674   0.0012925  -0.0041388
            7           8           9          10          11          12
    1  -0.0105269  -0.0050994   0.0062499   0.0058660  -0.0019173   0.0028518
    2  -0.0039069   0.0038013   0.0103063  -0.0028406  -0.0008520  -0.0079152
    3  -0.0143788   0.0086543  -0.0084848  -0.0135455   0.0086622   0.0039559
           13          14          15
    1  -0.0122849   0.0113440   0.0113716
    2  -0.0149324   0.0102535   0.0188216
    3  -0.0151184   0.0141151   0.0095295
 Max gradient component =       1.953E-02
 RMS gradient           =       9.446E-03
 Computing fast CPCM-SWIG gradient
 Updating gradient with PCM contributions...
 -- total gradient after adding PCM contribution --
---------------------------------------------------
  Atom         X              Y              Z     
---------------------------------------------------
   1      -0.002593      -0.002804       0.003113
   2       0.004001       0.003718       0.008086
   3       0.000370       0.000672      -0.001579
   4      -0.006211      -0.005884      -0.003747
   5       0.001251      -0.000811       0.000492
   6       0.001163       0.000863      -0.003178
   7      -0.003439      -0.002504      -0.005530
   8      -0.002109       0.001328       0.002169
   9       0.000709       0.002451      -0.001835
  10       0.001507       0.000506      -0.009260
  11       0.000030      -0.000189       0.007266
  12       0.001844      -0.003294       0.003485
  13      -0.004765      -0.002107      -0.007141
  14       0.004418       0.003721       0.003930
  15       0.003824       0.004334       0.003729
---------------------------------------------------
 Number of fixed atoms: 0
 Gradient time:  CPU 199.87 s  wall 16.12 s
 Geometry Optimization Parameters
   NAtoms,    NIC,     NZ,  NCons,   NDum,   NFix, NCnnct, MaxDiis
       15      92       0       0       0       0       0       0


** GEOMETRY OPTIMIZATION IN DELOCALIZED INTERNAL COORDINATES **
   Searching for a Minimum

   Optimization Cycle:   1

                       Coordinates (Angstroms)
     ATOM                X               Y               Z
      1  C         2.3802935007   -1.0014066005   -0.9573593264
      2  O         1.1378017363   -0.6984577049   -0.3664908411
      3  C         3.4564729392   -0.4948394965    0.0247675365
      4  O         3.3922271143   -1.3501883342    1.1320247236
      5  C         3.3092922588    0.9364138713    0.3839139109
      6  H         2.4969909734   -0.5056974481   -1.9242254265
      7  H         0.4556068514   -0.9287668221   -1.0189194236
      8  H         2.6711350582    1.2030027604    1.2174203377
      9  H         3.6904797708    1.7104156697   -0.2699699373
     10  O         2.5300940484   -2.3778396611   -1.1999352592
     11  H         2.5698113748   -2.8059039936   -0.3253028490
     12  O         4.7603268282   -0.7760417324   -0.5448565268
     13  O         4.9260327986    0.0282158395   -1.7211036922
     14  H         3.9270642517   -0.9578962533    1.8436938732
     15  H         5.4893027953    0.7498418057   -1.3840564995
   Point Group: c1    Number of degrees of freedom:    39


   Energy is   -494.532346705


 Attempting to generate delocalized internal coordinates
 Initial Hessian constructed with Jon Baker's OPTIMIZE code

 39 Hessian modes will be used to form the next step
  Hessian Eigenvalues:
     0.003555    0.004541    0.008982    0.011434    0.012253    0.014483
     0.014898    0.015562    0.055474    0.057782    0.062653    0.071417
     0.091708    0.102241    0.160000    0.160000    0.160000    0.160000
     0.160000    0.160000    0.180274    0.182853    0.191374    0.207207
     0.250000    0.282975    0.342343    0.344929    0.356256    0.356862
     0.381962    0.403467    0.441943    0.446969    0.455161    0.522670
     0.524528    0.528009    0.530421

 Minimum search - taking simple RFO step
 Searching for Lamda that Minimizes Along All modes
 Value Taken    Lamda =  -0.00111325
 Step Taken.  Stepsize is  0.105397

                             Maximum     Tolerance    Cnvgd?
         Gradient           0.007522      0.000300      NO
         Displacement       0.037244      0.001200      NO
         Energy change     *********      0.000001      NO


 New Cartesian Coordinates Obtained by Inverse Iteration

 Displacement from previous Coordinates is:  0.177628
 ----------------------------------------------------------------
             Standard Nuclear Orientation (Angstroms)
    I     Atom           X                Y                Z
 ----------------------------------------------------------------
    1      C       2.3892326107    -0.9997534101    -0.9531393863
    2      O       1.1384916258    -0.7003981275    -0.3805301415
    3      C       3.4592024587    -0.4900155519     0.0359268521
    4      O       3.4074592737    -1.3395616821     1.1460127242
    5      C       3.2981120655     0.9356735081     0.3917461594
    6      H       2.5075299462    -0.4993455178    -1.9116020793
    7      H       0.4575492250    -0.9098040522    -1.0313803049
    8      H       2.6694104998     1.1934181738     1.2289793431
    9      H       3.6802074224     1.7093848468    -0.2543445748
   10      O       2.5304308424    -2.3757924745    -1.2017184554
   11      H       2.5623159164    -2.8353290057    -0.3504032115
   12      O       4.7664072035    -0.7569639149    -0.5294029924
   13      O       4.9234328755     0.0053881310    -1.7282612980
   14      H       3.9203800554    -0.9465633476     1.8641460859
   15      H       5.4827702790     0.7405143245    -1.4364281204
 ----------------------------------------------------------------
 Nuclear Repulsion Energy =         433.79142402 hartrees
 There are       33 alpha and       32 beta electrons
 Discretize the solute cavity surface with Lebedev spheres
	Using 110 Lebedev grid points for each H atom
	Using 194 Lebedev grid points for other atoms
	Atomic van der Waals radii will be scaled by 1.20
 Remove points where switching function is < 1.0e-08
 Keep 1186 surface tesserae and discard 1136 interior tesserae
 Molecular Surface Area = 136.672 Angst**2
 Applying Cartesian multipole field
    Component          Value
    ---------          -----
     (2,0,0)        1.00000E-12
     (0,2,0)        2.00000E-11
     (0,0,2)       -3.00000E-11
 Nucleus-field energy     =     0.0000000024 hartrees
 Requested basis set is 6-311++G(2df,2p)
 There are 106 shells and 342 basis functions
 A cutoff of  1.0D-12 yielded   5272 shell pairs
 There are     55359 function pairs (     69041 Cartesian)
 Smallest overlap matrix eigenvalue = 1.47E-05
 Guess MOs from SCF MO coefficient file

 -----------------------------------------------------------------------
  General SCF calculation program by
  Eric Jon Sundstrom, Paul Horn, Yuezhi Mao, Dmitri Zuev, Alec White,
  David Stuck, Shaama M.S., Shane Yost, Joonho Lee, David Small,
  Daniel Levine, Susi Lehtola, Hugh Burton, Evgeny Epifanovsky,
  Bang C. Huynh
 -----------------------------------------------------------------------
 Exchange:     0.1500 Hartree-Fock + 1.0000 wB97M-V + LR-HF
 Correlation:  1.0000 wB97M-V
 Using SG-2 standard quadrature grid
 Nonlocal Correlation:  VV10 with C = 0.0100 and b = 6.00 and scale = 1.00000
 Grid used for NLC:  SG-1 standard quadrature
 
 Citation of the SMD model:
 Marenich, A.V.; Cramer, C.J.; Truhlar, D.G.
 J. Phys. Chem. B 2009, 113, 6378-6396.
 iSolventCode=           1
 Solvent: water                                                           
 
 vradii
            1           2           3           4           5           6
    1   1.8500000   1.5200000   1.8500000   1.5200000   1.8500000   1.2000000
            7           8           9          10          11          12
    1   1.2000000   1.2000000   1.2000000   1.5200000   1.2000000   1.5200000
           13          14          15
    1   1.5200000   1.2000000   1.2000000
 -------------------------------------------------------
 OpenMP BLAS3 based DFT computing Module                
 Release: version 1.0, May 2013, Q-Chem Inc. Pittsburgh 
 -------------------------------------------------------
 A unrestricted SCF calculation will be
 performed using Roothaan-Hall, DIIS, GDM
 SCF converges when RMS gradient is below 1.0e-07
 ---------------------------------------
  Cycle       Energy         DIIS error
 ---------------------------------------
    1    -494.4947914845      2.97e-04  Roothaan Step
 ---------------------------------------
  Cycle       Energy         DIIS error
 ---------------------------------------
    1    -494.5317157459      2.85e-04  
    2    -494.5375323436      1.80e-04  Done DIIS. Switching to GDM
 ---------------------------------------
  Cycle       Energy        RMS Gradient
 ---------------------------------------
    1    -494.5375323436      4.79e-03   Normal BFGS step
    2    -494.5379897047      3.92e-03   Normal BFGS step
    3    -494.5389524743      5.97e-04   Normal BFGS step
    4    -494.5389667119      5.55e-04   Normal BFGS step
    5    -494.5389783780      1.11e-04   Normal BFGS step
    6    -494.5389786324      8.86e-05   Normal BFGS step
    7    -494.5389789877      1.91e-05   Normal BFGS step
    8    -494.5389789966      1.32e-05   Normal BFGS step
    9    -494.5389789996      4.22e-06   Normal BFGS step
   10    -494.5389790000      1.16e-06   Normal BFGS step
   11    -494.5389790000      6.70e-07   Normal BFGS step
   12    -494.5389790001      2.88e-07   Normal BFGS step
   13    -494.5389790000      1.99e-07   Normal BFGS step
   14    -494.5389790000      8.14e-08  Convergence criterion met
 ---------------------------------------
 SCF time:   CPU 1156.92s  wall 79.00s 
<S^2> =          0.753416387
(3)  G-ENP(liq) elect-nuc-pol free energy of system     -494.538979000 a.u.
(4)  G-CDS(liq) cavity-dispersion-solvent structure 
     free energy                                                3.8186 kcal/mol
(6)  G-S(liq) free energy of system                     -494.532893727 a.u.
 SCF   energy in the final basis set =     -494.5328937265
 Total energy in the final basis set =     -494.5328937265
 
 --------------------------------------------------------------
 
                    Orbital Energies (a.u.)
 --------------------------------------------------------------
 
 Alpha MOs
 -- Occupied --
-19.4048 -19.3984 -19.3614 -19.3483 -19.3481 -10.4673 -10.4498 -10.3572
 -1.2773  -1.2122  -1.1831  -1.1375  -1.0393  -0.8885  -0.8083  -0.7351
 -0.6893  -0.6505  -0.6436  -0.6091  -0.5807  -0.5771  -0.5621  -0.5351
 -0.5138  -0.4913  -0.4641  -0.4493  -0.4330  -0.4163  -0.4144  -0.3966
 -0.3211
 -- Virtual --
  0.0274   0.0386   0.0429   0.0492   0.0658   0.0702   0.0775   0.0965
  0.1047   0.1213   0.1313   0.1392   0.1420   0.1429   0.1495   0.1620
  0.1699   0.1811   0.1921   0.1981   0.2144   0.2233   0.2370   0.2467
  0.2571   0.2627   0.2730   0.2781   0.2830   0.2942   0.2969   0.3103
  0.3152   0.3243   0.3328   0.3397   0.3463   0.3504   0.3574   0.3691
  0.3720   0.3772   0.3911   0.4067   0.4102   0.4173   0.4315   0.4372
  0.4459   0.4505   0.4646   0.4881   0.4912   0.5612   0.5738   0.5788
  0.6056   0.6181   0.6303   0.6455   0.6503   0.6559   0.6661   0.6747
  0.6851   0.7077   0.7249   0.7459   0.7525   0.7644   0.7914   0.8203
  0.8315   0.8619   0.8785   0.9186   0.9294   0.9352   0.9551   0.9792
  1.0044   1.0229   1.0591   1.0672   1.0857   1.0872   1.1021   1.1223
  1.1347   1.1456   1.1693   1.1789   1.1956   1.1977   1.2047   1.2182
  1.2331   1.2502   1.2631   1.2847   1.2861   1.2907   1.3316   1.3381
  1.3447   1.3665   1.4004   1.4079   1.4298   1.4389   1.4713   1.4924
  1.5096   1.5213   1.5322   1.5386   1.5517   1.5641   1.6199   1.6466
  1.6505   1.6591   1.6870   1.6941   1.7207   1.7512   1.7748   1.8266
  1.8518   1.8799   1.9193   1.9401   1.9750   1.9889   1.9972   2.0487
  2.1022   2.1239   2.1972   2.2170   2.2527   2.2831   2.3006   2.3653
  2.3809   2.4129   2.4389   2.4566   2.4676   2.4789   2.5176   2.5622
  2.6419   2.6567   2.6772   2.7448   2.8005   2.8114   2.8396   2.8547
  2.8742   2.9335   2.9829   3.0246   3.0288   3.0648   3.1229   3.1464
  3.1726   3.1803   3.2156   3.2531   3.3213   3.3380   3.3570   3.3660
  3.4034   3.4280   3.4352   3.4818   3.5228   3.5617   3.6153   3.6399
  3.6589   3.6973   3.7061   3.7629   3.7728   3.7962   3.8150   3.8283
  3.8348   3.8637   3.8758   3.8848   3.9103   3.9225   3.9475   3.9587
  3.9871   4.0692   4.0779   4.1134   4.1966   4.2007   4.2156   4.2413
  4.2544   4.2766   4.2862   4.3185   4.3226   4.3519   4.3871   4.4098
  4.4471   4.4832   4.5294   4.5644   4.6096   4.7057   4.7538   4.8502
  4.9508   5.0166   5.0447   5.0903   5.1999   5.2112   5.2349   5.2369
  5.2750   5.2802   5.2811   5.2996   5.3254   5.3368   5.3580   5.3710
  5.3911   5.4040   5.4354   5.4553   5.4867   5.5139   5.5252   5.5587
  5.5913   5.6023   5.6111   5.6140   5.6358   5.6663   5.6727   5.7112
  5.7229   5.7722   5.8155   5.8658   5.9511   6.0206   6.0527   6.0821
  6.1342   6.1540   6.2267   6.4845   6.5632   6.7430   6.7892   6.8452
  7.0136   7.0365   7.0791   7.0839   7.1147   7.1516   7.2435   7.2606
  7.2714   7.2911   7.3021   7.3091   7.3450   7.3939   7.4087   7.4149
  7.4800   7.4863   7.5705   7.5919   7.6602   7.6899   7.7617   7.8154
  7.8491   7.8668   7.9001   7.9991   8.1853  24.5598  24.7840  24.8516
 50.4848  50.5645  50.6152  50.6315  50.6747
 
 Beta MOs
 -- Occupied --
-19.4040 -19.3984 -19.3609 -19.3480 -19.3477 -10.4682 -10.4489 -10.3441
 -1.2763  -1.2113  -1.1819  -1.1367  -1.0382  -0.8756  -0.7914  -0.7303
 -0.6872  -0.6496  -0.6394  -0.6007  -0.5789  -0.5749  -0.5589  -0.5333
 -0.5048  -0.4870  -0.4617  -0.4474  -0.4312  -0.4147  -0.4073  -0.3921
 -- Virtual --
 -0.0077   0.0274   0.0384   0.0452   0.0510   0.0655   0.0700   0.0775
  0.0960   0.1081   0.1217   0.1299   0.1384   0.1427   0.1429   0.1492
  0.1619   0.1687   0.1811   0.1915   0.1963   0.2155   0.2245   0.2374
  0.2478   0.2588   0.2657   0.2731   0.2787   0.2840   0.2956   0.2966
  0.3141   0.3158   0.3263   0.3347   0.3408   0.3500   0.3527   0.3582
  0.3713   0.3720   0.3777   0.3931   0.4072   0.4106   0.4186   0.4326
  0.4379   0.4467   0.4531   0.4669   0.4884   0.4953   0.5688   0.5756
  0.5805   0.6064   0.6236   0.6349   0.6484   0.6625   0.6650   0.6769
  0.6848   0.6952   0.7120   0.7282   0.7489   0.7585   0.7670   0.7957
  0.8233   0.8378   0.8658   0.8829   0.9198   0.9309   0.9387   0.9581
  0.9821   1.0061   1.0282   1.0620   1.0702   1.0878   1.0889   1.1040
  1.1231   1.1366   1.1468   1.1707   1.1803   1.1974   1.2000   1.2074
  1.2192   1.2388   1.2534   1.2648   1.2869   1.2883   1.2941   1.3336
  1.3459   1.3476   1.3708   1.4036   1.4204   1.4343   1.4418   1.4756
  1.4985   1.5128   1.5230   1.5397   1.5479   1.5548   1.5660   1.6228
  1.6514   1.6573   1.6742   1.6940   1.6956   1.7231   1.7563   1.7766
  1.8274   1.8544   1.8820   1.9200   1.9426   1.9766   1.9914   1.9985
  2.0505   2.1043   2.1253   2.1989   2.2194   2.2544   2.2876   2.3061
  2.3667   2.3826   2.4187   2.4423   2.4578   2.4704   2.4815   2.5225
  2.5639   2.6538   2.6736   2.6833   2.7563   2.8135   2.8247   2.8514
  2.8817   2.9001   2.9670   3.0039   3.0549   3.0729   3.1110   3.1527
  3.1722   3.2032   3.2169   3.2370   3.2684   3.3381   3.3520   3.3796
  3.4118   3.4273   3.4495   3.4548   3.5131   3.5334   3.5837   3.6341
  3.6478   3.6732   3.7053   3.7300   3.7810   3.7841   3.8034   3.8206
  3.8324   3.8470   3.8689   3.8810   3.8892   3.9167   3.9308   3.9579
  3.9649   4.0035   4.0768   4.0974   4.1182   4.2015   4.2099   4.2369
  4.2478   4.2621   4.2904   4.3112   4.3318   4.3533   4.3659   4.3965
  4.4187   4.4568   4.4965   4.5571   4.5755   4.6170   4.7087   4.7573
  4.8527   4.9623   5.0396   5.0456   5.1143   5.2016   5.2120   5.2363
  5.2412   5.2761   5.2822   5.2836   5.3010   5.3282   5.3405   5.3648
  5.3723   5.3959   5.4078   5.4380   5.4605   5.4881   5.5216   5.5423
  5.5620   5.5958   5.6141   5.6229   5.6320   5.6642   5.6683   5.7029
  5.7147   5.7273   5.7748   5.8177   5.8683   5.9560   6.0227   6.0553
  6.0829   6.1363   6.1549   6.2280   6.4883   6.5644   6.7442   6.7908
  6.8458   7.0142   7.0371   7.0804   7.0850   7.1157   7.1533   7.2442
  7.2616   7.2724   7.2924   7.3031   7.3098   7.3463   7.3954   7.4101
  7.4159   7.4817   7.4875   7.5725   7.5924   7.6610   7.6908   7.7631
  7.8170   7.8503   7.8677   7.9009   8.0006   8.1860  24.5683  24.7890
 24.8530  50.4849  50.5649  50.6155  50.6319  50.6751
 --------------------------------------------------------------
 
          Ground-State Mulliken Net Atomic Charges

     Atom                 Charge (a.u.)    Spin (a.u.)
  --------------------------------------------------------
      1 C                    -0.131990       0.026886
      2 O                    -0.425707       0.005053
      3 C                     0.240716      -0.033997
      4 O                    -0.408886       0.008983
      5 C                    -0.467170       0.986313
      6 H                     0.277382       0.003526
      7 H                     0.342651      -0.000699
      8 H                     0.232357      -0.012341
      9 H                     0.228011      -0.012312
     10 O                    -0.445062       0.008501
     11 H                     0.350354      -0.000791
     12 O                    -0.196669       0.018292
     13 O                    -0.274580       0.001295
     14 H                     0.344975       0.000345
     15 H                     0.333616       0.000946
  --------------------------------------------------------
  Sum of atomic charges =     0.000000
  Sum of spin   charges =     1.000000

 -----------------------------------------------------------------
                    Cartesian Multipole Moments
 -----------------------------------------------------------------
    Charge (ESU x 10^10)
                 0.0000
    Dipole Moment (Debye)
         X       0.0716      Y       4.1698      Z       1.5302
       Tot       4.4423
    Quadrupole Moments (Debye-Ang)
        XX     -43.4332     XY      19.6699     YY     -50.0895
        XZ      10.7923     YZ      -5.9050     ZZ     -46.4638
    Octopole Moments (Debye-Ang^2)
       XXX    -429.8526    XXY     123.0090    XYY    -160.8023
       YYY     104.2143    XXZ      58.4679    XYZ     -30.0826
       YYZ      28.9515    XZZ    -152.9391    YZZ      42.7533
       ZZZ      72.2760
    Hexadecapole Moments (Debye-Ang^3)
      XXXX   -3197.3480   XXXY     711.2793   XXYY    -665.5010
      XYYY     294.6064   YYYY    -440.5087   XXXZ     324.7291
      XXYZ    -158.2923   XYYZ      88.5516   YYYZ     -95.6688
      XXZZ    -616.0002   XYZZ     124.0125   YYZZ    -155.4533
      XZZZ     274.4290   YZZZ     -82.3443   ZZZZ    -319.3074
 -----------------------------------------------------------------
 Calculating analytic gradient of the SCF energy
 Gradient of CDS energy
            1           2           3           4           5           6
    1  -0.0016979   0.0020510  -0.0000662   0.0000715  -0.0000557   0.0002295
    2  -0.0023821  -0.0006333  -0.0022492   0.0020903   0.0013314   0.0000036
    3  -0.0000158  -0.0006963   0.0024405  -0.0027748   0.0003039  -0.0000994
            7           8           9          10          11          12
    1  -0.0005163  -0.0001548   0.0001116  -0.0002016  -0.0000256  -0.0001146
    2   0.0000382  -0.0002650  -0.0001882   0.0030335  -0.0004813  -0.0001231
    3  -0.0000405   0.0000875  -0.0001381   0.0005672   0.0001173  -0.0001433
           13          14          15
    1  -0.0001742   0.0001334   0.0004098
    2  -0.0001826  -0.0002391   0.0002471
    3   0.0001458   0.0004434  -0.0001972
 Gradient of SCF Energy
            1           2           3           4           5           6
    1   0.0009214   0.0050279   0.0026696  -0.0081921  -0.0021395  -0.0031801
    2  -0.0002077   0.0028336   0.0077158  -0.0070368  -0.0133256   0.0030220
    3   0.0005240   0.0112845  -0.0004743  -0.0083472   0.0010755  -0.0010060
            7           8           9          10          11          12
    1  -0.0077850  -0.0030130   0.0051220   0.0039519  -0.0019462   0.0006443
    2  -0.0017055   0.0024664   0.0078942  -0.0037660  -0.0015475  -0.0056743
    3  -0.0091803   0.0063655  -0.0064087  -0.0055536   0.0026236   0.0029511
           13          14          15
    1  -0.0073218   0.0072947   0.0079460
    2  -0.0121797   0.0064640   0.0150472
    3  -0.0091643   0.0106553   0.0046549
 Max gradient component =       1.505E-02
 RMS gradient           =       6.450E-03
 Computing fast CPCM-SWIG gradient
 Updating gradient with PCM contributions...
 -- total gradient after adding PCM contribution --
---------------------------------------------------
  Atom         X              Y              Z     
---------------------------------------------------
   1       0.000444       0.000902      -0.000073
   2       0.000262       0.000294      -0.000258
   3       0.000739       0.000952      -0.001248
   4      -0.000814      -0.000290       0.001035
   5       0.000323      -0.000401       0.000448
   6      -0.000365       0.000334      -0.000127
   7      -0.000714      -0.000493      -0.000264
   8      -0.000092       0.000094      -0.000180
   9      -0.000381       0.000117       0.000261
  10      -0.000486      -0.000747      -0.000909
  11       0.000106      -0.000764       0.000918
  12      -0.000343      -0.001097       0.002119
  13       0.000184       0.000987      -0.001711
  14       0.000727      -0.000110       0.000415
  15       0.000409       0.000221      -0.000428
---------------------------------------------------
 Number of fixed atoms: 0
 Gradient time:  CPU 198.84 s  wall 15.98 s
 Geometry Optimization Parameters
   NAtoms,    NIC,     NZ,  NCons,   NDum,   NFix, NCnnct, MaxDiis
       15      92       0       0       0       0       0       0

 Cartesian Hessian Update
 Hessian updated using BFGS update


** GEOMETRY OPTIMIZATION IN DELOCALIZED INTERNAL COORDINATES **
   Searching for a Minimum

   Optimization Cycle:   2

                       Coordinates (Angstroms)
     ATOM                X               Y               Z
      1  C         2.3892326107   -0.9997534101   -0.9531393863
      2  O         1.1384916258   -0.7003981275   -0.3805301415
      3  C         3.4592024587   -0.4900155519    0.0359268521
      4  O         3.4074592737   -1.3395616821    1.1460127242
      5  C         3.2981120655    0.9356735081    0.3917461594
      6  H         2.5075299462   -0.4993455178   -1.9116020793
      7  H         0.4575492250   -0.9098040522   -1.0313803049
      8  H         2.6694104998    1.1934181738    1.2289793431
      9  H         3.6802074224    1.7093848468   -0.2543445748
     10  O         2.5304308424   -2.3757924745   -1.2017184554
     11  H         2.5623159164   -2.8353290057   -0.3504032115
     12  O         4.7664072035   -0.7569639149   -0.5294029924
     13  O         4.9234328755    0.0053881310   -1.7282612980
     14  H         3.9203800554   -0.9465633476    1.8641460859
     15  H         5.4827702790    0.7405143245   -1.4364281204
   Point Group: c1    Number of degrees of freedom:    39


   Energy is   -494.532893727

 Hessian updated using BFGS update

 35 Hessian modes will be used to form the next step
  Hessian Eigenvalues:
     0.003561    0.004611    0.009348    0.011436    0.012070    0.014181
     0.014895    0.015293    0.054781    0.058326    0.062710    0.071430
     0.092312    0.102615    0.156860    0.167866    0.180810    0.190067
     0.192979    0.208196    0.254992    0.285692    0.337486    0.343437
     0.354296    0.356853    0.381014    0.391101    0.441311    0.445995
     0.452048    0.507981    0.524787    0.527858    0.529499

 Minimum search - taking simple RFO step
 Searching for Lamda that Minimizes Along All modes
 Value Taken    Lamda =  -0.00017362
 Step Taken.  Stepsize is  0.130588

                             Maximum     Tolerance    Cnvgd?
         Gradient           0.001490      0.000300      NO
         Displacement       0.079658      0.001200      NO
         Energy change     -0.000547      0.000001      NO


 New Cartesian Coordinates Obtained by Inverse Iteration

 Displacement from previous Coordinates is:  0.210212
 ----------------------------------------------------------------
             Standard Nuclear Orientation (Angstroms)
    I     Atom           X                Y                Z
 ----------------------------------------------------------------
    1      C       2.3917548563    -1.0047453261    -0.9527799028
    2      O       1.1437636956    -0.7013017617    -0.3771667775
    3      C       3.4630698592    -0.4978514411     0.0332458713
    4      O       3.4097025760    -1.3416652196     1.1452312063
    5      C       3.3103308637     0.9309193472     0.3774191065
    6      H       2.5122384151    -0.5049732314    -1.9099855785
    7      H       0.4620967673    -0.8924193354    -1.0301658397
    8      H       2.6914187008     1.1995385415     1.2176501886
    9      H       3.7044808710     1.6950262744    -0.2721787225
   10      O       2.5306073953    -2.3790744340    -1.2024824237
   11      H       2.5612638441    -2.8408050056    -0.3548105237
   12      O       4.7681398610    -0.7708998628    -0.5328225575
   13      O       4.9309526017     0.0000383520    -1.7205471998
   14      H       3.9082476871    -0.9399268183     1.8663546700
   15      H       5.4048643059     0.7789918208    -1.3973609168
 ----------------------------------------------------------------
 Nuclear Repulsion Energy =         434.38902238 hartrees
 There are       33 alpha and       32 beta electrons
 Discretize the solute cavity surface with Lebedev spheres
	Using 110 Lebedev grid points for each H atom
	Using 194 Lebedev grid points for other atoms
	Atomic van der Waals radii will be scaled by 1.20
 Remove points where switching function is < 1.0e-08
 Keep 1190 surface tesserae and discard 1132 interior tesserae
 Molecular Surface Area = 135.922 Angst**2
 Applying Cartesian multipole field
    Component          Value
    ---------          -----
     (2,0,0)        1.00000E-12
     (0,2,0)        2.00000E-11
     (0,0,2)       -3.00000E-11
 Nucleus-field energy     =     0.0000000024 hartrees
 Requested basis set is 6-311++G(2df,2p)
 There are 106 shells and 342 basis functions
 A cutoff of  1.0D-12 yielded   5275 shell pairs
 There are     55361 function pairs (     69043 Cartesian)
 Smallest overlap matrix eigenvalue = 1.45E-05
 Guess MOs from SCF MO coefficient file

 -----------------------------------------------------------------------
  General SCF calculation program by
  Eric Jon Sundstrom, Paul Horn, Yuezhi Mao, Dmitri Zuev, Alec White,
  David Stuck, Shaama M.S., Shane Yost, Joonho Lee, David Small,
  Daniel Levine, Susi Lehtola, Hugh Burton, Evgeny Epifanovsky,
  Bang C. Huynh
 -----------------------------------------------------------------------
 Exchange:     0.1500 Hartree-Fock + 1.0000 wB97M-V + LR-HF
 Correlation:  1.0000 wB97M-V
 Using SG-2 standard quadrature grid
 Nonlocal Correlation:  VV10 with C = 0.0100 and b = 6.00 and scale = 1.00000
 Grid used for NLC:  SG-1 standard quadrature
 
 Citation of the SMD model:
 Marenich, A.V.; Cramer, C.J.; Truhlar, D.G.
 J. Phys. Chem. B 2009, 113, 6378-6396.
 iSolventCode=           1
 Solvent: water                                                           
 
 vradii
            1           2           3           4           5           6
    1   1.8500000   1.5200000   1.8500000   1.5200000   1.8500000   1.2000000
            7           8           9          10          11          12
    1   1.2000000   1.2000000   1.2000000   1.5200000   1.2000000   1.5200000
           13          14          15
    1   1.5200000   1.2000000   1.2000000
 -------------------------------------------------------
 OpenMP BLAS3 based DFT computing Module                
 Release: version 1.0, May 2013, Q-Chem Inc. Pittsburgh 
 -------------------------------------------------------
 A unrestricted SCF calculation will be
 performed using Roothaan-Hall, DIIS, GDM
 SCF converges when RMS gradient is below 1.0e-07
 ---------------------------------------
  Cycle       Energy         DIIS error
 ---------------------------------------
    1    -494.4934671358      3.17e-04  Roothaan Step
 ---------------------------------------
  Cycle       Energy         DIIS error
 ---------------------------------------
    1    -494.5314496559      2.91e-04  
    2    -494.5373959576      1.87e-04  Done DIIS. Switching to GDM
 ---------------------------------------
  Cycle       Energy        RMS Gradient
 ---------------------------------------
    1    -494.5373959576      4.83e-03   Normal BFGS step
    2    -494.5378531268      4.10e-03   Normal BFGS step
    3    -494.5388817561      6.13e-04   Normal BFGS step
    4    -494.5388954774      4.95e-04   Normal BFGS step
    5    -494.5389060942      1.29e-04   Normal BFGS step
    6    -494.5389063365      8.42e-05   Normal BFGS step
    7    -494.5389066646      2.85e-05   Normal BFGS step
    8    -494.5389066726      1.87e-05   Normal BFGS step
    9    -494.5389066756      5.30e-06   Normal BFGS step
   10    -494.5389066759      1.18e-06   Normal BFGS step
   11    -494.5389066760      6.86e-07   Normal BFGS step
   12    -494.5389066760      3.39e-07   Normal BFGS step
   13    -494.5389066760      2.29e-07   Normal BFGS step
   14    -494.5389066760      9.06e-08  Convergence criterion met
 ---------------------------------------
 SCF time:   CPU 1149.29s  wall 79.00s 
<S^2> =          0.753415720
(3)  G-ENP(liq) elect-nuc-pol free energy of system     -494.538906676 a.u.
(4)  G-CDS(liq) cavity-dispersion-solvent structure 
     free energy                                                3.7935 kcal/mol
(6)  G-S(liq) free energy of system                     -494.532861288 a.u.
 SCF   energy in the final basis set =     -494.5328612876
 Total energy in the final basis set =     -494.5328612876
 
 --------------------------------------------------------------
 
                    Orbital Energies (a.u.)
 --------------------------------------------------------------
 
 Alpha MOs
 -- Occupied --
-19.4047 -19.3986 -19.3614 -19.3482 -19.3479 -10.4668 -10.4493 -10.3575
 -1.2797  -1.2130  -1.1839  -1.1382  -1.0390  -0.8895  -0.8091  -0.7360
 -0.6913  -0.6509  -0.6441  -0.6103  -0.5804  -0.5784  -0.5620  -0.5351
 -0.5152  -0.4914  -0.4631  -0.4507  -0.4332  -0.4154  -0.4142  -0.3981
 -0.3213
 -- Virtual --
  0.0274   0.0389   0.0429   0.0494   0.0658   0.0710   0.0779   0.0965
  0.1048   0.1226   0.1313   0.1394   0.1421   0.1428   0.1499   0.1622
  0.1708   0.1810   0.1918   0.1981   0.2144   0.2232   0.2363   0.2465
  0.2573   0.2641   0.2735   0.2791   0.2835   0.2943   0.2966   0.3112
  0.3164   0.3246   0.3346   0.3383   0.3464   0.3508   0.3573   0.3696
  0.3714   0.3781   0.3914   0.4055   0.4102   0.4172   0.4300   0.4371
  0.4461   0.4501   0.4654   0.4876   0.4945   0.5597   0.5727   0.5793
  0.6068   0.6246   0.6322   0.6456   0.6524   0.6562   0.6626   0.6749
  0.6845   0.7088   0.7204   0.7458   0.7503   0.7647   0.7915   0.8205
  0.8328   0.8581   0.8786   0.9152   0.9300   0.9407   0.9656   0.9779
  1.0002   1.0221   1.0600   1.0649   1.0850   1.0870   1.1131   1.1225
  1.1331   1.1465   1.1689   1.1791   1.1937   1.1984   1.2066   1.2206
  1.2331   1.2506   1.2636   1.2839   1.2859   1.2916   1.3318   1.3408
  1.3419   1.3675   1.4009   1.4063   1.4271   1.4408   1.4707   1.4944
  1.5144   1.5227   1.5315   1.5407   1.5532   1.5647   1.6208   1.6490
  1.6513   1.6617   1.6907   1.6946   1.7180   1.7500   1.7745   1.8291
  1.8550   1.8847   1.9318   1.9415   1.9764   1.9901   1.9980   2.0482
  2.1087   2.1266   2.1960   2.2180   2.2566   2.2855   2.2985   2.3650
  2.3817   2.4126   2.4439   2.4589   2.4640   2.4788   2.5176   2.5604
  2.6400   2.6552   2.6793   2.7493   2.8022   2.8152   2.8379   2.8542
  2.8758   2.9347   2.9848   3.0234   3.0305   3.0670   3.1337   3.1479
  3.1706   3.1774   3.2172   3.2552   3.3228   3.3365   3.3585   3.3683
  3.4057   3.4265   3.4325   3.4842   3.5244   3.5626   3.6167   3.6426
  3.6652   3.6968   3.7078   3.7636   3.7688   3.7960   3.8179   3.8300
  3.8351   3.8642   3.8828   3.8886   3.9135   3.9291   3.9441   3.9639
  3.9961   4.0728   4.0861   4.1172   4.1987   4.2022   4.2157   4.2427
  4.2598   4.2832   4.2899   4.3201   4.3246   4.3523   4.3888   4.4136
  4.4491   4.4869   4.5309   4.5663   4.6118   4.7101   4.7536   4.8559
  4.9460   5.0125   5.0464   5.0902   5.2005   5.2142   5.2336   5.2385
  5.2750   5.2816   5.2843   5.3021   5.3257   5.3363   5.3595   5.3730
  5.3931   5.4036   5.4465   5.4571   5.4911   5.5140   5.5247   5.5533
  5.5893   5.6042   5.6109   5.6156   5.6461   5.6699   5.6794   5.7116
  5.7272   5.7828   5.8152   5.8660   5.9549   6.0266   6.0625   6.0922
  6.1410   6.1597   6.2370   6.4914   6.5669   6.7474   6.7945   6.8585
  7.0148   7.0440   7.0802   7.0859   7.1193   7.1507   7.2465   7.2665
  7.2763   7.2947   7.3069   7.3179   7.3494   7.3974   7.4126   7.4197
  7.4769   7.4868   7.5718   7.5974   7.6619   7.6913   7.7636   7.8187
  7.8502   7.8695   7.9011   8.0053   8.1840  24.5633  24.7891  24.8601
 50.4857  50.5673  50.6167  50.6341  50.6784
 
 Beta MOs
 -- Occupied --
-19.4040 -19.3986 -19.3609 -19.3479 -19.3475 -10.4677 -10.4484 -10.3444
 -1.2787  -1.2121  -1.1828  -1.1375  -1.0379  -0.8766  -0.7922  -0.7313
 -0.6892  -0.6500  -0.6399  -0.6017  -0.5786  -0.5765  -0.5587  -0.5334
 -0.5062  -0.4871  -0.4605  -0.4492  -0.4312  -0.4133  -0.4079  -0.3933
 -- Virtual --
 -0.0080   0.0274   0.0388   0.0452   0.0512   0.0655   0.0708   0.0778
  0.0960   0.1081   0.1230   0.1298   0.1386   0.1426   0.1431   0.1497
  0.1621   0.1697   0.1809   0.1913   0.1964   0.2156   0.2243   0.2365
  0.2476   0.2586   0.2673   0.2736   0.2793   0.2845   0.2955   0.2968
  0.3153   0.3167   0.3264   0.3363   0.3398   0.3500   0.3533   0.3583
  0.3712   0.3719   0.3788   0.3935   0.4058   0.4109   0.4185   0.4314
  0.4378   0.4468   0.4532   0.4670   0.4885   0.4982   0.5671   0.5745
  0.5811   0.6076   0.6317   0.6349   0.6499   0.6632   0.6662   0.6730
  0.6847   0.6936   0.7130   0.7254   0.7488   0.7556   0.7671   0.7956
  0.8241   0.8384   0.8624   0.8832   0.9165   0.9315   0.9445   0.9670
  0.9817   1.0016   1.0270   1.0621   1.0694   1.0863   1.0894   1.1147
  1.1236   1.1351   1.1479   1.1703   1.1803   1.1958   1.2004   1.2097
  1.2215   1.2385   1.2537   1.2652   1.2868   1.2881   1.2947   1.3335
  1.3436   1.3502   1.3715   1.4035   1.4180   1.4323   1.4438   1.4759
  1.5004   1.5179   1.5238   1.5397   1.5482   1.5573   1.5665   1.6233
  1.6541   1.6577   1.6772   1.6955   1.6987   1.7203   1.7549   1.7762
  1.8299   1.8574   1.8871   1.9337   1.9426   1.9783   1.9924   1.9993
  2.0500   2.1108   2.1281   2.1977   2.2202   2.2582   2.2901   2.3038
  2.3662   2.3836   2.4183   2.4474   2.4599   2.4664   2.4817   2.5224
  2.5620   2.6515   2.6715   2.6866   2.7629   2.8130   2.8271   2.8521
  2.8818   2.9028   2.9664   3.0055   3.0565   3.0772   3.1083   3.1636
  3.1747   3.2011   3.2118   3.2405   3.2705   3.3395   3.3515   3.3806
  3.4133   3.4280   3.4489   3.4528   3.5140   3.5350   3.5846   3.6342
  3.6512   3.6801   3.7046   3.7309   3.7771   3.7854   3.8038   3.8231
  3.8338   3.8468   3.8697   3.8887   3.8951   3.9220   3.9351   3.9553
  3.9682   4.0122   4.0800   4.1058   4.1225   4.2045   4.2119   4.2363
  4.2484   4.2668   4.2942   4.3183   4.3348   4.3550   4.3650   4.3988
  4.4220   4.4589   4.4999   4.5582   4.5777   4.6194   4.7128   4.7570
  4.8582   4.9558   5.0351   5.0491   5.1150   5.2024   5.2148   5.2356
  5.2421   5.2763   5.2832   5.2865   5.3036   5.3289   5.3402   5.3660
  5.3743   5.3981   5.4065   5.4509   5.4606   5.4933   5.5204   5.5417
  5.5580   5.5934   5.6167   5.6268   5.6354   5.6690   5.6735   5.7082
  5.7144   5.7324   5.7849   5.8175   5.8684   5.9596   6.0287   6.0651
  6.0930   6.1432   6.1607   6.2382   6.4952   6.5682   6.7486   6.7961
  6.8591   7.0154   7.0446   7.0815   7.0871   7.1203   7.1524   7.2473
  7.2676   7.2773   7.2960   7.3079   7.3186   7.3507   7.3990   7.4139
  7.4208   7.4783   7.4883   7.5737   7.5980   7.6627   7.6922   7.7651
  7.8203   7.8514   7.8705   7.9020   8.0068   8.1847  24.5720  24.7941
 24.8615  50.4858  50.5677  50.6170  50.6344  50.6787
 --------------------------------------------------------------
 
          Ground-State Mulliken Net Atomic Charges

     Atom                 Charge (a.u.)    Spin (a.u.)
  --------------------------------------------------------
      1 C                    -0.126655       0.026376
      2 O                    -0.423779       0.005106
      3 C                     0.235224      -0.032785
      4 O                    -0.410151       0.008980
      5 C                    -0.467325       0.984781
      6 H                     0.277461       0.003624
      7 H                     0.342114      -0.000724
      8 H                     0.235851      -0.011981
      9 H                     0.227966      -0.012295
     10 O                    -0.444089       0.008529
     11 H                     0.349571      -0.000787
     12 O                    -0.196764       0.018400
     13 O                    -0.274252       0.001263
     14 H                     0.344403       0.000336
     15 H                     0.330425       0.001177
  --------------------------------------------------------
  Sum of atomic charges =     0.000000
  Sum of spin   charges =     1.000000

 -----------------------------------------------------------------
                    Cartesian Multipole Moments
 -----------------------------------------------------------------
    Charge (ESU x 10^10)
                 0.0000
    Dipole Moment (Debye)
         X      -0.1432      Y       4.2968      Z       1.6022
       Tot       4.5880
    Quadrupole Moments (Debye-Ang)
        XX     -45.7305     XY      20.0867     YY     -49.9657
        XZ      11.4159     YZ      -5.9196     ZZ     -46.5601
    Octopole Moments (Debye-Ang^2)
       XXX    -449.1078    XXY     124.7449    XYY    -160.2458
       YYY     104.9956    XXZ      63.3399    XYZ     -29.7949
       YYZ      28.8075    XZZ    -154.2779    YZZ      43.0135
       ZZZ      72.8626
    Hexadecapole Moments (Debye-Ang^3)
      XXXX   -3340.0306   XXXY     717.4205   XXYY    -663.7144
      XYYY     297.7743   YYYY    -441.4458   XXXZ     359.9235
      XXYZ    -155.8233   XYYZ      87.5145   YYYZ     -95.8394
      XXZZ    -626.2695   XYZZ     124.4970   YYZZ    -155.2931
      XZZZ     277.4223   YZZZ     -82.0637   ZZZZ    -317.6843
 -----------------------------------------------------------------
 Calculating analytic gradient of the SCF energy
 Gradient of CDS energy
            1           2           3           4           5           6
    1  -0.0017359   0.0021132  -0.0000807   0.0000862  -0.0000623   0.0002404
    2  -0.0027409  -0.0006636  -0.0023726   0.0022069   0.0013326  -0.0000037
    3  -0.0000641  -0.0007250   0.0026285  -0.0029569   0.0002908  -0.0000961
            7           8           9          10          11          12
    1  -0.0005162  -0.0001505   0.0001140  -0.0002376  -0.0000267  -0.0001036
    2   0.0000453  -0.0002600  -0.0002047   0.0034200  -0.0004804  -0.0001151
    3  -0.0000405   0.0000900  -0.0001271   0.0006398   0.0001161  -0.0001403
           13          14          15
    1  -0.0001659   0.0001290   0.0003966
    2  -0.0001967  -0.0002322   0.0002650
    3   0.0001328   0.0004448  -0.0001930
 Gradient of SCF Energy
            1           2           3           4           5           6
    1   0.0001868   0.0043903   0.0033757  -0.0069003  -0.0030931  -0.0028518
    2  -0.0011428   0.0022355   0.0078700  -0.0063000  -0.0140196   0.0027466
    3   0.0004722   0.0104471  -0.0001747  -0.0085259   0.0007689  -0.0005116
            7           8           9          10          11          12
    1  -0.0066092  -0.0029164   0.0062909   0.0041549  -0.0019650   0.0008519
    2  -0.0010678   0.0023398   0.0076864  -0.0030706  -0.0006010  -0.0044992
    3  -0.0081646   0.0066377  -0.0072878  -0.0035377   0.0008037   0.0014690
           13          14          15
    1  -0.0057748   0.0062070   0.0046532
    2  -0.0129672   0.0062148   0.0145751
    3  -0.0079930   0.0095629   0.0060338
 Max gradient component =       1.458E-02
 RMS gradient           =       6.117E-03
 Computing fast CPCM-SWIG gradient
 Updating gradient with PCM contributions...
 -- total gradient after adding PCM contribution --
---------------------------------------------------
  Atom         X              Y              Z     
---------------------------------------------------
   1       0.000366       0.000170      -0.000387
   2      -0.000555      -0.000020      -0.001219
   3       0.000634       0.000871      -0.000774
   4       0.000306       0.000723       0.001013
   5       0.000178      -0.000205      -0.000294
   6      -0.000059      -0.000137       0.000547
   7       0.000574      -0.000066       0.000898
   8       0.000215      -0.000211      -0.000374
   9       0.000299      -0.000592      -0.000015
  10      -0.000242      -0.000096       0.001153
  11       0.000081       0.000175      -0.000957
  12      -0.000301      -0.000005       0.000819
  13       0.000190       0.000863      -0.000173
  14      -0.000199      -0.000656      -0.000819
  15      -0.001489      -0.000813       0.000581
---------------------------------------------------
 Number of fixed atoms: 0
 Gradient time:  CPU 197.35 s  wall 15.99 s
 Geometry Optimization Parameters
   NAtoms,    NIC,     NZ,  NCons,   NDum,   NFix, NCnnct, MaxDiis
       15      92       0       0       0       0       0       0

 Cartesian Hessian Update
 Hessian updated using BFGS update


** GEOMETRY OPTIMIZATION IN DELOCALIZED INTERNAL COORDINATES **
   Searching for a Minimum

   Optimization Cycle:   3

                       Coordinates (Angstroms)
     ATOM                X               Y               Z
      1  C         2.3917548563   -1.0047453261   -0.9527799028
      2  O         1.1437636956   -0.7013017617   -0.3771667775
      3  C         3.4630698592   -0.4978514411    0.0332458713
      4  O         3.4097025760   -1.3416652196    1.1452312063
      5  C         3.3103308637    0.9309193472    0.3774191065
      6  H         2.5122384151   -0.5049732314   -1.9099855785
      7  H         0.4620967673   -0.8924193354   -1.0301658397
      8  H         2.6914187008    1.1995385415    1.2176501886
      9  H         3.7044808710    1.6950262744   -0.2721787225
     10  O         2.5306073953   -2.3790744340   -1.2024824237
     11  H         2.5612638441   -2.8408050056   -0.3548105237
     12  O         4.7681398610   -0.7708998628   -0.5328225575
     13  O         4.9309526017    0.0000383520   -1.7205471998
     14  H         3.9082476871   -0.9399268183    1.8663546700
     15  H         5.4048643059    0.7789918208   -1.3973609168
   Point Group: c1    Number of degrees of freedom:    39


   Energy is   -494.532861288

 Hessian updated using BFGS update

 36 Hessian modes will be used to form the next step
  Hessian Eigenvalues:
     0.003535    0.008280    0.010584    0.011164    0.012286    0.014124
     0.014908    0.014988    0.057681    0.057967    0.062705    0.071435
     0.091199    0.102928    0.158996    0.163419    0.168652    0.182893
     0.184472    0.193442    0.206530    0.267402    0.301442    0.341380
     0.347508    0.356172    0.357012    0.368679    0.412827    0.441863
     0.443590    0.451781    0.517998    0.524773    0.528364    0.529787

 Minimum search - taking simple RFO step
 Searching for Lamda that Minimizes Along All modes
 Value Taken    Lamda =  -0.00023282
 Step Taken.  Stepsize is  0.107844

                             Maximum     Tolerance    Cnvgd?
         Gradient           0.003412      0.000300      NO
         Displacement       0.056943      0.001200      NO
         Energy change      0.000032      0.000001      NO


 New Cartesian Coordinates Obtained by Inverse Iteration

 Displacement from previous Coordinates is:  0.181802
 ----------------------------------------------------------------
             Standard Nuclear Orientation (Angstroms)
    I     Atom           X                Y                Z
 ----------------------------------------------------------------
    1      C       2.3861204999    -1.0049324728    -0.9505212065
    2      O       1.1399217599    -0.7119126708    -0.3657064824
    3      C       3.4576169373    -0.4953075893     0.0322212709
    4      O       3.4112404230    -1.3425372114     1.1407660191
    5      C       3.2973413703     0.9327501241     0.3796945677
    6      H       2.5004788576    -0.5006497833    -1.9063500021
    7      H       0.4575132831    -0.8936633953    -1.0206992605
    8      H       2.6827963883     1.1961259335     1.2252632947
    9      H       3.6842981019     1.7008876194    -0.2701592667
   10      O       2.5355966709    -2.3760976241    -1.2067038512
   11      H       2.5718758896    -2.8384899460    -0.3597934690
   12      O       4.7626564253    -0.7624519343    -0.5392334500
   13      O       4.9267814392     0.0142375742    -1.7212945150
   14      H       3.8979145374    -0.9327826857     1.8656765492
   15      H       5.4807797165     0.7456759618    -1.4135595979
 ----------------------------------------------------------------
 Nuclear Repulsion Energy =         434.34594164 hartrees
 There are       33 alpha and       32 beta electrons
 Discretize the solute cavity surface with Lebedev spheres
	Using 110 Lebedev grid points for each H atom
	Using 194 Lebedev grid points for other atoms
	Atomic van der Waals radii will be scaled by 1.20
 Remove points where switching function is < 1.0e-08
 Keep 1195 surface tesserae and discard 1127 interior tesserae
 Molecular Surface Area = 136.362 Angst**2
 Applying Cartesian multipole field
    Component          Value
    ---------          -----
     (2,0,0)        1.00000E-12
     (0,2,0)        2.00000E-11
     (0,0,2)       -3.00000E-11
 Nucleus-field energy     =     0.0000000024 hartrees
 Requested basis set is 6-311++G(2df,2p)
 There are 106 shells and 342 basis functions
 A cutoff of  1.0D-12 yielded   5272 shell pairs
 There are     55351 function pairs (     69033 Cartesian)
 Smallest overlap matrix eigenvalue = 1.46E-05
 Guess MOs from SCF MO coefficient file

 -----------------------------------------------------------------------
  General SCF calculation program by
  Eric Jon Sundstrom, Paul Horn, Yuezhi Mao, Dmitri Zuev, Alec White,
  David Stuck, Shaama M.S., Shane Yost, Joonho Lee, David Small,
  Daniel Levine, Susi Lehtola, Hugh Burton, Evgeny Epifanovsky,
  Bang C. Huynh
 -----------------------------------------------------------------------
 Exchange:     0.1500 Hartree-Fock + 1.0000 wB97M-V + LR-HF
 Correlation:  1.0000 wB97M-V
 Using SG-2 standard quadrature grid
 Nonlocal Correlation:  VV10 with C = 0.0100 and b = 6.00 and scale = 1.00000
 Grid used for NLC:  SG-1 standard quadrature
 
 Citation of the SMD model:
 Marenich, A.V.; Cramer, C.J.; Truhlar, D.G.
 J. Phys. Chem. B 2009, 113, 6378-6396.
 iSolventCode=           1
 Solvent: water                                                           
 
 vradii
            1           2           3           4           5           6
    1   1.8500000   1.5200000   1.8500000   1.5200000   1.8500000   1.2000000
            7           8           9          10          11          12
    1   1.2000000   1.2000000   1.2000000   1.5200000   1.2000000   1.5200000
           13          14          15
    1   1.5200000   1.2000000   1.2000000
 -------------------------------------------------------
 OpenMP BLAS3 based DFT computing Module                
 Release: version 1.0, May 2013, Q-Chem Inc. Pittsburgh 
 -------------------------------------------------------
 A unrestricted SCF calculation will be
 performed using Roothaan-Hall, DIIS, GDM
 SCF converges when RMS gradient is below 1.0e-07
 ---------------------------------------
  Cycle       Energy         DIIS error
 ---------------------------------------
    1    -494.4944555045      3.01e-04  Roothaan Step
 ---------------------------------------
  Cycle       Energy         DIIS error
 ---------------------------------------
    1    -494.5318727752      2.85e-04  
    2    -494.5375833392      1.84e-04  Done DIIS. Switching to GDM
 ---------------------------------------
  Cycle       Energy        RMS Gradient
 ---------------------------------------
    1    -494.5375833392      5.07e-03   Normal BFGS step
    2    -494.5380049610      3.87e-03   Normal BFGS step
    3    -494.5390395974      6.20e-04   Normal BFGS step
    4    -494.5390532474      5.87e-04   Normal BFGS step
    5    -494.5390656813      1.29e-04   Normal BFGS step
    6    -494.5390659575      7.61e-05   Normal BFGS step
    7    -494.5390663000      2.61e-05   Normal BFGS step
    8    -494.5390663086      1.65e-05   Normal BFGS step
    9    -494.5390663115      3.63e-06   Normal BFGS step
   10    -494.5390663119      1.65e-06   Normal BFGS step
   11    -494.5390663119      1.06e-06   Normal BFGS step
   12    -494.5390663120      4.21e-07   Normal BFGS step
   13    -494.5390663119      2.48e-07   Normal BFGS step
   14    -494.5390663119      9.05e-08  Convergence criterion met
 ---------------------------------------
 SCF time:   CPU 1188.18s  wall 83.00s 
<S^2> =          0.753420026
(3)  G-ENP(liq) elect-nuc-pol free energy of system     -494.539066312 a.u.
(4)  G-CDS(liq) cavity-dispersion-solvent structure 
     free energy                                                3.8294 kcal/mol
(6)  G-S(liq) free energy of system                     -494.532963744 a.u.
 SCF   energy in the final basis set =     -494.5329637440
 Total energy in the final basis set =     -494.5329637440
 
 --------------------------------------------------------------
 
                    Orbital Energies (a.u.)
 --------------------------------------------------------------
 
 Alpha MOs
 -- Occupied --
-19.4040 -19.3980 -19.3614 -19.3483 -19.3479 -10.4664 -10.4490 -10.3571
 -1.2793  -1.2133  -1.1840  -1.1386  -1.0384  -0.8888  -0.8086  -0.7360
 -0.6903  -0.6509  -0.6439  -0.6097  -0.5817  -0.5771  -0.5630  -0.5353
 -0.5139  -0.4911  -0.4633  -0.4502  -0.4335  -0.4156  -0.4142  -0.3963
 -0.3209
 -- Virtual --
  0.0274   0.0388   0.0430   0.0492   0.0659   0.0703   0.0779   0.0966
  0.1050   0.1232   0.1314   0.1392   0.1421   0.1431   0.1502   0.1620
  0.1704   0.1812   0.1924   0.1981   0.2148   0.2230   0.2371   0.2466
  0.2574   0.2632   0.2736   0.2788   0.2836   0.2946   0.2978   0.3105
  0.3160   0.3253   0.3333   0.3396   0.3469   0.3508   0.3581   0.3700
  0.3715   0.3781   0.3918   0.4069   0.4108   0.4179   0.4315   0.4378
  0.4459   0.4506   0.4675   0.4889   0.4922   0.5594   0.5734   0.5791
  0.6062   0.6195   0.6313   0.6462   0.6513   0.6572   0.6636   0.6760
  0.6845   0.7091   0.7243   0.7472   0.7531   0.7651   0.7942   0.8206
  0.8308   0.8624   0.8778   0.9177   0.9314   0.9359   0.9573   0.9796
  1.0031   1.0227   1.0598   1.0673   1.0858   1.0871   1.1063   1.1224
  1.1339   1.1457   1.1686   1.1800   1.1945   1.1987   1.2068   1.2171
  1.2345   1.2513   1.2630   1.2834   1.2865   1.2908   1.3323   1.3417
  1.3437   1.3676   1.4017   1.4080   1.4301   1.4404   1.4716   1.4942
  1.5113   1.5223   1.5316   1.5402   1.5537   1.5654   1.6210   1.6480
  1.6519   1.6623   1.6883   1.6970   1.7214   1.7521   1.7740   1.8276
  1.8530   1.8777   1.9186   1.9436   1.9778   1.9919   1.9998   2.0496
  2.1079   2.1267   2.1979   2.2197   2.2550   2.2865   2.3033   2.3658
  2.3823   2.4162   2.4417   2.4588   2.4689   2.4803   2.5180   2.5587
  2.6423   2.6577   2.6812   2.7449   2.8023   2.8165   2.8395   2.8549
  2.8759   2.9311   2.9844   3.0247   3.0325   3.0677   3.1254   3.1511
  3.1715   3.1781   3.2168   3.2547   3.3229   3.3393   3.3587   3.3686
  3.4069   3.4261   3.4320   3.4863   3.5245   3.5641   3.6175   3.6427
  3.6608   3.6975   3.7084   3.7620   3.7715   3.7981   3.8181   3.8296
  3.8328   3.8640   3.8823   3.8853   3.9142   3.9257   3.9473   3.9627
  3.9907   4.0730   4.0842   4.1191   4.1989   4.2030   4.2166   4.2413
  4.2563   4.2816   4.2885   4.3185   4.3241   4.3534   4.3872   4.4137
  4.4496   4.4860   4.5300   4.5649   4.6124   4.7106   4.7540   4.8507
  4.9505   5.0167   5.0440   5.0898   5.2016   5.2130   5.2362   5.2403
  5.2746   5.2820   5.2822   5.3003   5.3253   5.3381   5.3601   5.3735
  5.3928   5.4059   5.4398   5.4582   5.4905   5.5152   5.5283   5.5590
  5.5913   5.6033   5.6142   5.6169   5.6378   5.6710   5.6775   5.7145
  5.7275   5.7799   5.8149   5.8663   5.9553   6.0266   6.0646   6.0948
  6.1455   6.1622   6.2419   6.4890   6.5680   6.7492   6.7944   6.8638
  7.0173   7.0394   7.0802   7.0864   7.1174   7.1514   7.2459   7.2674
  7.2769   7.2954   7.3052   7.3183   7.3515   7.3997   7.4122   7.4192
  7.4826   7.4901   7.5724   7.5954   7.6622   7.6932   7.7649   7.8200
  7.8507   7.8712   7.9020   8.0063   8.1813  24.5635  24.7882  24.8622
 50.4847  50.5668  50.6169  50.6343  50.6795
 
 Beta MOs
 -- Occupied --
-19.4032 -19.3980 -19.3609 -19.3480 -19.3475 -10.4674 -10.4481 -10.3440
 -1.2783  -1.2124  -1.1829  -1.1378  -1.0373  -0.8759  -0.7916  -0.7314
 -0.6882  -0.6500  -0.6396  -0.6013  -0.5798  -0.5750  -0.5599  -0.5335
 -0.5049  -0.4867  -0.4610  -0.4485  -0.4317  -0.4138  -0.4071  -0.3919
 -- Virtual --
 -0.0075   0.0274   0.0387   0.0453   0.0510   0.0656   0.0701   0.0778
  0.0962   0.1084   0.1235   0.1299   0.1385   0.1428   0.1431   0.1499
  0.1619   0.1694   0.1812   0.1918   0.1964   0.2160   0.2241   0.2373
  0.2478   0.2593   0.2660   0.2736   0.2792   0.2846   0.2962   0.2975
  0.3143   0.3165   0.3272   0.3354   0.3410   0.3497   0.3536   0.3593
  0.3714   0.3721   0.3788   0.3939   0.4073   0.4113   0.4192   0.4330
  0.4383   0.4466   0.4537   0.4693   0.4892   0.4962   0.5670   0.5750
  0.5809   0.6070   0.6250   0.6362   0.6495   0.6638   0.6670   0.6738
  0.6847   0.6945   0.7135   0.7279   0.7500   0.7592   0.7675   0.7983
  0.8238   0.8370   0.8667   0.8821   0.9186   0.9328   0.9396   0.9605
  0.9826   1.0045   1.0277   1.0625   1.0705   1.0875   1.0894   1.1081
  1.1231   1.1359   1.1469   1.1701   1.1811   1.1964   1.2008   1.2097
  1.2182   1.2399   1.2545   1.2648   1.2870   1.2881   1.2938   1.3345
  1.3456   1.3504   1.3719   1.4042   1.4206   1.4345   1.4435   1.4763
  1.5004   1.5142   1.5239   1.5394   1.5493   1.5566   1.5675   1.6236
  1.6531   1.6589   1.6768   1.6959   1.6982   1.7240   1.7569   1.7758
  1.8285   1.8558   1.8799   1.9191   1.9461   1.9799   1.9940   2.0011
  2.0514   2.1101   2.1280   2.1997   2.2219   2.2567   2.2911   2.3086
  2.3672   2.3842   2.4221   2.4451   2.4599   2.4718   2.4829   2.5229
  2.5601   2.6538   2.6742   2.6882   2.7574   2.8136   2.8310   2.8521
  2.8803   2.9037   2.9644   3.0048   3.0585   3.0772   3.1115   3.1532
  3.1755   3.2025   3.2147   3.2409   3.2699   3.3402   3.3527   3.3808
  3.4147   3.4291   3.4495   3.4523   3.5163   3.5346   3.5862   3.6350
  3.6517   3.6750   3.7054   3.7312   3.7789   3.7853   3.8059   3.8233
  3.8333   3.8451   3.8694   3.8871   3.8902   3.9207   3.9346   3.9595
  3.9673   4.0065   4.0807   4.1024   4.1243   4.2044   4.2129   4.2383
  4.2486   4.2625   4.2931   4.3165   4.3336   4.3530   4.3662   4.3969
  4.4220   4.4593   4.4989   4.5567   4.5767   4.6202   4.7133   4.7576
  4.8531   4.9613   5.0391   5.0458   5.1142   5.2034   5.2137   5.2382
  5.2440   5.2757   5.2838   5.2848   5.3017   5.3286   5.3417   5.3666
  5.3748   5.3979   5.4095   5.4427   5.4625   5.4923   5.5245   5.5425
[...]
      3 C                     0.258431      -0.033343
      4 O                    -0.414895       0.008690
      5 C                    -0.477516       0.984965
      6 H                     0.276199       0.003585
      7 H                     0.341077      -0.000684
      8 H                     0.234690      -0.011768
      9 H                     0.229062      -0.012516
     10 O                    -0.444964       0.008345
     11 H                     0.350367      -0.000780
     12 O                    -0.195453       0.018983
     13 O                    -0.276627       0.001386
     14 H                     0.346227       0.000414
     15 H                     0.333287       0.001053
  --------------------------------------------------------
  Sum of atomic charges =     0.000000
  Sum of spin   charges =     1.000000

 -----------------------------------------------------------------
                    Cartesian Multipole Moments
 -----------------------------------------------------------------
    Charge (ESU x 10^10)
                 0.0000
    Dipole Moment (Debye)
         X      -0.2034      Y       4.4363      Z       1.5788
       Tot       4.7132
    Quadrupole Moments (Debye-Ang)
        XX     -45.7247     XY      20.3983     YY     -50.4157
        XZ      10.9848     YZ      -5.9405     ZZ     -46.2298
    Octopole Moments (Debye-Ang^2)
       XXX    -445.6071    XXY     126.6974    XYY    -161.8226
       YYY     105.6314    XXZ      59.0417    XYZ     -29.5442
       YYZ      28.8543    XZZ    -153.3351    YZZ      43.5562
       ZZZ      73.4041
    Hexadecapole Moments (Debye-Ang^3)
      XXXX   -3296.5267   XXXY     729.9957   XXYY    -671.1887
      XYYY     299.6408   YYYY    -443.0450   XXXZ     328.5788
      XXYZ    -154.9542   XYYZ      87.5993   YYYZ     -95.9018
      XXZZ    -621.8509   XYZZ     127.1439   YYZZ    -156.7948
      XZZZ     278.9345   YZZZ     -82.9539   ZZZZ    -318.5471
 -----------------------------------------------------------------
 Calculating analytic gradient of the SCF energy
 Gradient of CDS energy
            1           2           3           4           5           6
    1  -0.0017178   0.0021152  -0.0000451   0.0000577  -0.0000734   0.0002308
    2  -0.0026159  -0.0006474  -0.0024300   0.0022544   0.0013269  -0.0000026
    3  -0.0000260  -0.0007478   0.0026710  -0.0030050   0.0002938  -0.0001007
            7           8           9          10          11          12
    1  -0.0005126  -0.0001354   0.0001148  -0.0002492  -0.0000277  -0.0001076
    2   0.0000609  -0.0002556  -0.0001923   0.0032629  -0.0004819  -0.0001223
    3  -0.0000463   0.0000925  -0.0001358   0.0006338   0.0001131  -0.0001352
           13          14          15
    1  -0.0001735   0.0001184   0.0004054
    2  -0.0001873  -0.0002227   0.0002527
    3   0.0001429   0.0004481  -0.0001984
 Gradient of SCF Energy
            1           2           3           4           5           6
    1   0.0000849   0.0051433   0.0023039  -0.0060423  -0.0024409  -0.0029747
    2  -0.0011294   0.0013596   0.0071172  -0.0076103  -0.0136141   0.0029798
    3   0.0008531   0.0119824   0.0007889  -0.0099811   0.0002291  -0.0011185
            7           8           9          10          11          12
    1  -0.0072596  -0.0032633   0.0055387   0.0044090  -0.0020855   0.0010313
    2  -0.0003063   0.0024881   0.0080278  -0.0030811  -0.0006770  -0.0047121
    3  -0.0094538   0.0074239  -0.0070515  -0.0045302   0.0016301   0.0011368
           13          14          15
    1  -0.0069913   0.0055185   0.0070280
    2  -0.0132766   0.0074258   0.0150087
    3  -0.0076465   0.0106916   0.0050459
 Max gradient component =       1.501E-02
 RMS gradient           =       6.427E-03
 Computing fast CPCM-SWIG gradient
 Updating gradient with PCM contributions...
 -- total gradient after adding PCM contribution --
---------------------------------------------------
  Atom         X              Y              Z     
---------------------------------------------------
   1       0.000006       0.000008       0.000003
   2       0.000000       0.000002       0.000003
   3      -0.000048       0.000019      -0.000008
   4       0.000041       0.000001       0.000014
   5       0.000015       0.000000      -0.000005
   6      -0.000008      -0.000010      -0.000003
   7      -0.000013      -0.000027      -0.000004
   8      -0.000033       0.000016      -0.000026
   9       0.000016       0.000007      -0.000010
  10      -0.000018      -0.000029       0.000003
  11       0.000025      -0.000015       0.000043
  12       0.000018      -0.000020       0.000018
  13       0.000000       0.000014      -0.000033
  14      -0.000009       0.000028       0.000026
  15       0.000007       0.000006      -0.000020
---------------------------------------------------
 Number of fixed atoms: 0
 Gradient time:  CPU 201.09 s  wall 16.34 s
 Geometry Optimization Parameters
   NAtoms,    NIC,     NZ,  NCons,   NDum,   NFix, NCnnct, MaxDiis
       15      92       0       0       0       0       0       0

 Cartesian Hessian Update
 Hessian updated using BFGS update


** GEOMETRY OPTIMIZATION IN DELOCALIZED INTERNAL COORDINATES **
   Searching for a Minimum

   Optimization Cycle:   9

                       Coordinates (Angstroms)
     ATOM                X               Y               Z
      1  C         2.3933011767   -1.0092531978   -0.9494533288
      2  O         1.1454541618   -0.7223250869   -0.3651960457
      3  C         3.4644114298   -0.4989429957    0.0352642237
      4  O         3.4257056803   -1.3484646556    1.1427902312
      5  C         3.3010003111    0.9278403127    0.3865907803
      6  H         2.5037625890   -0.5025317401   -1.9049966674
      7  H         0.4659882081   -0.8575363479   -1.0355436143
      8  H         2.6964498882    1.1882492152    1.2407965474
      9  H         3.6712101394    1.6977398625   -0.2711676930
     10  O         2.5452001211   -2.3812855146   -1.2080936865
     11  H         2.5659421141   -2.8467409548   -0.3610106393
     12  O         4.7714989222   -0.7597202089   -0.5386740507
     13  O         4.9214455069    0.0044832675   -1.7325110410
     14  H         3.8644383191   -0.9148629448    1.8852190188
     15  H         5.4571237324    0.7542028890   -1.4344134345
   Point Group: c1    Number of degrees of freedom:    39


   Energy is   -494.533014038

 Hessian updated using BFGS update

 39 Hessian modes will be used to form the next step
  Hessian Eigenvalues:
     0.002360    0.003430    0.003846    0.011959    0.013834    0.014653
     0.014898    0.015824    0.058607    0.060898    0.063570    0.071878
     0.094920    0.116965    0.158888    0.160273    0.160573    0.163597
     0.168361    0.173025    0.189835    0.195494    0.197133    0.210632
     0.297351    0.315716    0.345158    0.349301    0.357529    0.358778
     0.383520    0.427231    0.442539    0.449198    0.486064    0.514148
     0.524943    0.529099    0.531566

 Minimum search - taking simple RFO step
 Searching for Lamda that Minimizes Along All modes
 Value Taken    Lamda =  -0.00000081
 Step Taken.  Stepsize is  0.017026

                             Maximum     Tolerance    Cnvgd?
         Gradient           0.000035      0.000300     YES
         Displacement       0.010344      0.001200      NO
         Energy change     -0.000000      0.000001     YES


                       Distance Matrix (Angstroms)
             C (  1)   O (  2)   C (  3)   O (  4)   C (  5)   H (  6)
   O (  2)  1.407411
   C (  3)  1.541870  2.363859
   O (  4)  2.357627  2.804571  1.396352
   C (  5)  2.522154  2.816844  1.478460  2.401865
   H (  6)  1.087213  2.065017  2.165057  3.294630  2.816545
   H (  7)  1.935191  0.964013  3.204023  3.707570  3.639688  2.243769
   H (  8)  3.117388  2.938553  2.211264  2.641276  1.078407  3.576574
   H (  9)  3.069354  3.499285  2.227573  3.367330  1.078168  2.978846
   O ( 10)  1.404436  2.328501  2.436001  2.714528  3.750275  2.004272
   H ( 11)  1.937119  2.555572  2.544884  2.290293  3.917484  2.807682
   O ( 12)  2.426279  3.630385  1.451168  2.232734  2.422053  2.660002
   O ( 13)  2.834141  4.081165  2.345510  3.512131  2.822946  2.476289
   H ( 14)  3.195078  3.534730  1.937871  0.965245  2.441087  4.048109
   H ( 15)  3.568189  4.681224  2.775109  3.897416  2.827556  3.243944
             H (  7)   H (  8)   H (  9)   O ( 10)   H ( 11)   O ( 12)
   H (  8)  3.787073
   H (  9)  4.169791  1.869699
   O ( 10)  2.583545  4.331457  4.334072
   H ( 11)  2.970141  4.343267  4.677819  0.966762
   O ( 12)  4.335190  3.356625  2.705791  2.834432  3.041661
   O ( 13)  4.591290  3.897751  2.562368  3.407851  3.944476  1.425390
   H ( 14)  4.481473  2.490494  3.393086  3.668701  3.234779  2.592699
   H ( 15)  5.260060  3.868652  2.330856  4.285068  4.741089  1.887960
             O ( 13)   H ( 14)
   H ( 14)  3.879489
   H ( 15)  0.968449  4.042572
 
 Final energy is   -494.533014038111     


 ******************************
 **  OPTIMIZATION CONVERGED  **
 ******************************

                       Coordinates (Angstroms)
     ATOM                X               Y               Z
      1  C         2.3933011767   -1.0092531978   -0.9494533288
      2  O         1.1454541618   -0.7223250869   -0.3651960457
      3  C         3.4644114298   -0.4989429957    0.0352642237
      4  O         3.4257056803   -1.3484646556    1.1427902312
      5  C         3.3010003111    0.9278403127    0.3865907803
      6  H         2.5037625890   -0.5025317401   -1.9049966674
      7  H         0.4659882081   -0.8575363479   -1.0355436143
      8  H         2.6964498882    1.1882492152    1.2407965474
      9  H         3.6712101394    1.6977398625   -0.2711676930
     10  O         2.5452001211   -2.3812855146   -1.2080936865
     11  H         2.5659421141   -2.8467409548   -0.3610106393
     12  O         4.7714989222   -0.7597202089   -0.5386740507
     13  O         4.9214455069    0.0044832675   -1.7325110410
     14  H         3.8644383191   -0.9148629448    1.8852190188
     15  H         5.4571237324    0.7542028890   -1.4344134345

Z-matrix Print:
$molecule
0 2
O 
O  1 1.425390
H  2 0.968449 1 102.440679
C  1 1.451168 2 109.248138 3 100.394547 0
O  4 1.396352 1 103.257824 2 177.150247 0
H  5 0.965245 4 108.915316 1 83.839316 0
C  4 1.478460 1 111.528102 2 -60.855521 0
H  7 1.078168 4 120.410962 1 40.724346 0
H  7 1.078407 4 118.896141 1 -147.162280 0
C  4 1.541870 1 108.279199 2 64.369511 0
H  10 1.087213 4 109.661974 1 -58.973050 0
O  10 1.404436 4 111.457532 1 58.591250 0
H  12 0.966762 10 108.138101 4 53.262575 0
O  10 1.407411 4 106.458835 1 -179.244100 0
H  14 0.964013 10 107.918107 4 168.127399 0
$end

 
 --------------------------------------------------------------
 
                    Orbital Energies (a.u.)
 --------------------------------------------------------------
 
 Alpha MOs
 -- Occupied --
-19.4039 -19.3980 -19.3615 -19.3485 -19.3477 -10.4667 -10.4492 -10.3575
 -1.2782  -1.2127  -1.1837  -1.1381  -1.0382  -0.8884  -0.8085  -0.7359
 -0.6897  -0.6510  -0.6432  -0.6095  -0.5816  -0.5770  -0.5631  -0.5345
 -0.5144  -0.4896  -0.4629  -0.4512  -0.4340  -0.4154  -0.4134  -0.3968
 -0.3212
 -- Virtual --
  0.0274   0.0388   0.0430   0.0493   0.0659   0.0708   0.0779   0.0963
  0.1051   0.1229   0.1315   0.1394   0.1422   0.1430   0.1500   0.1614
  0.1702   0.1806   0.1922   0.1983   0.2148   0.2225   0.2375   0.2462
  0.2575   0.2628   0.2730   0.2784   0.2841   0.2941   0.2974   0.3104
  0.3163   0.3247   0.3341   0.3398   0.3478   0.3510   0.3578   0.3698
  0.3706   0.3793   0.3925   0.4058   0.4101   0.4186   0.4314   0.4382
  0.4431   0.4512   0.4697   0.4888   0.4928   0.5569   0.5725   0.5787
  0.6069   0.6199   0.6315   0.6450   0.6488   0.6561   0.6613   0.6768
  0.6823   0.7102   0.7245   0.7462   0.7535   0.7666   0.7940   0.8164
  0.8295   0.8626   0.8782   0.9140   0.9318   0.9397   0.9593   0.9822
  1.0015   1.0226   1.0597   1.0659   1.0868   1.0893   1.1067   1.1240
  1.1326   1.1446   1.1672   1.1805   1.1907   1.1991   1.2084   1.2172
  1.2364   1.2506   1.2640   1.2803   1.2843   1.2900   1.3302   1.3404
  1.3445   1.3652   1.4010   1.4085   1.4292   1.4370   1.4690   1.4950
  1.5101   1.5214   1.5291   1.5408   1.5543   1.5637   1.6165   1.6499
  1.6517   1.6624   1.6880   1.6982   1.7207   1.7515   1.7734   1.8290
  1.8543   1.8745   1.9191   1.9439   1.9774   1.9895   2.0058   2.0505
  2.1059   2.1258   2.1952   2.2188   2.2536   2.2859   2.3049   2.3638
  2.3831   2.4151   2.4430   2.4581   2.4648   2.4759   2.5146   2.5544
  2.6417   2.6573   2.6822   2.7417   2.7996   2.8196   2.8397   2.8519
  2.8763   2.9241   2.9825   3.0253   3.0315   3.0651   3.1281   3.1481
  3.1707   3.1790   3.2176   3.2543   3.3201   3.3365   3.3594   3.3681
  3.4100   3.4253   3.4348   3.4874   3.5244   3.5652   3.6171   3.6438
  3.6634   3.6954   3.7095   3.7618   3.7706   3.7983   3.8160   3.8279
  3.8316   3.8611   3.8831   3.8891   3.9133   3.9234   3.9444   3.9622
  3.9912   4.0720   4.0870   4.1169   4.1958   4.2007   4.2173   4.2383
  4.2537   4.2819   4.2857   4.3167   4.3223   4.3506   4.3823   4.4110
  4.4486   4.4838   4.5274   4.5648   4.6098   4.7102   4.7546   4.8523
  4.9511   5.0137   5.0444   5.0881   5.2028   5.2132   5.2367   5.2433
  5.2742   5.2804   5.2833   5.2992   5.3230   5.3367   5.3604   5.3737
  5.3892   5.4029   5.4409   5.4576   5.4911   5.5134   5.5268   5.5551
  5.5867   5.5966   5.6119   5.6163   5.6381   5.6691   5.6749   5.7099
  5.7258   5.7769   5.8117   5.8646   5.9506   6.0260   6.0638   6.0904
  6.1480   6.1574   6.2370   6.4874   6.5655   6.7460   6.7915   6.8597
  7.0146   7.0390   7.0784   7.0907   7.1155   7.1482   7.2419   7.2642
  7.2761   7.2927   7.3018   7.3148   7.3519   7.3984   7.4107   7.4175
  7.4793   7.4876   7.5707   7.5962   7.6605   7.6936   7.7641   7.8155
  7.8486   7.8648   7.9027   8.0039   8.1801  24.5610  24.7845  24.8572
 50.4846  50.5653  50.6152  50.6334  50.6785
 
 Beta MOs
 -- Occupied --
-19.4032 -19.3980 -19.3611 -19.3482 -19.3474 -10.4676 -10.4483 -10.3445
 -1.2772  -1.2118  -1.1826  -1.1373  -1.0370  -0.8755  -0.7916  -0.7314
 -0.6876  -0.6500  -0.6387  -0.6011  -0.5799  -0.5749  -0.5598  -0.5328
 -0.5054  -0.4850  -0.4605  -0.4496  -0.4323  -0.4130  -0.4068  -0.3924
 -- Virtual --
 -0.0077   0.0274   0.0387   0.0452   0.0511   0.0656   0.0706   0.0779
  0.0958   0.1086   0.1232   0.1301   0.1386   0.1426   0.1434   0.1498
  0.1613   0.1692   0.1804   0.1916   0.1967   0.2160   0.2237   0.2377
  0.2474   0.2593   0.2657   0.2730   0.2791   0.2849   0.2959   0.2972
  0.3139   0.3168   0.3266   0.3364   0.3415   0.3494   0.3540   0.3595
  0.3704   0.3718   0.3801   0.3945   0.4063   0.4106   0.4199   0.4333
  0.4387   0.4438   0.4543   0.4713   0.4892   0.4969   0.5639   0.5742
  0.5808   0.6077   0.6257   0.6362   0.6488   0.6632   0.6647   0.6705
  0.6841   0.6936   0.7148   0.7283   0.7490   0.7592   0.7690   0.7985
  0.8198   0.8349   0.8670   0.8827   0.9149   0.9336   0.9433   0.9623
  0.9851   1.0030   1.0272   1.0626   1.0694   1.0887   1.0914   1.1085
  1.1249   1.1346   1.1457   1.1688   1.1817   1.1924   1.2015   1.2108
  1.2183   1.2413   1.2543   1.2657   1.2844   1.2862   1.2926   1.3332
  1.3422   1.3523   1.3696   1.4028   1.4207   1.4338   1.4405   1.4743
  1.5012   1.5132   1.5229   1.5365   1.5501   1.5570   1.5660   1.6192
  1.6543   1.6600   1.6756   1.6956   1.7002   1.7232   1.7555   1.7756
  1.8302   1.8571   1.8769   1.9195   1.9466   1.9796   1.9913   2.0071
  2.0523   2.1083   2.1270   2.1971   2.2211   2.2553   2.2905   2.3099
  2.3653   2.3851   2.4210   2.4460   2.4593   2.4675   2.4786   2.5193
  2.5557   2.6545   2.6712   2.6910   2.7537   2.8088   2.8351   2.8539
  2.8746   2.9067   2.9581   3.0031   3.0575   3.0759   3.1108   3.1567
  3.1741   3.2017   3.2145   3.2410   3.2692   3.3394   3.3475   3.3810
  3.4159   3.4286   3.4497   3.4539   3.5191   3.5346   3.5873   3.6332
  3.6560   3.6780   3.7032   3.7313   3.7776   3.7853   3.8054   3.8202
  3.8320   3.8447   3.8666   3.8881   3.8941   3.9198   3.9322   3.9559
  3.9665   4.0076   4.0801   4.1037   4.1230   4.2021   4.2110   4.2374
  4.2466   4.2594   4.2898   4.3167   4.3326   4.3498   4.3637   4.3919
  4.4205   4.4586   4.4968   4.5540   4.5759   4.6182   4.7130   4.7581
  4.8547   4.9617   5.0367   5.0458   5.1125   5.2046   5.2141   5.2398
  5.2461   5.2753   5.2831   5.2849   5.3005   5.3267   5.3408   5.3661
  5.3755   5.3943   5.4064   5.4441   5.4610   5.4940   5.5225   5.5357
  5.5591   5.5915   5.6161   5.6245   5.6334   5.6691   5.6708   5.7013
  5.7120   5.7315   5.7794   5.8140   5.8668   5.9553   6.0278   6.0664
  6.0912   6.1501   6.1584   6.2383   6.4913   6.5667   6.7472   6.7931
  6.8603   7.0152   7.0396   7.0796   7.0919   7.1165   7.1499   7.2427
  7.2653   7.2771   7.2940   7.3028   7.3156   7.3531   7.4001   7.4121
  7.4186   7.4809   7.4889   7.5726   7.5967   7.6612   7.6945   7.7656
  7.8171   7.8498   7.8658   7.9036   8.0054   8.1808  24.5696  24.7895
 24.8585  50.4847  50.5657  50.6155  50.6338  50.6788
 --------------------------------------------------------------
 
          Ground-State Mulliken Net Atomic Charges

     Atom                 Charge (a.u.)    Spin (a.u.)
  --------------------------------------------------------
      1 C                    -0.136377       0.026755
      2 O                    -0.423508       0.004914
      3 C                     0.258431      -0.033343
      4 O                    -0.414895       0.008690
      5 C                    -0.477516       0.984965
      6 H                     0.276199       0.003585
      7 H                     0.341077      -0.000684
      8 H                     0.234690      -0.011768
      9 H                     0.229062      -0.012516
     10 O                    -0.444964       0.008345
     11 H                     0.350367      -0.000780
     12 O                    -0.195453       0.018983
     13 O                    -0.276627       0.001386
     14 H                     0.346227       0.000414
     15 H                     0.333287       0.001053
  --------------------------------------------------------
  Sum of atomic charges =     0.000000
  Sum of spin   charges =     1.000000

 -----------------------------------------------------------------
                    Cartesian Multipole Moments
 -----------------------------------------------------------------
    Charge (ESU x 10^10)
                 0.0000
    Dipole Moment (Debye)
         X      -0.2034      Y       4.4363      Z       1.5788
       Tot       4.7132
    Quadrupole Moments (Debye-Ang)
        XX     -45.7247     XY      20.3983     YY     -50.4157
        XZ      10.9848     YZ      -5.9405     ZZ     -46.2298
    Octopole Moments (Debye-Ang^2)
       XXX    -445.6071    XXY     126.6974    XYY    -161.8226
       YYY     105.6314    XXZ      59.0417    XYZ     -29.5442
       YYZ      28.8543    XZZ    -153.3351    YZZ      43.5562
       ZZZ      73.4041
    Hexadecapole Moments (Debye-Ang^3)
      XXXX   -3296.5267   XXXY     729.9957   XXYY    -671.1887
      XYYY     299.6408   YYYY    -443.0450   XXXZ     328.5788
      XXYZ    -154.9542   XYYZ      87.5993   YYYZ     -95.9018
      XXZZ    -621.8509   XYZZ     127.1439   YYZZ    -156.7948
      XZZZ     278.9345   YZZZ     -82.9539   ZZZZ    -318.5471
 -----------------------------------------------------------------
 Total job time:  878.26s(wall), 12459.47s(cpu) 
 Tue Jun 25 16:19:18 2024

        *************************************************************
        *                                                           *
        *  Thank you very much for using Q-Chem.  Have a nice day.  *
        *                                                           *
        *************************************************************


