
Running Job 1 of 1 Q_in.in
qchem Q_in.in_240973.0 /scratch/ari.fischer/qChem2234417.hpc-mn1/qchem240973/ 0
/usr/local/qchem-5.4.1/exe/qcprog.exe_s Q_in.in_240973.0 /scratch/ari.fischer/qChem2234417.hpc-mn1/qchem240973/
                  Welcome to Q-Chem
     A Quantum Leap Into The Future Of Chemistry


 Q-Chem 5.4, Q-Chem, Inc., Pleasanton, CA (2021)

 License issued to: Nanyang Technological University (site)

 E. Epifanovsky,  A. T. B. Gilbert,  Xintian Feng,  Joonho Lee,  Yuezhi Mao,  
 N. Mardirossian,  P. Pokhilko,  A. White,  M. Wormit,  M. P. Coons,  
 A. L. Dempwolff,  Zhengting Gan,  D. Hait,  P. R. Horn,  L. D. Jacobson,  
 I. Kaliman,  J. Kussmann,  A. W. Lange,  Ka Un Lao,  D. S. Levine,  Jie Liu,  
 S. C. McKenzie,  A. F. Morrison,  K. Nanda,  F. Plasser,  D. R. Rehn,  
 M. L. Vidal,  Zhi-Qiang You,  Ying Zhu,  B. Alam,  B. Albrecht,  
 A. Aldossary,  E. Alguire,  J. H. Andersen,  D. Barton,  K. Begam,  A. Behn,  
 Y. A. Bernard,  E. J. Berquist,  H. Burton,  A. Carreras,  K. Carter-Fenk,  
 R. Chakraborty,  A. D. Chien,  K. D. Closser,  V. Cofer-Shabica,  
 S. Dasgupta,  Jia Deng,  M. de Wergifosse,  M. Diedenhofen,  Hainam Do,  
 S. Ehlert,  Po-Tung Fang,  S. Fatehi,  Qingguo Feng,  T. Friedhoff,  
 J. Gayvert,  Qinghui Ge,  G. Gidofalvi,  M. Goldey,  J. Gomes,  
 C. Gonzalez-Espinoza,  S. Gulania,  A. Gunina,  M. W. D. Hanson-Heine,  
 P. H. P. Harbach,  A. W. Hauser,  M. F. Herbst,  M. Hernandez Vera,  
 M. Hodecker,  Z. C. Holden,  S. Houck,  Xunkun Huang,  Kerwin Hui,  
 B. C. Huynh,  M. Ivanov,  Hyunjun Ji,  Hanjie Jiang,  B. Kaduk,  S. Kaehler,  
 K. Khistyaev,  Jaehoon Kim,  P. Klunzinger,  Z. Koczor-Benda,  
 Joong Hoon Koh,  D. Kosenkov,  L. Koulias,  T. Kowalczyk,  C. M. Krauter,  
 K. Kue,  A. Kunitsa,  T. Kus,  A. Landau,  K. V. Lawler,  D. Lefrancois,  
 S. Lehtola,  Rain Li,  Yi-Pei Li,  Jiashu Liang,  M. Liebenthal,  
 Hung-Hsuan Lin,  You-Sheng Lin,  Fenglai Liu,  Kuan-Yu Liu,  
 M. Loipersberger,  A. Luenser,  A. Manjanath,  P. Manohar,  E. Mansoor,  
 S. F. Manzer,  Shan-Ping Mao,  A. V. Marenich,  T. Markovich,  S. Mason,  
 S. A. Maurer,  P. F. McLaughlin,  M. F. S. J. Menger,  J.-M. Mewes,  
 S. A. Mewes,  P. Morgante,  J. W. Mullinax,  K. J. Oosterbaan,  G. Paran,  
 Alexander C. Paul,  Suranjan K. Paul,  F. Pavosevic,  Zheng Pei,  S. Prager,  
 E. I. Proynov,  E. Ramos,  B. Rana,  A. E. Rask,  A. Rettig,  R. M. Richard,  
 F. Rob,  E. Rossomme,  T. Scheele,  M. Scheurer,  M. Schneider,  
 N. Sergueev,  S. M. Sharada,  W. Skomorowski,  D. W. Small,  C. J. Stein,  
 Yu-Chuan Su,  E. J. Sundstrom,  Zhen Tao,  J. Thirman,  T. Tsuchimochi,  
 N. M. Tubman,  S. P. Veccham,  O. Vydrov,  J. Wenzel,  J. Witte,  A. Yamada,  
 Kun Yao,  S. Yeganeh,  S. R. Yost,  A. Zech,  Igor Ying Zhang,  Xing Zhang,  
 Yu Zhang,  D. Zuev,  A. Aspuru-Guzik,  A. T. Bell,  N. A. Besley,  
 K. B. Bravaya,  B. R. Brooks,  D. Casanova,  Jeng-Da Chai,  S. Coriani,  
 C. J. Cramer,  A. E. DePrince, III,  R. A. DiStasio Jr.,  A. Dreuw,  
 B. D. Dunietz,  T. R. Furlani,  W. A. Goddard III,  S. Grimme,  
 S. Hammes-Schiffer,  T. Head-Gordon,  W. J. Hehre,  Chao-Ping Hsu,  
 T.-C. Jagau,  Yousung Jung,  A. Klamt,  Jing Kong,  D. S. Lambrecht,  
 WanZhen Liang,  N. J. Mayhall,  C. W. McCurdy,  J. B. Neaton,  
 C. Ochsenfeld,  J. A. Parkhill,  R. Peverati,  V. A. Rassolov,  Yihan Shao,  
 L. V. Slipchenko,  T. Stauch,  R. P. Steele,  J. E. Subotnik,  
 A. J. W. Thom,  A. Tkatchenko,  D. G. Truhlar,  T. Van Voorhis,  
 T. A. Wesolowski,  K. B. Whaley,  H. L. Woodcock III,  P. M. Zimmerman,  
 S. Faraji,  P. M. W. Gill,  M. Head-Gordon,  J. M. Herbert,  A. I. Krylov

 Additional authors for Version 5.4.1: 
 S. Kotaru,  Shaozhi Li,  Xiangyuan Li,  F. Matz,  A. Molle,  Haisheng Ren,  
 Yingli Su,  Hung-Yi Tsai,  C. Utku,  Fang Wang

 Contributors to earlier versions of Q-Chem not listed above: 
 R. D. Adamson,  B. Austin,  R. Baer,  J. Baker,  G. J. O. Beran,  
 K. Brandhorst,  S. T. Brown,  E. F. C. Byrd,  A. K. Chakraborty,  
 G. K. L. Chan,  Chun-Min Chang,  Yunqing Chen,  C.-L. Cheng,  
 Siu Hung Chien,  D. M. Chipman,  D. L. Crittenden,  H. Dachsel,  
 R. J. Doerksen,  A. D. Dutoi,  R. G. Edgar,  J. Fosso-Tande,  
 L. Fusti-Molnar,  D. Ghosh,  A. Ghysels,  A. Golubeva-Zadorozhnaya,  
 J. Gonthier,  M. S. Gordon,  S. R. Gwaltney,  G. Hawkins,  J. E. Herr,  
 A. Heyden,  S. Hirata,  E. G. Hohenstein,  G. Kedziora,  F. J. Keil,  
 C. Kelley,  Jihan Kim,  R. A. King,  R. Z. Khaliullin,  P. P. Korambath,  
 W. Kurlancheek,  A. Laurent,  A. M. Lee,  M. S. Lee,  S. V. Levchenko,  
 Ching Yeh Lin,  D. Liotard,  E. Livshits,  R. C. Lochan,  I. Lotan,  
 L. A. Martinez-Martinez,  P. E. Maslen,  N. Nair,  D. P. O'Neill,  
 D. Neuhauser,  E. Neuscamman,  C. M. Oana,  R. Olivares-Amaya,  R. Olson,  
 T. M. Perrine,  B. Peters,  P. A. Pieniazek,  A. Prociuk,  Y. M. Rhee,  
 J. Ritchie,  M. A. Rohrdanz,  E. Rosta,  N. J. Russ,  H. F. Schaefer III,  
 M. W. Schmidt,  N. E. Schultz,  S. Sharma,  N. Shenvi,  C. D. Sherrill,  
 A. C. Simmonett,  A. Sodt,  T. Stein,  D. Stuck,  K. S. Thanthiriwatte,  
 V. Vanovschi,  L. Vogt,  Tao Wang,  A. Warshel,  M. A. Watson,  
 C. F. Williams,  Q. Wu,  X. Xu,  Jun Yang,  W. Zhang,  Yan Zhao

 Please cite Q-Chem as follows:
 Y. Shao et al., Mol. Phys. 113, 184-215 (2015)
 DOI: 10.1080/00268976.2014.952696

 Q-Chem 5.4.1 for Intel X86 EM64T Linux

 Parts of Q-Chem use Armadillo 9.800.1 (Horizon Scraper).
 http://arma.sourceforge.net/

 Q-Chem begins on Fri Jul 12 13:47:26 2024  

 Host: 
0

     Scratch files written to /scratch/ari.fischer/qChem2234417.hpc-mn1/qchem240973//
 Aug1521 |scratch|qcdevops|jenkins|workspace|build_RNUM 8249   
 Processing $rem in /usr/local/qchem-5.4.1/config/preferences:
 Processing $rem in /home/ari.fischer/.qchemrc:
 Symmetry turned off for PCM/SM12/SMD calculation


!!********************************************.
!!******************Warning*******************.
!!Desired Analytical derivatives not available.
!!Finite difference job might take a long time.
!!********************************************.
!!********************************************.


 2-order derivative to be evaluated numerically with 1-order analytical derivatives

 Checking the input file for inconsistencies... 	...done.

--------------------------------------------------------------
User input:
--------------------------------------------------------------
$molecule
-1 2
O         0.9879815493   -0.4133232738    0.5064653645
C         2.3633144963   -0.2466804327    0.1801266098
C         3.0297607542    0.6881874497    1.1748947109
O         2.5278900850    0.6281110211    2.3693362738
C         4.0761921885    1.4557335787    0.7520580355
C         4.9433946839    2.2889248690    1.6184610193
C         4.2497253373    3.2440551233    2.6017540797
O         3.3740634643    4.0693836365    1.8643615600
O         3.5937609338    2.5737532575    3.6435928789
H         0.9466964409   -0.2447479555    1.4612883296
H         2.4384228972    0.1382863672   -0.8345893332
H         2.8760019178   -1.2135240861    0.2209076008
H         4.3587218055    1.3845655282   -0.2893273893
H         5.6359877043    2.8736125450    1.0177914711
H         4.9818142724    3.9063698528    3.0583931213
H         2.9041681189    3.5011231313    1.2351507771
H         3.1280735749    1.7763647696    3.2401519871
O         5.8133053511    1.3872627392    2.4304578528
O         6.8504669005    2.0086623121    2.9153742199
H         4.7874619997    2.0389338177    4.9372463541
O         5.4190454053    1.7771262833    5.6330095621
H         6.2371878188    1.6107582658    5.1530226143
$end

$rem
BASIS = 6-311++G(2df,2p)
GUI = 2
JOB_TYPE = Frequency
METHOD = wB97M-V
SOLVENT_METHOD = SMD
SCF_ALGORITHM = DIIS_GDM
MAX_SCF_CYCLES = 400
SCF_CONVERGENCE = 7
THRESH = 12
$end
--------------------------------------------------------------
 ----------------------------------------------------------------
             Standard Nuclear Orientation (Angstroms)
    I     Atom           X                Y                Z
 ----------------------------------------------------------------
    1      O       0.9879815493    -0.4133232738     0.5064653645
    2      C       2.3633144963    -0.2466804327     0.1801266098
    3      C       3.0297607542     0.6881874497     1.1748947109
    4      O       2.5278900850     0.6281110211     2.3693362738
    5      C       4.0761921885     1.4557335787     0.7520580355
    6      C       4.9433946839     2.2889248690     1.6184610193
    7      C       4.2497253373     3.2440551233     2.6017540797
    8      O       3.3740634643     4.0693836365     1.8643615600
    9      O       3.5937609338     2.5737532575     3.6435928789
   10      H       0.9466964409    -0.2447479555     1.4612883296
   11      H       2.4384228972     0.1382863672    -0.8345893332
   12      H       2.8760019178    -1.2135240861     0.2209076008
   13      H       4.3587218055     1.3845655282    -0.2893273893
   14      H       5.6359877043     2.8736125450     1.0177914711
   15      H       4.9818142724     3.9063698528     3.0583931213
   16      H       2.9041681189     3.5011231313     1.2351507771
   17      H       3.1280735749     1.7763647696     3.2401519871
   18      O       5.8133053511     1.3872627392     2.4304578528
   19      O       6.8504669005     2.0086623121     2.9153742199
   20      H       4.7874619997     2.0389338177     4.9372463541
   21      O       5.4190454053     1.7771262833     5.6330095621
   22      H       6.2371878188     1.6107582658     5.1530226143
 ----------------------------------------------------------------
 Nuclear Repulsion Energy =         786.77115375 hartrees
 There are       49 alpha and       48 beta electrons
 Requested basis set is 6-311++G(2df,2p)
 There are 156 shells and 508 basis functions

 Total QAlloc Memory Limit 288000 MB
 Mega-Array Size       188 MB
 MEM_STATIC part       192 MB
 
 Citation of the SMD model:
 Marenich, A.V.; Cramer, C.J.; Truhlar, D.G.
 J. Phys. Chem. B 2009, 113, 6378-6396.
 iSolventCode=           1
 Solvent: water                                                           
 
 vradii
            1           2           3           4           5           6
    1   1.5200000   1.8500000   1.8500000   1.5200000   1.8500000   1.8500000
            7           8           9          10          11          12
    1   1.8500000   1.5200000   1.5200000   1.2000000   1.2000000   1.2000000
           13          14          15          16          17          18
    1   1.2000000   1.2000000   1.2000000   1.2000000   1.2000000   1.5200000
           19          20          21          22
    1   1.5200000   1.2000000   1.5200000   1.2000000
 Changing PCM_VDW_RADII to SMD_RADIUS
 Discretize the solute cavity surface with Lebedev spheres
	Using 110 Lebedev grid points for each H atom
	Using 194 Lebedev grid points for other atoms
	Atomic van der Waals radii will be scaled by 1.20
 Remove points where switching function is < 1.0e-08
 Keep 1715 surface tesserae and discard 1713 interior tesserae
 Molecular Surface Area = 193.292 Angst**2
 A cutoff of  1.0D-12 yielded  10171 shell pairs
 There are    106070 function pairs (    131185 Cartesian)
 Smallest overlap matrix eigenvalue = 4.61E-06
 Guess from superposition of atomic densities
 Warning:  Energy on first SCF cycle will be non-variational
 SAD guess density has 96.000000 electrons

 -----------------------------------------------------------------------
  General SCF calculation program by
  Eric Jon Sundstrom, Paul Horn, Yuezhi Mao, Dmitri Zuev, Alec White,
  David Stuck, Shaama M.S., Shane Yost, Joonho Lee, David Small,
  Daniel Levine, Susi Lehtola, Hugh Burton, Evgeny Epifanovsky,
  Bang C. Huynh
 -----------------------------------------------------------------------
 Exchange:     0.1500 Hartree-Fock + 1.0000 wB97M-V + LR-HF
 Correlation:  1.0000 wB97M-V
 Using SG-2 standard quadrature grid
 Nonlocal Correlation:  VV10 with C = 0.0100 and b = 6.00 and scale = 1.00000
 Grid used for NLC:  SG-1 standard quadrature
 using 16 threads for integral computing
 -------------------------------------------------------
 OpenMP Integral computing Module                
 Release: version 1.0, May 2013, Q-Chem Inc. Pittsburgh 
 -------------------------------------------------------
 
 Citation of the SMD model:
 Marenich, A.V.; Cramer, C.J.; Truhlar, D.G.
 J. Phys. Chem. B 2009, 113, 6378-6396.
 iSolventCode=           1
 Solvent: water                                                           
 
 vradii
            1           2           3           4           5           6
    1   1.5200000   1.8500000   1.8500000   1.5200000   1.8500000   1.8500000
            7           8           9          10          11          12
    1   1.8500000   1.5200000   1.5200000   1.2000000   1.2000000   1.2000000
           13          14          15          16          17          18
    1   1.2000000   1.2000000   1.2000000   1.2000000   1.2000000   1.5200000
           19          20          21          22
    1   1.5200000   1.2000000   1.5200000   1.2000000
 -------------------------------------------------------
 OpenMP BLAS3 based DFT computing Module                
 Release: version 1.0, May 2013, Q-Chem Inc. Pittsburgh 
 -------------------------------------------------------
 A unrestricted SCF calculation will be
 performed using DIIS, GDM
 SCF converges when RMS gradient is below 1.0e-07
 ---------------------------------------
  Cycle       Energy         DIIS error
 ---------------------------------------
    1    -725.1904503596      1.08e-02  
    2    -722.9103187885      1.62e-03  Done DIIS. Switching to GDM
 ---------------------------------------
  Cycle       Energy        RMS Gradient
 ---------------------------------------
    1    -722.9103187885      8.41e-02   Descent step
    2    -723.1272949112      2.95e-02   Normal BFGS step
    3    -723.1732849344      2.74e-02   Normal BFGS step
    4    -723.1756634897      1.83e-02   Normal BFGS step
    5    -723.1789624903      5.84e-03   Normal BFGS step
    6    -723.1791484946      3.26e-03   Normal BFGS step
    7    -723.1792609048      2.23e-03   Normal BFGS step
    8    -723.1792883829      7.44e-04   Normal BFGS step
    9    -723.1792971335      4.97e-04   Normal BFGS step
   10    -723.1792988459      3.44e-04   Normal BFGS step
   11    -723.1792993395      3.31e-04   Normal BFGS step
   12    -723.1792995652      2.74e-04   Normal BFGS step
   13    -723.1792998105      1.69e-04   Normal BFGS step
   14    -723.1792999812      4.28e-05   Normal BFGS step
   15    -723.1793000236      2.16e-05   Normal BFGS step
   16    -723.1793000332      9.23e-06   Normal BFGS step
   17    -723.1793000345      3.54e-06   Normal BFGS step
   18    -723.1793000348      1.74e-06   Normal BFGS step
   19    -723.1793000348      6.24e-07   Normal BFGS step
   20    -723.1793000348      2.62e-07   Normal BFGS step
   21    -723.1793000348      1.41e-07   Normal BFGS step
   22    -723.1793000350      5.40e-08  Convergence criterion met
 ---------------------------------------
 SCF time:   CPU 4274.30s  wall 295.00s 
<S^2> =          0.754159935
(3)  G-ENP(liq) elect-nuc-pol free energy of system     -723.179300035 a.u.
(4)  G-CDS(liq) cavity-dispersion-solvent structure 
     free energy                                                3.5911 kcal/mol
(6)  G-S(liq) free energy of system                     -723.173577232 a.u.
 SCF   energy in the final basis set =     -723.1735772318
 Total energy in the final basis set =     -723.1735772318
 
 --------------------------------------------------------------
 
                    Orbital Energies (a.u.)
 --------------------------------------------------------------
 
 Alpha MOs
 -- Occupied --
-19.4546 -19.4085 -19.3411 -19.3280 -19.3242 -19.3180 -19.2891 -10.4411
-10.4016 -10.3961 -10.3756 -10.3065  -1.3334  -1.1928  -1.1572  -1.1297
 -1.1217  -1.1074  -1.0074  -0.8840  -0.8385  -0.7916  -0.7348  -0.6602
 -0.6564  -0.6383  -0.6268  -0.6224  -0.6072  -0.6019  -0.5769  -0.5684
 -0.5633  -0.5250  -0.5059  -0.4993  -0.4891  -0.4839  -0.4731  -0.4509
 -0.4364  -0.4228  -0.4196  -0.3994  -0.3992  -0.3884  -0.3783  -0.3514
 -0.2985
 -- Virtual --
  0.0276   0.0394   0.0434   0.0460   0.0608   0.0615   0.0670   0.0712
  0.0882   0.0957   0.1019   0.1055   0.1214   0.1221   0.1308   0.1412
  0.1431   0.1542   0.1579   0.1604   0.1679   0.1724   0.1753   0.1813
  0.1835   0.1956   0.1996   0.2077   0.2090   0.2161   0.2237   0.2385
  0.2457   0.2480   0.2528   0.2634   0.2739   0.2745   0.2817   0.2871
  0.2891   0.2937   0.3018   0.3085   0.3135   0.3173   0.3183   0.3263
  0.3302   0.3390   0.3432   0.3515   0.3551   0.3592   0.3626   0.3705
  0.3714   0.3762   0.3796   0.3849   0.3905   0.3911   0.3997   0.4042
  0.4084   0.4156   0.4245   0.4327   0.4448   0.4510   0.4617   0.4739
  0.4773   0.4853   0.4982   0.5144   0.5210   0.5476   0.5682   0.5816
  0.5940   0.6059   0.6122   0.6214   0.6287   0.6413   0.6573   0.6631
  0.6693   0.6759   0.6764   0.6880   0.6944   0.7085   0.7309   0.7346
  0.7460   0.7487   0.7613   0.7653   0.7705   0.7999   0.8145   0.8250
  0.8351   0.8449   0.8594   0.8690   0.8781   0.8816   0.8895   0.9060
  0.9176   0.9488   0.9549   0.9715   0.9798   1.0096   1.0195   1.0295
  1.0371   1.0423   1.0604   1.0770   1.0904   1.0948   1.1030   1.1122
  1.1312   1.1387   1.1482   1.1553   1.1655   1.1809   1.1849   1.1909
  1.2048   1.2064   1.2087   1.2327   1.2370   1.2443   1.2506   1.2595
  1.2683   1.2838   1.2907   1.2959   1.3094   1.3145   1.3182   1.3220
  1.3363   1.3506   1.3632   1.3773   1.3921   1.4081   1.4164   1.4239
  1.4486   1.4499   1.4571   1.4763   1.4843   1.4892   1.5025   1.5114
  1.5318   1.5419   1.5622   1.5726   1.5784   1.5832   1.5963   1.6013
  1.6248   1.6334   1.6477   1.6667   1.6729   1.6893   1.7077   1.7315
  1.7441   1.7590   1.7786   1.7828   1.8152   1.8177   1.8404   1.8634
  1.9072   1.9171   1.9404   1.9546   1.9680   2.0075   2.0388   2.0548
  2.0729   2.1261   2.1334   2.1613   2.1834   2.1930   2.2149   2.2199
  2.2497   2.2769   2.3008   2.3167   2.3262   2.3669   2.3791   2.3898
  2.4130   2.4288   2.4348   2.4620   2.4975   2.5151   2.5399   2.5628
  2.5895   2.6311   2.6898   2.7001   2.7117   2.7362   2.7519   2.7788
  2.8244   2.8402   2.8636   2.8741   2.9033   2.9117   2.9518   2.9596
  2.9868   3.0113   3.0199   3.0364   3.0706   3.0825   3.0946   3.1220
  3.1402   3.1556   3.1816   3.1916   3.2224   3.2268   3.2636   3.3179
  3.3272   3.3548   3.3763   3.3961   3.4150   3.4382   3.4419   3.4486
  3.4658   3.4839   3.4999   3.5226   3.5364   3.5558   3.5785   3.6063
  3.6395   3.6505   3.6712   3.6929   3.7053   3.7112   3.7304   3.7409
  3.7561   3.7653   3.7688   3.7922   3.8104   3.8199   3.8427   3.8536
  3.8562   3.8640   3.8773   3.8853   3.9113   3.9138   3.9351   3.9565
  3.9808   4.0151   4.0381   4.0438   4.0617   4.0854   4.1060   4.1401
  4.1559   4.1693   4.1983   4.2138   4.2371   4.2448   4.2855   4.2918
  4.2977   4.3004   4.3431   4.3684   4.3701   4.4106   4.4339   4.4616
  4.4719   4.4790   4.5116   4.5179   4.5558   4.5655   4.5921   4.6123
  4.6398   4.6577   4.6812   4.7328   4.7458   4.7611   4.7806   4.8604
  4.9193   4.9329   5.0332   5.0955   5.1017   5.1149   5.1205   5.1347
  5.1737   5.1858   5.2172   5.2302   5.2514   5.2521   5.2623   5.2705
  5.2766   5.2818   5.2933   5.3186   5.3203   5.3389   5.3561   5.3572
  5.3780   5.3899   5.4010   5.4224   5.4328   5.4407   5.4479   5.4723
  5.4967   5.5283   5.5368   5.5455   5.5621   5.5867   5.5945   5.6025
  5.6138   5.6200   5.6293   5.6579   5.6780   5.6973   5.7261   5.7281
  5.7322   5.7714   5.8062   5.8219   5.8324   5.8645   5.8849   5.9105
  5.9642   6.0114   6.0334   6.1225   6.1800   6.1990   6.4053   6.4844
  6.5894   6.6048   6.6276   6.6573   6.7911   6.8678   6.9074   6.9928
  7.0225   7.0427   7.0705   7.0978   7.1132   7.1248   7.1410   7.1458
  7.1907   7.2146   7.2313   7.2554   7.2819   7.2986   7.3224   7.3396
  7.3642   7.3741   7.4059   7.4223   7.4312   7.4499   7.4686   7.4765
  7.5125   7.5175   7.5727   7.6018   7.6490   7.7046   7.7568   7.7723
  7.8084   7.8295   7.8746   7.9185   7.9872   8.0591   8.1193  24.6025
 24.7173  24.7794  24.8390  25.2309  50.4492  50.5251  50.5554  50.6055
 50.6295  50.6842  50.7771
 
 Beta MOs
 -- Occupied --
-19.4434 -19.3905 -19.3411 -19.3280 -19.3242 -19.3180 -19.2890 -10.4408
-10.4020 -10.3961 -10.3756 -10.3065  -1.3066  -1.1925  -1.1571  -1.1295
 -1.1215  -1.1073  -0.9796  -0.8761  -0.8333  -0.7910  -0.7319  -0.6567
 -0.6435  -0.6288  -0.6257  -0.6169  -0.6007  -0.5859  -0.5710  -0.5624
 -0.5366  -0.5185  -0.5036  -0.4944  -0.4875  -0.4748  -0.4724  -0.4479
 -0.4359  -0.4203  -0.4097  -0.3991  -0.3853  -0.3794  -0.3522  -0.2974
 -- Virtual --
 -0.0261   0.0278   0.0396   0.0438   0.0462   0.0612   0.0619   0.0672
  0.0713   0.0884   0.0972   0.1023   0.1056   0.1223   0.1229   0.1311
  0.1415   0.1434   0.1546   0.1580   0.1615   0.1681   0.1734   0.1766
  0.1816   0.1843   0.1959   0.2019   0.2084   0.2095   0.2164   0.2244
  0.2390   0.2473   0.2517   0.2565   0.2642   0.2749   0.2771   0.2821
  0.2882   0.2909   0.2960   0.3040   0.3091   0.3141   0.3184   0.3208
  0.3266   0.3308   0.3392   0.3439   0.3529   0.3557   0.3598   0.3635
  0.3714   0.3719   0.3766   0.3828   0.3860   0.3906   0.3917   0.4011
  0.4046   0.4099   0.4164   0.4249   0.4335   0.4455   0.4518   0.4624
  0.4749   0.4777   0.4862   0.4986   0.5154   0.5212   0.5477   0.5684
  0.5820   0.5940   0.6061   0.6127   0.6218   0.6289   0.6416   0.6585
  0.6633   0.6695   0.6762   0.6767   0.6884   0.6952   0.7090   0.7311
  0.7347   0.7464   0.7487   0.7615   0.7656   0.7713   0.8003   0.8152
  0.8253   0.8356   0.8456   0.8595   0.8693   0.8783   0.8819   0.8900
  0.9071   0.9189   0.9502   0.9553   0.9719   0.9803   1.0102   1.0208
  1.0303   1.0381   1.0451   1.0617   1.0776   1.0911   1.0966   1.1056
  1.1162   1.1318   1.1403   1.1496   1.1562   1.1677   1.1822   1.1871
  1.1963   1.2072   1.2099   1.2148   1.2354   1.2407   1.2518   1.2562
  1.2622   1.2710   1.2875   1.2923   1.2985   1.3111   1.3170   1.3196
  1.3281   1.3379   1.3516   1.3638   1.3790   1.3940   1.4095   1.4171
  1.4252   1.4499   1.4518   1.4587   1.4785   1.4854   1.4914   1.5074
  1.5140   1.5350   1.5473   1.5629   1.5737   1.5804   1.5865   1.5970
  1.6054   1.6278   1.6343   1.6500   1.6690   1.6808   1.6957   1.7129
  1.7431   1.7453   1.7615   1.7861   1.7915   1.8183   1.8239   1.8440
  1.8658   1.9083   1.9212   1.9455   1.9567   1.9693   2.0090   2.0401
  2.0602   2.0780   2.1268   2.1368   2.1621   2.1857   2.1999   2.2163
  2.2235   2.2521   2.2826   2.3064   2.3282   2.3290   2.3677   2.3802
  2.3933   2.4139   2.4326   2.4374   2.4635   2.4981   2.5159   2.5412
  2.5634   2.5905   2.6319   2.6914   2.7009   2.7131   2.7419   2.7522
  2.7799   2.8252   2.8406   2.8643   2.8745   2.9041   2.9123   2.9520
  2.9596   2.9869   3.0114   3.0202   3.0367   3.0708   3.0829   3.0950
  3.1222   3.1409   3.1559   3.1819   3.1919   3.2228   3.2269   3.2637
  3.3182   3.3279   3.3549   3.3769   3.3961   3.4151   3.4386   3.4424
  3.4490   3.4660   3.4844   3.5000   3.5231   3.5365   3.5561   3.5785
  3.6068   3.6396   3.6509   3.6721   3.6934   3.7059   3.7119   3.7307
  3.7408   3.7560   3.7656   3.7692   3.7924   3.8105   3.8198   3.8430
  3.8537   3.8564   3.8642   3.8777   3.8854   3.9120   3.9143   3.9357
  3.9569   3.9813   4.0153   4.0387   4.0440   4.0623   4.0855   4.1062
  4.1402   4.1560   4.1697   4.1991   4.2145   4.2376   4.2455   4.2857
  4.2921   4.2984   4.3014   4.3432   4.3688   4.3703   4.4113   4.4346
  4.4632   4.4726   4.4802   4.5133   4.5192   4.5561   4.5659   4.5953
  4.6184   4.6455   4.6700   4.6870   4.7343   4.7505   4.7754   4.7844
  4.8635   4.9394   4.9441   5.0478   5.1088   5.1194   5.1410   5.1633
  5.1753   5.1846   5.2055   5.2281   5.2503   5.2526   5.2604   5.2653
  5.2789   5.2928   5.3103   5.3180   5.3206   5.3252   5.3409   5.3590
  5.3638   5.3803   5.3945   5.4083   5.4235   5.4422   5.4442   5.4599
  5.4764   5.5007   5.5315   5.5453   5.5526   5.5633   5.5870   5.5954
  5.6042   5.6164   5.6215   5.6338   5.6601   5.6802   5.6976   5.7283
  5.7336   5.7378   5.7801   5.8071   5.8302   5.8376   5.8676   5.8859
  5.9111   5.9645   6.0118   6.0347   6.1235   6.1807   6.1994   6.4191
  6.5292   6.5964   6.6051   6.6327   6.6602   6.7923   6.9454   6.9826
  7.0161   7.0387   7.0627   7.0768   7.0981   7.1251   7.1398   7.1419
  7.1577   7.1926   7.2267   7.2457   7.2634   7.2915   7.3201   7.3226
  7.3539   7.3647   7.3754   7.4089   7.4232   7.4430   7.4667   7.4716
  7.5022   7.5157   7.5279   7.5741   7.6019   7.6499   7.7048   7.7571
  7.7730   7.8123   7.8398   7.8750   7.9190   7.9873   8.0738   8.1378
 24.6025  24.7172  24.7794  24.8392  25.2309  50.4613  50.5254  50.5652
 50.6055  50.6296  50.6845  50.7772
 --------------------------------------------------------------
 
          Ground-State Mulliken Net Atomic Charges

     Atom                 Charge (a.u.)    Spin (a.u.)
  --------------------------------------------------------
      1 O                    -0.458832      -0.000020
      2 C                    -0.433224      -0.000736
      3 C                     0.276736       0.003710
      4 O                    -0.706450       0.001388
      5 C                    -0.247522      -0.000456
      6 C                    -0.439015      -0.004028
      7 C                    -0.252653       0.010201
      8 O                    -0.414430       0.001339
      9 O                    -0.476770       0.002610
     10 H                     0.334666       0.000062
     11 H                     0.195729       0.000156
     12 H                     0.189602      -0.000126
     13 H                     0.272151      -0.000282
     14 H                     0.323568       0.005236
     15 H                     0.272742       0.000049
     16 H                     0.326949       0.000105
     17 H                     0.409855      -0.000691
     18 O                     0.087377       0.340127
     19 O                    -0.250673       0.641127
     20 H                     0.420931      -0.002703
     21 O                    -0.747541       0.002387
     22 H                     0.316805       0.000544
  --------------------------------------------------------
  Sum of atomic charges =    -1.000000
  Sum of spin   charges =     1.000000

 -----------------------------------------------------------------
                    Cartesian Multipole Moments
 -----------------------------------------------------------------
    Charge (ESU x 10^10)
                -4.8032
    Dipole Moment (Debye)
         X     -15.9188      Y      -6.9915      Z     -17.1594
       Tot      24.4281
    Quadrupole Moments (Debye-Ang)
        XX    -147.0543     XY     -28.1603     YY     -99.2512
        XZ     -73.2917     YZ     -31.4709     ZZ    -150.7099
    Octopole Moments (Debye-Ang^2)
       XXX   -1260.8750    XXY    -240.5853    XYY    -371.5193
       YYY    -463.2101    XXZ    -498.6633    XYZ    -129.0266
       YYZ    -244.3032    XZZ    -638.3129    YZZ    -263.5749
       ZZZ    -883.6220
    Hexadecapole Moments (Debye-Ang^3)
      XXXX  -10298.4229   XXXY   -2237.9892   XXYY   -1956.1836
      XYYY   -1954.3093   YYYY   -2478.2061   XXXZ   -3874.2398
      XXYZ    -914.3564   XYYZ   -1033.9465   YYYZ   -1244.3381
      XXZZ   -3506.4388   XYZZ   -1179.9406   YYZZ   -1204.9595
      XZZZ   -4090.7435   YZZZ   -1717.4027   ZZZZ   -5491.4066
 -----------------------------------------------------------------
 Calculating analytic gradient of the SCF energy
 Gradient of CDS energy
            1           2           3           4           5           6
    1   0.0000962  -0.0003465  -0.0008392   0.0009176   0.0001377   0.0001148
    2   0.0000837  -0.0006472  -0.0001357   0.0000300   0.0000078  -0.0000430
    3  -0.0000114  -0.0008428   0.0024717  -0.0020338  -0.0001188   0.0000654
            7           8           9          10          11          12
    1  -0.0021704   0.0010182   0.0012807  -0.0004002   0.0000823   0.0000844
    2   0.0002920  -0.0010077   0.0012129  -0.0000862   0.0001851  -0.0000714
    3   0.0011609   0.0008731  -0.0020538   0.0002079  -0.0000212   0.0001550
           13          14          15          16          17          18
    1   0.0000233   0.0001682   0.0002149  -0.0003163  -0.0001563   0.0000478
    2   0.0000079   0.0000783  -0.0000465   0.0002385  -0.0000736   0.0001135
    3  -0.0001698  -0.0000784   0.0000585  -0.0002306   0.0002358   0.0000366
           19          20          21          22
    1  -0.0000271  -0.0002917  -0.0000295   0.0003912
    2  -0.0000097   0.0000287  -0.0000260  -0.0001314
    3  -0.0001408   0.0001356   0.0001307   0.0001702
 Gradient of SCF Energy
            1           2           3           4           5           6
    1  -0.0219486   0.0362209   0.0301248  -0.0028934  -0.0453026   0.0450353
    2   0.0042535  -0.0205031   0.0131067  -0.0020447  -0.0090131   0.0020555
    3   0.0253134  -0.0160834  -0.0056853   0.0065903  -0.0242001  -0.0193880
            7           8           9          10          11          12
    1   0.0105684  -0.0150679  -0.0145119   0.0036758  -0.0010313  -0.0120800
    2   0.0297818  -0.0026330  -0.0414069  -0.0049421  -0.0072054   0.0207040
    3   0.0146031  -0.0107783   0.0024452  -0.0258472   0.0199773  -0.0014889
           13          14          15          16          17          18
    1  -0.0054738  -0.0142339  -0.0175850   0.0123631   0.0154046  -0.0000513
    2   0.0033928  -0.0148416  -0.0178414   0.0096041   0.0337840  -0.0013832
    3   0.0206306   0.0130928  -0.0150468   0.0116929   0.0059287   0.0040027
           19          20          21          22
    1  -0.0014319   0.0216706  -0.0037655  -0.0196864
    2   0.0022403  -0.0033705   0.0010543   0.0052080
    3  -0.0001662   0.0091193  -0.0202790   0.0055670
 Max gradient component =       4.530E-02
 RMS gradient           =       1.733E-02
 Computing fast CPCM-SWIG gradient
 Updating gradient with PCM contributions...
 -- total gradient after adding PCM contribution --
---------------------------------------------------
  Atom         X              Y              Z     
---------------------------------------------------
   1       0.000013       0.000006      -0.000028
   2      -0.000029      -0.000017       0.000029
   3      -0.000023       0.000037      -0.000022
   4      -0.000017      -0.000028       0.000022
   5       0.000001      -0.000004       0.000007
   6       0.000000       0.000019       0.000017
   7       0.000010      -0.000051      -0.000003
   8       0.000044       0.000043      -0.000013
   9      -0.000110      -0.000040      -0.000097
  10       0.000014       0.000001       0.000021
  11      -0.000007       0.000008      -0.000021
  12       0.000012      -0.000018      -0.000012
  13       0.000013       0.000005      -0.000023
  14       0.000003       0.000022      -0.000014
  15      -0.000009       0.000023       0.000012
  16      -0.000024      -0.000024       0.000028
  17       0.000041       0.000029       0.000072
  18      -0.000012      -0.000010      -0.000016
  19      -0.000006      -0.000010       0.000045
  20       0.000041       0.000060       0.000114
  21      -0.000028      -0.000092      -0.000057
  22       0.000072       0.000042      -0.000062
---------------------------------------------------
 Number of fixed atoms: 0
 Gradient time:  CPU 540.38 s  wall 45.49 s
 ######################################################
 ######################################################
 # Starting finite difference calculation for IDERIV  #
 Finite diff step size:  1.88973e-03 a.u.
 ----------------------------------------------------------------
             Standard Nuclear Orientation (Angstroms)
    I     Atom           X                Y                Z
 ----------------------------------------------------------------
    1      O       0.9889815493    -0.4133232738     0.5064653645
    2      C       2.3633144963    -0.2466804327     0.1801266098
    3      C       3.0297607542     0.6881874497     1.1748947109
    4      O       2.5278900850     0.6281110211     2.3693362738
    5      C       4.0761921885     1.4557335787     0.7520580355
    6      C       4.9433946839     2.2889248690     1.6184610193
    7      C       4.2497253373     3.2440551233     2.6017540797
    8      O       3.3740634643     4.0693836365     1.8643615600
    9      O       3.5937609338     2.5737532575     3.6435928789
   10      H       0.9466964409    -0.2447479555     1.4612883296
   11      H       2.4384228972     0.1382863672    -0.8345893332
   12      H       2.8760019178    -1.2135240861     0.2209076008
   13      H       4.3587218055     1.3845655282    -0.2893273893
   14      H       5.6359877043     2.8736125450     1.0177914711
   15      H       4.9818142724     3.9063698528     3.0583931213
   16      H       2.9041681189     3.5011231313     1.2351507771
   17      H       3.1280735749     1.7763647696     3.2401519871
   18      O       5.8133053511     1.3872627392     2.4304578528
   19      O       6.8504669005     2.0086623121     2.9153742199
   20      H       4.7874619997     2.0389338177     4.9372463541
   21      O       5.4190454053     1.7771262833     5.6330095621
   22      H       6.2371878188     1.6107582658     5.1530226143
 ----------------------------------------------------------------
 Nuclear Repulsion Energy =         786.79832224 hartrees
 There are       49 alpha and       48 beta electrons
 Discretize the solute cavity surface with Lebedev spheres
	Using 110 Lebedev grid points for each H atom
	Using 194 Lebedev grid points for other atoms
	Atomic van der Waals radii will be scaled by 1.20
 Remove points where switching function is < 1.0e-08
 Keep 1715 surface tesserae and discard 1713 interior tesserae
 Molecular Surface Area = 193.284 Angst**2
 Requested basis set is 6-311++G(2df,2p)
 There are 156 shells and 508 basis functions
 A cutoff of  1.0D-12 yielded  10172 shell pairs
 There are    106095 function pairs (    131221 Cartesian)
 Smallest overlap matrix eigenvalue = 4.61E-06
 Guess MOs from SCF MO coefficient file

 -----------------------------------------------------------------------
  General SCF calculation program by
  Eric Jon Sundstrom, Paul Horn, Yuezhi Mao, Dmitri Zuev, Alec White,
  David Stuck, Shaama M.S., Shane Yost, Joonho Lee, David Small,
  Daniel Levine, Susi Lehtola, Hugh Burton, Evgeny Epifanovsky,
  Bang C. Huynh
 -----------------------------------------------------------------------
 Exchange:     0.1500 Hartree-Fock + 1.0000 wB97M-V + LR-HF
 Correlation:  1.0000 wB97M-V
 Using SG-2 standard quadrature grid
 Nonlocal Correlation:  VV10 with C = 0.0100 and b = 6.00 and scale = 1.00000
 Grid used for NLC:  SG-1 standard quadrature
 
 Citation of the SMD model:
 Marenich, A.V.; Cramer, C.J.; Truhlar, D.G.
 J. Phys. Chem. B 2009, 113, 6378-6396.
 iSolventCode=           1
 Solvent: water                                                           
 
 vradii
            1           2           3           4           5           6
    1   1.5200000   1.8500000   1.8500000   1.5200000   1.8500000   1.8500000
            7           8           9          10          11          12
    1   1.8500000   1.5200000   1.5200000   1.2000000   1.2000000   1.2000000
           13          14          15          16          17          18
    1   1.2000000   1.2000000   1.2000000   1.2000000   1.2000000   1.5200000
           19          20          21          22
    1   1.5200000   1.2000000   1.5200000   1.2000000
 -------------------------------------------------------
 OpenMP BLAS3 based DFT computing Module                
 Release: version 1.0, May 2013, Q-Chem Inc. Pittsburgh 
 -------------------------------------------------------
 A unrestricted SCF calculation will be
 performed using Roothaan-Hall, DIIS, GDM
 SCF converges when RMS gradient is below 1.0e-07
 ---------------------------------------
  Cycle       Energy         DIIS error
 ---------------------------------------
    1    -723.0760988550      1.79e-04  Roothaan Step
 ---------------------------------------
  Cycle       Energy         DIIS error
 ---------------------------------------
    1    -723.1707268023      2.03e-04  
    2    -723.1757836921      1.96e-04  Done DIIS. Switching to GDM
 ---------------------------------------
  Cycle       Energy        RMS Gradient
 ---------------------------------------
    1    -723.1757836921      1.01e-02   Normal BFGS step
    2    -723.1747821536      1.79e-02  Line search: overstep
    3    -723.1790557098      2.79e-03   Normal BFGS step
    4    -723.1792504932      1.49e-03   Normal BFGS step
    5    -723.1792867580      8.25e-04   Normal BFGS step
    6    -723.1792982512      2.25e-04   Normal BFGS step
    7    -723.1792989630      2.63e-04   Normal BFGS step
    8    -723.1792994749      1.01e-04   Normal BFGS step
    9    -723.1792995379      5.15e-05   Normal BFGS step
   10    -723.1792995646      4.56e-05   Normal BFGS step
   11    -723.1792995705      3.60e-05   Normal BFGS step
   12    -723.1792995740      2.51e-05   Normal BFGS step
   13    -723.1792995765      1.42e-05   Normal BFGS step
   14    -723.1792995777      7.52e-06   Normal BFGS step
   15    -723.1792995784      4.85e-06   Normal BFGS step
   16    -723.1792995788      2.73e-06   Normal BFGS step
   17    -723.1792995789      1.09e-06   Normal BFGS step
   18    -723.1792995789      5.25e-07   Normal BFGS step
   19    -723.1792995789      2.35e-07   Normal BFGS step
   20    -723.1792995789      9.48e-08  Convergence criterion met
 ---------------------------------------
 SCF time:   CPU 4144.51s  wall 286.00s 
<S^2> =          0.754159957
(3)  G-ENP(liq) elect-nuc-pol free energy of system     -723.179299579 a.u.
(4)  G-CDS(liq) cavity-dispersion-solvent structure 
     free energy                                                3.5912 kcal/mol
(6)  G-S(liq) free energy of system                     -723.173576591 a.u.
 SCF   energy in the final basis set =     -723.1735765911
 Total energy in the final basis set =     -723.1735765911
 
 --------------------------------------------------------------
 
                    Orbital Energies (a.u.)
 --------------------------------------------------------------
 
 Alpha MOs
 -- Occupied --
-19.4546 -19.4085 -19.3411 -19.3279 -19.3242 -19.3180 -19.2891 -10.4411
-10.4016 -10.3961 -10.3755 -10.3065  -1.3333  -1.1928  -1.1573  -1.1297
 -1.1217  -1.1074  -1.0074  -0.8840  -0.8385  -0.7916  -0.7348  -0.6602
 -0.6564  -0.6383  -0.6268  -0.6224  -0.6072  -0.6019  -0.5769  -0.5684
 -0.5634  -0.5251  -0.5059  -0.4992  -0.4891  -0.4839  -0.4731  -0.4509
 -0.4363  -0.4228  -0.4196  -0.3994  -0.3992  -0.3883  -0.3782  -0.3514
 -0.2985
 -- Virtual --
  0.0276   0.0394   0.0434   0.0460   0.0608   0.0615   0.0670   0.0712
  0.0882   0.0957   0.1019   0.1055   0.1214   0.1221   0.1308   0.1412
  0.1431   0.1542   0.1579   0.1604   0.1679   0.1724   0.1753   0.1813
  0.1835   0.1956   0.1996   0.2077   0.2090   0.2161   0.2237   0.2385
  0.2457   0.2480   0.2528   0.2634   0.2741   0.2745   0.2817   0.2871
  0.2891   0.2937   0.3018   0.3085   0.3135   0.3173   0.3183   0.3263
  0.3302   0.3390   0.3432   0.3515   0.3552   0.3593   0.3627   0.3705
  0.3714   0.3763   0.3796   0.3849   0.3905   0.3911   0.3997   0.4042
  0.4084   0.4156   0.4245   0.4327   0.4448   0.4510   0.4617   0.4739
  0.4773   0.4853   0.4982   0.5144   0.5210   0.5476   0.5682   0.5816
  0.5940   0.6059   0.6122   0.6214   0.6288   0.6413   0.6573   0.6632
  0.6693   0.6759   0.6765   0.6880   0.6944   0.7085   0.7309   0.7347
  0.7460   0.7487   0.7613   0.7654   0.7705   0.7999   0.8145   0.8250
  0.8351   0.8449   0.8594   0.8690   0.8781   0.8816   0.8895   0.9060
  0.9176   0.9488   0.9550   0.9716   0.9798   1.0096   1.0195   1.0295
  1.0371   1.0423   1.0604   1.0770   1.0904   1.0948   1.1030   1.1122
  1.1312   1.1388   1.1482   1.1553   1.1655   1.1809   1.1849   1.1909
  1.2048   1.2064   1.2087   1.2327   1.2370   1.2443   1.2506   1.2595
  1.2683   1.2838   1.2907   1.2959   1.3094   1.3146   1.3182   1.3221
  1.3363   1.3506   1.3632   1.3774   1.3922   1.4081   1.4165   1.4239
  1.4486   1.4499   1.4572   1.4763   1.4843   1.4892   1.5025   1.5115
  1.5318   1.5419   1.5623   1.5727   1.5784   1.5833   1.5963   1.6013
  1.6249   1.6334   1.6477   1.6667   1.6729   1.6893   1.7077   1.7315
  1.7441   1.7590   1.7786   1.7828   1.8152   1.8177   1.8405   1.8635
  1.9072   1.9171   1.9404   1.9546   1.9681   2.0074   2.0388   2.0548
  2.0729   2.1264   2.1334   2.1613   2.1834   2.1931   2.2151   2.2199
  2.2498   2.2769   2.3009   2.3168   2.3264   2.3672   2.3791   2.3899
  2.4131   2.4288   2.4348   2.4620   2.4975   2.5151   2.5399   2.5629
  2.5895   2.6312   2.6898   2.7001   2.7117   2.7362   2.7519   2.7788
  2.8244   2.8403   2.8637   2.8741   2.9033   2.9119   2.9519   2.9596
  2.9868   3.0113   3.0199   3.0365   3.0706   3.0825   3.0947   3.1221
  3.1402   3.1556   3.1817   3.1916   3.2225   3.2268   3.2638   3.3180
  3.3272   3.3551   3.3763   3.3962   3.4152   3.4383   3.4419   3.4487
  3.4659   3.4839   3.5000   3.5226   3.5364   3.5558   3.5785   3.6064
  3.6395   3.6506   3.6712   3.6929   3.7053   3.7113   3.7305   3.7409
  3.7561   3.7653   3.7691   3.7923   3.8104   3.8200   3.8427   3.8536
  3.8563   3.8640   3.8774   3.8854   3.9113   3.9138   3.9353   3.9566
  3.9808   4.0151   4.0381   4.0438   4.0617   4.0854   4.1060   4.1402
  4.1560   4.1694   4.1984   4.2139   4.2371   4.2449   4.2855   4.2918
  4.2978   4.3004   4.3431   4.3685   4.3701   4.4109   4.4340   4.4617
  4.4719   4.4792   4.5116   4.5180   4.5559   4.5655   4.5921   4.6123
  4.6398   4.6577   4.6812   4.7328   4.7458   4.7612   4.7806   4.8604
  4.9193   4.9329   5.0332   5.0955   5.1017   5.1149   5.1205   5.1347
  5.1737   5.1858   5.2172   5.2302   5.2514   5.2521   5.2624   5.2705
  5.2766   5.2818   5.2933   5.3186   5.3203   5.3389   5.3561   5.3572
  5.3782   5.3900   5.4010   5.4227   5.4329   5.4409   5.4480   5.4724
  5.4967   5.5284   5.5368   5.5455   5.5621   5.5867   5.5944   5.6026
  5.6139   5.6203   5.6293   5.6579   5.6780   5.6976   5.7261   5.7281
  5.7324   5.7715   5.8063   5.8220   5.8325   5.8646   5.8849   5.9111
  5.9652   6.0129   6.0340   6.1225   6.1800   6.1990   6.4053   6.4844
  6.5894   6.6074   6.6276   6.6575   6.7911   6.8678   6.9074   6.9928
  7.0225   7.0427   7.0706   7.0978   7.1132   7.1249   7.1411   7.1459
  7.1907   7.2147   7.2313   7.2555   7.2819   7.2986   7.3224   7.3396
  7.3649   7.3741   7.4060   7.4223   7.4312   7.4499   7.4686   7.4765
  7.5125   7.5175   7.5727   7.6030   7.6490   7.7046   7.7568   7.7723
  7.8085   7.8295   7.8746   7.9185   7.9872   8.0591   8.1193  24.6026
 24.7173  24.7809  24.8391  25.2309  50.4492  50.5251  50.5554  50.6059
 50.6296  50.6842  50.7771
 
 Beta MOs
 -- Occupied --
-19.4434 -19.3905 -19.3411 -19.3279 -19.3242 -19.3180 -19.2890 -10.4408
-10.4020 -10.3961 -10.3755 -10.3065  -1.3066  -1.1925  -1.1573  -1.1295
 -1.1215  -1.1074  -0.9796  -0.8761  -0.8333  -0.7910  -0.7319  -0.6567
 -0.6435  -0.6288  -0.6258  -0.6169  -0.6008  -0.5859  -0.5710  -0.5625
 -0.5366  -0.5185  -0.5036  -0.4944  -0.4875  -0.4748  -0.4724  -0.4480
 -0.4358  -0.4203  -0.4097  -0.3991  -0.3852  -0.3794  -0.3522  -0.2973
 -- Virtual --
 -0.0261   0.0278   0.0396   0.0438   0.0462   0.0612   0.0619   0.0672
  0.0713   0.0884   0.0973   0.1023   0.1056   0.1223   0.1229   0.1311
  0.1415   0.1434   0.1546   0.1580   0.1615   0.1681   0.1734   0.1766
  0.1816   0.1843   0.1959   0.2019   0.2084   0.2095   0.2164   0.2244
  0.2390   0.2473   0.2518   0.2565   0.2642   0.2751   0.2771   0.2821
  0.2882   0.2909   0.2960   0.3040   0.3091   0.3141   0.3184   0.3208
  0.3266   0.3308   0.3392   0.3439   0.3530   0.3557   0.3599   0.3635
  0.3714   0.3719   0.3767   0.3828   0.3861   0.3906   0.3917   0.4011
  0.4046   0.4100   0.4164   0.4249   0.4336   0.4455   0.4518   0.4624
  0.4749   0.4778   0.4862   0.4986   0.5154   0.5212   0.5477   0.5684
  0.5820   0.5941   0.6061   0.6128   0.6218   0.6289   0.6416   0.6585
  0.6634   0.6695   0.6762   0.6768   0.6884   0.6952   0.7090   0.7311
  0.7348   0.7464   0.7487   0.7616   0.7656   0.7713   0.8003   0.8152
  0.8253   0.8355   0.8456   0.8595   0.8693   0.8782   0.8820   0.8900
  0.9071   0.9190   0.9502   0.9553   0.9720   0.9803   1.0102   1.0208
  1.0303   1.0381   1.0451   1.0617   1.0776   1.0911   1.0966   1.1056
  1.1163   1.1319   1.1403   1.1497   1.1562   1.1678   1.1822   1.1871
  1.1963   1.2072   1.2099   1.2148   1.2354   1.2408   1.2518   1.2562
  1.2622   1.2710   1.2875   1.2923   1.2985   1.3111   1.3170   1.3197
  1.3281   1.3379   1.3516   1.3638   1.3790   1.3941   1.4096   1.4172
  1.4252   1.4499   1.4518   1.4587   1.4785   1.4854   1.4914   1.5074
  1.5141   1.5350   1.5473   1.5629   1.5738   1.5804   1.5865   1.5970
  1.6054   1.6279   1.6342   1.6500   1.6691   1.6808   1.6957   1.7129
  1.7431   1.7453   1.7615   1.7861   1.7915   1.8183   1.8239   1.8440
  1.8659   1.9083   1.9212   1.9455   1.9567   1.9694   2.0090   2.0401
  2.0602   2.0780   2.1271   2.1368   2.1622   2.1858   2.2000   2.2165
  2.2235   2.2522   2.2826   2.3065   2.3282   2.3291   2.3680   2.3803
  2.3934   2.4140   2.4326   2.4374   2.4635   2.4981   2.5160   2.5412
  2.5635   2.5905   2.6320   2.6914   2.7009   2.7131   2.7420   2.7522
  2.7799   2.8252   2.8407   2.8644   2.8745   2.9042   2.9125   2.9520
  2.9596   2.9870   3.0115   3.0202   3.0367   3.0708   3.0830   3.0951
  3.1223   3.1409   3.1559   3.1820   3.1920   3.2230   3.2269   3.2638
  3.3183   3.3279   3.3553   3.3769   3.3962   3.4154   3.4386   3.4424
  3.4491   3.4661   3.4845   3.5001   3.5231   3.5366   3.5562   3.5785
  3.6069   3.6396   3.6509   3.6721   3.6934   3.7059   3.7120   3.7308
  3.7409   3.7561   3.7656   3.7694   3.7925   3.8105   3.8199   3.8430
  3.8537   3.8566   3.8642   3.8777   3.8855   3.9120   3.9143   3.9358
  3.9570   3.9813   4.0153   4.0387   4.0440   4.0623   4.0855   4.1062
  4.1403   4.1561   4.1697   4.1991   4.2146   4.2376   4.2456   4.2856
  4.2921   4.2985   4.3014   4.3433   4.3688   4.3703   4.4115   4.4347
  4.4632   4.4726   4.4803   4.5133   4.5192   4.5561   4.5659   4.5953
  4.6184   4.6455   4.6700   4.6870   4.7343   4.7505   4.7754   4.7844
  4.8635   4.9394   4.9441   5.0478   5.1088   5.1194   5.1410   5.1633
  5.1753   5.1846   5.2055   5.2281   5.2503   5.2526   5.2604   5.2654
  5.2789   5.2928   5.3103   5.3180   5.3206   5.3252   5.3409   5.3591
  5.3638   5.3805   5.3946   5.4084   5.4237   5.4424   5.4443   5.4599
  5.4765   5.5007   5.5315   5.5453   5.5527   5.5634   5.5870   5.5954
  5.6043   5.6167   5.6217   5.6339   5.6601   5.6802   5.6979   5.7283
  5.7338   5.7378   5.7802   5.8071   5.8302   5.8376   5.8677   5.8859
  5.9117   5.9655   6.0133   6.0353   6.1235   6.1808   6.1995   6.4191
  6.5292   6.5965   6.6077   6.6328   6.6603   6.7924   6.9454   6.9826
  7.0161   7.0387   7.0627   7.0769   7.0982   7.1252   7.1399   7.1419
  7.1577   7.1926   7.2267   7.2457   7.2634   7.2915   7.3201   7.3226
  7.3539   7.3654   7.3754   7.4089   7.4232   7.4430   7.4667   7.4716
  7.5022   7.5157   7.5279   7.5741   7.6030   7.6499   7.7048   7.7571
  7.7730   7.8124   7.8398   7.8751   7.9190   7.9874   8.0738   8.1378
 24.6025  24.7172  24.7809  24.8392  25.2309  50.4613  50.5254  50.5652
 50.6059  50.6296  50.6845  50.7772
 --------------------------------------------------------------
 
          Ground-State Mulliken Net Atomic Charges

     Atom                 Charge (a.u.)    Spin (a.u.)
  --------------------------------------------------------
      1 O                    -0.458536      -0.000020
      2 C                    -0.433144      -0.000737
      3 C                     0.276692       0.003710
      4 O                    -0.706549       0.001388
      5 C                    -0.247570      -0.000456
      6 C                    -0.438976      -0.004027
      7 C                    -0.252684       0.010201
      8 O                    -0.414438       0.001339
      9 O                    -0.476777       0.002610
     10 H                     0.334759       0.000062
     11 H                     0.195670       0.000157
     12 H                     0.189434      -0.000126
     13 H                     0.272134      -0.000282
     14 H                     0.323562       0.005235
     15 H                     0.272740       0.000049
     16 H                     0.326951       0.000105
     17 H                     0.409852      -0.000691
     18 O                     0.087371       0.340131
     19 O                    -0.250685       0.641122
     20 H                     0.420931      -0.002703
     21 O                    -0.747540       0.002387
     22 H                     0.316804       0.000544
  --------------------------------------------------------
  Sum of atomic charges =    -1.000000
  Sum of spin   charges =     1.000000

 -----------------------------------------------------------------
                    Cartesian Multipole Moments
 -----------------------------------------------------------------
    Charge (ESU x 10^10)
                -4.8032
    Dipole Moment (Debye)
         X     -15.9251      Y      -6.9922      Z     -17.1586
       Tot      24.4319
    Quadrupole Moments (Debye-Ang)
        XX    -147.0775     XY     -28.1618     YY     -99.2533
        XZ     -73.2947     YZ     -31.4727     ZZ    -150.7106
    Octopole Moments (Debye-Ang^2)
       XXX   -1260.9883    XXY    -240.5974    XYY    -371.5408
       YYY    -463.2192    XXZ    -498.6795    XYZ    -129.0326
       YYZ    -244.3065    XZZ    -638.3291    YZZ    -263.5802
       ZZZ    -883.6253
    Hexadecapole Moments (Debye-Ang^3)
      XXXX  -10298.9499   XXXY   -2238.0659   XXYY   -1956.2692
      XYYY   -1954.3348   YYYY   -2478.2393   XXXZ   -3874.3435
      XXYZ    -914.3894   XYYZ   -1033.9693   YYYZ   -1244.3553
      XXZZ   -3506.5048   XYZZ   -1179.9586   YYZZ   -1204.9719
      XZZZ   -4090.7792   YZZZ   -1717.4183   ZZZZ   -5491.4302
 -----------------------------------------------------------------
 Calculating analytic gradient of the SCF energy
 Gradient of CDS energy
            1           2           3           4           5           6
    1   0.0001000  -0.0003497  -0.0008393   0.0009176   0.0001377   0.0001148
    2   0.0000839  -0.0006470  -0.0001357   0.0000300   0.0000078  -0.0000430
    3  -0.0000119  -0.0008422   0.0024716  -0.0020338  -0.0001188   0.0000654
            7           8           9          10          11          12
    1  -0.0021704   0.0010182   0.0012807  -0.0004004   0.0000823   0.0000840
    2   0.0002920  -0.0010077   0.0012129  -0.0000863   0.0001851  -0.0000717
    3   0.0011609   0.0008731  -0.0020538   0.0002077  -0.0000212   0.0001552
           13          14          15          16          17          18
    1   0.0000233   0.0001682   0.0002149  -0.0003163  -0.0001563   0.0000478
    2   0.0000079   0.0000783  -0.0000465   0.0002385  -0.0000736   0.0001135
    3  -0.0001698  -0.0000784   0.0000585  -0.0002306   0.0002358   0.0000366
           19          20          21          22
    1  -0.0000271  -0.0002917  -0.0000295   0.0003912
    2  -0.0000097   0.0000287  -0.0000260  -0.0001314
    3  -0.0001408   0.0001356   0.0001307   0.0001702
 Gradient of SCF Energy
            1           2           3           4           5           6
    1  -0.0214237   0.0358605   0.0300678  -0.0028905  -0.0453024   0.0450446
    2   0.0043150  -0.0205521   0.0130947  -0.0020465  -0.0090150   0.0020585
    3   0.0251951  -0.0160589  -0.0056779   0.0065927  -0.0242192  -0.0193872
            7           8           9          10          11          12
    1   0.0105697  -0.0150689  -0.0145120   0.0036436  -0.0010508  -0.0121363
    2   0.0297805  -0.0026343  -0.0414099  -0.0049392  -0.0072118   0.0207105
    3   0.0146056  -0.0107803   0.0024444  -0.0257846   0.0199916  -0.0014756
           13          14          15          16          17          18
    1  -0.0054766  -0.0142383  -0.0175872   0.0123627   0.0154043  -0.0000515
    2   0.0033963  -0.0148450  -0.0178438   0.0096063   0.0337863  -0.0013831
    3   0.0206386   0.0130957  -0.0150484   0.0116952   0.0059298   0.0040030
           19          20          21          22
    1  -0.0014335   0.0216717  -0.0037645  -0.0196885
    2   0.0022406  -0.0033706   0.0010543   0.0052084
    3  -0.0001672   0.0091213  -0.0202820   0.0055683
 Max gradient component =       4.530E-02
 RMS gradient           =       1.731E-02
 Computing fast CPCM-SWIG gradient
 Updating gradient with PCM contributions...
 -- total gradient after adding PCM contribution --
---------------------------------------------------
  Atom         X              Y              Z     
---------------------------------------------------
   1       0.000666       0.000077      -0.000135
   2      -0.000431      -0.000056       0.000043
   3      -0.000092       0.000025      -0.000014
   4      -0.000018      -0.000032       0.000027
   5      -0.000005      -0.000015      -0.000006
   6       0.000003       0.000017       0.000023
   7       0.000008      -0.000051      -0.000003
   8       0.000044       0.000042      -0.000014
   9      -0.000109      -0.000040      -0.000098
  10      -0.000063       0.000002       0.000082
  11      -0.000032      -0.000001      -0.000009
  12      -0.000057      -0.000017       0.000004
  13       0.000012       0.000006      -0.000022
  14       0.000002       0.000022      -0.000015
  15      -0.000009       0.000022       0.000012
  16      -0.000024      -0.000023       0.000028
  17       0.000041       0.000030       0.000074
  18      -0.000012      -0.000010      -0.000017
  19      -0.000007      -0.000010       0.000044
  20       0.000041       0.000059       0.000114
  21      -0.000028      -0.000092      -0.000057
  22       0.000072       0.000042      -0.000062
---------------------------------------------------
 Number of fixed atoms: 0
 Gradient time:  CPU 514.95 s  wall 43.42 s
 ----------------------------------------------------------------
             Standard Nuclear Orientation (Angstroms)
    I     Atom           X                Y                Z
 ----------------------------------------------------------------
    1      O       0.9869815493    -0.4133232738     0.5064653645
    2      C       2.3633144963    -0.2466804327     0.1801266098
    3      C       3.0297607542     0.6881874497     1.1748947109
    4      O       2.5278900850     0.6281110211     2.3693362738
    5      C       4.0761921885     1.4557335787     0.7520580355
    6      C       4.9433946839     2.2889248690     1.6184610193
    7      C       4.2497253373     3.2440551233     2.6017540797
    8      O       3.3740634643     4.0693836365     1.8643615600
    9      O       3.5937609338     2.5737532575     3.6435928789
   10      H       0.9466964409    -0.2447479555     1.4612883296
   11      H       2.4384228972     0.1382863672    -0.8345893332
   12      H       2.8760019178    -1.2135240861     0.2209076008
   13      H       4.3587218055     1.3845655282    -0.2893273893
   14      H       5.6359877043     2.8736125450     1.0177914711
   15      H       4.9818142724     3.9063698528     3.0583931213
   16      H       2.9041681189     3.5011231313     1.2351507771
   17      H       3.1280735749     1.7763647696     3.2401519871
   18      O       5.8133053511     1.3872627392     2.4304578528
   19      O       6.8504669005     2.0086623121     2.9153742199
   20      H       4.7874619997     2.0389338177     4.9372463541
   21      O       5.4190454053     1.7771262833     5.6330095621
   22      H       6.2371878188     1.6107582658     5.1530226143
 ----------------------------------------------------------------
 Nuclear Repulsion Energy =         786.74400082 hartrees
 There are       49 alpha and       48 beta electrons
 Discretize the solute cavity surface with Lebedev spheres
	Using 110 Lebedev grid points for each H atom
	Using 194 Lebedev grid points for other atoms
	Atomic van der Waals radii will be scaled by 1.20
 Remove points where switching function is < 1.0e-08
 Keep 1715 surface tesserae and discard 1713 interior tesserae
 Molecular Surface Area = 193.300 Angst**2
 Requested basis set is 6-311++G(2df,2p)
 There are 156 shells and 508 basis functions
 A cutoff of  1.0D-12 yielded  10171 shell pairs
 There are    106070 function pairs (    131185 Cartesian)
 Smallest overlap matrix eigenvalue = 4.61E-06
 Guess MOs from SCF MO coefficient file

 -----------------------------------------------------------------------
  General SCF calculation program by
  Eric Jon Sundstrom, Paul Horn, Yuezhi Mao, Dmitri Zuev, Alec White,
  David Stuck, Shaama M.S., Shane Yost, Joonho Lee, David Small,
  Daniel Levine, Susi Lehtola, Hugh Burton, Evgeny Epifanovsky,
  Bang C. Huynh
 -----------------------------------------------------------------------
 Exchange:     0.1500 Hartree-Fock + 1.0000 wB97M-V + LR-HF
 Correlation:  1.0000 wB97M-V
 Using SG-2 standard quadrature grid
 Nonlocal Correlation:  VV10 with C = 0.0100 and b = 6.00 and scale = 1.00000
 Grid used for NLC:  SG-1 standard quadrature
 
 Citation of the SMD model:
 Marenich, A.V.; Cramer, C.J.; Truhlar, D.G.
 J. Phys. Chem. B 2009, 113, 6378-6396.
 iSolventCode=           1
 Solvent: water                                                           
 
 vradii
            1           2           3           4           5           6
    1   1.5200000   1.8500000   1.8500000   1.5200000   1.8500000   1.8500000
            7           8           9          10          11          12
    1   1.8500000   1.5200000   1.5200000   1.2000000   1.2000000   1.2000000
           13          14          15          16          17          18
    1   1.2000000   1.2000000   1.2000000   1.2000000   1.2000000   1.5200000
           19          20          21          22
    1   1.5200000   1.2000000   1.5200000   1.2000000
 -------------------------------------------------------
 OpenMP BLAS3 based DFT computing Module                
 Release: version 1.0, May 2013, Q-Chem Inc. Pittsburgh 
 -------------------------------------------------------
 A unrestricted SCF calculation will be
 performed using Roothaan-Hall, DIIS, GDM
 SCF converges when RMS gradient is below 1.0e-07
 ---------------------------------------
  Cycle       Energy         DIIS error
 ---------------------------------------
    1    -723.0760978991      1.79e-04  Roothaan Step
 ---------------------------------------
  Cycle       Energy         DIIS error
 ---------------------------------------
    1    -723.1707213233      2.03e-04  
    2    -723.1757831669      1.96e-04  Done DIIS. Switching to GDM
 ---------------------------------------
  Cycle       Energy        RMS Gradient
 ---------------------------------------
    1    -723.1757831669      1.01e-02   Normal BFGS step
    2    -723.1747834266      1.79e-02  Line search: overstep
    3    -723.1790550944      2.80e-03   Normal BFGS step
    4    -723.1792501505      1.49e-03   Normal BFGS step
    5    -723.1792864150      8.31e-04   Normal BFGS step
    6    -723.1792979394      2.25e-04   Normal BFGS step
    7    -723.1792986526      2.64e-04   Normal BFGS step
    8    -723.1792991644      1.01e-04   Normal BFGS step
    9    -723.1792992275      5.12e-05   Normal BFGS step
   10    -723.1792992542      4.53e-05   Normal BFGS step
   11    -723.1792992600      3.57e-05   Normal BFGS step
   12    -723.1792992635      2.50e-05   Normal BFGS step
   13    -723.1792992660      1.42e-05   Normal BFGS step
   14    -723.1792992672      7.49e-06   Normal BFGS step
   15    -723.1792992679      4.86e-06   Normal BFGS step
   16    -723.1792992683      2.73e-06   Normal BFGS step
   17    -723.1792992684      1.09e-06   Normal BFGS step
   18    -723.1792992684      5.27e-07   Normal BFGS step
   19    -723.1792992684      2.36e-07   Normal BFGS step
   20    -723.1792992684      9.49e-08  Convergence criterion met
 ---------------------------------------
 SCF time:   CPU 4080.71s  wall 282.00s 
<S^2> =          0.754159907
(3)  G-ENP(liq) elect-nuc-pol free energy of system     -723.179299268 a.u.
(4)  G-CDS(liq) cavity-dispersion-solvent structure 
     free energy                                                3.5910 kcal/mol
(6)  G-S(liq) free energy of system                     -723.173576646 a.u.
 SCF   energy in the final basis set =     -723.1735766456
 Total energy in the final basis set =     -723.1735766456
 
 --------------------------------------------------------------
 
                    Orbital Energies (a.u.)
 --------------------------------------------------------------
 
 Alpha MOs
 -- Occupied --
-19.4546 -19.4085 -19.3411 -19.3280 -19.3242 -19.3180 -19.2891 -10.4411
-10.4016 -10.3961 -10.3757 -10.3065  -1.3334  -1.1928  -1.1570  -1.1297
 -1.1217  -1.1074  -1.0074  -0.8840  -0.8385  -0.7916  -0.7348  -0.6601
 -0.6564  -0.6383  -0.6267  -0.6224  -0.6072  -0.6019  -0.5768  -0.5684
 -0.5633  -0.5249  -0.5059  -0.4993  -0.4891  -0.4839  -0.4731  -0.4509
 -0.4364  -0.4228  -0.4196  -0.3994  -0.3992  -0.3884  -0.3783  -0.3514
 -0.2985
 -- Virtual --
  0.0276   0.0394   0.0434   0.0460   0.0608   0.0615   0.0670   0.0712
  0.0882   0.0957   0.1019   0.1055   0.1214   0.1221   0.1308   0.1412
  0.1431   0.1542   0.1579   0.1604   0.1679   0.1724   0.1753   0.1813
  0.1835   0.1956   0.1996   0.2076   0.2090   0.2161   0.2237   0.2386
  0.2457   0.2480   0.2528   0.2634   0.2738   0.2745   0.2816   0.2871
  0.2891   0.2937   0.3018   0.3085   0.3135   0.3173   0.3183   0.3263
  0.3302   0.3390   0.3432   0.3515   0.3551   0.3592   0.3626   0.3704
  0.3713   0.3762   0.3796   0.3849   0.3904   0.3911   0.3997   0.4042
  0.4083   0.4155   0.4244   0.4327   0.4448   0.4510   0.4617   0.4739
  0.4772   0.4853   0.4982   0.5144   0.5209   0.5476   0.5682   0.5816
  0.5939   0.6059   0.6121   0.6214   0.6286   0.6413   0.6573   0.6631
  0.6693   0.6759   0.6764   0.6880   0.6944   0.7085   0.7309   0.7346
  0.7459   0.7486   0.7613   0.7653   0.7705   0.7999   0.8145   0.8250
  0.8352   0.8449   0.8594   0.8690   0.8781   0.8815   0.8895   0.9060
  0.9176   0.9488   0.9549   0.9715   0.9797   1.0096   1.0195   1.0295
  1.0371   1.0423   1.0604   1.0770   1.0904   1.0948   1.1031   1.1122
  1.1312   1.1387   1.1481   1.1553   1.1655   1.1809   1.1849   1.1909
  1.2048   1.2064   1.2087   1.2327   1.2370   1.2443   1.2506   1.2595
  1.2682   1.2838   1.2907   1.2959   1.3094   1.3145   1.3181   1.3220
  1.3363   1.3506   1.3632   1.3773   1.3921   1.4080   1.4163   1.4239
  1.4486   1.4499   1.4571   1.4763   1.4842   1.4892   1.5025   1.5114
  1.5318   1.5419   1.5622   1.5726   1.5784   1.5832   1.5963   1.6012
  1.6247   1.6335   1.6477   1.6667   1.6729   1.6893   1.7078   1.7315
  1.7441   1.7590   1.7786   1.7828   1.8152   1.8177   1.8404   1.8633
  1.9072   1.9171   1.9403   1.9546   1.9679   2.0075   2.0388   2.0547
  2.0729   2.1259   2.1334   2.1612   2.1834   2.1928   2.2148   2.2199
  2.2496   2.2769   2.3007   2.3167   2.3261   2.3665   2.3790   2.3898
  2.4129   2.4287   2.4348   2.4619   2.4975   2.5150   2.5398   2.5627
  2.5895   2.6310   2.6898   2.7001   2.7116   2.7361   2.7519   2.7788
  2.8244   2.8401   2.8636   2.8741   2.9031   2.9116   2.9518   2.9595
  2.9868   3.0112   3.0200   3.0364   3.0705   3.0824   3.0945   3.1219
  3.1401   3.1555   3.1815   3.1915   3.2222   3.2267   3.2635   3.3178
  3.3272   3.3545   3.3763   3.3960   3.4147   3.4382   3.4419   3.4485
  3.4658   3.4838   3.4998   3.5225   3.5364   3.5557   3.5785   3.6063
  3.6394   3.6505   3.6712   3.6929   3.7053   3.7112   3.7304   3.7408
  3.7561   3.7653   3.7686   3.7921   3.8104   3.8198   3.8427   3.8535
  3.8561   3.8640   3.8773   3.8852   3.9113   3.9138   3.9350   3.9565
  3.9808   4.0151   4.0380   4.0438   4.0616   4.0854   4.1060   4.1400
  4.1558   4.1693   4.1983   4.2138   4.2370   4.2448   4.2855   4.2918
  4.2976   4.3004   4.3431   4.3684   4.3701   4.4103   4.4339   4.4615
  4.4719   4.4789   4.5116   4.5179   4.5558   4.5654   4.5921   4.6123
  4.6398   4.6577   4.6811   4.7329   4.7458   4.7611   4.7806   4.8604
  4.9193   4.9329   5.0332   5.0955   5.1017   5.1149   5.1205   5.1346
  5.1737   5.1859   5.2172   5.2302   5.2514   5.2521   5.2622   5.2704
  5.2766   5.2817   5.2933   5.3186   5.3203   5.3389   5.3560   5.3572
  5.3778   5.3899   5.4010   5.4222   5.4327   5.4405   5.4479   5.4721
  5.4967   5.5283   5.5368   5.5455   5.5620   5.5867   5.5945   5.6024
  5.6136   5.6197   5.6292   5.6578   5.6780   5.6970   5.7261   5.7280
  5.7320   5.7714   5.8061   5.8219   5.8324   5.8644   5.8849   5.9099
  5.9632   6.0099   6.0329   6.1225   6.1800   6.1989   6.4053   6.4844
  6.5894   6.6022   6.6275   6.6572   6.7911   6.8678   6.9074   6.9928
  7.0225   7.0427   7.0705   7.0977   7.1132   7.1248   7.1410   7.1457
  7.1907   7.2146   7.2313   7.2554   7.2819   7.2986   7.3225   7.3396
  7.3635   7.3742   7.4059   7.4223   7.4312   7.4499   7.4686   7.4765
  7.5125   7.5175   7.5727   7.6006   7.6490   7.7046   7.7568   7.7722
  7.8084   7.8294   7.8746   7.9185   7.9872   8.0591   8.1193  24.6025
 24.7172  24.7779  24.8390  25.2308  50.4492  50.5251  50.5554  50.6051
 50.6295  50.6842  50.7771
 
 Beta MOs
 -- Occupied --
-19.4434 -19.3905 -19.3411 -19.3280 -19.3242 -19.3180 -19.2890 -10.4408
-10.4020 -10.3962 -10.3757 -10.3065  -1.3066  -1.1925  -1.1570  -1.1295
 -1.1215  -1.1073  -0.9796  -0.8761  -0.8333  -0.7910  -0.7319  -0.6566
 -0.6435  -0.6288  -0.6257  -0.6169  -0.6007  -0.5859  -0.5710  -0.5624
 -0.5365  -0.5184  -0.5037  -0.4944  -0.4875  -0.4748  -0.4724  -0.4479
 -0.4360  -0.4203  -0.4097  -0.3991  -0.3854  -0.3794  -0.3522  -0.2974
 -- Virtual --
 -0.0261   0.0278   0.0396   0.0438   0.0462   0.0612   0.0619   0.0672
  0.0713   0.0884   0.0972   0.1023   0.1056   0.1222   0.1229   0.1311
  0.1415   0.1434   0.1546   0.1580   0.1615   0.1681   0.1734   0.1766
  0.1816   0.1843   0.1959   0.2019   0.2083   0.2095   0.2164   0.2244
  0.2390   0.2473   0.2517   0.2565   0.2642   0.2748   0.2771   0.2821
  0.2882   0.2909   0.2960   0.3040   0.3091   0.3141   0.3184   0.3208
  0.3266   0.3308   0.3392   0.3439   0.3529   0.3556   0.3598   0.3634
  0.3714   0.3719   0.3766   0.3828   0.3860   0.3906   0.3916   0.4011
  0.4046   0.4098   0.4164   0.4249   0.4335   0.4455   0.4518   0.4624
  0.4749   0.4777   0.4862   0.4986   0.5154   0.5212   0.5477   0.5684
  0.5820   0.5940   0.6061   0.6127   0.6217   0.6288   0.6416   0.6585
  0.6633   0.6695   0.6762   0.6766   0.6884   0.6952   0.7090   0.7311
  0.7347   0.7464   0.7486   0.7615   0.7656   0.7713   0.8003   0.8152
  0.8253   0.8356   0.8457   0.8595   0.8693   0.8783   0.8818   0.8900
  0.9070   0.9189   0.9502   0.9552   0.9719   0.9803   1.0102   1.0208
  1.0303   1.0381   1.0451   1.0617   1.0776   1.0910   1.0966   1.1057
  1.1162   1.1318   1.1402   1.1496   1.1562   1.1677   1.1822   1.1871
  1.1963   1.2072   1.2098   1.2148   1.2353   1.2407   1.2518   1.2562
  1.2622   1.2709   1.2875   1.2923   1.2985   1.3111   1.3169   1.3195
  1.3281   1.3379   1.3515   1.3638   1.3789   1.3939   1.4095   1.4171
  1.4251   1.4499   1.4517   1.4586   1.4784   1.4854   1.4914   1.5073
  1.5140   1.5350   1.5473   1.5629   1.5737   1.5804   1.5864   1.5969
  1.6053   1.6277   1.6343   1.6500   1.6690   1.6808   1.6957   1.7129
  1.7431   1.7453   1.7615   1.7861   1.7915   1.8183   1.8239   1.8440
  1.8658   1.9083   1.9212   1.9455   1.9568   1.9692   2.0091   2.0401
  2.0601   2.0780   2.1266   2.1368   2.1621   2.1857   2.1997   2.2161
  2.2235   2.2519   2.2826   2.3063   2.3282   2.3289   2.3674   2.3801
  2.3933   2.4138   2.4325   2.4373   2.4634   2.4981   2.5159   2.5411
  2.5633   2.5905   2.6318   2.6914   2.7008   2.7131   2.7419   2.7522
  2.7798   2.8252   2.8405   2.8643   2.8745   2.9040   2.9122   2.9519
  2.9596   2.9869   3.0114   3.0202   3.0366   3.0708   3.0829   3.0950
  3.1221   3.1408   3.1559   3.1818   3.1919   3.2227   3.2269   3.2636
  3.3181   3.3278   3.3546   3.3769   3.3960   3.4149   3.4385   3.4423
  3.4489   3.4660   3.4844   3.5000   3.5230   3.5365   3.5561   3.5785
  3.6068   3.6395   3.6509   3.6721   3.6934   3.7059   3.7119   3.7307
  3.7408   3.7560   3.7655   3.7690   3.7923   3.8105   3.8197   3.8430
  3.8536   3.8563   3.8642   3.8776   3.8854   3.9120   3.9143   3.9355
  3.9569   3.9813   4.0153   4.0387   4.0440   4.0623   4.0855   4.1062
  4.1401   4.1559   4.1696   4.1990   4.2145   4.2375   4.2454   4.2857
  4.2921   4.2983   4.3015   4.3432   4.3687   4.3703   4.4110   4.4346
  4.4631   4.4726   4.4801   4.5133   4.5191   4.5560   4.5659   4.5953
  4.6185   4.6455   4.6700   4.6870   4.7343   4.7505   4.7754   4.7844
  4.8635   4.9394   4.9441   5.0478   5.1089   5.1194   5.1410   5.1633
  5.1753   5.1847   5.2055   5.2281   5.2503   5.2526   5.2604   5.2652
  5.2789   5.2928   5.3102   5.3180   5.3206   5.3252   5.3409   5.3589
  5.3638   5.3802   5.3945   5.4083   5.4232   5.4421   5.4441   5.4598
  5.4763   5.5007   5.5314   5.5453   5.5526   5.5633   5.5870   5.5954
  5.6041   5.6162   5.6214   5.6338   5.6600   5.6802   5.6973   5.7283
  5.7334   5.7378   5.7801   5.8070   5.8302   5.8375   5.8675   5.8859
  5.9105   5.9635   6.0103   6.0343   6.1235   6.1807   6.1993   6.4191
  6.5292   6.5962   6.6026   6.6327   6.6600   6.7923   6.9454   6.9826
  7.0161   7.0387   7.0626   7.0768   7.0981   7.1251   7.1397   7.1419
  7.1577   7.1926   7.2266   7.2457   7.2634   7.2915   7.3201   7.3227
  7.3539   7.3641   7.3755   7.4089   7.4231   7.4430   7.4667   7.4715
  7.5022   7.5157   7.5279   7.5741   7.6007   7.6499   7.7048   7.7571
  7.7729   7.8123   7.8398   7.8750   7.9190   7.9873   8.0738   8.1378
 24.6024  24.7171  24.7779  24.8392  25.2308  50.4613  50.5254  50.5652
 50.6051  50.6296  50.6845  50.7772
 --------------------------------------------------------------
 
          Ground-State Mulliken Net Atomic Charges

     Atom                 Charge (a.u.)    Spin (a.u.)
  --------------------------------------------------------
      1 O                    -0.459126      -0.000020
      2 C                    -0.433304      -0.000736
      3 C                     0.276780       0.003710
      4 O                    -0.706352       0.001388
      5 C                    -0.247473      -0.000456
      6 C                    -0.439054      -0.004029
      7 C                    -0.252623       0.010201
      8 O                    -0.414422       0.001339
      9 O                    -0.476763       0.002610
     10 H                     0.334572       0.000062
     11 H                     0.195788       0.000156
     12 H                     0.189771      -0.000126
     13 H                     0.272169      -0.000282
     14 H                     0.323573       0.005236
     15 H                     0.272745       0.000049
     16 H                     0.326946       0.000105
     17 H                     0.409858      -0.000691
     18 O                     0.087382       0.340123
     19 O                    -0.250660       0.641133
     20 H                     0.420930      -0.002703
     21 O                    -0.747541       0.002387
     22 H                     0.316805       0.000544
  --------------------------------------------------------
  Sum of atomic charges =    -1.000000
  Sum of spin   charges =     1.000000

 -----------------------------------------------------------------
                    Cartesian Multipole Moments
 -----------------------------------------------------------------
    Charge (ESU x 10^10)
                -4.8032
    Dipole Moment (Debye)
         X     -15.9125      Y      -6.9907      Z     -17.1601
       Tot      24.4243
    Quadrupole Moments (Debye-Ang)
        XX    -147.0311     XY     -28.1588     YY     -99.2490
        XZ     -73.2888     YZ     -31.4691     ZZ    -150.7093
    Octopole Moments (Debye-Ang^2)
       XXX   -1260.7618    XXY    -240.5731    XYY    -371.4978
       YYY    -463.2011    XXZ    -498.6471    XYZ    -129.0206
       YYZ    -244.3000    XZZ    -638.2967    YZZ    -263.5696
       ZZZ    -883.6187
    Hexadecapole Moments (Debye-Ang^3)
      XXXX  -10297.8960   XXXY   -2237.9124   XXYY   -1956.0980
      XYYY   -1954.2838   YYYY   -2478.1730   XXXZ   -3874.1359
      XXYZ    -914.3233   XYYZ   -1033.9236   YYYZ   -1244.3209
      XXZZ   -3506.3727   XYZZ   -1179.9226   YYZZ   -1204.9471
      XZZZ   -4090.7077   YZZZ   -1717.3872   ZZZZ   -5491.3829
 -----------------------------------------------------------------
 Calculating analytic gradient of the SCF energy
 Gradient of CDS energy
            1           2           3           4           5           6
    1   0.0000949  -0.0003459  -0.0008392   0.0009176   0.0001377   0.0001148
    2   0.0000837  -0.0006478  -0.0001357   0.0000300   0.0000078  -0.0000430
    3  -0.0000115  -0.0008427   0.0024717  -0.0020338  -0.0001188   0.0000654
            7           8           9          10          11          12
    1  -0.0021704   0.0010182   0.0012807  -0.0004001   0.0000823   0.0000849
    2   0.0002920  -0.0010077   0.0012129  -0.0000861   0.0001852  -0.0000710
    3   0.0011609   0.0008731  -0.0020538   0.0002081  -0.0000212   0.0001548
           13          14          15          16          17          18
    1   0.0000233   0.0001682   0.0002149  -0.0003163  -0.0001563   0.0000478
    2   0.0000079   0.0000783  -0.0000465   0.0002385  -0.0000736   0.0001135
    3  -0.0001698  -0.0000784   0.0000585  -0.0002306   0.0002358   0.0000366
           19          20          21          22
    1  -0.0000271  -0.0002917  -0.0000295   0.0003912
    2  -0.0000097   0.0000287  -0.0000260  -0.0001314
    3  -0.0001408   0.0001356   0.0001307   0.0001702
 Gradient of SCF Energy
            1           2           3           4           5           6
    1  -0.0224677   0.0365760   0.0301818  -0.0028962  -0.0453028   0.0450260
    2   0.0041926  -0.0204548   0.0131187  -0.0020428  -0.0090112   0.0020525
    3   0.0254296  -0.0161067  -0.0056928   0.0065879  -0.0241811  -0.0193887
            7           8           9          10          11          12
    1   0.0105670  -0.0150669  -0.0145119   0.0037078  -0.0010117  -0.0120237
    2   0.0297831  -0.0026316  -0.0414040  -0.0049448  -0.0071991   0.0206975
    3   0.0146005  -0.0107764   0.0024460  -0.0259089   0.0199630  -0.0015021
           13          14          15          16          17          18
    1  -0.0054709  -0.0142295  -0.0175829   0.0123634   0.0154049  -0.0000512
    2   0.0033893  -0.0148383  -0.0178390   0.0096019   0.0337817  -0.0013833
    3   0.0206226   0.0130899  -0.0150453   0.0116906   0.0059276   0.0040024
           19          20          21          22
    1  -0.0014303   0.0216696  -0.0037665  -0.0196843
    2   0.0022400  -0.0033704   0.0010543   0.0052075
    3  -0.0001651   0.0091173  -0.0202759   0.0055656
 Max gradient component =       4.530E-02
 RMS gradient           =       1.736E-02
 Computing fast CPCM-SWIG gradient
 Updating gradient with PCM contributions...
 -- total gradient after adding PCM contribution --
---------------------------------------------------
  Atom         X              Y              Z     
---------------------------------------------------
   1      -0.000633      -0.000065       0.000076
   2       0.000367       0.000021       0.000017
   3       0.000046       0.000050      -0.000031
   4      -0.000016      -0.000024       0.000017
   5       0.000007       0.000006       0.000020
   6      -0.000003       0.000021       0.000011
   7       0.000012      -0.000052      -0.000004
   8       0.000043       0.000044      -0.000013
   9      -0.000110      -0.000039      -0.000096
  10       0.000092      -0.000001      -0.000038
  11       0.000018       0.000016      -0.000033
  12       0.000082      -0.000019      -0.000028
  13       0.000013       0.000003      -0.000023
  14       0.000004       0.000023      -0.000014
  15      -0.000009       0.000023       0.000013
  16      -0.000023      -0.000025       0.000027
  17       0.000041       0.000028       0.000071
  18      -0.000011      -0.000010      -0.000015
  19      -0.000005      -0.000010       0.000046
  20       0.000041       0.000060       0.000113
  21      -0.000028      -0.000092      -0.000057
  22       0.000072       0.000042      -0.000062
---------------------------------------------------
 Number of fixed atoms: 0
 Gradient time:  CPU 547.81 s  wall 45.99 s
 ----------------------------------------------------------------
             Standard Nuclear Orientation (Angstroms)
    I     Atom           X                Y                Z
 ----------------------------------------------------------------
    1      O       0.9879815493    -0.4123232738     0.5064653645
    2      C       2.3633144963    -0.2466804327     0.1801266098
    3      C       3.0297607542     0.6881874497     1.1748947109
    4      O       2.5278900850     0.6281110211     2.3693362738
    5      C       4.0761921885     1.4557335787     0.7520580355
    6      C       4.9433946839     2.2889248690     1.6184610193
    7      C       4.2497253373     3.2440551233     2.6017540797
    8      O       3.3740634643     4.0693836365     1.8643615600
    9      O       3.5937609338     2.5737532575     3.6435928789
   10      H       0.9466964409    -0.2447479555     1.4612883296
   11      H       2.4384228972     0.1382863672    -0.8345893332
   12      H       2.8760019178    -1.2135240861     0.2209076008
   13      H       4.3587218055     1.3845655282    -0.2893273893
   14      H       5.6359877043     2.8736125450     1.0177914711
   15      H       4.9818142724     3.9063698528     3.0583931213
   16      H       2.9041681189     3.5011231313     1.2351507771
   17      H       3.1280735749     1.7763647696     3.2401519871
   18      O       5.8133053511     1.3872627392     2.4304578528
   19      O       6.8504669005     2.0086623121     2.9153742199
   20      H       4.7874619997     2.0389338177     4.9372463541
   21      O       5.4190454053     1.7771262833     5.6330095621
   22      H       6.2371878188     1.6107582658     5.1530226143
 ----------------------------------------------------------------
 Nuclear Repulsion Energy =         786.78272453 hartrees
 There are       49 alpha and       48 beta electrons
 Discretize the solute cavity surface with Lebedev spheres
	Using 110 Lebedev grid points for each H atom
	Using 194 Lebedev grid points for other atoms
	Atomic van der Waals radii will be scaled by 1.20
 Remove points where switching function is < 1.0e-08
 Keep 1715 surface tesserae and discard 1713 interior tesserae
 Molecular Surface Area = 193.290 Angst**2
 Requested basis set is 6-311++G(2df,2p)
 There are 156 shells and 508 basis functions
 A cutoff of  1.0D-12 yielded  10172 shell pairs
 There are    106095 function pairs (    131221 Cartesian)
 Smallest overlap matrix eigenvalue = 4.61E-06
 Guess MOs from SCF MO coefficient file

 -----------------------------------------------------------------------
  General SCF calculation program by
  Eric Jon Sundstrom, Paul Horn, Yuezhi Mao, Dmitri Zuev, Alec White,
[...]
 H          0.147  0.074  0.021    0.052  0.022  0.006    0.145  0.072  0.042
 H          0.399  0.314  0.110   -0.044 -0.047 -0.039    0.035  0.064  0.002
 H         -0.130 -0.000 -0.246   -0.038  0.056  0.073    0.574 -0.478  0.235
 H         -0.011 -0.353  0.387   -0.124  0.135  0.053    0.000 -0.198  0.059
 H          0.200 -0.371  0.149   -0.034  0.045 -0.018    0.251 -0.361  0.189
 H          0.027 -0.009  0.138    0.005  0.014 -0.025   -0.051 -0.028  0.200
 O         -0.006  0.001  0.010    0.551  0.343  0.255    0.015  0.025 -0.027
 O         -0.002 -0.001 -0.000   -0.530 -0.326 -0.245   -0.001 -0.005  0.001
 H          0.006 -0.017 -0.000   -0.005 -0.002  0.004    0.001 -0.010 -0.005
 O         -0.001  0.001 -0.001   -0.000  0.001 -0.001    0.000 -0.000  0.001
 H         -0.000 -0.001  0.000    0.002 -0.013  0.007   -0.005  0.003 -0.009
 TransDip   0.027 -0.468  0.299   -0.072 -0.109  0.001   -0.256 -0.086  0.076

 Mode:                40                     41                     42
 Frequency:      1312.00                1325.22                1344.23
 Force Cnst:      1.2049                 1.7584                 1.7919
 Red. Mass:       1.1881                 1.6994                 1.6831
 IR Active:          YES                    YES                    YES
 IR Intens:       20.026                 41.049                103.167
 Raman Active:       YES                    YES                    YES
               X      Y      Z        X      Y      Z        X      Y      Z
 O         -0.035  0.018 -0.040    0.012 -0.003  0.020   -0.001  0.003  0.004
 C         -0.061 -0.064  0.028    0.022  0.018 -0.017   -0.018 -0.013 -0.007
 C          0.018 -0.018  0.016   -0.027 -0.011 -0.011   -0.008 -0.018 -0.020
 O          0.005  0.006 -0.004   -0.001  0.002  0.010   -0.007 -0.005  0.011
 C          0.005  0.010 -0.001    0.009  0.018  0.008    0.025  0.039  0.066
 C          0.016 -0.017 -0.001    0.064 -0.061 -0.028   -0.031 -0.106 -0.138
 C         -0.005  0.018 -0.029   -0.126  0.096 -0.104   -0.063  0.046  0.113
 O          0.011 -0.001  0.012    0.070 -0.013  0.065    0.021 -0.031  0.001
 O         -0.004 -0.007  0.002   -0.001 -0.017  0.008    0.003  0.000 -0.001
 H          0.482  0.095 -0.000   -0.220 -0.041  0.003   -0.011 -0.001  0.004
 H         -0.193  0.124  0.099    0.109 -0.023 -0.029    0.085  0.065  0.030
 H          0.688  0.324  0.131   -0.188 -0.090 -0.032    0.102  0.051  0.045
 H          0.003 -0.003 -0.002    0.102  0.068  0.028    0.097  0.105  0.084
 H         -0.188  0.176 -0.053   -0.471  0.518 -0.096    0.313  0.153  0.511
 H         -0.068  0.067 -0.000   -0.093  0.119 -0.195    0.228  0.145 -0.486
 H          0.041 -0.053  0.031    0.289 -0.366  0.195   -0.099  0.188 -0.092
 H         -0.012  0.003  0.031   -0.027  0.014  0.004    0.107  0.059 -0.353
 O         -0.004 -0.011  0.007    0.002 -0.025  0.023   -0.006  0.025 -0.014
 O          0.000  0.002 -0.001   -0.007 -0.000 -0.005    0.009 -0.002  0.007
 H         -0.001  0.000 -0.001    0.000 -0.003 -0.006    0.011  0.005 -0.004
 O          0.000 -0.000  0.000    0.001 -0.000  0.002   -0.001  0.000  0.000
 H         -0.001  0.000 -0.001   -0.005  0.002 -0.010   -0.002  0.000 -0.003
 TransDip   0.125  0.040  0.057   -0.083  0.048 -0.182   -0.279 -0.038 -0.163

 Mode:                43                     44                     45
 Frequency:      1360.74                1418.08                1438.63
 Force Cnst:      1.8202                 1.6661                 1.6533
 Red. Mass:       1.6685                 1.4062                 1.3558
 IR Active:          YES                    YES                    YES
 IR Intens:      290.025                232.270                185.591
 Raman Active:       YES                    YES                    YES
               X      Y      Z        X      Y      Z        X      Y      Z
 O          0.011  0.006  0.019    0.021  0.017  0.052    0.002  0.002  0.007
 C         -0.007 -0.014 -0.051   -0.072 -0.066 -0.111   -0.011 -0.007 -0.006
 C         -0.057 -0.005  0.139   -0.009  0.000  0.049    0.012 -0.006 -0.047
 O          0.028  0.007 -0.059    0.001 -0.004 -0.016   -0.008  0.002  0.024
 C          0.002 -0.009 -0.007    0.046  0.030 -0.025    0.016  0.023  0.022
 C         -0.046 -0.067 -0.060    0.006  0.023  0.040   -0.003 -0.047 -0.024
 C          0.113 -0.021 -0.046   -0.009 -0.019  0.020   -0.019  0.127 -0.049
 O         -0.020  0.022 -0.007   -0.001  0.001 -0.004    0.003 -0.061 -0.004
 O         -0.009 -0.009 -0.001    0.001  0.003 -0.002    0.009  0.001  0.007
 H         -0.182 -0.026  0.004   -0.525 -0.100  0.023   -0.082 -0.018  0.004
 H          0.069 -0.009 -0.045    0.525  0.300  0.065    0.100  0.049  0.022
 H          0.040  0.013  0.061    0.320  0.151  0.235    0.049  0.025  0.013
 H          0.299  0.266  0.061   -0.123 -0.113 -0.068   -0.074 -0.058  0.002
 H          0.090  0.269  0.421   -0.082 -0.136 -0.215   -0.062  0.147  0.089
 H         -0.430  0.247  0.430    0.063  0.005 -0.130    0.188 -0.561  0.636
 H         -0.006 -0.018  0.016   -0.026  0.030 -0.012   -0.228  0.283 -0.124
 H         -0.061  0.004  0.201    0.008  0.009 -0.048    0.052 -0.001  0.007
 O         -0.013  0.010 -0.010   -0.002 -0.003 -0.000    0.002 -0.000  0.002
 O          0.011  0.003  0.006   -0.002  0.000 -0.002   -0.000 -0.001  0.000
 H         -0.001  0.001 -0.002    0.000  0.001  0.002    0.000 -0.002 -0.009
 O          0.000 -0.000  0.000   -0.000  0.000 -0.000    0.001 -0.000  0.002
 H          0.002 -0.001  0.003    0.000 -0.000  0.001   -0.004  0.002 -0.007
 TransDip  -0.381 -0.211  0.329   -0.420 -0.202  0.145   -0.112  0.316 -0.279

 Mode:                46                     47                     48
 Frequency:      1443.34                1479.61                1574.25
 Force Cnst:      2.6903                 1.4014                 1.7112
 Red. Mass:       2.1919                 1.0865                 1.1719
 IR Active:          YES                    YES                    YES
 IR Intens:      243.098                 18.221                105.616
 Raman Active:       YES                    YES                    YES
               X      Y      Z        X      Y      Z        X      Y      Z
 O          0.004  0.002 -0.007    0.009 -0.004 -0.006    0.001  0.000  0.003
 C          0.016 -0.001 -0.023    0.048 -0.025 -0.055   -0.001 -0.001 -0.001
 C         -0.060  0.017  0.222    0.011 -0.001 -0.023    0.016  0.001 -0.031
 O          0.038  0.001 -0.102   -0.005  0.001  0.012    0.004  0.009  0.006
 C         -0.066 -0.064 -0.073   -0.002 -0.000  0.006   -0.016 -0.010  0.007
 C          0.078  0.046  0.035   -0.004 -0.004 -0.004    0.006 -0.011 -0.010
 C         -0.078  0.055  0.050    0.003 -0.001 -0.005    0.022  0.061  0.053
 O          0.009 -0.039 -0.006   -0.000  0.002  0.001   -0.001 -0.014 -0.004
 O          0.005 -0.003 -0.011    0.000  0.001  0.002   -0.009 -0.027 -0.057
 H          0.091  0.026 -0.008   -0.010  0.002 -0.011   -0.048 -0.011  0.002
 H         -0.233 -0.066 -0.061   -0.455  0.523  0.137    0.023  0.020  0.007
 H         -0.056 -0.037  0.067   -0.247 -0.125  0.643    0.010  0.006  0.008
 H          0.449  0.363  0.039   -0.020 -0.010  0.001    0.005  0.004  0.011
 H         -0.082 -0.017 -0.224    0.007  0.007  0.020   -0.014  0.055  0.025
 H          0.425 -0.329 -0.181   -0.023  0.009  0.022    0.197  0.079 -0.222
 H         -0.173  0.222 -0.096    0.013 -0.015  0.006   -0.069  0.111 -0.056
 H          0.062  0.044 -0.089   -0.001 -0.003 -0.002   -0.363 -0.207  0.830
 O          0.007 -0.011  0.009    0.000  0.001  0.000    0.001 -0.000  0.002
 O         -0.012 -0.001 -0.007    0.001 -0.000  0.000   -0.001 -0.000 -0.000
 H          0.006 -0.000 -0.002   -0.000  0.000 -0.000   -0.017 -0.007  0.010
 O         -0.000  0.000  0.000    0.000 -0.000  0.000    0.001  0.000 -0.001
 H         -0.002  0.001 -0.004    0.000  0.000  0.000    0.009 -0.004  0.017
 TransDip  -0.228  0.118  0.428    0.103  0.090 -0.005   -0.065  0.144  0.289

 Mode:                49                     50                     51
 Frequency:      1598.89                1617.43                2870.14
 Force Cnst:      7.9204                 1.6594                 5.2512
 Red. Mass:       5.2585                 1.0766                 1.0819
 IR Active:          YES                    YES                    YES
 IR Intens:      569.451                151.824               2160.030
 Raman Active:       YES                    YES                    YES
               X      Y      Z        X      Y      Z        X      Y      Z
 O          0.003  0.000  0.012    0.000  0.000 -0.000    0.000  0.000 -0.000
 C         -0.077 -0.064 -0.035    0.000  0.000 -0.000   -0.000 -0.000  0.002
 C          0.340  0.259 -0.089   -0.001 -0.000  0.001    0.008  0.004 -0.011
 O         -0.037 -0.024  0.022    0.000 -0.000 -0.000   -0.001  0.004  0.009
 C         -0.335 -0.250  0.040    0.001  0.001  0.000   -0.004 -0.003  0.002
 C          0.035  0.039 -0.019   -0.000 -0.001 -0.002    0.002  0.002  0.000
 C         -0.011 -0.008 -0.031   -0.004  0.001 -0.003    0.003 -0.000  0.009
 O          0.003  0.008  0.008    0.001 -0.001  0.001   -0.000  0.001 -0.001
 O          0.004  0.012  0.019    0.003  0.000 -0.000   -0.032 -0.054 -0.026
 H         -0.218 -0.058  0.009    0.001  0.000 -0.000   -0.016 -0.003  0.012
 H          0.305  0.169  0.066   -0.001 -0.001 -0.000    0.005  0.008 -0.006
 H          0.133  0.046 -0.009    0.000  0.000 -0.000    0.003 -0.008  0.000
 H          0.356  0.313  0.229    0.002  0.001  0.000   -0.005 -0.002  0.002
 H          0.143  0.138  0.200    0.002  0.000  0.002    0.001 -0.006 -0.002
 H         -0.062 -0.017  0.059   -0.004 -0.007  0.006   -0.039 -0.035 -0.054
 H          0.111 -0.116  0.044    0.001 -0.002  0.001   -0.005 -0.001 -0.003
 H          0.032 -0.030 -0.155    0.013  0.006 -0.020    0.491  0.797  0.331
 O          0.013 -0.005  0.010   -0.000 -0.000 -0.000   -0.000  0.000 -0.000
 O         -0.001 -0.001  0.000    0.000  0.000  0.001   -0.000 -0.000 -0.000
 H         -0.005  0.001  0.002   -0.541  0.073  0.520    0.032 -0.010  0.029
 O          0.000 -0.000  0.000    0.014  0.005 -0.066   -0.002  0.001 -0.002
 H          0.001 -0.000  0.001    0.297 -0.153  0.561   -0.002  0.001 -0.001
 TransDip   0.571  0.386 -0.330   -0.050 -0.024  0.391    0.625  1.107  0.775

 Mode:                52                     53                     54
 Frequency:      3022.42                3120.41                3120.98
 Force Cnst:      5.7574                 6.2364                 6.2772
 Red. Mass:       1.0697                 1.0871                 1.0938
 IR Active:          YES                    YES                    YES
 IR Intens:       57.530                  6.280                 34.164
 Raman Active:       YES                    YES                    YES
               X      Y      Z        X      Y      Z        X      Y      Z
 O          0.002  0.001  0.000    0.000 -0.000  0.000    0.001 -0.000  0.001
 C          0.035 -0.065 -0.013   -0.001  0.008 -0.014   -0.003  0.042 -0.076
 C          0.001 -0.000  0.001    0.000  0.000 -0.000    0.001  0.002 -0.000
 O         -0.000 -0.000  0.000   -0.000  0.000  0.000   -0.000  0.000  0.000
 C         -0.000 -0.000 -0.000   -0.002 -0.000  0.004   -0.001 -0.000  0.003
 C         -0.000 -0.000  0.000    0.032  0.027 -0.027   -0.004 -0.004  0.004
 C          0.000  0.000  0.000   -0.044 -0.040 -0.028    0.010  0.009  0.006
 O          0.000  0.000 -0.000    0.001  0.001  0.001   -0.000 -0.000 -0.000
 O         -0.000 -0.001 -0.000   -0.002 -0.003 -0.000    0.000  0.000 -0.000
 H         -0.000 -0.003 -0.012   -0.002 -0.000 -0.002   -0.006 -0.000 -0.014
 H         -0.008 -0.095  0.197   -0.010 -0.065  0.169   -0.055 -0.343  0.892
 H         -0.440  0.866 -0.045    0.016 -0.032 -0.001    0.086 -0.172 -0.006
 H          0.001 -0.000 -0.003    0.013 -0.003 -0.046    0.007 -0.000 -0.032
 H          0.000  0.000 -0.001   -0.379 -0.319  0.329    0.051  0.043 -0.044
 H         -0.001 -0.001 -0.001    0.519  0.473  0.325   -0.117 -0.107 -0.074
 H         -0.000  0.000 -0.000   -0.005 -0.013 -0.007    0.001  0.003  0.001
 H          0.005  0.008  0.004    0.027  0.045  0.014   -0.003 -0.004 -0.000
 O         -0.000 -0.000 -0.000    0.000  0.000 -0.000   -0.000  0.000  0.000
 O         -0.000  0.000 -0.000   -0.000 -0.000  0.000    0.000 -0.000 -0.000
 H          0.000 -0.000  0.000    0.005 -0.003  0.006   -0.001  0.001 -0.001
 O         -0.000  0.000 -0.000   -0.000  0.000 -0.000    0.000 -0.000  0.000
 H         -0.000 -0.000  0.000   -0.000 -0.000  0.000    0.000  0.000 -0.000
 TransDip   0.174 -0.163 -0.045   -0.033  0.029 -0.067    0.051  0.082 -0.160

 Mode:                55                     56                     57
 Frequency:      3129.41                3193.93                3562.59
 Force Cnst:      6.2749                 6.5486                 7.9442
 Red. Mass:       1.0875                 1.0896                 1.0623
 IR Active:          YES                    YES                    YES
 IR Intens:       23.002                 16.122                829.460
 Raman Active:       YES                    YES                    YES
               X      Y      Z        X      Y      Z        X      Y      Z
 O          0.000 -0.000  0.000    0.000  0.000  0.000    0.000  0.000 -0.000
 C         -0.000  0.002 -0.003   -0.000  0.002 -0.003   -0.000  0.000 -0.000
 C          0.001  0.000 -0.001   -0.003 -0.003 -0.000   -0.000 -0.000  0.000
 O         -0.000  0.000  0.001   -0.000 -0.000  0.001    0.000  0.000  0.000
 C          0.002  0.000 -0.006    0.024 -0.003 -0.082    0.000  0.000 -0.000
 C         -0.044 -0.035  0.037    0.006  0.005 -0.003    0.000 -0.000  0.000
 C         -0.034 -0.032 -0.022    0.000  0.001  0.001    0.001  0.002 -0.002
 O          0.000  0.001  0.000    0.000 -0.000  0.000   -0.000 -0.001  0.000
 O         -0.001 -0.002 -0.001    0.000  0.000 -0.000    0.001  0.001  0.002
 H         -0.001 -0.000 -0.000   -0.000 -0.001 -0.002   -0.000  0.000  0.001
 H         -0.003 -0.016  0.041   -0.002 -0.013  0.035   -0.000 -0.000  0.000
 H          0.004 -0.008 -0.000    0.003 -0.004  0.000    0.000  0.000  0.000
 H         -0.022  0.004  0.073   -0.262  0.058  0.955   -0.000  0.000  0.001
 H          0.509  0.418 -0.439   -0.057 -0.046  0.045   -0.002  0.000  0.002
 H          0.398  0.368  0.251   -0.008 -0.009 -0.007   -0.006 -0.006 -0.001
 H         -0.004 -0.011 -0.005   -0.002  0.001 -0.001    0.006  0.007  0.007
 H          0.024  0.037  0.010   -0.002 -0.001  0.001   -0.021 -0.038 -0.012
 O          0.000 -0.001  0.000    0.000 -0.000  0.000   -0.000 -0.000 -0.000
 O          0.000  0.000  0.000   -0.000 -0.000 -0.000    0.000  0.000 -0.000
 H          0.006 -0.003  0.006   -0.001  0.000 -0.001    0.662 -0.269  0.685
 O         -0.000  0.000 -0.000    0.000 -0.000  0.000   -0.036  0.016 -0.046
 H         -0.000  0.000  0.000    0.000 -0.000  0.000   -0.113  0.027  0.033
 TransDip  -0.111 -0.101  0.034   -0.008 -0.042 -0.121    0.555 -0.297  0.675

 Mode:                58                     59                     60
 Frequency:      3687.93                3719.76                3848.43
 Force Cnst:      8.5330                 8.6885                 9.3152
 Red. Mass:       1.0648                 1.0658                 1.0675
 IR Active:          YES                    YES                    YES
 IR Intens:      207.733                181.426                131.153
 Raman Active:       YES                    YES                    YES
               X      Y      Z        X      Y      Z        X      Y      Z
 O          0.005 -0.010 -0.061    0.000  0.000  0.000   -0.000  0.000  0.000
 C          0.002 -0.000 -0.003   -0.000  0.000 -0.000   -0.000 -0.000  0.000
 C         -0.001 -0.000  0.001   -0.001 -0.001  0.001    0.000  0.000 -0.000
 O          0.001  0.000 -0.000    0.000 -0.000 -0.000    0.000  0.000  0.000
 C          0.000  0.000 -0.001    0.000  0.001 -0.000   -0.000 -0.000 -0.000
 C         -0.000 -0.000 -0.000    0.000 -0.000  0.000   -0.000 -0.000  0.000
 C         -0.000 -0.000  0.000   -0.002 -0.001 -0.002    0.000  0.000 -0.000
 O         -0.000 -0.000 -0.000   -0.031 -0.035 -0.041    0.000 -0.000  0.000
 O          0.000  0.001  0.000   -0.000 -0.001  0.000    0.000  0.000  0.000
 H         -0.090  0.160  0.981   -0.000 -0.000 -0.002    0.000 -0.000 -0.000
 H         -0.004 -0.008  0.013    0.000 -0.000  0.000    0.000 -0.000  0.000
 H         -0.007  0.006 -0.001    0.001  0.000  0.000   -0.000 -0.000  0.000
 H          0.000  0.001  0.001   -0.001 -0.000  0.001   -0.000  0.000 -0.000
 H          0.000 -0.000 -0.000   -0.000 -0.000 -0.000   -0.000  0.000  0.000
 H         -0.000 -0.000  0.000    0.013  0.009  0.007   -0.000 -0.000  0.000
 H          0.001  0.001  0.001    0.501  0.562  0.655   -0.000 -0.001 -0.001
 H         -0.005 -0.010 -0.006    0.003  0.006  0.002   -0.002 -0.003 -0.001
 O          0.000 -0.000  0.000   -0.000 -0.000 -0.000    0.000 -0.000 -0.000
 O          0.000 -0.000  0.000   -0.000  0.000 -0.000    0.000  0.000 -0.000
 H         -0.001  0.000 -0.001   -0.007  0.003 -0.008    0.046 -0.024  0.090
 O          0.000 -0.000  0.000    0.000 -0.000  0.001   -0.057  0.013  0.024
 H          0.000 -0.000 -0.000    0.002 -0.000 -0.001    0.855 -0.179 -0.471
 TransDip   0.060  0.140  0.436    0.171  0.289  0.271    0.340 -0.096 -0.099

 STANDARD THERMODYNAMIC QUANTITIES AT   298.15 K  AND     1.00 ATM

   This Molecule has  0 Imaginary Frequencies
   Zero point vibrational energy:      103.299 kcal/mol

   Atom    1 Element O  Has Mass   15.99491
   Atom    2 Element C  Has Mass   12.00000
   Atom    3 Element C  Has Mass   12.00000
   Atom    4 Element O  Has Mass   15.99491
   Atom    5 Element C  Has Mass   12.00000
   Atom    6 Element C  Has Mass   12.00000
   Atom    7 Element C  Has Mass   12.00000
   Atom    8 Element O  Has Mass   15.99491
   Atom    9 Element O  Has Mass   15.99491
   Atom   10 Element H  Has Mass    1.00783
   Atom   11 Element H  Has Mass    1.00783
   Atom   12 Element H  Has Mass    1.00783
   Atom   13 Element H  Has Mass    1.00783
   Atom   14 Element H  Has Mass    1.00783
   Atom   15 Element H  Has Mass    1.00783
   Atom   16 Element H  Has Mass    1.00783
   Atom   17 Element H  Has Mass    1.00783
   Atom   18 Element O  Has Mass   15.99491
   Atom   19 Element O  Has Mass   15.99491
   Atom   20 Element H  Has Mass    1.00783
   Atom   21 Element O  Has Mass   15.99491
   Atom   22 Element H  Has Mass    1.00783
   Molecular Mass:   182.042670 amu
   Principal axes and moments of inertia in amu*Bohr^2:
                             1           2           3
    Eigenvalues --     1416.29501  3572.66928  3615.73773
          X               0.68650     0.00737     0.72710
          Y               0.42241     0.80987    -0.40703
          Z               0.59185    -0.58656    -0.55286
   Rotational Symmetry Number is   1
   The Molecule is an Asymmetric Top
   Translational Enthalpy:        0.889 kcal/mol
   Rotational Enthalpy:           0.889 kcal/mol
   Vibrational Enthalpy:        110.787 kcal/mol
   gas constant (RT):             0.592 kcal/mol
   Translational Entropy:        41.504  cal/mol.K
   Rotational Entropy:           31.281  cal/mol.K
   Vibrational Entropy:          50.992  cal/mol.K

   Total Enthalpy:              113.157 kcal/mol
   Total Entropy:               123.777  cal/mol.K
 Total job time:  44455.98s(wall), 626502.16s(cpu) 
 Sat Jul 13 02:08:22 2024

        *************************************************************
        *                                                           *
        *  Thank you very much for using Q-Chem.  Have a nice day.  *
        *                                                           *
        *************************************************************


