
Running Job 1 of 1 Q_in.in
qchem Q_in.in_230481.0 /scratch/ari.fischer/qChem2234326.hpc-mn1/qchem230481/ 0
/usr/local/qchem-5.4.1/exe/qcprog.exe_s Q_in.in_230481.0 /scratch/ari.fischer/qChem2234326.hpc-mn1/qchem230481/
                  Welcome to Q-Chem
     A Quantum Leap Into The Future Of Chemistry


 Q-Chem 5.4, Q-Chem, Inc., Pleasanton, CA (2021)

 License issued to: Nanyang Technological University (site)

 E. Epifanovsky,  A. T. B. Gilbert,  Xintian Feng,  Joonho Lee,  Yuezhi Mao,  
 N. Mardirossian,  P. Pokhilko,  A. White,  M. Wormit,  M. P. Coons,  
 A. L. Dempwolff,  Zhengting Gan,  D. Hait,  P. R. Horn,  L. D. Jacobson,  
 I. Kaliman,  J. Kussmann,  A. W. Lange,  Ka Un Lao,  D. S. Levine,  Jie Liu,  
 S. C. McKenzie,  A. F. Morrison,  K. Nanda,  F. Plasser,  D. R. Rehn,  
 M. L. Vidal,  Zhi-Qiang You,  Ying Zhu,  B. Alam,  B. Albrecht,  
 A. Aldossary,  E. Alguire,  J. H. Andersen,  D. Barton,  K. Begam,  A. Behn,  
 Y. A. Bernard,  E. J. Berquist,  H. Burton,  A. Carreras,  K. Carter-Fenk,  
 R. Chakraborty,  A. D. Chien,  K. D. Closser,  V. Cofer-Shabica,  
 S. Dasgupta,  Jia Deng,  M. de Wergifosse,  M. Diedenhofen,  Hainam Do,  
 S. Ehlert,  Po-Tung Fang,  S. Fatehi,  Qingguo Feng,  T. Friedhoff,  
 J. Gayvert,  Qinghui Ge,  G. Gidofalvi,  M. Goldey,  J. Gomes,  
 C. Gonzalez-Espinoza,  S. Gulania,  A. Gunina,  M. W. D. Hanson-Heine,  
 P. H. P. Harbach,  A. W. Hauser,  M. F. Herbst,  M. Hernandez Vera,  
 M. Hodecker,  Z. C. Holden,  S. Houck,  Xunkun Huang,  Kerwin Hui,  
 B. C. Huynh,  M. Ivanov,  Hyunjun Ji,  Hanjie Jiang,  B. Kaduk,  S. Kaehler,  
 K. Khistyaev,  Jaehoon Kim,  P. Klunzinger,  Z. Koczor-Benda,  
 Joong Hoon Koh,  D. Kosenkov,  L. Koulias,  T. Kowalczyk,  C. M. Krauter,  
 K. Kue,  A. Kunitsa,  T. Kus,  A. Landau,  K. V. Lawler,  D. Lefrancois,  
 S. Lehtola,  Rain Li,  Yi-Pei Li,  Jiashu Liang,  M. Liebenthal,  
 Hung-Hsuan Lin,  You-Sheng Lin,  Fenglai Liu,  Kuan-Yu Liu,  
 M. Loipersberger,  A. Luenser,  A. Manjanath,  P. Manohar,  E. Mansoor,  
 S. F. Manzer,  Shan-Ping Mao,  A. V. Marenich,  T. Markovich,  S. Mason,  
 S. A. Maurer,  P. F. McLaughlin,  M. F. S. J. Menger,  J.-M. Mewes,  
 S. A. Mewes,  P. Morgante,  J. W. Mullinax,  K. J. Oosterbaan,  G. Paran,  
 Alexander C. Paul,  Suranjan K. Paul,  F. Pavosevic,  Zheng Pei,  S. Prager,  
 E. I. Proynov,  E. Ramos,  B. Rana,  A. E. Rask,  A. Rettig,  R. M. Richard,  
 F. Rob,  E. Rossomme,  T. Scheele,  M. Scheurer,  M. Schneider,  
 N. Sergueev,  S. M. Sharada,  W. Skomorowski,  D. W. Small,  C. J. Stein,  
 Yu-Chuan Su,  E. J. Sundstrom,  Zhen Tao,  J. Thirman,  T. Tsuchimochi,  
 N. M. Tubman,  S. P. Veccham,  O. Vydrov,  J. Wenzel,  J. Witte,  A. Yamada,  
 Kun Yao,  S. Yeganeh,  S. R. Yost,  A. Zech,  Igor Ying Zhang,  Xing Zhang,  
 Yu Zhang,  D. Zuev,  A. Aspuru-Guzik,  A. T. Bell,  N. A. Besley,  
 K. B. Bravaya,  B. R. Brooks,  D. Casanova,  Jeng-Da Chai,  S. Coriani,  
 C. J. Cramer,  A. E. DePrince, III,  R. A. DiStasio Jr.,  A. Dreuw,  
 B. D. Dunietz,  T. R. Furlani,  W. A. Goddard III,  S. Grimme,  
 S. Hammes-Schiffer,  T. Head-Gordon,  W. J. Hehre,  Chao-Ping Hsu,  
 T.-C. Jagau,  Yousung Jung,  A. Klamt,  Jing Kong,  D. S. Lambrecht,  
 WanZhen Liang,  N. J. Mayhall,  C. W. McCurdy,  J. B. Neaton,  
 C. Ochsenfeld,  J. A. Parkhill,  R. Peverati,  V. A. Rassolov,  Yihan Shao,  
 L. V. Slipchenko,  T. Stauch,  R. P. Steele,  J. E. Subotnik,  
 A. J. W. Thom,  A. Tkatchenko,  D. G. Truhlar,  T. Van Voorhis,  
 T. A. Wesolowski,  K. B. Whaley,  H. L. Woodcock III,  P. M. Zimmerman,  
 S. Faraji,  P. M. W. Gill,  M. Head-Gordon,  J. M. Herbert,  A. I. Krylov

 Additional authors for Version 5.4.1: 
 S. Kotaru,  Shaozhi Li,  Xiangyuan Li,  F. Matz,  A. Molle,  Haisheng Ren,  
 Yingli Su,  Hung-Yi Tsai,  C. Utku,  Fang Wang

 Contributors to earlier versions of Q-Chem not listed above: 
 R. D. Adamson,  B. Austin,  R. Baer,  J. Baker,  G. J. O. Beran,  
 K. Brandhorst,  S. T. Brown,  E. F. C. Byrd,  A. K. Chakraborty,  
 G. K. L. Chan,  Chun-Min Chang,  Yunqing Chen,  C.-L. Cheng,  
 Siu Hung Chien,  D. M. Chipman,  D. L. Crittenden,  H. Dachsel,  
 R. J. Doerksen,  A. D. Dutoi,  R. G. Edgar,  J. Fosso-Tande,  
 L. Fusti-Molnar,  D. Ghosh,  A. Ghysels,  A. Golubeva-Zadorozhnaya,  
 J. Gonthier,  M. S. Gordon,  S. R. Gwaltney,  G. Hawkins,  J. E. Herr,  
 A. Heyden,  S. Hirata,  E. G. Hohenstein,  G. Kedziora,  F. J. Keil,  
 C. Kelley,  Jihan Kim,  R. A. King,  R. Z. Khaliullin,  P. P. Korambath,  
 W. Kurlancheek,  A. Laurent,  A. M. Lee,  M. S. Lee,  S. V. Levchenko,  
 Ching Yeh Lin,  D. Liotard,  E. Livshits,  R. C. Lochan,  I. Lotan,  
 L. A. Martinez-Martinez,  P. E. Maslen,  N. Nair,  D. P. O'Neill,  
 D. Neuhauser,  E. Neuscamman,  C. M. Oana,  R. Olivares-Amaya,  R. Olson,  
 T. M. Perrine,  B. Peters,  P. A. Pieniazek,  A. Prociuk,  Y. M. Rhee,  
 J. Ritchie,  M. A. Rohrdanz,  E. Rosta,  N. J. Russ,  H. F. Schaefer III,  
 M. W. Schmidt,  N. E. Schultz,  S. Sharma,  N. Shenvi,  C. D. Sherrill,  
 A. C. Simmonett,  A. Sodt,  T. Stein,  D. Stuck,  K. S. Thanthiriwatte,  
 V. Vanovschi,  L. Vogt,  Tao Wang,  A. Warshel,  M. A. Watson,  
 C. F. Williams,  Q. Wu,  X. Xu,  Jun Yang,  W. Zhang,  Yan Zhao

 Please cite Q-Chem as follows:
 Y. Shao et al., Mol. Phys. 113, 184-215 (2015)
 DOI: 10.1080/00268976.2014.952696

 Q-Chem 5.4.1 for Intel X86 EM64T Linux

 Parts of Q-Chem use Armadillo 9.800.1 (Horizon Scraper).
 http://arma.sourceforge.net/

 Q-Chem begins on Fri Jul 12 10:02:36 2024  

 Host: 
0

     Scratch files written to /scratch/ari.fischer/qChem2234326.hpc-mn1/qchem230481//
 Aug1521 |scratch|qcdevops|jenkins|workspace|build_RNUM 8249   
 Processing $rem in /usr/local/qchem-5.4.1/config/preferences:
 Processing $rem in /home/ari.fischer/.qchemrc:
 Symmetry turned off for PCM/SM12/SMD calculation

 Checking the input file for inconsistencies... 	...done.

--------------------------------------------------------------
User input:
--------------------------------------------------------------
$molecule
-1 2
O         1.0052081611   -0.5083770776    0.5501571510
C         2.3282218576   -0.2179571379    0.1263188474
C         3.0072656439    0.6909017020    1.1512711643
O         2.4949164305    0.5940115590    2.3383741923
C         4.0655771171    1.4653721234    0.7494374507
C         4.9432085314    2.2474761731    1.6549037225
C         4.2475299764    3.2105470355    2.6345554867
O         3.4086190034    4.0571644218    1.8804547474
O         3.5574821382    2.5462227967    3.6628556244
H         1.0519456476   -0.3138532307    1.5113956314
H         2.3006859165    0.2539777672   -0.8612295304
H         2.9165890687   -1.1448313523    0.0368605888
H         4.3723828745    1.3967768684   -0.2905823316
H         5.6777799690    2.8193324768    1.0842846237
H         4.9865847205    3.8520966947    3.1203801275
H         2.9748402684    3.4780514521    1.2223780606
H         3.0906964005    1.7553177450    3.2431561661
O         5.7562823219    1.3024514561    2.4815380254
O         6.8094031616    1.8961314184    2.9907648342
H         4.7850566510    2.1458018644    4.9598933726
O         5.5209640546    2.0393883048    5.5997963097
H         6.2221977855    1.6669357391    5.0429634353
$end

$rem
BASIS = 6-311++G(2df,2p)
GUI = 2
JOB_TYPE = Optimization
METHOD = wB97M-V
SCF_ALGORITHM = DIIS_GDM
MAX_SCF_CYCLES = 400
GEOM_OPT_MAX_CYCLES = 150
SCF_CONVERGENCE = 7
THRESH = 12
Solvent_method = SMD
$end
--------------------------------------------------------------
 ----------------------------------------------------------------
             Standard Nuclear Orientation (Angstroms)
    I     Atom           X                Y                Z
 ----------------------------------------------------------------
    1      O       1.0052081611    -0.5083770776     0.5501571510
    2      C       2.3282218576    -0.2179571379     0.1263188474
    3      C       3.0072656439     0.6909017020     1.1512711643
    4      O       2.4949164305     0.5940115590     2.3383741923
    5      C       4.0655771171     1.4653721234     0.7494374507
    6      C       4.9432085314     2.2474761731     1.6549037225
    7      C       4.2475299764     3.2105470355     2.6345554867
    8      O       3.4086190034     4.0571644218     1.8804547474
    9      O       3.5574821382     2.5462227967     3.6628556244
   10      H       1.0519456476    -0.3138532307     1.5113956314
   11      H       2.3006859165     0.2539777672    -0.8612295304
   12      H       2.9165890687    -1.1448313523     0.0368605888
   13      H       4.3723828745     1.3967768684    -0.2905823316
   14      H       5.6777799690     2.8193324768     1.0842846237
   15      H       4.9865847205     3.8520966947     3.1203801275
   16      H       2.9748402684     3.4780514521     1.2223780606
   17      H       3.0906964005     1.7553177450     3.2431561661
   18      O       5.7562823219     1.3024514561     2.4815380254
   19      O       6.8094031616     1.8961314184     2.9907648342
   20      H       4.7850566510     2.1458018644     4.9598933726
   21      O       5.5209640546     2.0393883048     5.5997963097
   22      H       6.2221977855     1.6669357391     5.0429634353
 ----------------------------------------------------------------
 Nuclear Repulsion Energy =         787.47787487 hartrees
 There are       49 alpha and       48 beta electrons
 Requested basis set is 6-311++G(2df,2p)
 There are 156 shells and 508 basis functions

 Total QAlloc Memory Limit 288000 MB
 Mega-Array Size       188 MB
 MEM_STATIC part       192 MB
 
 Citation of the SMD model:
 Marenich, A.V.; Cramer, C.J.; Truhlar, D.G.
 J. Phys. Chem. B 2009, 113, 6378-6396.
 iSolventCode=           1
 Solvent: water                                                           
 
 vradii
            1           2           3           4           5           6
    1   1.5200000   1.8500000   1.8500000   1.5200000   1.8500000   1.8500000
            7           8           9          10          11          12
    1   1.8500000   1.5200000   1.5200000   1.2000000   1.2000000   1.2000000
           13          14          15          16          17          18
    1   1.2000000   1.2000000   1.2000000   1.2000000   1.2000000   1.5200000
           19          20          21          22
    1   1.5200000   1.2000000   1.5200000   1.2000000
 Changing PCM_VDW_RADII to SMD_RADIUS
 Discretize the solute cavity surface with Lebedev spheres
	Using 110 Lebedev grid points for each H atom
	Using 194 Lebedev grid points for other atoms
	Atomic van der Waals radii will be scaled by 1.20
 Remove points where switching function is < 1.0e-08
 Keep 1687 surface tesserae and discard 1741 interior tesserae
 Molecular Surface Area = 191.298 Angst**2
 A cutoff of  1.0D-12 yielded  10183 shell pairs
 There are    106129 function pairs (    131278 Cartesian)
 Smallest overlap matrix eigenvalue = 4.89E-06

 Scale SEOQF with 1.000000e-02/1.000000e-01/1.000000e-02

 Standard Electronic Orientation quadrupole field applied
 Nucleus-field energy     =     0.0000000288 hartrees
 Guess from superposition of atomic densities
 Warning:  Energy on first SCF cycle will be non-variational
 SAD guess density has 96.000000 electrons

 -----------------------------------------------------------------------
  General SCF calculation program by
  Eric Jon Sundstrom, Paul Horn, Yuezhi Mao, Dmitri Zuev, Alec White,
  David Stuck, Shaama M.S., Shane Yost, Joonho Lee, David Small,
  Daniel Levine, Susi Lehtola, Hugh Burton, Evgeny Epifanovsky,
  Bang C. Huynh
 -----------------------------------------------------------------------
 Exchange:     0.1500 Hartree-Fock + 1.0000 wB97M-V + LR-HF
 Correlation:  1.0000 wB97M-V
 Using SG-2 standard quadrature grid
 Nonlocal Correlation:  VV10 with C = 0.0100 and b = 6.00 and scale = 1.00000
 Grid used for NLC:  SG-1 standard quadrature
 
 Citation of the SMD model:
 Marenich, A.V.; Cramer, C.J.; Truhlar, D.G.
 J. Phys. Chem. B 2009, 113, 6378-6396.
 iSolventCode=           1
 Solvent: water                                                           
 
 vradii
            1           2           3           4           5           6
    1   1.5200000   1.8500000   1.8500000   1.5200000   1.8500000   1.8500000
            7           8           9          10          11          12
    1   1.8500000   1.5200000   1.5200000   1.2000000   1.2000000   1.2000000
           13          14          15          16          17          18
    1   1.2000000   1.2000000   1.2000000   1.2000000   1.2000000   1.5200000
           19          20          21          22
    1   1.5200000   1.2000000   1.5200000   1.2000000
 using 16 threads for integral computing
 -------------------------------------------------------
 OpenMP Integral computing Module                
 Release: version 1.0, May 2013, Q-Chem Inc. Pittsburgh 
 -------------------------------------------------------
 -------------------------------------------------------
 OpenMP BLAS3 based DFT computing Module                
 Release: version 1.0, May 2013, Q-Chem Inc. Pittsburgh 
 -------------------------------------------------------
 A unrestricted SCF calculation will be
 performed using DIIS, GDM
 SCF converges when RMS gradient is below 1.0e-07
 ---------------------------------------
  Cycle       Energy         DIIS error
 ---------------------------------------
    1    -725.1318975968      1.07e-02  
    2    -722.9107024639      1.61e-03  Done DIIS. Switching to GDM
 ---------------------------------------
  Cycle       Energy        RMS Gradient
 ---------------------------------------
    1    -722.9107024639      7.70e-02   Descent step
    2    -723.1264608516      2.85e-02   Normal BFGS step
    3    -723.1716875346      2.79e-02   Normal BFGS step
    4    -723.1739814537      1.87e-02   Normal BFGS step
    5    -723.1774224996      5.94e-03   Normal BFGS step
    6    -723.1776205869      3.46e-03   Normal BFGS step
    7    -723.1777409364      2.35e-03   Normal BFGS step
    8    -723.1777702035      7.01e-04   Normal BFGS step
    9    -723.1777794641      4.29e-04   Normal BFGS step
   10    -723.1777811300      1.36e-04   Normal BFGS step
   11    -723.1777814706      1.56e-04   Normal BFGS step
   12    -723.1777815567      1.32e-04   Normal BFGS step
   13    -723.1777816036      1.08e-04   Normal BFGS step
   14    -723.1777816657      5.38e-05   Normal BFGS step
   15    -723.1777816902      2.30e-05   Normal BFGS step
   16    -723.1777817000      1.66e-05   Normal BFGS step
   17    -723.1777817016      6.60e-06   Normal BFGS step
   18    -723.1777817019      2.52e-06   Normal BFGS step
   19    -723.1777817019      5.35e-07   Normal BFGS step
   20    -723.1777817019      2.21e-07   Normal BFGS step
   21    -723.1777817019      1.18e-07   Normal BFGS step
   22    -723.1777817020      7.86e-08  Convergence criterion met
 ---------------------------------------
 SCF time:   CPU 4239.80s  wall 294.00s 
<S^2> =          0.754181998
(3)  G-ENP(liq) elect-nuc-pol free energy of system     -723.177781702 a.u.
(4)  G-CDS(liq) cavity-dispersion-solvent structure 
     free energy                                                3.4970 kcal/mol
(6)  G-S(liq) free energy of system                     -723.172208847 a.u.
 SCF   energy in the final basis set =     -723.1722088469
 Total energy in the final basis set =     -723.1722088469
 
 --------------------------------------------------------------
 
                    Orbital Energies (a.u.)
 --------------------------------------------------------------
 
 Alpha MOs
 -- Occupied --
-19.4557 -19.4108 -19.3423 -19.3270 -19.3264 -19.3179 -19.2932 -10.4421
-10.4036 -10.3998 -10.3769 -10.3084  -1.3292  -1.1927  -1.1586  -1.1291
 -1.1201  -1.1084  -1.0082  -0.8839  -0.8367  -0.7890  -0.7327  -0.6586
 -0.6565  -0.6382  -0.6240  -0.6196  -0.6041  -0.6032  -0.5776  -0.5671
 -0.5621  -0.5248  -0.5079  -0.5005  -0.4903  -0.4837  -0.4728  -0.4514
 -0.4349  -0.4245  -0.4176  -0.4022  -0.4008  -0.3880  -0.3800  -0.3554
 -0.2985
 -- Virtual --
  0.0276   0.0398   0.0435   0.0458   0.0610   0.0615   0.0671   0.0714
  0.0887   0.0954   0.1017   0.1050   0.1195   0.1207   0.1336   0.1406
  0.1418   0.1528   0.1574   0.1617   0.1689   0.1711   0.1746   0.1828
  0.1846   0.1946   0.1975   0.2084   0.2099   0.2164   0.2252   0.2372
  0.2412   0.2504   0.2577   0.2604   0.2739   0.2772   0.2810   0.2841
  0.2894   0.2912   0.3006   0.3080   0.3131   0.3171   0.3205   0.3269
  0.3327   0.3395   0.3406   0.3518   0.3563   0.3569   0.3590   0.3650
  0.3704   0.3763   0.3779   0.3854   0.3905   0.3927   0.3986   0.4026
  0.4077   0.4125   0.4238   0.4344   0.4370   0.4479   0.4579   0.4736
  0.4779   0.4825   0.5028   0.5117   0.5203   0.5485   0.5690   0.5826
  0.5900   0.6065   0.6127   0.6170   0.6237   0.6377   0.6501   0.6607
  0.6694   0.6726   0.6758   0.6808   0.6939   0.7081   0.7236   0.7296
  0.7359   0.7484   0.7512   0.7646   0.7714   0.7983   0.8145   0.8279
  0.8362   0.8481   0.8606   0.8651   0.8789   0.8881   0.8949   0.9030
  0.9354   0.9472   0.9563   0.9674   0.9823   1.0079   1.0168   1.0354
  1.0423   1.0491   1.0614   1.0791   1.0906   1.0923   1.1044   1.1184
  1.1308   1.1409   1.1549   1.1614   1.1668   1.1819   1.1850   1.1912
  1.2014   1.2059   1.2060   1.2302   1.2332   1.2457   1.2531   1.2588
  1.2634   1.2779   1.2874   1.2894   1.3049   1.3135   1.3223   1.3258
  1.3386   1.3550   1.3607   1.3774   1.3974   1.4057   1.4172   1.4231
  1.4413   1.4464   1.4693   1.4709   1.4803   1.4838   1.4965   1.5073
  1.5230   1.5267   1.5624   1.5671   1.5755   1.5816   1.5920   1.6079
  1.6204   1.6326   1.6369   1.6696   1.6783   1.7038   1.7159   1.7209
  1.7401   1.7558   1.7878   1.7999   1.8083   1.8186   1.8372   1.8772
  1.9179   1.9397   1.9522   1.9613   1.9864   2.0107   2.0447   2.0462
  2.0766   2.1077   2.1220   2.1687   2.1837   2.1932   2.2175   2.2335
  2.2475   2.2754   2.3038   2.3147   2.3400   2.3676   2.3852   2.3896
  2.4169   2.4241   2.4389   2.4663   2.5004   2.5217   2.5406   2.5651
  2.5824   2.6427   2.6741   2.6968   2.7117   2.7335   2.7611   2.7832
  2.8184   2.8406   2.8598   2.8813   2.8987   2.9029   2.9463   2.9603
  2.9796   3.0079   3.0266   3.0419   3.0744   3.0797   3.0940   3.1203
  3.1353   3.1582   3.1807   3.1920   3.2127   3.2277   3.2560   3.3136
  3.3242   3.3419   3.3653   3.3957   3.4123   3.4367   3.4408   3.4469
  3.4654   3.4795   3.4998   3.5270   3.5342   3.5488   3.5758   3.6098
  3.6355   3.6529   3.6690   3.6865   3.7057   3.7127   3.7369   3.7477
  3.7568   3.7664   3.7685   3.7944   3.8047   3.8248   3.8432   3.8537
  3.8603   3.8668   3.8740   3.8870   3.9130   3.9294   3.9332   3.9551
  3.9828   4.0046   4.0294   4.0383   4.0522   4.0948   4.0977   4.1282
  4.1408   4.1666   4.1908   4.2079   4.2236   4.2404   4.2707   4.2847
  4.2915   4.3084   4.3295   4.3582   4.3642   4.4035   4.4205   4.4492
  4.4589   4.4715   4.5020   4.5153   4.5376   4.5613   4.5823   4.6111
  4.6400   4.6563   4.6688   4.7192   4.7311   4.7550   4.7807   4.8524
  4.9106   4.9180   5.0239   5.0976   5.1047   5.1131   5.1173   5.1511
  5.1823   5.1863   5.2218   5.2287   5.2475   5.2604   5.2609   5.2669
  5.2788   5.2860   5.3038   5.3183   5.3234   5.3349   5.3535   5.3620
  5.3727   5.3829   5.4064   5.4157   5.4321   5.4410   5.4476   5.4649
  5.4952   5.5213   5.5354   5.5451   5.5572   5.5762   5.5848   5.5950
  5.6013   5.6105   5.6156   5.6451   5.6613   5.6779   5.7119   5.7216
  5.7263   5.7622   5.8026   5.8055   5.8309   5.8420   5.8529   5.9134
  5.9502   5.9862   6.0122   6.1038   6.1815   6.1979   6.3992   6.4489
  6.5602   6.6049   6.6083   6.6419   6.7762   6.8793   6.9141   6.9858
  7.0338   7.0541   7.0706   7.1009   7.1058   7.1262   7.1404   7.1465
  7.1693   7.2021   7.2399   7.2443   7.2743   7.2931   7.2998   7.3226
  7.3558   7.3785   7.4029   7.4246   7.4259   7.4402   7.4738   7.4822
  7.4947   7.5167   7.5674   7.5808   7.6372   7.6861   7.7469   7.7710
  7.8138   7.8280   7.8713   7.9207   7.9803   8.0560   8.1009  24.6003
 24.7071  24.7617  24.8224  25.2001  50.4421  50.5142  50.5484  50.6093
 50.6280  50.6765  50.7720
 
 Beta MOs
 -- Occupied --
-19.4445 -19.3928 -19.3423 -19.3270 -19.3264 -19.3177 -19.2931 -10.4417
-10.4039 -10.3998 -10.3769 -10.3083  -1.3024  -1.1924  -1.1586  -1.1289
 -1.1198  -1.1083  -0.9798  -0.8758  -0.8320  -0.7884  -0.7300  -0.6553
 -0.6436  -0.6276  -0.6230  -0.6155  -0.5971  -0.5866  -0.5721  -0.5614
 -0.5358  -0.5192  -0.5055  -0.4947  -0.4885  -0.4745  -0.4718  -0.4480
 -0.4343  -0.4192  -0.4094  -0.4006  -0.3849  -0.3819  -0.3562  -0.2974
 -- Virtual --
 -0.0297   0.0277   0.0400   0.0439   0.0461   0.0616   0.0617   0.0674
  0.0715   0.0889   0.0968   0.1021   0.1052   0.1204   0.1215   0.1339
  0.1408   0.1423   0.1533   0.1575   0.1631   0.1691   0.1720   0.1758
  0.1832   0.1854   0.1950   0.2004   0.2087   0.2106   0.2169   0.2260
  0.2379   0.2443   0.2534   0.2603   0.2622   0.2753   0.2783   0.2816
  0.2853   0.2912   0.2958   0.3024   0.3083   0.3138   0.3181   0.3221
  0.3272   0.3334   0.3403   0.3410   0.3527   0.3566   0.3580   0.3595
  0.3654   0.3713   0.3775   0.3800   0.3861   0.3910   0.3938   0.3995
  0.4033   0.4091   0.4132   0.4243   0.4354   0.4376   0.4488   0.4586
  0.4745   0.4785   0.4832   0.5033   0.5130   0.5208   0.5486   0.5693
  0.5829   0.5902   0.6068   0.6136   0.6173   0.6240   0.6380   0.6514
  0.6608   0.6696   0.6730   0.6759   0.6810   0.6949   0.7089   0.7238
  0.7298   0.7362   0.7485   0.7517   0.7649   0.7720   0.7989   0.8156
  0.8281   0.8364   0.8491   0.8610   0.8652   0.8793   0.8891   0.8953
  0.9034   0.9382   0.9480   0.9567   0.9677   0.9824   1.0084   1.0181
  1.0361   1.0453   1.0496   1.0619   1.0803   1.0909   1.0941   1.1049
  1.1224   1.1322   1.1421   1.1584   1.1627   1.1698   1.1847   1.1868
  1.1948   1.2040   1.2093   1.2119   1.2317   1.2397   1.2490   1.2585
  1.2638   1.2655   1.2829   1.2890   1.2903   1.3068   1.3141   1.3236
  1.3278   1.3466   1.3569   1.3616   1.3789   1.3984   1.4070   1.4187
  1.4250   1.4429   1.4487   1.4716   1.4730   1.4805   1.4854   1.4994
  1.5125   1.5247   1.5353   1.5631   1.5681   1.5783   1.5840   1.5942
  1.6114   1.6222   1.6365   1.6372   1.6722   1.6855   1.7061   1.7208
  1.7298   1.7428   1.7593   1.7961   1.8026   1.8109   1.8246   1.8411
  1.8799   1.9223   1.9448   1.9533   1.9627   1.9901   2.0130   2.0486
  2.0495   2.0820   2.1108   2.1228   2.1703   2.1921   2.1951   2.2198
  2.2355   2.2526   2.2817   2.3119   2.3242   2.3415   2.3691   2.3865
  2.3920   2.4192   2.4258   2.4424   2.4671   2.5010   2.5230   2.5417
  2.5657   2.5833   2.6434   2.6748   2.6991   2.7122   2.7402   2.7614
  2.7843   2.8192   2.8412   2.8606   2.8817   2.8993   2.9035   2.9464
  2.9603   2.9797   3.0082   3.0268   3.0421   3.0747   3.0802   3.0945
  3.1206   3.1360   3.1586   3.1811   3.1924   3.2130   3.2278   3.2561
  3.3139   3.3250   3.3420   3.3659   3.3957   3.4124   3.4369   3.4416
  3.4473   3.4656   3.4800   3.4999   3.5274   3.5344   3.5492   3.5758
  3.6104   3.6358   3.6531   3.6697   3.6872   3.7063   3.7134   3.7371
  3.7476   3.7570   3.7667   3.7688   3.7944   3.8047   3.8249   3.8436
  3.8538   3.8604   3.8671   3.8743   3.8873   3.9135   3.9300   3.9335
  3.9556   3.9833   4.0049   4.0301   4.0386   4.0527   4.0949   4.0979
  4.1284   4.1408   4.1669   4.1917   4.2084   4.2240   4.2414   4.2708
  4.2849   4.2921   4.3097   4.3298   4.3584   4.3645   4.4039   4.4210
  4.4507   4.4599   4.4727   4.5036   4.5163   4.5378   4.5617   4.5848
  4.6160   4.6444   4.6683   4.6761   4.7209   4.7339   4.7724   4.7835
  4.8547   4.9211   4.9404   5.0380   5.1081   5.1185   5.1441   5.1704
  5.1832   5.1878   5.2082   5.2291   5.2502   5.2527   5.2624   5.2680
  5.2853   5.2986   5.3078   5.3153   5.3243   5.3299   5.3384   5.3593
  5.3661   5.3764   5.3857   5.4141   5.4203   5.4410   5.4443   5.4577
  5.4705   5.5009   5.5238   5.5444   5.5499   5.5585   5.5768   5.5857
  5.5977   5.6047   5.6118   5.6203   5.6468   5.6646   5.6782   5.7166
  5.7286   5.7308   5.7672   5.8055   5.8158   5.8319   5.8440   5.8559
  5.9138   5.9505   5.9865   6.0139   6.1048   6.1824   6.1983   6.4127
  6.4933   6.5692   6.6050   6.6116   6.6433   6.7775   6.9572   6.9771
  7.0210   7.0584   7.0636   7.0763   7.1016   7.1252   7.1340   7.1410
  7.1567   7.1709   7.2190   7.2463   7.2553   7.2841   7.2942   7.3160
  7.3448   7.3576   7.3792   7.4051   7.4253   7.4322   7.4640   7.4813
  7.4968   7.5143   7.5196   7.5685   7.5808   7.6381   7.6863   7.7475
  7.7723   7.8196   7.8366   7.8717   7.9214   7.9804   8.0705   8.1195
 24.6002  24.7070  24.7617  24.8226  25.2001  50.4542  50.5147  50.5582
 50.6093  50.6280  50.6768  50.7720
 --------------------------------------------------------------
 
          Ground-State Mulliken Net Atomic Charges

     Atom                 Charge (a.u.)    Spin (a.u.)
  --------------------------------------------------------
      1 O                    -0.465728      -0.000016
      2 C                    -0.423082      -0.000700
      3 C                     0.306141       0.002716
      4 O                    -0.697465       0.001548
      5 C                    -0.347336       0.000073
      6 C                    -0.350861      -0.003292
      7 C                    -0.280640       0.008855
      8 O                    -0.413494       0.001331
      9 O                    -0.468841       0.002356
     10 H                     0.335668       0.000098
     11 H                     0.190486       0.000143
     12 H                     0.192010      -0.000126
     13 H                     0.275044      -0.000214
     14 H                     0.325362       0.004884
     15 H                     0.272202       0.000227
     16 H                     0.327253       0.000059
     17 H                     0.413815      -0.000768
     18 O                     0.075960       0.339478
     19 O                    -0.244299       0.640239
     20 H                     0.393251      -0.002134
     21 O                    -0.731138       0.005864
     22 H                     0.315691      -0.000621
  --------------------------------------------------------
  Sum of atomic charges =    -1.000000
  Sum of spin   charges =     1.000000

 -----------------------------------------------------------------
                    Cartesian Multipole Moments
 -----------------------------------------------------------------
    Charge (ESU x 10^10)
                -4.8032
    Dipole Moment (Debye)
         X     -16.0017      Y      -7.3573      Z     -17.2911
       Tot      24.6812
    Quadrupole Moments (Debye-Ang)
        XX    -149.8453     XY     -31.9092     YY    -102.2379
        XZ     -75.9090     YZ     -35.2485     ZZ    -151.0387
    Octopole Moments (Debye-Ang^2)
       XXX   -1285.7304    XXY    -264.9074    XYY    -387.4148
       YYY    -469.7253    XXZ    -529.9428    XYZ    -155.2790
       YYZ    -260.1433    XZZ    -657.4415    YZZ    -286.6128
       ZZZ    -887.5329
    Hexadecapole Moments (Debye-Ang^3)
      XXXX  -10470.2242   XXXY   -2386.2451   XXYY   -2046.1109
      XYYY   -2004.6402   YYYY   -2498.5265   XXXZ   -4147.0131
      XXYZ   -1092.9386   XYYZ   -1133.4108   YYYZ   -1309.6232
      XXZZ   -3715.2787   XYZZ   -1341.3673   YYZZ   -1293.3211
      XZZZ   -4223.0835   YZZZ   -1873.3765   ZZZZ   -5519.0996
 -----------------------------------------------------------------
 Calculating analytic gradient of the SCF energy
 Gradient of CDS energy
            1           2           3           4           5           6
    1   0.0001542  -0.0005138  -0.0008199   0.0009120   0.0001359   0.0001112
    2   0.0001047  -0.0006704  -0.0001926   0.0000955   0.0000178  -0.0000537
    3  -0.0000319  -0.0008086   0.0023919  -0.0019791  -0.0001126   0.0000651
            7           8           9          10          11          12
    1  -0.0021067   0.0011159   0.0011258  -0.0003637   0.0000899   0.0001204
    2   0.0007123  -0.0011837   0.0009724  -0.0001091   0.0001946  -0.0000736
    3   0.0006432   0.0010298  -0.0016896   0.0002242  -0.0000260   0.0001317
           13          14          15          16          17          18
    1   0.0000351   0.0001782   0.0002214  -0.0002982  -0.0001688   0.0000522
    2   0.0000208   0.0000750  -0.0000750   0.0002373  -0.0000707   0.0001155
    3  -0.0001684  -0.0000708   0.0000940  -0.0002345   0.0002346   0.0000236
           19          20          21          22
    1  -0.0000444  -0.0003222   0.0000371   0.0003481
    2   0.0000013  -0.0000557   0.0001707  -0.0002333
    3  -0.0001299   0.0001861   0.0000597   0.0001674
 Gradient of SCF Energy
            1           2           3           4           5           6
    1  -0.0211332   0.0311006   0.0297418  -0.0057784  -0.0429716   0.0435059
    2   0.0015492  -0.0166135   0.0159207  -0.0056214  -0.0078247   0.0031276
    3   0.0195979  -0.0180354  -0.0014189   0.0058652  -0.0236691  -0.0187111
            7           8           9          10          11          12
    1   0.0054192  -0.0109709  -0.0116920   0.0044915   0.0007560  -0.0104608
    2   0.0262599   0.0040535  -0.0339901  -0.0028957  -0.0072090   0.0162187
    3   0.0150880  -0.0075175   0.0042759  -0.0200761   0.0154585   0.0006548
           13          14          15          16          17          18
    1  -0.0040367  -0.0129703  -0.0155158   0.0096470   0.0132243  -0.0052328
    2   0.0027940  -0.0125557  -0.0160348   0.0039266   0.0281932  -0.0057460
    3   0.0174176   0.0103717  -0.0139250   0.0085664   0.0054427   0.0028227
           19          20          21          22
    1   0.0045814   0.0187379  -0.0041538  -0.0162895
    2   0.0053557  -0.0036190  -0.0000625   0.0047734
    3   0.0035218   0.0041812  -0.0137123   0.0038011
 Max gradient component =       4.351E-02
 RMS gradient           =       1.536E-02
 Computing fast CPCM-SWIG gradient
 Updating gradient with PCM contributions...
 -- total gradient after adding PCM contribution --
---------------------------------------------------
  Atom         X              Y              Z     
---------------------------------------------------
   1      -0.001783      -0.000978      -0.007235
   2      -0.005005      -0.001030       0.005067
   3      -0.001261       0.000701       0.003301
   4      -0.002982      -0.003014       0.000497
   5       0.001886       0.003808      -0.001245
   6      -0.000175      -0.000422       0.000726
   7      -0.004492      -0.002049      -0.002967
   8       0.003060       0.006938       0.003975
   9       0.002444       0.003404       0.005236
  10       0.003019       0.001743       0.005873
  11       0.000130       0.001227      -0.003690
  12       0.002561      -0.003118      -0.001139
  13       0.001577      -0.000422      -0.003127
  14       0.002292       0.001631      -0.001597
  15       0.001958       0.001487       0.001911
  16      -0.001557      -0.005777      -0.003460
  17      -0.001524      -0.002630      -0.002493
  18      -0.005787      -0.006072      -0.001351
  19       0.005470       0.004615       0.003790
  20      -0.002632      -0.000931      -0.004078
  21       0.000238       0.003382       0.007357
  22       0.002562      -0.002490      -0.005350
---------------------------------------------------
 Number of fixed atoms: 0
 Gradient time:  CPU 549.81 s  wall 45.91 s
 Geometry Optimization Parameters
   NAtoms,    NIC,     NZ,  NCons,   NDum,   NFix, NCnnct, MaxDiis
       22     146       0       0       0       0       0       0


** GEOMETRY OPTIMIZATION IN DELOCALIZED INTERNAL COORDINATES **
   Searching for a Minimum

   Optimization Cycle:   1

                       Coordinates (Angstroms)
     ATOM                X               Y               Z
      1  O         1.0052081611   -0.5083770776    0.5501571510
      2  C         2.3282218576   -0.2179571379    0.1263188474
      3  C         3.0072656439    0.6909017020    1.1512711643
      4  O         2.4949164305    0.5940115590    2.3383741923
      5  C         4.0655771171    1.4653721234    0.7494374507
      6  C         4.9432085314    2.2474761731    1.6549037225
      7  C         4.2475299764    3.2105470355    2.6345554867
      8  O         3.4086190034    4.0571644218    1.8804547474
      9  O         3.5574821382    2.5462227967    3.6628556244
     10  H         1.0519456476   -0.3138532307    1.5113956314
     11  H         2.3006859165    0.2539777672   -0.8612295304
     12  H         2.9165890687   -1.1448313523    0.0368605888
     13  H         4.3723828745    1.3967768684   -0.2905823316
     14  H         5.6777799690    2.8193324768    1.0842846237
     15  H         4.9865847205    3.8520966947    3.1203801275
     16  H         2.9748402684    3.4780514521    1.2223780606
     17  H         3.0906964005    1.7553177450    3.2431561661
     18  O         5.7562823219    1.3024514561    2.4815380254
     19  O         6.8094031616    1.8961314184    2.9907648342
     20  H         4.7850566510    2.1458018644    4.9598933726
     21  O         5.5209640546    2.0393883048    5.5997963097
     22  H         6.2221977855    1.6669357391    5.0429634353
   Point Group: c1    Number of degrees of freedom:    60


   Energy is   -723.172208847


 Attempting to generate delocalized internal coordinates
 Initial Hessian constructed with Jon Baker's OPTIMIZE code

 60 Hessian modes will be used to form the next step
  Hessian Eigenvalues:
     0.003526    0.005351    0.009317    0.011316    0.013095    0.014271
     0.015265    0.015732    0.017653    0.026163    0.031570    0.035788
     0.043896    0.046750    0.049829    0.055327    0.062630    0.064968
     0.070126    0.073136    0.073644    0.085164    0.099154    0.112695
     0.113993    0.139326    0.142820    0.158939    0.160000    0.160000
     0.172190    0.176460    0.188276    0.190818    0.193370    0.220296
     0.220361    0.221936    0.249920    0.250000    0.280766    0.295217
     0.321161    0.335182    0.341332    0.342563    0.345119    0.345953
     0.352206    0.425694    0.436398    0.439411    0.460147    0.494694
     0.506696    0.510297    0.517635    0.523309    0.621383    0.681538

 Minimum search - taking simple RFO step
 Searching for Lamda that Minimizes Along All modes
 Value Taken    Lamda =  -0.00187305
 Step Taken.  Stepsize is  0.192417

                             Maximum     Tolerance    Cnvgd?
         Gradient           0.006816      0.000300      NO
         Displacement       0.074329      0.001200      NO
         Energy change     *********      0.000001      NO


 New Cartesian Coordinates Obtained by Inverse Iteration

 Displacement from previous Coordinates is:  0.531831
 ----------------------------------------------------------------
             Standard Nuclear Orientation (Angstroms)
    I     Atom           X                Y                Z
 ----------------------------------------------------------------
    1      O       1.0093681146    -0.4686461886     0.5888286105
    2      C       2.3441992600    -0.2124741566     0.1728755044
    3      C       3.0376778959     0.7105185683     1.1684198379
    4      O       2.5398081413     0.6736707175     2.3634707348
    5      C       4.0927393738     1.4634082541     0.7438469594
    6      C       4.9601746855     2.2667584395     1.6335791885
    7      C       4.2394394786     3.1958636459     2.6219614235
    8      O       3.3871532652     4.0403822180     1.8795444378
    9      O       3.5427575476     2.4880429642     3.6147533913
   10      H       1.0152330069    -0.2473449362     1.5387704150
   11      H       2.3341224961     0.2268161002    -0.8234778323
   12      H       2.9086989243    -1.1494734154     0.1224620911
   13      H       4.3837561280     1.3858808008    -0.2946851242
   14      H       5.6717453428     2.8571656246     1.0620895770
   15      H       4.9557912387     3.8400598936     3.1274706860
   16      H       2.9608716088     3.4925125810     1.1998893742
   17      H       3.0985256836     1.7024537148     3.1717056384
   18      O       5.8007024005     1.3396703213     2.4488768470
   19      O       6.8235777419     1.9467430855     2.9871047157
   20      H       4.7484768959     2.0728458590     4.9332217341
   21      O       5.4670783730     1.9612151878     5.5853293124
   22      H       6.2015400968     1.6468695206     5.0438901778
 ----------------------------------------------------------------
 Nuclear Repulsion Energy =         792.18942154 hartrees
 There are       49 alpha and       48 beta electrons
 Discretize the solute cavity surface with Lebedev spheres
	Using 110 Lebedev grid points for each H atom
	Using 194 Lebedev grid points for other atoms
	Atomic van der Waals radii will be scaled by 1.20
 Remove points where switching function is < 1.0e-08
 Keep 1690 surface tesserae and discard 1738 interior tesserae
 Molecular Surface Area = 190.320 Angst**2
 Applying Cartesian multipole field
    Component          Value
    ---------          -----
     (2,0,0)        1.00000E-12
     (0,2,0)        2.00000E-11
     (0,0,2)       -3.00000E-12
 Nucleus-field energy     =     0.0000000286 hartrees
 Requested basis set is 6-311++G(2df,2p)
 There are 156 shells and 508 basis functions
 A cutoff of  1.0D-12 yielded  10223 shell pairs
 There are    106730 function pairs (    132033 Cartesian)
 Smallest overlap matrix eigenvalue = 4.74E-06
 Guess MOs from SCF MO coefficient file

 -----------------------------------------------------------------------
  General SCF calculation program by
  Eric Jon Sundstrom, Paul Horn, Yuezhi Mao, Dmitri Zuev, Alec White,
  David Stuck, Shaama M.S., Shane Yost, Joonho Lee, David Small,
  Daniel Levine, Susi Lehtola, Hugh Burton, Evgeny Epifanovsky,
  Bang C. Huynh
 -----------------------------------------------------------------------
 Exchange:     0.1500 Hartree-Fock + 1.0000 wB97M-V + LR-HF
 Correlation:  1.0000 wB97M-V
 Using SG-2 standard quadrature grid
 Nonlocal Correlation:  VV10 with C = 0.0100 and b = 6.00 and scale = 1.00000
 Grid used for NLC:  SG-1 standard quadrature
 
 Citation of the SMD model:
 Marenich, A.V.; Cramer, C.J.; Truhlar, D.G.
 J. Phys. Chem. B 2009, 113, 6378-6396.
 iSolventCode=           1
 Solvent: water                                                           
 
 vradii
            1           2           3           4           5           6
    1   1.5200000   1.8500000   1.8500000   1.5200000   1.8500000   1.8500000
            7           8           9          10          11          12
    1   1.8500000   1.5200000   1.5200000   1.2000000   1.2000000   1.2000000
           13          14          15          16          17          18
    1   1.2000000   1.2000000   1.2000000   1.2000000   1.2000000   1.5200000
           19          20          21          22
    1   1.5200000   1.2000000   1.5200000   1.2000000
 -------------------------------------------------------
 OpenMP BLAS3 based DFT computing Module                
 Release: version 1.0, May 2013, Q-Chem Inc. Pittsburgh 
 -------------------------------------------------------
 A unrestricted SCF calculation will be
 performed using Roothaan-Hall, DIIS, GDM
 SCF converges when RMS gradient is below 1.0e-07
 ---------------------------------------
  Cycle       Energy         DIIS error
 ---------------------------------------
    1    -723.0673708835      2.77e-04  Roothaan Step
 ---------------------------------------
  Cycle       Energy         DIIS error
 ---------------------------------------
    1    -723.1679293971      2.01e-04  
    2    -723.1735558669      1.85e-04  Done DIIS. Switching to GDM
 ---------------------------------------
  Cycle       Energy        RMS Gradient
 ---------------------------------------
    1    -723.1735558669      7.85e-03   Normal BFGS step
    2    -723.1730666601      1.54e-02  Line search: overstep
    3    -723.1764956232      3.18e-03   Normal BFGS step
    4    -723.1767230108      1.63e-03   Normal BFGS step
    5    -723.1767625774      1.35e-03   Normal BFGS step
    6    -723.1767817065      1.13e-03   Normal BFGS step
    7    -723.1767844222      1.04e-03   Normal BFGS step
    8    -723.1767870816      8.19e-04   Normal BFGS step
    9    -723.1767896787      3.55e-04   Normal BFGS step
   10    -723.1767907419      2.58e-04   Normal BFGS step
   11    -723.1767914042      1.31e-04   Normal BFGS step
   12    -723.1767915065      4.10e-05   Normal BFGS step
   13    -723.1767915363      2.61e-05   Normal BFGS step
   14    -723.1767915409      1.06e-05   Normal BFGS step
   15    -723.1767915423      3.86e-06   Normal BFGS step
   16    -723.1767915425      1.60e-06   Normal BFGS step
   17    -723.1767915425      8.64e-07   Normal BFGS step
   18    -723.1767915426      5.27e-07   Normal BFGS step
   19    -723.1767915426      4.59e-07   Normal BFGS step
   20    -723.1767915426      1.34e-07   Normal BFGS step
   21    -723.1767915425      2.34e-08  Convergence criterion met
 ---------------------------------------
 SCF time:   CPU 4378.68s  wall 303.00s 
<S^2> =          0.754153094
(3)  G-ENP(liq) elect-nuc-pol free energy of system     -723.176791543 a.u.
(4)  G-CDS(liq) cavity-dispersion-solvent structure 
     free energy                                                3.4774 kcal/mol
(6)  G-S(liq) free energy of system                     -723.171249998 a.u.
 SCF   energy in the final basis set =     -723.1712499977
 Total energy in the final basis set =     -723.1712499977
 
 --------------------------------------------------------------
 
                    Orbital Energies (a.u.)
 --------------------------------------------------------------
 
 Alpha MOs
 -- Occupied --
-19.4552 -19.4097 -19.3400 -19.3279 -19.3168 -19.3134 -19.2931 -10.4390
-10.4013 -10.3989 -10.3769 -10.3069  -1.3324  -1.1908  -1.1596  -1.1299
 -1.1226  -1.1060  -1.0085  -0.8862  -0.8376  -0.7912  -0.7354  -0.6639
 -0.6569  -0.6384  -0.6240  -0.6220  -0.6042  -0.6040  -0.5785  -0.5679
 -0.5641  -0.5269  -0.5071  -0.4989  -0.4869  -0.4854  -0.4743  -0.4525
 -0.4360  -0.4230  -0.4172  -0.4004  -0.3943  -0.3882  -0.3798  -0.3533
 -0.2999
 -- Virtual --
  0.0277   0.0399   0.0436   0.0458   0.0610   0.0617   0.0673   0.0712
  0.0883   0.0955   0.1028   0.1053   0.1202   0.1216   0.1330   0.1407
  0.1428   0.1537   0.1587   0.1614   0.1687   0.1715   0.1747   0.1822
  0.1846   0.1948   0.1988   0.2087   0.2105   0.2154   0.2242   0.2381
  0.2436   0.2524   0.2587   0.2618   0.2743   0.2784   0.2820   0.2858
  0.2917   0.2922   0.3040   0.3089   0.3149   0.3163   0.3217   0.3273
  0.3338   0.3396   0.3428   0.3535   0.3569   0.3594   0.3627   0.3693
  0.3717   0.3771   0.3784   0.3881   0.3931   0.3946   0.3987   0.4072
  0.4093   0.4165   0.4257   0.4355   0.4384   0.4592   0.4708   0.4752
  0.4780   0.4859   0.5026   0.5156   0.5282   0.5472   0.5706   0.5856
  0.5896   0.6080   0.6158   0.6184   0.6250   0.6429   0.6531   0.6622
  0.6713   0.6748   0.6777   0.6868   0.6949   0.7099   0.7265   0.7321
  0.7421   0.7492   0.7597   0.7662   0.7735   0.8032   0.8183   0.8315
  0.8383   0.8456   0.8631   0.8643   0.8780   0.8891   0.8940   0.9057
  0.9363   0.9495   0.9587   0.9701   0.9825   1.0107   1.0184   1.0372
  1.0414   1.0511   1.0657   1.0782   1.0902   1.0946   1.1058   1.1187
  1.1315   1.1411   1.1565   1.1610   1.1680   1.1804   1.1867   1.1925
  1.2024   1.2076   1.2097   1.2310   1.2355   1.2488   1.2550   1.2583
  1.2699   1.2868   1.2946   1.2951   1.3169   1.3180   1.3214   1.3292
  1.3378   1.3527   1.3688   1.3832   1.3958   1.4098   1.4190   1.4299
  1.4453   1.4506   1.4729   1.4767   1.4840   1.4861   1.5032   1.5128
  1.5300   1.5425   1.5658   1.5794   1.5838   1.5924   1.6023   1.6096
  1.6234   1.6315   1.6505   1.6691   1.6825   1.7051   1.7177   1.7318
  1.7502   1.7803   1.7884   1.8101   1.8176   1.8353   1.8491   1.8887
  1.9254   1.9428   1.9583   1.9610   1.9841   2.0099   2.0489   2.0660
  2.0826   2.1134   2.1497   2.1640   2.1838   2.2026   2.2301   2.2458
  2.2586   2.2737   2.3047   2.3175   2.3414   2.3664   2.3854   2.3948
  2.4241   2.4285   2.4430   2.4809   2.5041   2.5233   2.5408   2.5684
  2.6052   2.6625   2.6939   2.7024   2.7276   2.7458   2.7590   2.8015
  2.8242   2.8478   2.8756   2.8846   2.9013   2.9055   2.9467   2.9559
  2.9875   3.0171   3.0237   3.0358   3.0758   3.0916   3.0971   3.1279
  3.1407   3.1609   3.1892   3.1929   3.2210   3.2318   3.2581   3.3176
  3.3320   3.3415   3.3806   3.4026   3.4177   3.4394   3.4472   3.4579
  3.4688   3.4857   3.5034   3.5319   3.5426   3.5607   3.5783   3.6146
  3.6428   3.6607   3.6743   3.6947   3.7104   3.7174   3.7405   3.7530
  3.7593   3.7685   3.7728   3.8058   3.8097   3.8260   3.8457   3.8576
  3.8640   3.8700   3.8796   3.8951   3.9188   3.9305   3.9394   3.9619
  3.9844   4.0153   4.0390   4.0430   4.0583   4.1032   4.1120   4.1341
  4.1591   4.1723   4.1978   4.2108   4.2338   4.2510   4.2782   4.2961
  4.2985   4.3159   4.3454   4.3674   4.3793   4.4098   4.4324   4.4526
  4.4676   4.4735   4.5077   4.5247   4.5498   4.5676   4.5991   4.6224
  4.6406   4.6654   4.6845   4.7295   4.7446   4.7632   4.7874   4.8709
  4.9197   4.9286   5.0331   5.0969   5.1042   5.1165   5.1179   5.1494
  5.1832   5.1986   5.2212   5.2358   5.2456   5.2569   5.2607   5.2712
  5.2811   5.2948   5.3009   5.3244   5.3276   5.3340   5.3561   5.3619
  5.3790   5.3939   5.4071   5.4233   5.4363   5.4500   5.4549   5.4833
  5.5052   5.5300   5.5457   5.5468   5.5816   5.5937   5.5988   5.6046
  5.6091   5.6202   5.6397   5.6676   5.6812   5.6955   5.7203   5.7294
  5.7393   5.7609   5.8064   5.8215   5.8327   5.8727   5.8760   5.9152
  5.9556   6.0058   6.0419   6.1586   6.1774   6.1978   6.4068   6.4736
  6.5831   6.6075   6.6272   6.6637   6.7903   6.8800   6.9141   6.9924
  7.0346   7.0542   7.0771   7.1028   7.1084   7.1349   7.1399   7.1652
  7.1899   7.2136   7.2489   7.2580   7.2969   7.3105   7.3266   7.3385
  7.3583   7.3842   7.4140   7.4364   7.4392   7.4567   7.4804   7.4855
  7.5102   7.5444   7.5940   7.6012   7.6592   7.7347   7.7579   7.7757
  7.8210   7.8413   7.8968   7.9500   8.0632   8.1054   8.1191  24.6089
 24.7249  24.7788  24.8405  25.2390  50.4477  50.5211  50.5534  50.6095
 50.6348  50.6922  50.7909
 
 Beta MOs
 -- Occupied --
-19.4440 -19.3918 -19.3399 -19.3279 -19.3167 -19.3134 -19.2930 -10.4387
-10.4017 -10.3989 -10.3769 -10.3069  -1.3057  -1.1904  -1.1596  -1.1297
 -1.1223  -1.1059  -0.9806  -0.8782  -0.8325  -0.7907  -0.7326  -0.6607
 -0.6435  -0.6273  -0.6235  -0.6169  -0.5978  -0.5892  -0.5706  -0.5634
 -0.5373  -0.5213  -0.5046  -0.4937  -0.4857  -0.4751  -0.4733  -0.4491
 -0.4352  -0.4191  -0.4085  -0.3942  -0.3853  -0.3807  -0.3546  -0.2987
 -- Virtual --
 -0.0279   0.0278   0.0401   0.0439   0.0460   0.0615   0.0619   0.0676
  0.0714   0.0885   0.0969   0.1033   0.1056   0.1210   0.1223   0.1333
  0.1409   0.1432   0.1542   0.1588   0.1626   0.1690   0.1723   0.1759
  0.1825   0.1854   0.1951   0.2014   0.2091   0.2113   0.2157   0.2251
  0.2387   0.2463   0.2555   0.2612   0.2634   0.2756   0.2800   0.2826
  0.2872   0.2929   0.2977   0.3061   0.3090   0.3160   0.3170   0.3232
  0.3277   0.3344   0.3404   0.3432   0.3544   0.3579   0.3600   0.3632
  0.3697   0.3724   0.3782   0.3810   0.3893   0.3937   0.3952   0.3997
  0.4081   0.4104   0.4170   0.4264   0.4364   0.4392   0.4599   0.4713
  0.4762   0.4787   0.4866   0.5032   0.5168   0.5284   0.5473   0.5709
  0.5860   0.5897   0.6082   0.6169   0.6187   0.6252   0.6432   0.6544
  0.6623   0.6715   0.6752   0.6779   0.6869   0.6959   0.7106   0.7268
  0.7322   0.7425   0.7492   0.7601   0.7665   0.7742   0.8037   0.8192
  0.8318   0.8385   0.8466   0.8633   0.8645   0.8783   0.8899   0.8946
  0.9062   0.9388   0.9504   0.9591   0.9704   0.9827   1.0113   1.0195
  1.0380   1.0439   1.0516   1.0662   1.0793   1.0905   1.0967   1.1064
  1.1237   1.1326   1.1424   1.1595   1.1629   1.1703   1.1851   1.1880
  1.1957   1.2051   1.2112   1.2153   1.2331   1.2410   1.2531   1.2586
  1.2649   1.2730   1.2902   1.2959   1.2963   1.3183   1.3195   1.3225
  1.3308   1.3468   1.3539   1.3700   1.3842   1.3971   1.4116   1.4200
  1.4315   1.4473   1.4521   1.4755   1.4780   1.4841   1.4887   1.5095
  1.5163   1.5378   1.5441   1.5664   1.5812   1.5854   1.5950   1.6032
  1.6145   1.6247   1.6348   1.6524   1.6705   1.6907   1.7069   1.7238
  1.7423   1.7515   1.7846   1.7962   1.8135   1.8213   1.8390   1.8529
  1.8912   1.9296   1.9477   1.9606   1.9620   1.9874   2.0118   2.0516
  2.0705   2.0883   2.1150   2.1507   2.1660   2.1925   2.2034   2.2314
  2.2495   2.2634   2.2780   2.3134   2.3273   2.3438   2.3685   2.3866
  2.3971   2.4249   2.4298   2.4481   2.4816   2.5048   2.5244   2.5420
  2.5691   2.6061   2.6632   2.6980   2.7029   2.7303   2.7493   2.7594
  2.8023   2.8251   2.8480   2.8763   2.8851   2.9014   2.9067   2.9468
  2.9559   2.9876   3.0173   3.0240   3.0360   3.0760   3.0921   3.0977
  3.1281   3.1414   3.1612   3.1897   3.1933   3.2212   3.2319   3.2582
  3.3180   3.3328   3.3417   3.3812   3.4026   3.4178   3.4396   3.4476
  3.4586   3.4689   3.4862   3.5035   3.5324   3.5428   3.5611   3.5782
  3.6152   3.6431   3.6610   3.6750   3.6953   3.7111   3.7179   3.7407
  3.7529   3.7593   3.7689   3.7731   3.8059   3.8098   3.8261   3.8462
  3.8577   3.8642   3.8702   3.8799   3.8953   3.9194   3.9309   3.9400
  3.9624   3.9849   4.0155   4.0396   4.0435   4.0589   4.1033   4.1121
  4.1342   4.1592   4.1726   4.1987   4.2112   4.2341   4.2520   4.2783
  4.2964   4.2991   4.3173   4.3456   4.3676   4.3797   4.4104   4.4328
  4.4535   4.4690   4.4744   4.5091   4.5264   4.5500   4.5682   4.6027
  4.6274   4.6477   4.6773   4.6896   4.7306   4.7478   4.7802   4.7896
  4.8735   4.9377   4.9427   5.0472   5.1099   5.1191   5.1437   5.1707
  5.1841   5.1980   5.2094   5.2317   5.2472   5.2567   5.2597   5.2680
  5.2949   5.2993   5.3072   5.3205   5.3261   5.3366   5.3375   5.3614
  5.3672   5.3813   5.3963   5.4183   5.4251   5.4457   5.4567   5.4623
  5.4885   5.5109   5.5350   5.5497   5.5526   5.5824   5.5963   5.5994
  5.6068   5.6108   5.6257   5.6412   5.6704   5.6823   5.6961   5.7264
  5.7324   5.7446   5.7691   5.8083   5.8327   5.8337   5.8759   5.8766
  5.9158   5.9559   6.0060   6.0439   6.1593   6.1782   6.1981   6.4204
  6.5183   6.5909   6.6080   6.6322   6.6650   6.7915   6.9578   6.9784
  7.0229   7.0603   7.0679   7.0813   7.1032   7.1341   7.1368   7.1464
  7.1706   7.1915   7.2310   7.2603   7.2694   7.3060   7.3201   7.3366
  7.3536   7.3589   7.3846   7.4173   7.4433   7.4495   7.4709   7.4824
  7.5107   7.5236   7.5452   7.5946   7.6013   7.6602   7.7351   7.7581
  7.7771   7.8299   7.8462   7.8974   7.9502   8.0773   8.1091   8.1347
 24.6088  24.7248  24.7788  24.8407  25.2390  50.4598  50.5215  50.5631
 50.6096  50.6348  50.6925  50.7909
 --------------------------------------------------------------
 
          Ground-State Mulliken Net Atomic Charges

     Atom                 Charge (a.u.)    Spin (a.u.)
  --------------------------------------------------------
      1 O                    -0.465555      -0.000022
      2 C                    -0.428577      -0.000813
      3 C                     0.323766       0.003419
      4 O                    -0.708942       0.001291
      5 C                    -0.342551      -0.000583
      6 C                    -0.360017      -0.003337
      7 C                    -0.274185       0.009346
      8 O                    -0.417883       0.001279
      9 O                    -0.533457       0.002381
     10 H                     0.337864       0.000094
     11 H                     0.193795       0.000133
     12 H                     0.194163      -0.000163
     13 H                     0.275450      -0.000308
     14 H                     0.323848       0.005250
     15 H                     0.272790       0.000138
     16 H                     0.324633       0.000144
     17 H                     0.475880      -0.000766
     18 O                     0.078406       0.341849
     19 O                    -0.248014       0.637912
     20 H                     0.395978      -0.002115
     21 O                    -0.732039       0.005163
     22 H                     0.314647      -0.000293
  --------------------------------------------------------
  Sum of atomic charges =    -1.000000
  Sum of spin   charges =     1.000000

 -----------------------------------------------------------------
                    Cartesian Multipole Moments
 -----------------------------------------------------------------
    Charge (ESU x 10^10)
                -4.8032
    Dipole Moment (Debye)
         X     -16.2220      Y      -7.6703      Z     -17.7191
       Tot      25.2181
    Quadrupole Moments (Debye-Ang)
        XX    -150.4072     XY     -32.3858     YY    -102.1557
        XZ     -77.0306     YZ     -36.0197     ZZ    -152.5072
    Octopole Moments (Debye-Ang^2)
       XXX   -1287.3395    XXY    -264.6666    XYY    -386.3420
       YYY    -469.7490    XXZ    -529.4118    XYZ    -154.7831
       YYZ    -260.1132    XZZ    -658.7812    YZZ    -286.3952
       ZZZ    -891.7535
    Hexadecapole Moments (Debye-Ang^3)
      XXXX  -10479.8921   XXXY   -2374.7185   XXYY   -2034.7680
      XYYY   -1996.5149   YYYY   -2475.9622   XXXZ   -4106.7888
      XXYZ   -1069.0188   XYYZ   -1119.7451   YYYZ   -1295.2293
      XXZZ   -3682.3534   XYZZ   -1317.1830   YYZZ   -1274.9449
      XZZZ   -4197.7562   YZZZ   -1841.3688   ZZZZ   -5501.5908
 -----------------------------------------------------------------
 Calculating analytic gradient of the SCF energy
 Gradient of CDS energy
            1           2           3           4           5           6
    1   0.0000929  -0.0004322  -0.0007585   0.0008616   0.0001411   0.0001210
    2   0.0000776  -0.0006535  -0.0000801  -0.0000115   0.0000103  -0.0000483
    3  -0.0000164  -0.0008223   0.0023359  -0.0019271  -0.0001198   0.0000620
            7           8           9          10          11          12
    1  -0.0021066   0.0010351   0.0012062  -0.0003764   0.0000931   0.0001033
    2   0.0004823  -0.0010876   0.0011153  -0.0000949   0.0001893  -0.0000699
    3   0.0008199   0.0009257  -0.0017423   0.0002240  -0.0000208   0.0001421
           13          14          15          16          17          18
    1   0.0000264   0.0001720   0.0002174  -0.0003023  -0.0001594   0.0000474
    2   0.0000140   0.0000759  -0.0000784   0.0002405  -0.0000721   0.0001149
    3  -0.0001673  -0.0000741   0.0000933  -0.0002378   0.0002168   0.0000294
           19          20          21          22
    1  -0.0000401  -0.0003256   0.0000238   0.0003598
    2   0.0000005  -0.0000653   0.0001547  -0.0002140
    3  -0.0001320   0.0001744   0.0000679   0.0001685
 Gradient of SCF Energy
            1           2           3           4           5           6
    1  -0.0202667   0.0322311   0.0339485   0.0019756  -0.0469417   0.0461306
    2   0.0027387  -0.0195534   0.0159371   0.0088327  -0.0078146   0.0021967
    3   0.0229186  -0.0209684  -0.0029592   0.0127082  -0.0192445  -0.0228411
            7           8           9          10          11          12
    1   0.0113134  -0.0137525  -0.0277787   0.0030039   0.0006216  -0.0120202
    2   0.0327254  -0.0019607  -0.0581204  -0.0043714  -0.0079643   0.0194029
    3   0.0153096  -0.0095974  -0.0070939  -0.0225099   0.0185024   0.0005233
           13          14          15          16          17          18
    1  -0.0053230  -0.0147495  -0.0174445   0.0108884   0.0205614  -0.0019354
    2   0.0033726  -0.0152239  -0.0187044   0.0078186   0.0381149  -0.0012338
    3   0.0202567   0.0121667  -0.0169106   0.0110558   0.0085257   0.0035697
           19          20          21          22
    1   0.0008623   0.0228799  -0.0043528  -0.0198518
    2   0.0025317  -0.0035367  -0.0007439   0.0055563
    3   0.0021053   0.0083331  -0.0202634   0.0064130
 Max gradient component =       5.812E-02
 RMS gradient           =       1.863E-02
 Computing fast CPCM-SWIG gradient
 Updating gradient with PCM contributions...
 -- total gradient after adding PCM contribution --
---------------------------------------------------
  Atom         X              Y              Z     
---------------------------------------------------
   1      -0.000366      -0.001133      -0.003139
   2      -0.001964      -0.000279      -0.001196
   3       0.000723      -0.000545       0.005670
   4       0.006579       0.011626       0.004895
   5      -0.000546       0.001854      -0.000062
   6       0.000016      -0.000827      -0.000725
   7       0.001996       0.002528      -0.003663
   8       0.000472      -0.000590       0.001923
   9      -0.011698      -0.018236      -0.008515
  10       0.000564       0.001046       0.003140
  11       0.000258      -0.000240      -0.000504
  12       0.000537       0.000075      -0.000287
  13       0.000016       0.000025      -0.000044
  14      -0.000045      -0.000124       0.000125
  15      -0.000014      -0.000472       0.000656
  16      -0.000617      -0.000908      -0.001485
  17       0.004124       0.006347       0.002758
  18      -0.002082      -0.001104      -0.000618
  19       0.001722       0.001195       0.002369
  20       0.000171      -0.001293      -0.000398
  21      -0.000015       0.001846       0.001330
  22       0.000170      -0.000792      -0.002229
---------------------------------------------------
 Number of fixed atoms: 0
 Gradient time:  CPU 542.84 s  wall 45.63 s
 Geometry Optimization Parameters
   NAtoms,    NIC,     NZ,  NCons,   NDum,   NFix, NCnnct, MaxDiis
       22     146       0       0       0       0       0       0

 Cartesian Hessian Update
 Hessian updated using BFGS update


** GEOMETRY OPTIMIZATION IN DELOCALIZED INTERNAL COORDINATES **
   Searching for a Minimum

   Optimization Cycle:   2

                       Coordinates (Angstroms)
     ATOM                X               Y               Z
      1  O         1.0093681146   -0.4686461886    0.5888286105
      2  C         2.3441992600   -0.2124741566    0.1728755044
      3  C         3.0376778959    0.7105185683    1.1684198379
      4  O         2.5398081413    0.6736707175    2.3634707348
      5  C         4.0927393738    1.4634082541    0.7438469594
      6  C         4.9601746855    2.2667584395    1.6335791885
      7  C         4.2394394786    3.1958636459    2.6219614235
      8  O         3.3871532652    4.0403822180    1.8795444378
      9  O         3.5427575476    2.4880429642    3.6147533913
     10  H         1.0152330069   -0.2473449362    1.5387704150
     11  H         2.3341224961    0.2268161002   -0.8234778323
     12  H         2.9086989243   -1.1494734154    0.1224620911
     13  H         4.3837561280    1.3858808008   -0.2946851242
     14  H         5.6717453428    2.8571656246    1.0620895770
     15  H         4.9557912387    3.8400598936    3.1274706860
     16  H         2.9608716088    3.4925125810    1.1998893742
     17  H         3.0985256836    1.7024537148    3.1717056384
     18  O         5.8007024005    1.3396703213    2.4488768470
     19  O         6.8235777419    1.9467430855    2.9871047157
     20  H         4.7484768959    2.0728458590    4.9332217341
     21  O         5.4670783730    1.9612151878    5.5853293124
     22  H         6.2015400968    1.6468695206    5.0438901778
   Point Group: c1    Number of degrees of freedom:    60


   Energy is   -723.171249998

 Hessian updated using BFGS update

 60 Hessian modes will be used to form the next step
  Hessian Eigenvalues:
     0.003960    0.005269    0.008582    0.012347    0.013062    0.014257
     0.015309    0.016187    0.017619    0.026212    0.030315    0.033575
     0.045049    0.049393    0.055202    0.057748    0.062540    0.065686
     0.070009    0.073130    0.073272    0.084802    0.096444    0.104792
     0.113991    0.114128    0.139349    0.143994    0.158946    0.160007
     0.171820    0.177418    0.187132    0.192792    0.198914    0.208819
     0.221214    0.234876    0.248603    0.278643    0.289104    0.311596
     0.322335    0.335482    0.338669    0.343974    0.345574    0.350780
     0.422004    0.434207    0.438413    0.440663    0.467818    0.495814
     0.504689    0.514626    0.522013    0.606435    0.680556    1.376170

 Minimum search - taking simple RFO step
 Searching for Lamda that Minimizes Along All modes
 Value Taken    Lamda =  -0.00613795
 Step Taken.  Stepsize is  0.217316

                             Maximum     Tolerance    Cnvgd?
         Gradient           0.066011      0.000300      NO
         Displacement       0.082973      0.001200      NO
         Energy change      0.000959      0.000001      NO


 New Cartesian Coordinates Obtained by Inverse Iteration

 Displacement from previous Coordinates is:  0.831106
 ----------------------------------------------------------------
             Standard Nuclear Orientation (Angstroms)
    I     Atom           X                Y                Z
 ----------------------------------------------------------------
    1      O       0.9967211226    -0.4946619481     0.4497311365
    2      C       2.3546920515    -0.2226612392     0.1145281876
    3      C       3.0075440824     0.6683865350     1.1530514339
    4      O       2.4859071621     0.6085514073     2.3340153118
    5      C       4.0639049324     1.4259825129     0.7747415521
    6      C       4.9303046382     2.2343462301     1.6610738370
    7      C       4.2566311644     3.2067781839     2.6396260102
    8      O       3.3827536921     4.0384379871     1.9054185279
    9      O       3.5875211939     2.5611192805     3.6874189299
   10      H       0.8987753840    -0.3064732735     1.3900493220
   11      H       2.3917463503     0.2384132381    -0.8605365004
   12      H       2.9098685219    -1.1535764928     0.0754001974
   13      H       4.3565672970     1.3644789680    -0.2556735755
   14      H       5.6340093474     2.8025483867     1.0724927040
   15      H       4.9985735060     3.8568511204     3.0804672235
   16      H       2.8976477572     3.5140927326     1.2636028589
   17      H       3.0988722501     1.7723855472     3.3117977384
   18      O       5.7796380120     1.3162577391     2.4709450046
   19      O       6.8374827784     1.8897972997     2.9497415651
   20      H       4.8259692225     2.1596419769     4.9853335314
   21      O       5.5569990121     2.0467259302     5.6122789827
   22      H       6.2713082213     1.7055166779     5.0744237210
 ----------------------------------------------------------------
 Nuclear Repulsion Energy =         786.54248176 hartrees
 There are       49 alpha and       48 beta electrons
 Discretize the solute cavity surface with Lebedev spheres
	Using 110 Lebedev grid points for each H atom
	Using 194 Lebedev grid points for other atoms
	Atomic van der Waals radii will be scaled by 1.20
 Remove points where switching function is < 1.0e-08
 Keep 1708 surface tesserae and discard 1720 interior tesserae
 Molecular Surface Area = 192.209 Angst**2
 Applying Cartesian multipole field
    Component          Value
    ---------          -----
     (2,0,0)        1.00000E-12
     (0,2,0)        2.00000E-11
     (0,0,2)       -3.00000E-12
 Nucleus-field energy     =     0.0000000287 hartrees
 Requested basis set is 6-311++G(2df,2p)
 There are 156 shells and 508 basis functions
 A cutoff of  1.0D-12 yielded  10170 shell pairs
 There are    106041 function pairs (    131177 Cartesian)
 Smallest overlap matrix eigenvalue = 4.56E-06
 Guess MOs from SCF MO coefficient file

 -----------------------------------------------------------------------
  General SCF calculation program by
  Eric Jon Sundstrom, Paul Horn, Yuezhi Mao, Dmitri Zuev, Alec White,
  David Stuck, Shaama M.S., Shane Yost, Joonho Lee, David Small,
  Daniel Levine, Susi Lehtola, Hugh Burton, Evgeny Epifanovsky,
  Bang C. Huynh
 -----------------------------------------------------------------------
 Exchange:     0.1500 Hartree-Fock + 1.0000 wB97M-V + LR-HF
 Correlation:  1.0000 wB97M-V
 Using SG-2 standard quadrature grid
 Nonlocal Correlation:  VV10 with C = 0.0100 and b = 6.00 and scale = 1.00000
 Grid used for NLC:  SG-1 standard quadrature
 
 Citation of the SMD model:
 Marenich, A.V.; Cramer, C.J.; Truhlar, D.G.
 J. Phys. Chem. B 2009, 113, 6378-6396.
 iSolventCode=           1
 Solvent: water                                                           
 
 vradii
            1           2           3           4           5           6
    1   1.5200000   1.8500000   1.8500000   1.5200000   1.8500000   1.8500000
            7           8           9          10          11          12
    1   1.8500000   1.5200000   1.5200000   1.2000000   1.2000000   1.2000000
           13          14          15          16          17          18
    1   1.2000000   1.2000000   1.2000000   1.2000000   1.2000000   1.5200000
           19          20          21          22
    1   1.5200000   1.2000000   1.5200000   1.2000000
 -------------------------------------------------------
 OpenMP BLAS3 based DFT computing Module                
 Release: version 1.0, May 2013, Q-Chem Inc. Pittsburgh 
 -------------------------------------------------------
 A unrestricted SCF calculation will be
 performed using Roothaan-Hall, DIIS, GDM
 SCF converges when RMS gradient is below 1.0e-07
 ---------------------------------------
  Cycle       Energy         DIIS error
 ---------------------------------------
    1    -723.0598487599      3.47e-04  Roothaan Step
 ---------------------------------------
  Cycle       Energy         DIIS error
 ---------------------------------------
    1    -723.1673445352      2.23e-04  
    2    -723.1726097052      2.28e-04  Done DIIS. Switching to GDM
 ---------------------------------------
  Cycle       Energy        RMS Gradient
 ---------------------------------------
    1    -723.1726097052      1.24e-02   Normal BFGS step
    2    -723.1707138663      2.03e-02  Line search: overstep
    3    -723.1770325607      2.26e-03   Normal BFGS step
    4    -723.1772783905      1.21e-03   Normal BFGS step
    5    -723.1773213478      6.02e-04   Normal BFGS step
    6    -723.1773351249      5.87e-04   Normal BFGS step
    7    -723.1773365844      4.49e-04   Normal BFGS step
    8    -723.1773373568      3.76e-04   Normal BFGS step
    9    -723.1773376975      2.70e-04   Normal BFGS step
   10    -723.1773378928      1.96e-04   Normal BFGS step
   11    -723.1773381109      9.99e-05   Normal BFGS step
   12    -723.1773381920      5.41e-05   Normal BFGS step
   13    -723.1773382165      2.41e-05   Normal BFGS step
   14    -723.1773382223      8.73e-06   Normal BFGS step
   15    -723.1773382232      6.26e-06   Normal BFGS step
   16    -723.1773382235      1.84e-06   Normal BFGS step
   17    -723.1773382235      1.01e-06   Normal BFGS step
   18    -723.1773382235      7.25e-07   Normal BFGS step
   19    -723.1773382235      4.41e-07   Normal BFGS step
   20    -723.1773382236      7.08e-08  Convergence criterion met
 ---------------------------------------
 SCF time:   CPU 4274.37s  wall 295.00s 
<S^2> =          0.754108219
(3)  G-ENP(liq) elect-nuc-pol free energy of system     -723.177338224 a.u.
(4)  G-CDS(liq) cavity-dispersion-solvent structure 
     free energy                                                3.6092 kcal/mol
(6)  G-S(liq) free energy of system                     -723.171586529 a.u.
 SCF   energy in the final basis set =     -723.1715865286
 Total energy in the final basis set =     -723.1715865286
 
 --------------------------------------------------------------
 
                    Orbital Energies (a.u.)
 --------------------------------------------------------------
 
 Alpha MOs
 -- Occupied --
-19.4549 -19.4081 -19.3398 -19.3279 -19.3269 -19.3168 -19.2851 -10.4421
-10.4003 -10.3920 -10.3733 -10.3007  -1.3385  -1.1940  -1.1551  -1.1312
 -1.1228  -1.1073  -1.0083  -0.8845  -0.8414  -0.7941  -0.7377  -0.6616
 -0.6577  -0.6411  -0.6305  -0.6228  -0.6073  -0.6022  -0.5780  -0.5714
 -0.5645  -0.5267  -0.5051  -0.4995  -0.4885  -0.4827  -0.4701  -0.4523
 -0.4362  -0.4244  -0.4188  -0.4003  -0.3982  -0.3873  -0.3780  -0.3499
 -0.2954
 -- Virtual --
  0.0275   0.0398   0.0436   0.0458   0.0612   0.0617   0.0665   0.0712
  0.0885   0.0985   0.1015   0.1047   0.1213   0.1219   0.1324   0.1415
  0.1432   0.1544   0.1568   0.1616   0.1686   0.1722   0.1764   0.1824
  0.1850   0.1943   0.2004   0.2087   0.2096   0.2163   0.2250   0.2383
  0.2451   0.2506   0.2582   0.2622   0.2740   0.2777   0.2813   0.2863
  0.2897   0.2939   0.3030   0.3080   0.3139   0.3197   0.3228   0.3272
  0.3317   0.3414   0.3417   0.3544   0.3563   0.3579   0.3612   0.3691
  0.3720   0.3791   0.3802   0.3880   0.3942   0.3976   0.3998   0.4011
  0.4087   0.4136   0.4251   0.4347   0.4381   0.4502   0.4583   0.4741
  0.4786   0.4845   0.5030   0.5128   0.5191   0.5501   0.5757   0.5841
  0.5930   0.6082   0.6164   0.6207   0.6261   0.6437   0.6528   0.6650
  0.6745   0.6752   0.6798   0.6874   0.6981   0.7108   0.7256   0.7356
  0.7387   0.7512   0.7539   0.7714   0.7737   0.7973   0.8185   0.8284
  0.8388   0.8470   0.8617   0.8667   0.8726   0.8848   0.8912   0.9047
  0.9306   0.9536   0.9575   0.9640   0.9781   1.0074   1.0160   1.0337
  1.0399   1.0502   1.0616   1.0729   1.0868   1.0914   1.1025   1.1157
  1.1282   1.1452   1.1548   1.1549   1.1664   1.1813   1.1863   1.1900
  1.2025   1.2040   1.2069   1.2319   1.2338   1.2485   1.2543   1.2556
  1.2652   1.2767   1.2872   1.2976   1.3017   1.3168   1.3214   1.3281
  1.3417   1.3474   1.3607   1.3843   1.3964   1.4097   1.4192   1.4221
  1.4447   1.4539   1.4702   1.4734   1.4831   1.4866   1.4977   1.5121
  1.5215   1.5323   1.5594   1.5726   1.5821   1.5832   1.5907   1.6056
  1.6274   1.6332   1.6431   1.6643   1.6707   1.7049   1.7146   1.7226
  1.7434   1.7572   1.7852   1.7949   1.8103   1.8178   1.8461   1.8759
  1.9209   1.9378   1.9417   1.9568   1.9797   2.0088   2.0384   2.0432
  2.0755   2.1052   2.1185   2.1592   2.1873   2.1890   2.2150   2.2358
  2.2500   2.2757   2.3022   2.3244   2.3269   2.3641   2.3798   2.3938
  2.4132   2.4213   2.4312   2.4525   2.4878   2.5159   2.5400   2.5622
  2.5751   2.6277   2.6753   2.6945   2.7105   2.7267   2.7543   2.7812
  2.8239   2.8406   2.8670   2.8715   2.9043   2.9224   2.9561   2.9591
  2.9881   3.0051   3.0177   3.0378   3.0718   3.0746   3.0965   3.1256
  3.1435   3.1636   3.1907   3.1998   3.2216   3.2301   3.2608   3.3200
  3.3286   3.3449   3.3759   3.3917   3.4123   3.4349   3.4443   3.4524
  3.4645   3.4873   3.5029   3.5272   3.5336   3.5555   3.5761   3.6100
  3.6452   3.6567   3.6680   3.6959   3.7029   3.7134   3.7429   3.7553
  3.7586   3.7705   3.7744   3.8007   3.8038   3.8253   3.8448   3.8549
  3.8616   3.8662   3.8827   3.8892   3.9149   3.9313   3.9407   3.9636
  3.9842   4.0262   4.0398   4.0501   4.0666   4.1011   4.1124   4.1437
  4.1555   4.1780   4.2013   4.2159   4.2455   4.2596   4.2933   4.3026
  4.3054   4.3153   4.3525   4.3697   4.3843   4.4222   4.4467   4.4675
  4.4790   4.4978   4.5262   4.5301   4.5647   4.5671   4.6002   4.6258
  4.6490   4.6769   4.6921   4.7452   4.7544   4.7803   4.7976   4.8692
  4.9256   4.9510   5.0442   5.0949   5.1043   5.1138   5.1172   5.1504
  5.1811   5.1956   5.2188   5.2267   5.2481   5.2569   5.2604   5.2703
  5.2799   5.2855   5.3012   5.3145   5.3190   5.3371   5.3480   5.3537
  5.3716   5.3873   5.4072   5.4288   5.4317   5.4406   5.4520   5.4672
  5.4957   5.5268   5.5401   5.5484   5.5703   5.5899   5.6009   5.6070
  5.6214   5.6356   5.6464   5.6551   5.6855   5.7230   5.7284   5.7371
  5.7467   5.7789   5.8155   5.8349   5.8429   5.8857   5.8951   5.9272
  5.9744   6.0373   6.0623   6.1299   6.1700   6.2173   6.4153   6.5151
  6.5994   6.6081   6.6552   6.6932   6.7882   6.8764   6.9164   6.9971
  7.0324   7.0521   7.0782   7.1023   7.1144   7.1311   7.1448   7.1870
  7.1942   7.2130   7.2466   7.2551   7.3054   7.3165   7.3359   7.3481
  7.3558   7.3648   7.4057   7.4172   7.4409   7.4575   7.4687   7.4887
  7.5063   7.5356   7.5735   7.6347   7.6568   7.6982   7.7462   7.7643
  7.8023   7.8308   7.8704   7.9155   7.9589   8.0755   8.1359  24.6180
 24.7366  24.8094  24.8490  25.2838  50.4577  50.5291  50.5577  50.6121
 50.6350  50.6748  50.7738
 
 Beta MOs
 -- Occupied --
-19.4436 -19.3903 -19.3398 -19.3279 -19.3269 -19.3166 -19.2851 -10.4418
-10.4006 -10.3920 -10.3733 -10.3007  -1.3117  -1.1936  -1.1551  -1.1310
 -1.1225  -1.1072  -0.9810  -0.8769  -0.8359  -0.7935  -0.7346  -0.6573
 -0.6444  -0.6320  -0.6293  -0.6167  -0.6003  -0.5865  -0.5739  -0.5637
 -0.5380  -0.5213  -0.5028  -0.4932  -0.4871  -0.4755  -0.4693  -0.4493
 -0.4356  -0.4205  -0.4098  -0.4001  -0.3856  -0.3784  -0.3507  -0.2943
 -- Virtual --
 -0.0252   0.0277   0.0400   0.0440   0.0460   0.0615   0.0622   0.0667
  0.0713   0.0888   0.1000   0.1019   0.1049   0.1220   0.1229   0.1327
  0.1418   0.1436   0.1548   0.1570   0.1627   0.1688   0.1729   0.1778
  0.1828   0.1856   0.1947   0.2028   0.2090   0.2104   0.2167   0.2259
  0.2388   0.2469   0.2538   0.2603   0.2638   0.2754   0.2790   0.2815
  0.2872   0.2906   0.3007   0.3050   0.3084   0.3144   0.3202   0.3255
  0.3277   0.3324   0.3417   0.3423   0.3552   0.3573   0.3591   0.3616
  0.3694   0.3727   0.3803   0.3825   0.3890   0.3948   0.3983   0.4007
  0.4022   0.4104   0.4143   0.4255   0.4357   0.4387   0.4513   0.4589
  0.4748   0.4795   0.4852   0.5036   0.5140   0.5195   0.5503   0.5760
  0.5844   0.5930   0.6084   0.6173   0.6212   0.6266   0.6440   0.6541
  0.6652   0.6748   0.6753   0.6801   0.6876   0.6990   0.7115   0.7257
  0.7358   0.7389   0.7516   0.7540   0.7717   0.7744   0.7977   0.8196
  0.8287   0.8390   0.8479   0.8619   0.8670   0.8731   0.8851   0.8920
  0.9053   0.9333   0.9540   0.9583   0.9643   0.9783   1.0081   1.0171
  1.0347   1.0417   1.0517   1.0620   1.0741   1.0871   1.0930   1.1037
  1.1198   1.1300   1.1466   1.1556   1.1589   1.1681   1.1840   1.1871
  1.1956   1.2040   1.2076   1.2125   1.2349   1.2389   1.2544   1.2560
  1.2609   1.2684   1.2809   1.2889   1.2985   1.3045   1.3177   1.3233
  1.3314   1.3458   1.3502   1.3612   1.3857   1.3980   1.4114   1.4205
  1.4232   1.4478   1.4547   1.4713   1.4752   1.4844   1.4894   1.5000
  1.5157   1.5250   1.5407   1.5611   1.5742   1.5835   1.5851   1.5944
  1.6083   1.6292   1.6349   1.6454   1.6654   1.6801   1.7071   1.7209
  1.7311   1.7451   1.7619   1.7931   1.7993   1.8126   1.8232   1.8499
  1.8780   1.9252   1.9399   1.9458   1.9589   1.9830   2.0113   2.0408
  2.0476   2.0801   2.1083   2.1189   2.1606   2.1891   2.1967   2.2164
  2.2389   2.2533   2.2799   2.3120   2.3274   2.3361   2.3655   2.3805
  2.3979   2.4139   2.4229   2.4354   2.4548   2.4885   2.5174   2.5412
  2.5629   2.5760   2.6284   2.6759   2.6971   2.7110   2.7331   2.7547
  2.7824   2.8246   2.8410   2.8677   2.8721   2.9044   2.9238   2.9563
  2.9592   2.9883   3.0053   3.0179   3.0381   3.0722   3.0749   3.0970
  3.1258   3.1442   3.1640   3.1912   3.2000   3.2220   3.2303   3.2608
  3.3204   3.3292   3.3451   3.3766   3.3918   3.4124   3.4352   3.4447
  3.4531   3.4647   3.4879   3.5030   3.5277   3.5338   3.5558   3.5761
  3.6106   3.6454   3.6568   3.6690   3.6964   3.7033   3.7142   3.7432
  3.7554   3.7586   3.7709   3.7746   3.8009   3.8039   3.8252   3.8452
  3.8549   3.8619   3.8666   3.8830   3.8893   3.9156   3.9317   3.9413
  3.9640   3.9849   4.0265   4.0402   4.0503   4.0673   4.1013   4.1126
  4.1438   4.1556   4.1785   4.2018   4.2166   4.2459   4.2607   4.2933
  4.3032   4.3058   4.3167   4.3527   4.3700   4.3846   4.4230   4.4473
  4.4692   4.4798   4.4988   4.5277   4.5312   4.5652   4.5674   4.6037
  4.6309   4.6598   4.6871   4.6963   4.7462   4.7676   4.7877   4.7994
  4.8728   4.9455   4.9619   5.0578   5.1113   5.1184   5.1406   5.1664
  5.1822   5.1953   5.2081   5.2260   5.2496   5.2524   5.2588   5.2639
  5.2781   5.2991   5.3138   5.3178   5.3225   5.3288   5.3402   5.3503
  5.3580   5.3765   5.3908   5.4175   5.4319   5.4377   5.4474   5.4630
  5.4714   5.4984   5.5281   5.5529   5.5540   5.5731   5.5907   5.6013
  5.6090   5.6235   5.6359   5.6469   5.6620   5.6879   5.7242   5.7348
  5.7405   5.7481   5.7878   5.8166   5.8394   5.8540   5.8871   5.8974
  5.9278   5.9747   6.0381   6.0627   6.1311   6.1709   6.2176   6.4291
  6.5585   6.6048   6.6094   6.6649   6.6945   6.7896   6.9543   6.9812
  7.0225   7.0573   7.0702   7.0831   7.1026   7.1309   7.1412   7.1571
  7.1875   7.1949   7.2261   7.2596   7.2675   7.3208   7.3347   7.3413
  7.3529   7.3582   7.3650   7.4069   7.4206   7.4597   7.4654   7.4764
  7.5068   7.5199   7.5399   7.5747   7.6347   7.6575   7.6984   7.7467
  7.7647   7.8041   7.8431   7.8708   7.9161   7.9591   8.0901   8.1552
 24.6179  24.7365  24.8094  24.8492  25.2838  50.4697  50.5297  50.5674
 50.6121  50.6351  50.6751  50.7738
 --------------------------------------------------------------
 
          Ground-State Mulliken Net Atomic Charges

     Atom                 Charge (a.u.)    Spin (a.u.)
  --------------------------------------------------------
      1 O                    -0.470698      -0.000017
      2 C                    -0.444123      -0.000647
      3 C                     0.320301       0.003402
      4 O                    -0.721734       0.001636
      5 C                    -0.258867      -0.000844
      6 C                    -0.420785      -0.003169
      7 C                    -0.284318       0.010077
      8 O                    -0.413933       0.001499
      9 O                    -0.451385       0.002004
     10 H                     0.336548       0.000065
     11 H                     0.195543       0.000178
     12 H                     0.196331      -0.000118
     13 H                     0.271945      -0.000245
     14 H                     0.327101       0.005126
     15 H                     0.281098      -0.000009
     16 H                     0.327120       0.000032
     17 H                     0.392446      -0.000614
     18 O                     0.088376       0.346120
     19 O                    -0.253783       0.633094
     20 H                     0.394961      -0.001954
     21 O                    -0.726045       0.004263
     22 H                     0.313903       0.000120
  --------------------------------------------------------
  Sum of atomic charges =    -1.000000
  Sum of spin   charges =     1.000000

 -----------------------------------------------------------------
                    Cartesian Multipole Moments
 -----------------------------------------------------------------
    Charge (ESU x 10^10)
                -4.8032
    Dipole Moment (Debye)
         X     -16.3644      Y      -7.1378      Z     -17.0567
       Tot      24.6915
    Quadrupole Moments (Debye-Ang)
        XX    -151.4048     XY     -31.2630     YY    -100.8178
        XZ     -75.7107     YZ     -34.6539     ZZ    -150.3486
    Octopole Moments (Debye-Ang^2)
       XXX   -1296.8772    XXY    -263.0081    XYY    -383.8825
       YYY    -463.5873    XXZ    -527.4537    XYZ    -152.2176
       YYZ    -257.6008    XZZ    -654.0031    YZZ    -283.6411
       ZZZ    -882.2137
    Hexadecapole Moments (Debye-Ang^3)
      XXXX  -10578.2184   XXXY   -2382.6289   XXYY   -2037.0212
      XYYY   -1985.7419   YYYY   -2467.3464   XXXZ   -4138.5145
      XXYZ   -1078.7344   XYYZ   -1126.5550   YYYZ   -1309.7238
      XXZZ   -3697.8159   XYZZ   -1327.5852   YYZZ   -1289.0494
[...]
    3  -0.0001661   0.0091193  -0.0202790   0.0055670
 Max gradient component =       4.530E-02
 RMS gradient           =       1.733E-02
 Computing fast CPCM-SWIG gradient
 Updating gradient with PCM contributions...
 -- total gradient after adding PCM contribution --
---------------------------------------------------
  Atom         X              Y              Z     
---------------------------------------------------
   1       0.000013       0.000006      -0.000028
   2      -0.000029      -0.000017       0.000029
   3      -0.000023       0.000037      -0.000022
   4      -0.000017      -0.000028       0.000022
   5       0.000001      -0.000004       0.000007
   6       0.000000       0.000019       0.000017
   7       0.000010      -0.000051      -0.000003
   8       0.000044       0.000043      -0.000013
   9      -0.000110      -0.000040      -0.000097
  10       0.000014       0.000001       0.000021
  11      -0.000007       0.000008      -0.000021
  12       0.000012      -0.000018      -0.000012
  13       0.000013       0.000005      -0.000023
  14       0.000003       0.000022      -0.000014
  15      -0.000009       0.000023       0.000012
  16      -0.000024      -0.000024       0.000028
  17       0.000041       0.000029       0.000072
  18      -0.000012      -0.000010      -0.000016
  19      -0.000006      -0.000010       0.000045
  20       0.000041       0.000060       0.000114
  21      -0.000028      -0.000092      -0.000057
  22       0.000072       0.000042      -0.000062
---------------------------------------------------
 Number of fixed atoms: 0
 Gradient time:  CPU 538.15 s  wall 45.73 s
 Geometry Optimization Parameters
   NAtoms,    NIC,     NZ,  NCons,   NDum,   NFix, NCnnct, MaxDiis
       22     146       0       0       0       0       0       0

 Cartesian Hessian Update
 Hessian updated using BFGS update


** GEOMETRY OPTIMIZATION IN DELOCALIZED INTERNAL COORDINATES **
   Searching for a Minimum

   Optimization Cycle:  22

                       Coordinates (Angstroms)
     ATOM                X               Y               Z
      1  O         0.9879815493   -0.4133232738    0.5064653645
      2  C         2.3633144963   -0.2466804327    0.1801266098
      3  C         3.0297607542    0.6881874497    1.1748947109
      4  O         2.5278900850    0.6281110211    2.3693362738
      5  C         4.0761921885    1.4557335787    0.7520580355
      6  C         4.9433946839    2.2889248690    1.6184610193
      7  C         4.2497253373    3.2440551233    2.6017540797
      8  O         3.3740634643    4.0693836365    1.8643615600
      9  O         3.5937609338    2.5737532575    3.6435928789
     10  H         0.9466964409   -0.2447479555    1.4612883296
     11  H         2.4384228972    0.1382863672   -0.8345893332
     12  H         2.8760019178   -1.2135240861    0.2209076008
     13  H         4.3587218055    1.3845655282   -0.2893273893
     14  H         5.6359877043    2.8736125450    1.0177914711
     15  H         4.9818142724    3.9063698528    3.0583931213
     16  H         2.9041681189    3.5011231313    1.2351507771
     17  H         3.1280735749    1.7763647696    3.2401519871
     18  O         5.8133053511    1.3872627392    2.4304578528
     19  O         6.8504669005    2.0086623121    2.9153742199
     20  H         4.7874619997    2.0389338177    4.9372463541
     21  O         5.4190454053    1.7771262833    5.6330095621
     22  H         6.2371878188    1.6107582658    5.1530226143
   Point Group: c1    Number of degrees of freedom:    60


   Energy is   -723.173577233

 Hessian updated using BFGS update

 60 Hessian modes will be used to form the next step
  Hessian Eigenvalues:
     0.001154    0.002270    0.004779    0.006604    0.007003    0.009998
     0.013241    0.014837    0.017852    0.022226    0.029148    0.035641
     0.038328    0.045699    0.047084    0.057732    0.063882    0.065263
     0.065802    0.073426    0.073687    0.085724    0.087565    0.108402
     0.113625    0.115500    0.140092    0.154021    0.159162    0.168263
     0.173616    0.184941    0.190393    0.207109    0.216793    0.226370
     0.240518    0.252629    0.265060    0.297147    0.318851    0.324288
     0.333838    0.336775    0.343302    0.345024    0.348071    0.358288
     0.432452    0.443251    0.456562    0.485769    0.491537    0.500442
     0.516724    0.530100    0.545775    0.607193    0.679010    1.146620

 Minimum search - taking simple RFO step
 Searching for Lamda that Minimizes Along All modes
 Value Taken    Lamda =  -0.00000112
 Step Taken.  Stepsize is  0.015517

                             Maximum     Tolerance    Cnvgd?
         Gradient           0.000116      0.000300     YES
         Displacement       0.006022      0.001200      NO
         Energy change     -0.000001      0.000001     YES

 Final energy is   -723.173577232888     


 ******************************
 **  OPTIMIZATION CONVERGED  **
 ******************************

                       Coordinates (Angstroms)
     ATOM                X               Y               Z
      1  O         0.9879815493   -0.4133232738    0.5064653645
      2  C         2.3633144963   -0.2466804327    0.1801266098
      3  C         3.0297607542    0.6881874497    1.1748947109
      4  O         2.5278900850    0.6281110211    2.3693362738
      5  C         4.0761921885    1.4557335787    0.7520580355
      6  C         4.9433946839    2.2889248690    1.6184610193
      7  C         4.2497253373    3.2440551233    2.6017540797
      8  O         3.3740634643    4.0693836365    1.8643615600
      9  O         3.5937609338    2.5737532575    3.6435928789
     10  H         0.9466964409   -0.2447479555    1.4612883296
     11  H         2.4384228972    0.1382863672   -0.8345893332
     12  H         2.8760019178   -1.2135240861    0.2209076008
     13  H         4.3587218055    1.3845655282   -0.2893273893
     14  H         5.6359877043    2.8736125450    1.0177914711
     15  H         4.9818142724    3.9063698528    3.0583931213
     16  H         2.9041681189    3.5011231313    1.2351507771
     17  H         3.1280735749    1.7763647696    3.2401519871
     18  O         5.8133053511    1.3872627392    2.4304578528
     19  O         6.8504669005    2.0086623121    2.9153742199
     20  H         4.7874619997    2.0389338177    4.9372463541
     21  O         5.4190454053    1.7771262833    5.6330095621
     22  H         6.2371878188    1.6107582658    5.1530226143

Z-matrix Print:
$molecule
-1 2
O 
O  1 1.302684
C  1 1.493010 2 112.226283
H  3 1.087359 1 104.717457 2 43.066809 0
C  3 1.482195 1 108.622212 2 161.269261 0
H  5 1.081375 3 116.554979 1 -102.884587 0
C  5 1.364894 3 125.703723 1 71.219098 0
O  7 1.296987 5 127.446115 3 6.370480 0
C  7 1.519109 5 118.656329 3 -171.935424 0
H  9 1.087883 7 111.268175 5 -29.054763 0
H  9 1.095125 7 108.273255 5 89.912365 0
O  9 1.423309 7 110.232556 5 -149.833764 0
H  12 0.970468 9 104.261939 7 -25.946888 0
C  3 1.536332 1 106.884431 2 -71.218619 0
H  14 1.087720 3 110.081378 1 66.908863 0
O  14 1.401792 3 112.934808 1 -52.741364 0
H  16 1.007699 14 107.282058 3 -41.825007 0
O  14 1.411276 3 108.017678 1 -177.408771 0
H  18 0.969344 14 107.283810 3 44.022210 0
H  16 1.839699 14 110.977555 3 79.063181 0
O  20 0.975463 16 178.594727 14 83.919695 0
H  21 0.963028 20 103.941136 16 -115.183278 0
$end

 
 --------------------------------------------------------------
 
                    Orbital Energies (a.u.)
 --------------------------------------------------------------
 
 Alpha MOs
 -- Occupied --
-19.4546 -19.4085 -19.3411 -19.3280 -19.3242 -19.3180 -19.2891 -10.4411
-10.4016 -10.3961 -10.3756 -10.3065  -1.3334  -1.1928  -1.1572  -1.1297
 -1.1217  -1.1074  -1.0074  -0.8840  -0.8385  -0.7916  -0.7348  -0.6602
 -0.6564  -0.6383  -0.6268  -0.6224  -0.6072  -0.6019  -0.5769  -0.5684
 -0.5633  -0.5250  -0.5059  -0.4993  -0.4891  -0.4839  -0.4731  -0.4509
 -0.4364  -0.4228  -0.4196  -0.3994  -0.3992  -0.3884  -0.3783  -0.3514
 -0.2985
 -- Virtual --
  0.0276   0.0394   0.0434   0.0460   0.0608   0.0615   0.0670   0.0712
  0.0882   0.0957   0.1019   0.1055   0.1214   0.1221   0.1308   0.1412
  0.1431   0.1542   0.1579   0.1604   0.1679   0.1724   0.1753   0.1813
  0.1835   0.1956   0.1996   0.2077   0.2090   0.2161   0.2237   0.2385
  0.2457   0.2480   0.2528   0.2634   0.2739   0.2745   0.2817   0.2871
  0.2891   0.2937   0.3018   0.3085   0.3135   0.3173   0.3183   0.3263
  0.3302   0.3390   0.3432   0.3515   0.3551   0.3592   0.3626   0.3705
  0.3714   0.3762   0.3796   0.3849   0.3905   0.3911   0.3997   0.4042
  0.4084   0.4156   0.4245   0.4327   0.4448   0.4510   0.4617   0.4739
  0.4773   0.4853   0.4982   0.5144   0.5210   0.5476   0.5682   0.5816
  0.5940   0.6059   0.6122   0.6214   0.6287   0.6413   0.6573   0.6631
  0.6693   0.6759   0.6764   0.6880   0.6944   0.7085   0.7309   0.7346
  0.7460   0.7487   0.7613   0.7653   0.7705   0.7999   0.8145   0.8250
  0.8351   0.8449   0.8594   0.8690   0.8781   0.8816   0.8895   0.9060
  0.9176   0.9488   0.9549   0.9715   0.9798   1.0096   1.0195   1.0295
  1.0371   1.0423   1.0604   1.0770   1.0904   1.0948   1.1030   1.1122
  1.1312   1.1387   1.1482   1.1553   1.1655   1.1809   1.1849   1.1909
  1.2048   1.2064   1.2087   1.2327   1.2370   1.2443   1.2506   1.2595
  1.2683   1.2838   1.2907   1.2959   1.3094   1.3145   1.3182   1.3220
  1.3363   1.3506   1.3632   1.3773   1.3921   1.4081   1.4164   1.4239
  1.4486   1.4499   1.4571   1.4763   1.4843   1.4892   1.5025   1.5114
  1.5318   1.5419   1.5622   1.5726   1.5784   1.5832   1.5963   1.6013
  1.6248   1.6334   1.6477   1.6667   1.6729   1.6893   1.7077   1.7315
  1.7441   1.7590   1.7786   1.7828   1.8152   1.8177   1.8404   1.8634
  1.9072   1.9171   1.9404   1.9546   1.9680   2.0075   2.0388   2.0548
  2.0729   2.1261   2.1334   2.1613   2.1834   2.1930   2.2149   2.2199
  2.2497   2.2769   2.3008   2.3167   2.3262   2.3669   2.3791   2.3898
  2.4130   2.4288   2.4348   2.4620   2.4975   2.5151   2.5399   2.5628
  2.5895   2.6311   2.6898   2.7001   2.7117   2.7362   2.7519   2.7788
  2.8244   2.8402   2.8636   2.8741   2.9033   2.9117   2.9518   2.9596
  2.9868   3.0113   3.0199   3.0364   3.0706   3.0825   3.0946   3.1220
  3.1402   3.1556   3.1816   3.1916   3.2224   3.2268   3.2636   3.3179
  3.3272   3.3548   3.3763   3.3961   3.4150   3.4382   3.4419   3.4486
  3.4658   3.4839   3.4999   3.5226   3.5364   3.5558   3.5785   3.6063
  3.6395   3.6505   3.6712   3.6929   3.7053   3.7112   3.7304   3.7409
  3.7561   3.7653   3.7688   3.7922   3.8104   3.8199   3.8427   3.8536
  3.8562   3.8640   3.8773   3.8853   3.9113   3.9138   3.9351   3.9565
  3.9808   4.0151   4.0381   4.0438   4.0617   4.0854   4.1060   4.1401
  4.1559   4.1693   4.1983   4.2138   4.2371   4.2448   4.2855   4.2918
  4.2977   4.3004   4.3431   4.3684   4.3701   4.4106   4.4339   4.4616
  4.4719   4.4790   4.5116   4.5179   4.5558   4.5655   4.5921   4.6123
  4.6398   4.6577   4.6812   4.7328   4.7458   4.7611   4.7806   4.8604
  4.9193   4.9329   5.0332   5.0955   5.1017   5.1149   5.1205   5.1347
  5.1737   5.1858   5.2172   5.2302   5.2514   5.2521   5.2623   5.2705
  5.2766   5.2818   5.2933   5.3186   5.3203   5.3389   5.3561   5.3572
  5.3780   5.3899   5.4010   5.4224   5.4328   5.4407   5.4479   5.4723
  5.4967   5.5283   5.5368   5.5455   5.5621   5.5867   5.5945   5.6025
  5.6138   5.6200   5.6293   5.6579   5.6780   5.6973   5.7261   5.7281
  5.7322   5.7714   5.8062   5.8219   5.8324   5.8645   5.8849   5.9105
  5.9642   6.0114   6.0334   6.1225   6.1800   6.1990   6.4053   6.4844
  6.5894   6.6048   6.6276   6.6573   6.7911   6.8678   6.9074   6.9928
  7.0225   7.0427   7.0705   7.0978   7.1132   7.1248   7.1410   7.1458
  7.1907   7.2146   7.2313   7.2554   7.2819   7.2986   7.3224   7.3396
  7.3642   7.3741   7.4059   7.4223   7.4312   7.4499   7.4686   7.4765
  7.5125   7.5175   7.5727   7.6018   7.6490   7.7046   7.7568   7.7723
  7.8084   7.8295   7.8746   7.9185   7.9872   8.0591   8.1193  24.6025
 24.7173  24.7794  24.8390  25.2309  50.4492  50.5251  50.5554  50.6055
 50.6295  50.6842  50.7771
 
 Beta MOs
 -- Occupied --
-19.4434 -19.3905 -19.3411 -19.3280 -19.3242 -19.3180 -19.2890 -10.4408
-10.4020 -10.3961 -10.3756 -10.3065  -1.3066  -1.1925  -1.1571  -1.1295
 -1.1215  -1.1073  -0.9796  -0.8761  -0.8333  -0.7910  -0.7319  -0.6567
 -0.6435  -0.6288  -0.6257  -0.6169  -0.6007  -0.5859  -0.5710  -0.5624
 -0.5366  -0.5185  -0.5036  -0.4944  -0.4875  -0.4748  -0.4724  -0.4479
 -0.4359  -0.4203  -0.4097  -0.3991  -0.3853  -0.3794  -0.3522  -0.2974
 -- Virtual --
 -0.0261   0.0278   0.0396   0.0438   0.0462   0.0612   0.0619   0.0672
  0.0713   0.0884   0.0972   0.1023   0.1056   0.1223   0.1229   0.1311
  0.1415   0.1434   0.1546   0.1580   0.1615   0.1681   0.1734   0.1766
  0.1816   0.1843   0.1959   0.2019   0.2084   0.2095   0.2164   0.2244
  0.2390   0.2473   0.2517   0.2565   0.2642   0.2749   0.2771   0.2821
  0.2882   0.2909   0.2960   0.3040   0.3091   0.3141   0.3184   0.3208
  0.3266   0.3308   0.3392   0.3439   0.3529   0.3557   0.3598   0.3635
  0.3714   0.3719   0.3766   0.3828   0.3860   0.3906   0.3917   0.4011
  0.4046   0.4099   0.4164   0.4249   0.4335   0.4455   0.4518   0.4624
  0.4749   0.4777   0.4862   0.4986   0.5154   0.5212   0.5477   0.5684
  0.5820   0.5940   0.6061   0.6127   0.6218   0.6289   0.6416   0.6585
  0.6633   0.6695   0.6762   0.6767   0.6884   0.6952   0.7090   0.7311
  0.7347   0.7464   0.7487   0.7615   0.7656   0.7713   0.8003   0.8152
  0.8253   0.8356   0.8456   0.8595   0.8693   0.8783   0.8819   0.8900
  0.9071   0.9189   0.9502   0.9553   0.9719   0.9803   1.0102   1.0208
  1.0303   1.0381   1.0451   1.0617   1.0776   1.0911   1.0966   1.1056
  1.1162   1.1318   1.1403   1.1496   1.1562   1.1677   1.1822   1.1871
  1.1963   1.2072   1.2099   1.2148   1.2354   1.2407   1.2518   1.2562
  1.2622   1.2710   1.2875   1.2923   1.2985   1.3111   1.3170   1.3196
  1.3281   1.3379   1.3516   1.3638   1.3790   1.3940   1.4095   1.4171
  1.4252   1.4499   1.4518   1.4587   1.4785   1.4854   1.4914   1.5074
  1.5140   1.5350   1.5473   1.5629   1.5737   1.5804   1.5865   1.5970
  1.6054   1.6278   1.6343   1.6500   1.6690   1.6808   1.6957   1.7129
  1.7431   1.7453   1.7615   1.7861   1.7915   1.8183   1.8239   1.8440
  1.8658   1.9083   1.9212   1.9455   1.9567   1.9693   2.0090   2.0401
  2.0602   2.0780   2.1268   2.1368   2.1621   2.1857   2.1999   2.2163
  2.2235   2.2521   2.2826   2.3064   2.3282   2.3290   2.3677   2.3802
  2.3933   2.4139   2.4326   2.4374   2.4635   2.4981   2.5159   2.5412
  2.5634   2.5905   2.6319   2.6914   2.7009   2.7131   2.7419   2.7522
  2.7799   2.8252   2.8406   2.8643   2.8745   2.9041   2.9123   2.9520
  2.9596   2.9869   3.0114   3.0202   3.0367   3.0708   3.0829   3.0950
  3.1222   3.1409   3.1559   3.1819   3.1919   3.2228   3.2269   3.2637
  3.3182   3.3279   3.3549   3.3769   3.3961   3.4151   3.4386   3.4424
  3.4490   3.4660   3.4844   3.5000   3.5231   3.5365   3.5561   3.5785
  3.6068   3.6396   3.6509   3.6721   3.6934   3.7059   3.7119   3.7307
  3.7408   3.7560   3.7656   3.7692   3.7924   3.8105   3.8198   3.8430
  3.8537   3.8564   3.8642   3.8777   3.8854   3.9120   3.9143   3.9357
  3.9569   3.9813   4.0153   4.0387   4.0440   4.0623   4.0855   4.1062
  4.1402   4.1560   4.1697   4.1991   4.2145   4.2376   4.2455   4.2857
  4.2921   4.2984   4.3014   4.3432   4.3688   4.3703   4.4113   4.4346
  4.4632   4.4726   4.4802   4.5133   4.5192   4.5561   4.5659   4.5953
  4.6184   4.6455   4.6700   4.6870   4.7343   4.7505   4.7754   4.7844
  4.8635   4.9394   4.9441   5.0478   5.1088   5.1194   5.1410   5.1633
  5.1753   5.1846   5.2055   5.2281   5.2503   5.2526   5.2604   5.2653
  5.2789   5.2928   5.3103   5.3180   5.3206   5.3252   5.3409   5.3590
  5.3638   5.3803   5.3945   5.4083   5.4235   5.4422   5.4442   5.4599
  5.4764   5.5007   5.5315   5.5453   5.5526   5.5633   5.5870   5.5954
  5.6042   5.6164   5.6215   5.6338   5.6601   5.6802   5.6976   5.7283
  5.7336   5.7378   5.7801   5.8071   5.8302   5.8376   5.8676   5.8859
  5.9111   5.9645   6.0118   6.0347   6.1235   6.1807   6.1994   6.4191
  6.5292   6.5964   6.6051   6.6327   6.6602   6.7923   6.9454   6.9826
  7.0161   7.0387   7.0627   7.0768   7.0981   7.1251   7.1398   7.1419
  7.1577   7.1926   7.2267   7.2457   7.2634   7.2915   7.3201   7.3226
  7.3539   7.3647   7.3754   7.4089   7.4232   7.4430   7.4667   7.4716
  7.5022   7.5157   7.5279   7.5741   7.6019   7.6499   7.7048   7.7571
  7.7730   7.8123   7.8398   7.8750   7.9190   7.9873   8.0738   8.1378
 24.6025  24.7172  24.7794  24.8392  25.2309  50.4613  50.5254  50.5652
 50.6055  50.6296  50.6845  50.7772
 --------------------------------------------------------------
 
          Ground-State Mulliken Net Atomic Charges

     Atom                 Charge (a.u.)    Spin (a.u.)
  --------------------------------------------------------
      1 O                    -0.458831      -0.000020
      2 C                    -0.433224      -0.000737
      3 C                     0.276736       0.003710
      4 O                    -0.706450       0.001388
      5 C                    -0.247521      -0.000456
      6 C                    -0.439015      -0.004028
      7 C                    -0.252653       0.010201
      8 O                    -0.414430       0.001339
      9 O                    -0.476770       0.002610
     10 H                     0.334666       0.000062
     11 H                     0.195729       0.000156
     12 H                     0.189602      -0.000126
     13 H                     0.272151      -0.000282
     14 H                     0.323568       0.005236
     15 H                     0.272742       0.000049
     16 H                     0.326949       0.000105
     17 H                     0.409855      -0.000691
     18 O                     0.087377       0.340127
     19 O                    -0.250673       0.641127
     20 H                     0.420931      -0.002703
     21 O                    -0.747541       0.002387
     22 H                     0.316805       0.000544
  --------------------------------------------------------
  Sum of atomic charges =    -1.000000
  Sum of spin   charges =     1.000000

 -----------------------------------------------------------------
                    Cartesian Multipole Moments
 -----------------------------------------------------------------
    Charge (ESU x 10^10)
                -4.8032
    Dipole Moment (Debye)
         X     -15.9188      Y      -6.9915      Z     -17.1594
       Tot      24.4281
    Quadrupole Moments (Debye-Ang)
        XX    -147.0543     XY     -28.1603     YY     -99.2512
        XZ     -73.2917     YZ     -31.4709     ZZ    -150.7099
    Octopole Moments (Debye-Ang^2)
       XXX   -1260.8750    XXY    -240.5853    XYY    -371.5193
       YYY    -463.2101    XXZ    -498.6633    XYZ    -129.0266
       YYZ    -244.3032    XZZ    -638.3129    YZZ    -263.5749
       ZZZ    -883.6220
    Hexadecapole Moments (Debye-Ang^3)
      XXXX  -10298.4228   XXXY   -2237.9892   XXYY   -1956.1836
      XYYY   -1954.3093   YYYY   -2478.2062   XXXZ   -3874.2397
      XXYZ    -914.3564   XYYZ   -1033.9465   YYYZ   -1244.3381
      XXZZ   -3506.4388   XYZZ   -1179.9406   YYZZ   -1204.9595
      XZZZ   -4090.7435   YZZZ   -1717.4027   ZZZZ   -5491.4066
 -----------------------------------------------------------------
 Total job time:  7516.44s(wall), 105750.77s(cpu) 
 Fri Jul 12 12:07:52 2024

        *************************************************************
        *                                                           *
        *  Thank you very much for using Q-Chem.  Have a nice day.  *
        *                                                           *
        *************************************************************


