
Running Job 1 of 2 Q_in.in
qchem Q_in.in_219902.0 /scratch/ari.fischer/qChem2086827.hpc-mn1/qchem219902/ 0
/usr/local/qchem-5.4.1/exe/qcprog.exe_s Q_in.in_219902.0 /scratch/ari.fischer/qChem2086827.hpc-mn1/qchem219902/
                  Welcome to Q-Chem
     A Quantum Leap Into The Future Of Chemistry


 Q-Chem 5.4, Q-Chem, Inc., Pleasanton, CA (2021)

 License issued to: Nanyang Technological University (site)

 E. Epifanovsky,  A. T. B. Gilbert,  Xintian Feng,  Joonho Lee,  Yuezhi Mao,  
 N. Mardirossian,  P. Pokhilko,  A. White,  M. Wormit,  M. P. Coons,  
 A. L. Dempwolff,  Zhengting Gan,  D. Hait,  P. R. Horn,  L. D. Jacobson,  
 I. Kaliman,  J. Kussmann,  A. W. Lange,  Ka Un Lao,  D. S. Levine,  Jie Liu,  
 S. C. McKenzie,  A. F. Morrison,  K. Nanda,  F. Plasser,  D. R. Rehn,  
 M. L. Vidal,  Zhi-Qiang You,  Ying Zhu,  B. Alam,  B. Albrecht,  
 A. Aldossary,  E. Alguire,  J. H. Andersen,  D. Barton,  K. Begam,  A. Behn,  
 Y. A. Bernard,  E. J. Berquist,  H. Burton,  A. Carreras,  K. Carter-Fenk,  
 R. Chakraborty,  A. D. Chien,  K. D. Closser,  V. Cofer-Shabica,  
 S. Dasgupta,  Jia Deng,  M. de Wergifosse,  M. Diedenhofen,  Hainam Do,  
 S. Ehlert,  Po-Tung Fang,  S. Fatehi,  Qingguo Feng,  T. Friedhoff,  
 J. Gayvert,  Qinghui Ge,  G. Gidofalvi,  M. Goldey,  J. Gomes,  
 C. Gonzalez-Espinoza,  S. Gulania,  A. Gunina,  M. W. D. Hanson-Heine,  
 P. H. P. Harbach,  A. W. Hauser,  M. F. Herbst,  M. Hernandez Vera,  
 M. Hodecker,  Z. C. Holden,  S. Houck,  Xunkun Huang,  Kerwin Hui,  
 B. C. Huynh,  M. Ivanov,  Hyunjun Ji,  Hanjie Jiang,  B. Kaduk,  S. Kaehler,  
 K. Khistyaev,  Jaehoon Kim,  P. Klunzinger,  Z. Koczor-Benda,  
 Joong Hoon Koh,  D. Kosenkov,  L. Koulias,  T. Kowalczyk,  C. M. Krauter,  
 K. Kue,  A. Kunitsa,  T. Kus,  A. Landau,  K. V. Lawler,  D. Lefrancois,  
 S. Lehtola,  Rain Li,  Yi-Pei Li,  Jiashu Liang,  M. Liebenthal,  
 Hung-Hsuan Lin,  You-Sheng Lin,  Fenglai Liu,  Kuan-Yu Liu,  
 M. Loipersberger,  A. Luenser,  A. Manjanath,  P. Manohar,  E. Mansoor,  
 S. F. Manzer,  Shan-Ping Mao,  A. V. Marenich,  T. Markovich,  S. Mason,  
 S. A. Maurer,  P. F. McLaughlin,  M. F. S. J. Menger,  J.-M. Mewes,  
 S. A. Mewes,  P. Morgante,  J. W. Mullinax,  K. J. Oosterbaan,  G. Paran,  
 Alexander C. Paul,  Suranjan K. Paul,  F. Pavosevic,  Zheng Pei,  S. Prager,  
 E. I. Proynov,  E. Ramos,  B. Rana,  A. E. Rask,  A. Rettig,  R. M. Richard,  
 F. Rob,  E. Rossomme,  T. Scheele,  M. Scheurer,  M. Schneider,  
 N. Sergueev,  S. M. Sharada,  W. Skomorowski,  D. W. Small,  C. J. Stein,  
 Yu-Chuan Su,  E. J. Sundstrom,  Zhen Tao,  J. Thirman,  T. Tsuchimochi,  
 N. M. Tubman,  S. P. Veccham,  O. Vydrov,  J. Wenzel,  J. Witte,  A. Yamada,  
 Kun Yao,  S. Yeganeh,  S. R. Yost,  A. Zech,  Igor Ying Zhang,  Xing Zhang,  
 Yu Zhang,  D. Zuev,  A. Aspuru-Guzik,  A. T. Bell,  N. A. Besley,  
 K. B. Bravaya,  B. R. Brooks,  D. Casanova,  Jeng-Da Chai,  S. Coriani,  
 C. J. Cramer,  A. E. DePrince, III,  R. A. DiStasio Jr.,  A. Dreuw,  
 B. D. Dunietz,  T. R. Furlani,  W. A. Goddard III,  S. Grimme,  
 S. Hammes-Schiffer,  T. Head-Gordon,  W. J. Hehre,  Chao-Ping Hsu,  
 T.-C. Jagau,  Yousung Jung,  A. Klamt,  Jing Kong,  D. S. Lambrecht,  
 WanZhen Liang,  N. J. Mayhall,  C. W. McCurdy,  J. B. Neaton,  
 C. Ochsenfeld,  J. A. Parkhill,  R. Peverati,  V. A. Rassolov,  Yihan Shao,  
 L. V. Slipchenko,  T. Stauch,  R. P. Steele,  J. E. Subotnik,  
 A. J. W. Thom,  A. Tkatchenko,  D. G. Truhlar,  T. Van Voorhis,  
 T. A. Wesolowski,  K. B. Whaley,  H. L. Woodcock III,  P. M. Zimmerman,  
 S. Faraji,  P. M. W. Gill,  M. Head-Gordon,  J. M. Herbert,  A. I. Krylov

 Additional authors for Version 5.4.1: 
 S. Kotaru,  Shaozhi Li,  Xiangyuan Li,  F. Matz,  A. Molle,  Haisheng Ren,  
 Yingli Su,  Hung-Yi Tsai,  C. Utku,  Fang Wang

 Contributors to earlier versions of Q-Chem not listed above: 
 R. D. Adamson,  B. Austin,  R. Baer,  J. Baker,  G. J. O. Beran,  
 K. Brandhorst,  S. T. Brown,  E. F. C. Byrd,  A. K. Chakraborty,  
 G. K. L. Chan,  Chun-Min Chang,  Yunqing Chen,  C.-L. Cheng,  
 Siu Hung Chien,  D. M. Chipman,  D. L. Crittenden,  H. Dachsel,  
 R. J. Doerksen,  A. D. Dutoi,  R. G. Edgar,  J. Fosso-Tande,  
 L. Fusti-Molnar,  D. Ghosh,  A. Ghysels,  A. Golubeva-Zadorozhnaya,  
 J. Gonthier,  M. S. Gordon,  S. R. Gwaltney,  G. Hawkins,  J. E. Herr,  
 A. Heyden,  S. Hirata,  E. G. Hohenstein,  G. Kedziora,  F. J. Keil,  
 C. Kelley,  Jihan Kim,  R. A. King,  R. Z. Khaliullin,  P. P. Korambath,  
 W. Kurlancheek,  A. Laurent,  A. M. Lee,  M. S. Lee,  S. V. Levchenko,  
 Ching Yeh Lin,  D. Liotard,  E. Livshits,  R. C. Lochan,  I. Lotan,  
 L. A. Martinez-Martinez,  P. E. Maslen,  N. Nair,  D. P. O'Neill,  
 D. Neuhauser,  E. Neuscamman,  C. M. Oana,  R. Olivares-Amaya,  R. Olson,  
 T. M. Perrine,  B. Peters,  P. A. Pieniazek,  A. Prociuk,  Y. M. Rhee,  
 J. Ritchie,  M. A. Rohrdanz,  E. Rosta,  N. J. Russ,  H. F. Schaefer III,  
 M. W. Schmidt,  N. E. Schultz,  S. Sharma,  N. Shenvi,  C. D. Sherrill,  
 A. C. Simmonett,  A. Sodt,  T. Stein,  D. Stuck,  K. S. Thanthiriwatte,  
 V. Vanovschi,  L. Vogt,  Tao Wang,  A. Warshel,  M. A. Watson,  
 C. F. Williams,  Q. Wu,  X. Xu,  Jun Yang,  W. Zhang,  Yan Zhao

 Please cite Q-Chem as follows:
 Y. Shao et al., Mol. Phys. 113, 184-215 (2015)
 DOI: 10.1080/00268976.2014.952696

 Q-Chem 5.4.1 for Intel X86 EM64T Linux

 Parts of Q-Chem use Armadillo 9.800.1 (Horizon Scraper).
 http://arma.sourceforge.net/

 Q-Chem begins on Wed May  8 09:55:25 2024  

 Host: 
0

     Scratch files written to /scratch/ari.fischer/qChem2086827.hpc-mn1/qchem219902//
 Aug1521 |scratch|qcdevops|jenkins|workspace|build_RNUM 8249   
 Processing $rem in /usr/local/qchem-5.4.1/config/preferences:
 Processing $rem in /home/ari.fischer/.qchemrc:
 Symmetry turned off for PCM/SM12/SMD calculation


!!********************************************.
!!******************Warning*******************.
!!Desired Analytical derivatives not available.
!!Finite difference job might take a long time.
!!********************************************.
!!********************************************.


 2-order derivative to be evaluated numerically with 1-order analytical derivatives

 Checking the input file for inconsistencies... 	...done.

--------------------------------------------------------------
User input:
--------------------------------------------------------------
$molecule
0 2
C         1.1721199476    4.3194969512    1.3611603150
C         1.2828169949    2.8626384628    1.2846857499
C         0.2326112362    2.1060064573    0.8284041854
C        -0.8590349677    2.7506815480    0.2620922090
C        -0.9452901903    4.1560898597    0.1340564971
C         0.0644170044    4.9252301395    0.6034264526
H         0.7614088085    4.4112255700    2.4022060087
H         2.1639907381    2.4133293287    1.7209388077
H         0.2754833950    1.0279742641    0.8547354828
H        -1.7983455325    4.5945485881   -0.3608268164
O         2.3969503572    5.0011426767    1.3171576594
H         2.8495354084    4.5879889130    0.5532675708
O         3.9613766700    2.5918664849   -0.3393291319
O         2.8479937976    3.2104667919   -0.6782138380
H         0.0559497010    6.0035408755    0.5173760217
H        -1.6730283685    2.1505287887   -0.1228625739
$end

$rem
BASIS = 6-311++G(2df,2p)
GUI = 2
JOB_TYPE = Frequency
METHOD = wB97M-V
SOLVENT_METHOD = SMD
SCF_ALGORITHM = DIIS_GDM
MAX_SCF_CYCLES = 400
SCF_CONVERGENCE = 7
THRESH = 12
$end

--------------------------------------------------------------
 ----------------------------------------------------------------
             Standard Nuclear Orientation (Angstroms)
    I     Atom           X                Y                Z
 ----------------------------------------------------------------
    1      C       1.1721199476     4.3194969512     1.3611603150
    2      C       1.2828169949     2.8626384628     1.2846857499
    3      C       0.2326112362     2.1060064573     0.8284041854
    4      C      -0.8590349677     2.7506815480     0.2620922090
    5      C      -0.9452901903     4.1560898597     0.1340564971
    6      C       0.0644170044     4.9252301395     0.6034264526
    7      H       0.7614088085     4.4112255700     2.4022060087
    8      H       2.1639907381     2.4133293287     1.7209388077
    9      H       0.2754833950     1.0279742641     0.8547354828
   10      H      -1.7983455325     4.5945485881    -0.3608268164
   11      O       2.3969503572     5.0011426767     1.3171576594
   12      H       2.8495354084     4.5879889130     0.5532675708
   13      O       3.9613766700     2.5918664849    -0.3393291319
   14      O       2.8479937976     3.2104667919    -0.6782138380
   15      H       0.0559497010     6.0035408755     0.5173760217
   16      H      -1.6730283685     2.1505287887    -0.1228625739
 ----------------------------------------------------------------
 Nuclear Repulsion Energy =         430.46789868 hartrees
 There are       34 alpha and       33 beta electrons
 Requested basis set is 6-311++G(2df,2p)
 There are 114 shells and 376 basis functions

 Total QAlloc Memory Limit 288000 MB
 Mega-Array Size       188 MB
 MEM_STATIC part       192 MB
 
 Citation of the SMD model:
 Marenich, A.V.; Cramer, C.J.; Truhlar, D.G.
 J. Phys. Chem. B 2009, 113, 6378-6396.
 iSolventCode=           1
 Solvent: water                                                           
 
 vradii
            1           2           3           4           5           6
    1   1.8500000   1.8500000   1.8500000   1.8500000   1.8500000   1.8500000
            7           8           9          10          11          12
    1   1.2000000   1.2000000   1.2000000   1.2000000   1.5200000   1.2000000
           13          14          15          16
    1   1.5200000   1.5200000   1.2000000   1.2000000
 Changing PCM_VDW_RADII to SMD_RADIUS
 Discretize the solute cavity surface with Lebedev spheres
	Using 110 Lebedev grid points for each H atom
	Using 194 Lebedev grid points for other atoms
	Atomic van der Waals radii will be scaled by 1.20
 Remove points where switching function is < 1.0e-08
 Keep 1259 surface tesserae and discard 1257 interior tesserae
 Molecular Surface Area = 151.184 Angst**2
 A cutoff of  1.0D-12 yielded   5961 shell pairs
 There are     65043 function pairs (     81299 Cartesian)
 Smallest overlap matrix eigenvalue = 1.64E-06
 Guess from superposition of atomic densities
 Warning:  Energy on first SCF cycle will be non-variational
 SAD guess density has 67.000000 electrons

 -----------------------------------------------------------------------
  General SCF calculation program by
  Eric Jon Sundstrom, Paul Horn, Yuezhi Mao, Dmitri Zuev, Alec White,
  David Stuck, Shaama M.S., Shane Yost, Joonho Lee, David Small,
  Daniel Levine, Susi Lehtola, Hugh Burton, Evgeny Epifanovsky,
  Bang C. Huynh
 -----------------------------------------------------------------------
 Exchange:     0.1500 Hartree-Fock + 1.0000 wB97M-V + LR-HF
 Correlation:  1.0000 wB97M-V
 Using SG-2 standard quadrature grid
 Nonlocal Correlation:  VV10 with C = 0.0100 and b = 6.00 and scale = 1.00000
 Grid used for NLC:  SG-1 standard quadrature
 using 16 threads for integral computing
 -------------------------------------------------------
 OpenMP Integral computing Module                
 Release: version 1.0, May 2013, Q-Chem Inc. Pittsburgh 
 -------------------------------------------------------
 
 Citation of the SMD model:
 Marenich, A.V.; Cramer, C.J.; Truhlar, D.G.
 J. Phys. Chem. B 2009, 113, 6378-6396.
 iSolventCode=           1
 Solvent: water                                                           
 
 vradii
            1           2           3           4           5           6
    1   1.8500000   1.8500000   1.8500000   1.8500000   1.8500000   1.8500000
            7           8           9          10          11          12
    1   1.2000000   1.2000000   1.2000000   1.2000000   1.5200000   1.2000000
           13          14          15          16
    1   1.5200000   1.5200000   1.2000000   1.2000000
 -------------------------------------------------------
 OpenMP BLAS3 based DFT computing Module                
 Release: version 1.0, May 2013, Q-Chem Inc. Pittsburgh 
 -------------------------------------------------------
 A unrestricted SCF calculation will be
 performed using DIIS, GDM
 SCF converges when RMS gradient is below 1.0e-07
 ---------------------------------------
  Cycle       Energy         DIIS error
 ---------------------------------------
    1    -460.4485581418      1.27e-02  
    2    -458.2245441411      1.16e-03  Done DIIS. Switching to GDM
 ---------------------------------------
  Cycle       Energy        RMS Gradient
 ---------------------------------------
    1    -458.2245441411      4.63e-02   Descent step
    2    -458.2985588924      2.71e-02   Normal BFGS step
    3    -458.3115755083      1.80e-02   Normal BFGS step
    4    -458.3130775319      1.16e-02   Normal BFGS step
    5    -458.3137651263      5.53e-03   Normal BFGS step
    6    -458.3139221207      3.44e-03   Normal BFGS step
    7    -458.3139650510      1.44e-03   Normal BFGS step
    8    -458.3139758466      1.23e-03   Normal BFGS step
    9    -458.3139806959      1.15e-03   Normal BFGS step
   10    -458.3139875507      1.07e-03   Normal BFGS step
   11    -458.3139989405      1.41e-03   Normal BFGS step
   12    -458.3140147898      1.59e-03   Normal BFGS step
   13    -458.3140331293      1.96e-03   Normal BFGS step
   14    -458.3140490183      2.00e-03   Normal BFGS step
   15    -458.3140603821      1.14e-03   Normal BFGS step
   16    -458.3140676221      9.22e-04   Normal BFGS step
   17    -458.3140715325      6.78e-04   Normal BFGS step
   18    -458.3140730667      2.37e-04   Normal BFGS step
   19    -458.3140734778      7.36e-05   Normal BFGS step
   20    -458.3140735550      4.06e-05   Normal BFGS step
   21    -458.3140735688      2.77e-05   Normal BFGS step
   22    -458.3140735725      1.12e-05   Normal BFGS step
   23    -458.3140735737      5.06e-06   Normal BFGS step
   24    -458.3140735739      4.10e-06   Normal BFGS step
   25    -458.3140735740      2.06e-06   Normal BFGS step
   26    -458.3140735740      8.20e-07   Normal BFGS step
   27    -458.3140735740      2.12e-07   Normal BFGS step
   28    -458.3140735740      1.30e-07   Normal BFGS step
   29    -458.3140735740      5.60e-08  Convergence criterion met
 ---------------------------------------
 SCF time:   CPU 3027.16s  wall 233.00s 
<S^2> =          0.756243922
(3)  G-ENP(liq) elect-nuc-pol free energy of system     -458.314073574 a.u.
(4)  G-CDS(liq) cavity-dispersion-solvent structure 
     free energy                                                2.3699 kcal/mol
(6)  G-S(liq) free energy of system                     -458.310296903 a.u.
 SCF   energy in the final basis set =     -458.3102969028
 Total energy in the final basis set =     -458.3102969028
 
 --------------------------------------------------------------
 
                    Orbital Energies (a.u.)
 --------------------------------------------------------------
 
 Alpha MOs
 -- Occupied --
-19.3586 -19.3533 -19.3486 -10.4315 -10.4142 -10.4111 -10.3984 -10.3718
-10.3706  -1.2384  -1.1787  -1.0176  -0.9151  -0.8969  -0.8801  -0.7655
 -0.7543  -0.6718  -0.6389  -0.6068  -0.5938  -0.5777  -0.5631  -0.5419
 -0.5362  -0.5203  -0.5012  -0.4831  -0.4753  -0.4436  -0.4152  -0.3831
 -0.3354  -0.3057
 -- Virtual --
 -0.0537   0.0256   0.0375   0.0392   0.0449   0.0507   0.0595   0.0607
  0.0813   0.1004   0.1041   0.1131   0.1348   0.1384   0.1447   0.1519
  0.1535   0.1577   0.1610   0.1623   0.1656   0.1696   0.1731   0.1796
  0.1840   0.1882   0.1935   0.2054   0.2148   0.2205   0.2241   0.2318
  0.2375   0.2467   0.2575   0.2645   0.2820   0.2900   0.2987   0.3063
  0.3120   0.3144   0.3230   0.3272   0.3376   0.3484   0.3579   0.3631
  0.3654   0.3740   0.3860   0.3902   0.3966   0.4083   0.4183   0.4371
  0.4440   0.4734   0.4855   0.5137   0.5297   0.5300   0.5590   0.5755
  0.5814   0.5891   0.5911   0.6059   0.6135   0.6255   0.6284   0.6614
  0.6707   0.6792   0.6986   0.7033   0.7098   0.7240   0.7274   0.7291
  0.7472   0.7607   0.7769   0.7792   0.8014   0.8092   0.8206   0.8256
  0.8330   0.8429   0.8464   0.8526   0.8593   0.8877   0.9075   0.9377
  0.9536   1.0178   1.0301   1.0689   1.0765   1.0911   1.0977   1.1016
  1.1176   1.1435   1.1458   1.1514   1.1716   1.1725   1.1936   1.2171
  1.2232   1.2396   1.2508   1.2615   1.2761   1.2873   1.2916   1.3203
  1.3237   1.3357   1.3504   1.3576   1.3745   1.3921   1.4004   1.4176
  1.4298   1.4403   1.4416   1.4553   1.4717   1.4830   1.4965   1.5077
  1.5311   1.5382   1.5555   1.5615   1.5751   1.5958   1.6301   1.6421
  1.6633   1.6721   1.7131   1.7388   1.7563   1.7777   1.7903   1.8138
  1.8434   1.8562   1.9136   1.9465   1.9546   2.0329   2.0539   2.0834
  2.1145   2.1168   2.2062   2.2528   2.3292   2.3435   2.3702   2.4578
  2.4832   2.5711   2.5896   2.6155   2.6176   2.6385   2.6880   2.7055
  2.7507   2.7852   2.7893   2.7981   2.7994   2.8211   2.8252   2.8516
  2.8662   2.8684   2.8834   2.9055   2.9104   2.9332   2.9524   2.9670
  2.9836   2.9953   3.0434   3.0580   3.0744   3.1253   3.1476   3.1618
  3.1780   3.1970   3.2235   3.2359   3.2547   3.2750   3.2912   3.3145
  3.3228   3.3420   3.3714   3.3834   3.4102   3.4138   3.4457   3.4532
  3.4802   3.4849   3.4982   3.5126   3.5197   3.5466   3.5696   3.5950
  3.6192   3.6303   3.7078   3.7233   3.7353   3.7495   3.7877   3.8064
  3.8147   3.8359   3.8571   3.8732   3.8835   3.8945   3.9087   3.9322
  3.9632   3.9913   4.0034   4.0136   4.0241   4.0905   4.1364   4.1568
  4.1808   4.1991   4.2491   4.2826   4.3007   4.3241   4.3343   4.3499
  4.3743   4.4109   4.4479   4.4692   4.4773   4.5121   4.5407   4.5653
  4.5892   4.6173   4.6236   4.6423   4.6785   4.6934   4.7019   4.7322
  4.7458   4.7764   4.7788   4.7972   4.8444   4.9479   4.9625   5.0337
  5.0662   5.0920   5.1147   5.1215   5.1290   5.1782   5.1993   5.2204
  5.2354   5.2399   5.2547   5.2764   5.2841   5.3346   5.3519   5.3663
  5.3857   5.4440   5.4514   5.5654   5.6148   5.6276   5.6345   5.6398
  5.6972   5.7338   5.7573   5.8067   5.8935   5.9610   6.1110   6.2295
  6.4430   6.4720   6.5073   6.7138   6.8308   6.8628   6.9582   6.9771
  7.0722   7.1052   7.1484   7.1616   7.3373   7.4058   7.4181   7.4519
  7.5113   7.6614   7.8282   7.9797   8.0268  24.2114  24.5936  24.8017
 24.8551  25.0504  25.3882  50.4531  50.5395  50.6352
 
 Beta MOs
 -- Occupied --
-19.3486 -19.3449 -19.3381 -10.4315 -10.4144 -10.4111 -10.3984 -10.3717
-10.3705  -1.2096  -1.1781  -1.0176  -0.9149  -0.8969  -0.8382  -0.7653
 -0.7543  -0.6714  -0.6383  -0.6066  -0.5929  -0.5762  -0.5627  -0.5172
 -0.5145  -0.4932  -0.4846  -0.4770  -0.4526  -0.4428  -0.4140  -0.3794
 -0.2852
 -- Virtual --
 -0.0549   0.0195   0.0260   0.0378   0.0397   0.0466   0.0514   0.0597
  0.0613   0.0819   0.1010   0.1042   0.1140   0.1354   0.1389   0.1453
  0.1527   0.1536   0.1584   0.1612   0.1626   0.1660   0.1700   0.1743
  0.1804   0.1853   0.1886   0.1958   0.2059   0.2157   0.2212   0.2247
  0.2327   0.2393   0.2475   0.2579   0.2662   0.2835   0.2926   0.3052
  0.3091   0.3139   0.3158   0.3241   0.3304   0.3398   0.3500   0.3610
  0.3649   0.3674   0.3748   0.3878   0.3918   0.3996   0.4094   0.4184
  0.4379   0.4444   0.4747   0.4879   0.5137   0.5300   0.5303   0.5593
  0.5757   0.5816   0.5892   0.5911   0.6061   0.6138   0.6259   0.6289
  0.6615   0.6712   0.6793   0.6988   0.7035   0.7100   0.7242   0.7276
  0.7295   0.7475   0.7609   0.7769   0.7800   0.8017   0.8097   0.8213
  0.8262   0.8334   0.8431   0.8469   0.8528   0.8595   0.8878   0.9084
  0.9385   0.9553   1.0197   1.0318   1.0721   1.0778   1.0941   1.1002
  1.1025   1.1212   1.1463   1.1470   1.1549   1.1754   1.1831   1.2014
  1.2257   1.2304   1.2443   1.2530   1.2673   1.2819   1.2906   1.2961
  1.3239   1.3260   1.3373   1.3521   1.3582   1.3759   1.3947   1.4046
  1.4181   1.4319   1.4409   1.4438   1.4567   1.4773   1.4916   1.5035
  1.5096   1.5331   1.5456   1.5576   1.5623   1.5771   1.5979   1.6324
  1.6478   1.6813   1.6895   1.7197   1.7409   1.7585   1.7779   1.7915
  1.8264   1.8540   1.8626   1.9222   1.9482   1.9553   2.0331   2.0541
  2.0850   2.1172   2.1251   2.2121   2.2643   2.3443   2.3556   2.3770
  2.4612   2.4848   2.5712   2.5897   2.6156   2.6177   2.6386   2.6888
  2.7131   2.7510   2.7853   2.7895   2.7982   2.7998   2.8217   2.8253
  2.8519   2.8663   2.8685   2.8834   2.9057   2.9104   2.9333   2.9524
  2.9673   2.9839   2.9952   3.0433   3.0579   3.0744   3.1253   3.1477
  3.1617   3.1779   3.1970   3.2234   3.2358   3.2547   3.2750   3.2913
  3.3144   3.3228   3.3420   3.3713   3.3834   3.4103   3.4138   3.4456
  3.4533   3.4801   3.4849   3.4983   3.5126   3.5196   3.5465   3.5695
  3.5950   3.6192   3.6302   3.7078   3.7234   3.7353   3.7494   3.7877
  3.8064   3.8147   3.8360   3.8571   3.8732   3.8836   3.8946   3.9088
  3.9322   3.9631   3.9913   4.0034   4.0135   4.0241   4.0906   4.1364
  4.1568   4.1808   4.1992   4.2491   4.2826   4.3009   4.3241   4.3343
  4.3498   4.3752   4.4113   4.4479   4.4692   4.4773   4.5122   4.5413
  4.5656   4.5907   4.6238   4.6452   4.6522   4.6793   4.6970   4.7023
  4.7332   4.7465   4.7796   4.8048   4.8216   4.8553   4.9480   4.9628
  5.0346   5.0682   5.1164   5.1346   5.1590   5.1943   5.2041   5.2097
  5.2462   5.2595   5.2651   5.2679   5.3069   5.3303   5.3398   5.3577
  5.3809   5.4026   5.4496   5.4521   5.5663   5.6229   5.6355   5.6572
  5.6585   5.6972   5.7347   5.7575   5.8066   5.8935   5.9613   6.1110
  6.2295   6.4430   6.5181   6.5192   6.7155   6.8994   6.9327   7.0074
  7.0396   7.1032   7.1514   7.1628   7.1905   7.3410   7.4068   7.4387
  7.4940   7.5229   7.6635   7.8286   7.9980   8.0452  24.2114  24.5935
 24.8017  24.8551  25.0504  25.3882  50.4644  50.5498  50.6355
 --------------------------------------------------------------
 
          Ground-State Mulliken Net Atomic Charges

     Atom                 Charge (a.u.)    Spin (a.u.)
  --------------------------------------------------------
      1 C                    -0.712222      -0.021428
      2 C                     0.522077       0.023949
      3 C                    -0.744332      -0.022908
      4 C                     0.252209       0.016268
      5 C                    -0.645166      -0.005377
      6 C                     0.383107       0.006325
      7 H                     0.240265       0.000290
      8 H                     0.342674      -0.000315
      9 H                     0.291274      -0.000935
     10 H                     0.293269      -0.000086
     11 O                    -0.365640       0.001863
     12 H                     0.311604      -0.000458
     13 O                    -0.458501       0.537003
     14 O                    -0.344984       0.465343
     15 H                     0.324683      -0.000095
     16 H                     0.309684       0.000560
  --------------------------------------------------------
  Sum of atomic charges =     0.000000
  Sum of spin   charges =     1.000000

 -----------------------------------------------------------------
                    Cartesian Multipole Moments
 -----------------------------------------------------------------
    Charge (ESU x 10^10)
                 0.0000
    Dipole Moment (Debye)
         X     -13.9867      Y       0.8223      Z       4.5379
       Tot      14.7274
    Quadrupole Moments (Debye-Ang)
        XX     -95.6320     XY     -43.6562     YY     -42.3807
        XZ       7.7872     YZ      11.2069     ZZ     -51.5864
    Octopole Moments (Debye-Ang^2)
       XXX    -367.3117    XXY    -311.6104    XYY    -215.0786
       YYY    -487.7923    XXZ     -13.1917    XYZ      10.4398
       YYZ      -3.3316    XZZ     -69.6140    YZZ    -184.8044
       ZZZ     -69.6989
    Hexadecapole Moments (Debye-Ang^3)
      XXXX   -2003.6445   XXXY   -1132.0541   XXYY   -1354.0171
      XYYY   -1249.8666   YYYY   -3956.6018   XXXZ       4.4033
      XXYZ    -112.9368   XYYZ     -47.8673   YYYZ    -310.7926
      XXZZ    -318.3653   XYZZ    -252.1180   YYZZ    -789.4409
      XZZZ     -47.8472   YZZZ    -285.1109   ZZZZ    -292.4264
 -----------------------------------------------------------------
 Calculating analytic gradient of the SCF energy
 Gradient of CDS energy
            1           2           3           4           5           6
    1   0.0036463   0.0001621   0.0001001  -0.0003552  -0.0003806   0.0000397
    2   0.0019444  -0.0000191  -0.0004285  -0.0003037   0.0002743   0.0003907
    3  -0.0000351   0.0002059   0.0001011  -0.0001478  -0.0002046   0.0000082
            7           8           9          10          11          12
    1  -0.0000650   0.0002095   0.0000082  -0.0001620  -0.0035215   0.0003158
    2   0.0000223  -0.0000105  -0.0002053   0.0000833  -0.0019027   0.0002291
    3   0.0001934   0.0000080   0.0000050  -0.0000940   0.0002408  -0.0001372
           13          14          15          16
    1   0.0000047   0.0000980   0.0000571  -0.0001570
    2  -0.0000650  -0.0001042   0.0002108  -0.0001158
    3  -0.0000821   0.0000116   0.0000013  -0.0000745
 Gradient of SCF Energy
            1           2           3           4           5           6
    1   0.0159987  -0.0045434   0.0123639   0.0054889  -0.0012982   0.0114927
    2   0.0041366   0.0070115  -0.0003772   0.0044866   0.0029911  -0.0137409
    3  -0.0201840  -0.0069875   0.0090214   0.0032542   0.0021524   0.0128130
            7           8           9          10          11          12
    1  -0.0081527   0.0005359  -0.0010837  -0.0188211   0.0098783  -0.0075312
    2   0.0009190  -0.0029848  -0.0168103   0.0094496   0.0005031   0.0019863
    3   0.0148012   0.0057973   0.0012136  -0.0100814  -0.0017777   0.0034806
           13          14          15          16
    1   0.0095276  -0.0027710  -0.0022539  -0.0188308
    2  -0.0040045   0.0030631   0.0166197  -0.0132492
    3  -0.0015676  -0.0024922  -0.0015511  -0.0078923
 Max gradient component =       2.018E-02
 RMS gradient           =       9.056E-03
 Computing fast CPCM-SWIG gradient
 Updating gradient with PCM contributions...
 -- total gradient after adding PCM contribution --
---------------------------------------------------
  Atom         X              Y              Z     
---------------------------------------------------
   1       0.000001      -0.000003       0.000003
   2       0.000013      -0.000003      -0.000010
   3      -0.000007      -0.000005      -0.000007
   4       0.000011      -0.000005      -0.000015
   5      -0.000003       0.000001       0.000012
   6      -0.000008      -0.000001       0.000012
   7      -0.000000      -0.000016       0.000005
   8       0.000006      -0.000003      -0.000009
   9       0.000010      -0.000003      -0.000019
  10      -0.000005      -0.000001       0.000012
  11      -0.000005       0.000007       0.000009
  12      -0.000001       0.000001      -0.000001
  13      -0.000001       0.000023      -0.000021
  14      -0.000003       0.000016       0.000008
  15      -0.000008      -0.000002       0.000019
  16       0.000000      -0.000004       0.000003
---------------------------------------------------
 Number of fixed atoms: 0
 Gradient time:  CPU 282.83 s  wall 25.19 s
 ######################################################
 ######################################################
 # Starting finite difference calculation for IDERIV  #
 Finite diff step size:  1.88973e-03 a.u.
 ----------------------------------------------------------------
             Standard Nuclear Orientation (Angstroms)
    I     Atom           X                Y                Z
 ----------------------------------------------------------------
    1      C       1.1731199476     4.3194969512     1.3611603150
    2      C       1.2828169949     2.8626384628     1.2846857499
    3      C       0.2326112362     2.1060064573     0.8284041854
    4      C      -0.8590349677     2.7506815480     0.2620922090
    5      C      -0.9452901903     4.1560898597     0.1340564971
    6      C       0.0644170044     4.9252301395     0.6034264526
    7      H       0.7614088085     4.4112255700     2.4022060087
    8      H       2.1639907381     2.4133293287     1.7209388077
    9      H       0.2754833950     1.0279742641     0.8547354828
   10      H      -1.7983455325     4.5945485881    -0.3608268164
   11      O       2.3969503572     5.0011426767     1.3171576594
   12      H       2.8495354084     4.5879889130     0.5532675708
   13      O       3.9613766700     2.5918664849    -0.3393291319
   14      O       2.8479937976     3.2104667919    -0.6782138380
   15      H       0.0559497010     6.0035408755     0.5173760217
   16      H      -1.6730283685     2.1505287887    -0.1228625739
 ----------------------------------------------------------------
 Nuclear Repulsion Energy =         430.47014478 hartrees
 There are       34 alpha and       33 beta electrons
 Discretize the solute cavity surface with Lebedev spheres
	Using 110 Lebedev grid points for each H atom
	Using 194 Lebedev grid points for other atoms
	Atomic van der Waals radii will be scaled by 1.20
 Remove points where switching function is < 1.0e-08
 Keep 1258 surface tesserae and discard 1258 interior tesserae
 Molecular Surface Area = 151.183 Angst**2
 Requested basis set is 6-311++G(2df,2p)
 There are 114 shells and 376 basis functions
 A cutoff of  1.0D-12 yielded   5961 shell pairs
 There are     65043 function pairs (     81299 Cartesian)
 Smallest overlap matrix eigenvalue = 1.64E-06
 Guess MOs from SCF MO coefficient file

 -----------------------------------------------------------------------
  General SCF calculation program by
  Eric Jon Sundstrom, Paul Horn, Yuezhi Mao, Dmitri Zuev, Alec White,
  David Stuck, Shaama M.S., Shane Yost, Joonho Lee, David Small,
  Daniel Levine, Susi Lehtola, Hugh Burton, Evgeny Epifanovsky,
  Bang C. Huynh
 -----------------------------------------------------------------------
 Exchange:     0.1500 Hartree-Fock + 1.0000 wB97M-V + LR-HF
 Correlation:  1.0000 wB97M-V
 Using SG-2 standard quadrature grid
 Nonlocal Correlation:  VV10 with C = 0.0100 and b = 6.00 and scale = 1.00000
 Grid used for NLC:  SG-1 standard quadrature
 
 Citation of the SMD model:
 Marenich, A.V.; Cramer, C.J.; Truhlar, D.G.
 J. Phys. Chem. B 2009, 113, 6378-6396.
 iSolventCode=           1
 Solvent: water                                                           
 
 vradii
            1           2           3           4           5           6
    1   1.8500000   1.8500000   1.8500000   1.8500000   1.8500000   1.8500000
            7           8           9          10          11          12
    1   1.2000000   1.2000000   1.2000000   1.2000000   1.5200000   1.2000000
           13          14          15          16
    1   1.5200000   1.5200000   1.2000000   1.2000000
 -------------------------------------------------------
 OpenMP BLAS3 based DFT computing Module                
 Release: version 1.0, May 2013, Q-Chem Inc. Pittsburgh 
 -------------------------------------------------------
 A unrestricted SCF calculation will be
 performed using Roothaan-Hall, DIIS, GDM
 SCF converges when RMS gradient is below 1.0e-07
 ---------------------------------------
  Cycle       Energy         DIIS error
 ---------------------------------------
    1    -458.2438735331      2.75e-04  Roothaan Step
 ---------------------------------------
  Cycle       Energy         DIIS error
 ---------------------------------------
    1    -458.2948920456      3.61e-04  
    2    -458.3061147159      3.59e-04  Done DIIS. Switching to GDM
 ---------------------------------------
  Cycle       Energy        RMS Gradient
 ---------------------------------------
    1    -458.3061147159      1.60e-02   Normal BFGS step
    2    -458.3080720029      4.02e-02   Normal BFGS step
    3    -458.3135252630      1.47e-02   Normal BFGS step
    4    -458.3138035035      7.56e-03   Normal BFGS step
    5    -458.3140461349      1.34e-03   Normal BFGS step
    6    -458.3140666978      1.08e-03   Normal BFGS step
    7    -458.3140748791      6.78e-04   Normal BFGS step
    8    -458.3140770655      3.57e-04   Normal BFGS step
    9    -458.3140777219      1.64e-04   Normal BFGS step
   10    -458.3140779566      1.68e-04   Normal BFGS step
   11    -458.3140780563      1.58e-04   Normal BFGS step
   12    -458.3140781885      1.52e-04   Normal BFGS step
   13    -458.3140783241      1.43e-04   Normal BFGS step
   14    -458.3140784774      1.89e-04   Normal BFGS step
   15    -458.3140786669      2.12e-04   Normal BFGS step
   16    -458.3140788939      1.88e-04   Normal BFGS step
   17    -458.3140791399      2.18e-04   Normal BFGS step
   18    -458.3140793432      1.76e-04   Normal BFGS step
   19    -458.3140794501      1.09e-04   Normal BFGS step
   20    -458.3140794830      2.70e-05   Normal BFGS step
   21    -458.3140794909      1.09e-05   Normal BFGS step
   22    -458.3140794929      5.36e-06   Normal BFGS step
   23    -458.3140794933      3.97e-06   Normal BFGS step
   24    -458.3140794934      1.58e-06   Normal BFGS step
   25    -458.3140794934      2.26e-06   Normal BFGS step
   26    -458.3140794934      3.79e-07   Normal BFGS step
   27    -458.3140794934      1.51e-07   Normal BFGS step
   28    -458.3140794934      6.60e-08  Convergence criterion met
 ---------------------------------------
 SCF time:   CPU 3087.94s  wall 237.00s 
<S^2> =          0.756238088
(3)  G-ENP(liq) elect-nuc-pol free energy of system     -458.314079493 a.u.
(4)  G-CDS(liq) cavity-dispersion-solvent structure 
     free energy                                                2.3743 kcal/mol
(6)  G-S(liq) free energy of system                     -458.310295773 a.u.
 SCF   energy in the final basis set =     -458.3102957727
 Total energy in the final basis set =     -458.3102957727
 
 --------------------------------------------------------------
 
                    Orbital Energies (a.u.)
 --------------------------------------------------------------
 
 Alpha MOs
 -- Occupied --
-19.3586 -19.3533 -19.3487 -10.4315 -10.4142 -10.4111 -10.3984 -10.3717
-10.3706  -1.2384  -1.1790  -1.0176  -0.9151  -0.8968  -0.8801  -0.7655
 -0.7543  -0.6718  -0.6389  -0.6068  -0.5939  -0.5777  -0.5631  -0.5419
 -0.5362  -0.5203  -0.5012  -0.4831  -0.4754  -0.4436  -0.4151  -0.3831
 -0.3354  -0.3057
 -- Virtual --
 -0.0536   0.0256   0.0375   0.0392   0.0449   0.0507   0.0595   0.0607
  0.0813   0.1004   0.1041   0.1131   0.1348   0.1384   0.1447   0.1519
  0.1535   0.1577   0.1610   0.1623   0.1656   0.1696   0.1731   0.1796
  0.1840   0.1882   0.1936   0.2055   0.2149   0.2205   0.2241   0.2318
  0.2375   0.2467   0.2575   0.2645   0.2820   0.2900   0.2987   0.3062
  0.3120   0.3145   0.3229   0.3272   0.3376   0.3484   0.3579   0.3631
  0.3653   0.3740   0.3860   0.3902   0.3966   0.4083   0.4182   0.4372
  0.4440   0.4734   0.4855   0.5137   0.5297   0.5301   0.5591   0.5755
  0.5814   0.5891   0.5911   0.6059   0.6135   0.6255   0.6284   0.6613
  0.6707   0.6792   0.6987   0.7033   0.7098   0.7240   0.7275   0.7291
  0.7472   0.7608   0.7769   0.7792   0.8014   0.8092   0.8206   0.8256
  0.8330   0.8429   0.8464   0.8526   0.8593   0.8877   0.9075   0.9377
  0.9535   1.0178   1.0301   1.0689   1.0764   1.0911   1.0977   1.1016
  1.1176   1.1435   1.1458   1.1514   1.1715   1.1724   1.1936   1.2171
  1.2232   1.2396   1.2508   1.2615   1.2761   1.2873   1.2916   1.3203
  1.3236   1.3357   1.3504   1.3576   1.3745   1.3922   1.4004   1.4176
  1.4297   1.4403   1.4416   1.4552   1.4718   1.4830   1.4965   1.5076
  1.5310   1.5381   1.5554   1.5615   1.5751   1.5958   1.6301   1.6421
  1.6633   1.6721   1.7131   1.7387   1.7562   1.7777   1.7903   1.8138
  1.8434   1.8562   1.9137   1.9466   1.9547   2.0329   2.0539   2.0835
  2.1148   2.1171   2.2066   2.2530   2.3292   2.3439   2.3703   2.4580
  2.4834   2.5711   2.5896   2.6155   2.6174   2.6386   2.6881   2.7054
  2.7506   2.7852   2.7893   2.7980   2.7994   2.8211   2.8252   2.8516
  2.8662   2.8684   2.8834   2.9056   2.9105   2.9333   2.9524   2.9671
  2.9837   2.9953   3.0436   3.0580   3.0744   3.1252   3.1477   3.1617
  3.1779   3.1968   3.2236   3.2361   3.2547   3.2750   3.2913   3.3144
  3.3228   3.3420   3.3714   3.3834   3.4102   3.4138   3.4456   3.4533
  3.4801   3.4849   3.4984   3.5126   3.5197   3.5466   3.5695   3.5950
  3.6193   3.6303   3.7077   3.7233   3.7353   3.7493   3.7877   3.8064
  3.8147   3.8358   3.8571   3.8732   3.8833   3.8942   3.9087   3.9322
  3.9633   3.9914   4.0031   4.0135   4.0239   4.0906   4.1364   4.1567
  4.1808   4.1992   4.2488   4.2825   4.3007   4.3240   4.3339   4.3499
  4.3742   4.4106   4.4478   4.4691   4.4772   4.5120   4.5403   4.5651
  4.5890   4.6173   4.6236   4.6420   4.6784   4.6932   4.7017   4.7320
  4.7455   4.7763   4.7788   4.7971   4.8444   4.9478   4.9623   5.0337
  5.0660   5.0920   5.1147   5.1215   5.1290   5.1782   5.1992   5.2204
  5.2354   5.2399   5.2546   5.2763   5.2840   5.3346   5.3520   5.3664
  5.3858   5.4442   5.4517   5.5657   5.6146   5.6276   5.6345   5.6394
  5.6971   5.7340   5.7573   5.8069   5.8935   5.9619   6.1127   6.2296
  6.4431   6.4721   6.5073   6.7159   6.8309   6.8628   6.9583   6.9771
  7.0722   7.1054   7.1484   7.1617   7.3376   7.4063   7.4182   7.4520
  7.5114   7.6616   7.8283   7.9797   8.0268  24.2115  24.5934  24.8018
 24.8551  25.0504  25.3879  50.4531  50.5395  50.6356
 
 Beta MOs
 -- Occupied --
-19.3486 -19.3449 -19.3381 -10.4315 -10.4143 -10.4111 -10.3985 -10.3717
-10.3705  -1.2097  -1.1784  -1.0176  -0.9149  -0.8969  -0.8382  -0.7653
 -0.7543  -0.6714  -0.6384  -0.6066  -0.5929  -0.5763  -0.5626  -0.5172
 -0.5145  -0.4932  -0.4846  -0.4771  -0.4526  -0.4428  -0.4140  -0.3794
 -0.2852
 -- Virtual --
 -0.0548   0.0195   0.0260   0.0378   0.0397   0.0467   0.0514   0.0597
  0.0613   0.0819   0.1010   0.1042   0.1140   0.1354   0.1389   0.1453
  0.1527   0.1536   0.1584   0.1612   0.1626   0.1660   0.1700   0.1743
  0.1804   0.1854   0.1886   0.1958   0.2060   0.2157   0.2213   0.2247
  0.2327   0.2393   0.2476   0.2579   0.2662   0.2836   0.2926   0.3052
  0.3091   0.3139   0.3158   0.3240   0.3303   0.3398   0.3500   0.3610
  0.3649   0.3674   0.3747   0.3878   0.3918   0.3996   0.4094   0.4184
  0.4379   0.4444   0.4747   0.4879   0.5138   0.5300   0.5304   0.5594
  0.5757   0.5816   0.5893   0.5911   0.6061   0.6138   0.6259   0.6289
  0.6615   0.6712   0.6793   0.6989   0.7035   0.7100   0.7242   0.7277
  0.7295   0.7475   0.7609   0.7769   0.7800   0.8017   0.8097   0.8212
  0.8262   0.8334   0.8431   0.8469   0.8528   0.8595   0.8878   0.9084
  0.9385   0.9553   1.0197   1.0318   1.0721   1.0777   1.0941   1.1001
  1.1025   1.1213   1.1463   1.1469   1.1549   1.1754   1.1831   1.2014
  1.2256   1.2304   1.2443   1.2530   1.2673   1.2818   1.2906   1.2961
  1.3239   1.3260   1.3373   1.3521   1.3582   1.3759   1.3947   1.4046
  1.4182   1.4318   1.4408   1.4438   1.4567   1.4773   1.4916   1.5035
  1.5095   1.5331   1.5455   1.5576   1.5623   1.5770   1.5979   1.6323
  1.6478   1.6812   1.6895   1.7197   1.7409   1.7585   1.7779   1.7915
  1.8264   1.8540   1.8626   1.9223   1.9483   1.9554   2.0331   2.0542
  2.0850   2.1175   2.1253   2.2125   2.2644   2.3447   2.3556   2.3771
  2.4613   2.4849   2.5712   2.5897   2.6156   2.6175   2.6386   2.6889
  2.7131   2.7509   2.7853   2.7896   2.7981   2.7999   2.8218   2.8253
  2.8520   2.8664   2.8685   2.8835   2.9057   2.9105   2.9334   2.9524
  2.9674   2.9839   2.9951   3.0435   3.0579   3.0744   3.1253   3.1477
  3.1617   3.1779   3.1968   3.2235   3.2360   3.2547   3.2750   3.2914
  3.3143   3.3228   3.3419   3.3713   3.3834   3.4103   3.4139   3.4456
  3.4533   3.4800   3.4850   3.4985   3.5126   3.5196   3.5465   3.5695
  3.5950   3.6193   3.6302   3.7077   3.7234   3.7352   3.7492   3.7877
  3.8064   3.8147   3.8358   3.8571   3.8732   3.8834   3.8942   3.9087
  3.9322   3.9633   3.9914   4.0031   4.0135   4.0239   4.0906   4.1364
  4.1568   4.1808   4.1993   4.2488   4.2825   4.3008   4.3240   4.3339
  4.3499   4.3750   4.4111   4.4478   4.4691   4.4773   4.5121   4.5409
  4.5655   4.5905   4.6239   4.6449   4.6522   4.6793   4.6969   4.7021
  4.7331   4.7463   4.7796   4.8048   4.8216   4.8553   4.9479   4.9625
  5.0346   5.0679   5.1164   5.1346   5.1590   5.1943   5.2040   5.2097
  5.2461   5.2595   5.2650   5.2678   5.3069   5.3303   5.3398   5.3578
  5.3811   5.4026   5.4497   5.4524   5.5666   5.6228   5.6351   5.6572
  5.6585   5.6972   5.7349   5.7575   5.8068   5.8935   5.9622   6.1127
  6.2297   6.4432   6.5181   6.5192   6.7176   6.8995   6.9327   7.0074
  7.0396   7.1032   7.1515   7.1628   7.1905   7.3413   7.4072   7.4388
  7.4940   7.5230   7.6637   7.8287   7.9980   8.0452  24.2115  24.5933
 24.8018  24.8551  25.0504  25.3879  50.4644  50.5499  50.6359
 --------------------------------------------------------------
 
          Ground-State Mulliken Net Atomic Charges

     Atom                 Charge (a.u.)    Spin (a.u.)
  --------------------------------------------------------
      1 C                    -0.713159      -0.021412
      2 C                     0.522658       0.023942
      3 C                    -0.744557      -0.022892
      4 C                     0.252346       0.016283
      5 C                    -0.645599      -0.005380
      6 C                     0.383658       0.006330
      7 H                     0.240296       0.000297
      8 H                     0.342615      -0.000317
      9 H                     0.291285      -0.000936
     10 H                     0.293282      -0.000086
     11 O                    -0.365249       0.001865
     12 H                     0.311667      -0.000465
     13 O                    -0.458516       0.536980
     14 O                    -0.345019       0.465326
     15 H                     0.324640      -0.000095
     16 H                     0.309653       0.000559
  --------------------------------------------------------
  Sum of atomic charges =     0.000000
  Sum of spin   charges =     1.000000

 -----------------------------------------------------------------
                    Cartesian Multipole Moments
 -----------------------------------------------------------------
    Charge (ESU x 10^10)
                 0.0000
    Dipole Moment (Debye)
         X     -13.9825      Y       0.8252      Z       4.5389
       Tot      14.7239
    Quadrupole Moments (Debye-Ang)
        XX     -95.6242     XY     -43.6314     YY     -42.3589
        XZ       7.7934     YZ      11.2135     ZZ     -51.5863
    Octopole Moments (Debye-Ang^2)
       XXX    -367.3023    XXY    -311.5566    XYY    -214.9481
       YYY    -487.6624    XXZ     -13.1780    XYZ      10.4719
       YYZ      -3.2925    XZZ     -69.6073    YZZ    -184.7961
       ZZZ     -69.7012
    Hexadecapole Moments (Debye-Ang^3)
      XXXX   -2003.6697   XXXY   -1131.9599   XXYY   -1353.7232
      XYYY   -1249.1964   YYYY   -3955.8705   XXXZ       4.4164
      XXYZ    -112.8653   XYYZ     -47.7038   YYYZ    -310.5734
      XXZZ    -318.3440   XYZZ    -252.0733   YYZZ    -789.3817
      XZZZ     -47.8492   YZZZ    -285.1078   ZZZZ    -292.4414
 -----------------------------------------------------------------
 Calculating analytic gradient of the SCF energy
 Gradient of CDS energy
            1           2           3           4           5           6
    1   0.0038130   0.0001619   0.0001001  -0.0003552  -0.0003806   0.0000388
    2   0.0020379  -0.0000192  -0.0004285  -0.0003037   0.0002742   0.0003910
    3  -0.0000412   0.0002057   0.0001012  -0.0001478  -0.0002046   0.0000080
            7           8           9          10          11          12
    1  -0.0000656   0.0002093   0.0000082  -0.0001620  -0.0036854   0.0003149
    2   0.0000221  -0.0000107  -0.0002053   0.0000833  -0.0019950   0.0002284
    3   0.0001933   0.0000079   0.0000050  -0.0000940   0.0002472  -0.0001371
           13          14          15          16
    1   0.0000047   0.0000980   0.0000569  -0.0001570
    2  -0.0000650  -0.0001042   0.0002106  -0.0001158
    3  -0.0000821   0.0000116   0.0000012  -0.0000745
 Gradient of SCF Energy
            1           2           3           4           5           6
    1   0.0171834  -0.0047017   0.0123651   0.0055006  -0.0013567   0.0112146
    2   0.0042018   0.0070628  -0.0004508   0.0044943   0.0030005  -0.0136347
    3  -0.0201437  -0.0070337   0.0090117   0.0032728   0.0021082   0.0126798
            7           8           9          10          11          12
    1  -0.0082437   0.0005383  -0.0010866  -0.0188128   0.0093166  -0.0075937
    2   0.0009443  -0.0029331  -0.0168092   0.0094433   0.0003060   0.0019657
    3   0.0149233   0.0058065   0.0012021  -0.0100844  -0.0017298   0.0034980
           13          14          15          16
    1   0.0095211  -0.0027754  -0.0022447  -0.0188245
    2  -0.0040037   0.0030444   0.0166130  -0.0132446
    3  -0.0015703  -0.0024915  -0.0015581  -0.0078909
 Max gradient component =       2.014E-02
 RMS gradient           =       9.082E-03
 Computing fast CPCM-SWIG gradient
 Updating gradient with PCM contributions...
 -- total gradient after adding PCM contribution --
---------------------------------------------------
  Atom         X              Y              Z     
---------------------------------------------------
   1       0.001194       0.000084       0.000043
   2      -0.000153       0.000016      -0.000057
   3       0.000016      -0.000057      -0.000011
   4       0.000005      -0.000005      -0.000004
   5      -0.000031       0.000021      -0.000024
   6      -0.000327       0.000099      -0.000131
   7      -0.000084       0.000008       0.000139
   8       0.000005       0.000042       0.000000
   9       0.000007      -0.000006      -0.000030
  10      -0.000002      -0.000005       0.000006
  11      -0.000545      -0.000192       0.000046
  12      -0.000070      -0.000019       0.000022
  13      -0.000010       0.000027      -0.000023
  14      -0.000003      -0.000002       0.000008
  15      -0.000003      -0.000006       0.000012
  16       0.000001      -0.000004       0.000003
---------------------------------------------------
 Number of fixed atoms: 0
 Gradient time:  CPU 282.32 s  wall 24.52 s
 ----------------------------------------------------------------
             Standard Nuclear Orientation (Angstroms)
    I     Atom           X                Y                Z
 ----------------------------------------------------------------
    1      C       1.1711199476     4.3194969512     1.3611603150
    2      C       1.2828169949     2.8626384628     1.2846857499
    3      C       0.2326112362     2.1060064573     0.8284041854
    4      C      -0.8590349677     2.7506815480     0.2620922090
    5      C      -0.9452901903     4.1560898597     0.1340564971
    6      C       0.0644170044     4.9252301395     0.6034264526
    7      H       0.7614088085     4.4112255700     2.4022060087
    8      H       2.1639907381     2.4133293287     1.7209388077
    9      H       0.2754833950     1.0279742641     0.8547354828
   10      H      -1.7983455325     4.5945485881    -0.3608268164
   11      O       2.3969503572     5.0011426767     1.3171576594
   12      H       2.8495354084     4.5879889130     0.5532675708
   13      O       3.9613766700     2.5918664849    -0.3393291319
   14      O       2.8479937976     3.2104667919    -0.6782138380
   15      H       0.0559497010     6.0035408755     0.5173760217
   16      H      -1.6730283685     2.1505287887    -0.1228625739
 ----------------------------------------------------------------
 Nuclear Repulsion Energy =         430.46566360 hartrees
 There are       34 alpha and       33 beta electrons
 Discretize the solute cavity surface with Lebedev spheres
	Using 110 Lebedev grid points for each H atom
	Using 194 Lebedev grid points for other atoms
	Atomic van der Waals radii will be scaled by 1.20
 Remove points where switching function is < 1.0e-08
 Keep 1260 surface tesserae and discard 1256 interior tesserae
 Molecular Surface Area = 151.184 Angst**2
 Requested basis set is 6-311++G(2df,2p)
 There are 114 shells and 376 basis functions
 A cutoff of  1.0D-12 yielded   5961 shell pairs
 There are     65043 function pairs (     81299 Cartesian)
 Smallest overlap matrix eigenvalue = 1.64E-06
 Guess MOs from SCF MO coefficient file

 -----------------------------------------------------------------------
  General SCF calculation program by
  Eric Jon Sundstrom, Paul Horn, Yuezhi Mao, Dmitri Zuev, Alec White,
  David Stuck, Shaama M.S., Shane Yost, Joonho Lee, David Small,
  Daniel Levine, Susi Lehtola, Hugh Burton, Evgeny Epifanovsky,
  Bang C. Huynh
 -----------------------------------------------------------------------
 Exchange:     0.1500 Hartree-Fock + 1.0000 wB97M-V + LR-HF
 Correlation:  1.0000 wB97M-V
 Using SG-2 standard quadrature grid
 Nonlocal Correlation:  VV10 with C = 0.0100 and b = 6.00 and scale = 1.00000
 Grid used for NLC:  SG-1 standard quadrature
 
 Citation of the SMD model:
 Marenich, A.V.; Cramer, C.J.; Truhlar, D.G.
 J. Phys. Chem. B 2009, 113, 6378-6396.
 iSolventCode=           1
 Solvent: water                                                           
 
 vradii
            1           2           3           4           5           6
    1   1.8500000   1.8500000   1.8500000   1.8500000   1.8500000   1.8500000
            7           8           9          10          11          12
    1   1.2000000   1.2000000   1.2000000   1.2000000   1.5200000   1.2000000
           13          14          15          16
    1   1.5200000   1.5200000   1.2000000   1.2000000
 -------------------------------------------------------
 OpenMP BLAS3 based DFT computing Module                
 Release: version 1.0, May 2013, Q-Chem Inc. Pittsburgh 
 -------------------------------------------------------
 A unrestricted SCF calculation will be
 performed using Roothaan-Hall, DIIS, GDM
 SCF converges when RMS gradient is below 1.0e-07
 ---------------------------------------
  Cycle       Energy         DIIS error
 ---------------------------------------
    1    -458.2438485561      2.74e-04  Roothaan Step
 ---------------------------------------
  Cycle       Energy         DIIS error
 ---------------------------------------
    1    -458.2948370900      3.62e-04  
    2    -458.3060704757      3.60e-04  Done DIIS. Switching to GDM
 ---------------------------------------
  Cycle       Energy        RMS Gradient
 ---------------------------------------
    1    -458.3060704757      1.60e-02   Normal BFGS step
    2    -458.3080262809      4.03e-02   Normal BFGS step
    3    -458.3135120033      1.47e-02   Normal BFGS step
    4    -458.3137911336      7.49e-03   Normal BFGS step
    5    -458.3140324983      1.31e-03   Normal BFGS step
    6    -458.3140530899      1.09e-03   Normal BFGS step
    7    -458.3140613967      6.74e-04   Normal BFGS step
    8    -458.3140635934      3.59e-04   Normal BFGS step
    9    -458.3140642456      1.56e-04   Normal BFGS step
   10    -458.3140644697      1.67e-04   Normal BFGS step
   11    -458.3140645579      1.41e-04   Normal BFGS step
   12    -458.3140646629      1.36e-04   Normal BFGS step
   13    -458.3140647664      1.29e-04   Normal BFGS step
   14    -458.3140648789      1.57e-04   Normal BFGS step
   15    -458.3140650185      1.76e-04   Normal BFGS step
   16    -458.3140651909      1.60e-04   Normal BFGS step
   17    -458.3140653905      2.02e-04   Normal BFGS step
   18    -458.3140655702      1.72e-04   Normal BFGS step
   19    -458.3140656731      1.11e-04   Normal BFGS step
   20    -458.3140657065      2.88e-05   Normal BFGS step
   21    -458.3140657146      1.14e-05   Normal BFGS step
   22    -458.3140657166      5.51e-06   Normal BFGS step
   23    -458.3140657171      4.02e-06   Normal BFGS step
   24    -458.3140657171      1.67e-06   Normal BFGS step
   25    -458.3140657172      2.29e-06   Normal BFGS step
   26    -458.3140657172      3.72e-07   Normal BFGS step
   27    -458.3140657172      1.59e-07   Normal BFGS step
   28    -458.3140657172      7.27e-08  Convergence criterion met
 ---------------------------------------
 SCF time:   CPU 3061.87s  wall 236.00s 
<S^2> =          0.756249839
(3)  G-ENP(liq) elect-nuc-pol free energy of system     -458.314065717 a.u.
(4)  G-CDS(liq) cavity-dispersion-solvent structure 
     free energy                                                2.3657 kcal/mol
(6)  G-S(liq) free energy of system                     -458.310295772 a.u.
 SCF   energy in the final basis set =     -458.3102957719
 Total energy in the final basis set =     -458.3102957719
 
 --------------------------------------------------------------
 
                    Orbital Energies (a.u.)
 --------------------------------------------------------------
 
 Alpha MOs
 -- Occupied --
-19.3586 -19.3534 -19.3486 -10.4314 -10.4143 -10.4111 -10.3984 -10.3718
-10.3706  -1.2384  -1.1784  -1.0177  -0.9152  -0.8970  -0.8801  -0.7656
 -0.7544  -0.6718  -0.6388  -0.6068  -0.5937  -0.5777  -0.5632  -0.5419
 -0.5362  -0.5203  -0.5012  -0.4830  -0.4753  -0.4437  -0.4152  -0.3831
 -0.3354  -0.3057
 -- Virtual --
 -0.0537   0.0256   0.0375   0.0392   0.0449   0.0507   0.0595   0.0607
  0.0813   0.1004   0.1041   0.1131   0.1348   0.1384   0.1447   0.1519
  0.1535   0.1577   0.1610   0.1623   0.1656   0.1696   0.1731   0.1796
  0.1840   0.1883   0.1935   0.2054   0.2148   0.2205   0.2241   0.2318
  0.2376   0.2466   0.2574   0.2645   0.2820   0.2899   0.2987   0.3063
  0.3120   0.3144   0.3231   0.3272   0.3376   0.3484   0.3579   0.3630
  0.3654   0.3741   0.3861   0.3902   0.3966   0.4083   0.4183   0.4371
  0.4439   0.4734   0.4855   0.5137   0.5297   0.5299   0.5589   0.5755
  0.5814   0.5891   0.5911   0.6059   0.6135   0.6255   0.6285   0.6614
  0.6708   0.6792   0.6986   0.7033   0.7098   0.7240   0.7274   0.7291
  0.7473   0.7607   0.7769   0.7792   0.8015   0.8092   0.8207   0.8256
  0.8330   0.8429   0.8464   0.8526   0.8594   0.8878   0.9076   0.9377
  0.9536   1.0178   1.0301   1.0690   1.0765   1.0911   1.0977   1.1016
  1.1175   1.1435   1.1458   1.1515   1.1716   1.1725   1.1936   1.2172
  1.2233   1.2396   1.2508   1.2615   1.2762   1.2872   1.2916   1.3203
  1.3237   1.3357   1.3504   1.3576   1.3746   1.3921   1.4004   1.4175
  1.4298   1.4403   1.4416   1.4553   1.4717   1.4830   1.4965   1.5078
  1.5311   1.5382   1.5555   1.5615   1.5752   1.5957   1.6302   1.6420
  1.6633   1.6721   1.7131   1.7388   1.7563   1.7776   1.7903   1.8138
  1.8434   1.8562   1.9134   1.9464   1.9545   2.0329   2.0539   2.0834
  2.1143   2.1166   2.2059   2.2526   2.3291   2.3432   2.3702   2.4576
  2.4831   2.5711   2.5896   2.6154   2.6177   2.6385   2.6879   2.7055
  2.7508   2.7852   2.7893   2.7983   2.7994   2.8210   2.8252   2.8516
  2.8661   2.8683   2.8834   2.9055   2.9102   2.9331   2.9524   2.9669
  2.9836   2.9954   3.0433   3.0580   3.0744   3.1254   3.1476   3.1618
  3.1780   3.1973   3.2233   3.2357   3.2547   3.2750   3.2911   3.3145
  3.3228   3.3421   3.3714   3.3835   3.4102   3.4137   3.4458   3.4531
  3.4802   3.4849   3.4980   3.5126   3.5197   3.5466   3.5696   3.5950
  3.6192   3.6304   3.7078   3.7233   3.7354   3.7497   3.7877   3.8064
  3.8146   3.8360   3.8571   3.8733   3.8837   3.8948   3.9087   3.9322
  3.9630   3.9913   4.0037   4.0136   4.0243   4.0905   4.1364   4.1569
  4.1808   4.1990   4.2494   4.2827   4.3008   4.3243   4.3347   4.3498
  4.3745   4.4112   4.4480   4.4692   4.4773   4.5123   4.5411   4.5654
  4.5895   4.6173   4.6235   4.6426   4.6785   4.6935   4.7021   4.7323
  4.7460   4.7764   4.7787   4.7972   4.8444   4.9479   4.9628   5.0337
  5.0665   5.0920   5.1147   5.1215   5.1290   5.1782   5.1994   5.2204
  5.2354   5.2399   5.2547   5.2765   5.2841   5.3345   5.3519   5.3662
  5.3857   5.4439   5.4512   5.5651   5.6149   5.6277   5.6344   5.6403
  5.6973   5.7335   5.7573   5.8065   5.8935   5.9601   6.1092   6.2293
  6.4429   6.4720   6.5072   6.7117   6.8308   6.8628   6.9582   6.9771
  7.0722   7.1051   7.1484   7.1616   7.3370   7.4053   7.4180   7.4519
  7.5113   7.6612   7.8280   7.9797   8.0267  24.2113  24.5937  24.8016
 24.8552  25.0505  25.3884  50.4531  50.5394  50.6347
 
 Beta MOs
 -- Occupied --
-19.3485 -19.3449 -19.3381 -10.4314 -10.4144 -10.4111 -10.3984 -10.3717
-10.3705  -1.2096  -1.1778  -1.0177  -0.9150  -0.8970  -0.8382  -0.7653
 -0.7543  -0.6714  -0.6382  -0.6066  -0.5928  -0.5762  -0.5627  -0.5172
 -0.5145  -0.4932  -0.4845  -0.4769  -0.4526  -0.4429  -0.4141  -0.3794
 -0.2852
 -- Virtual --
 -0.0549   0.0195   0.0260   0.0378   0.0397   0.0466   0.0514   0.0597
  0.0613   0.0819   0.1010   0.1042   0.1140   0.1354   0.1389   0.1453
  0.1526   0.1536   0.1584   0.1612   0.1626   0.1660   0.1700   0.1743
  0.1804   0.1853   0.1886   0.1958   0.2059   0.2156   0.2212   0.2247
  0.2327   0.2393   0.2475   0.2578   0.2662   0.2835   0.2926   0.3052
  0.3092   0.3138   0.3158   0.3242   0.3304   0.3398   0.3500   0.3610
  0.3649   0.3674   0.3748   0.3878   0.3918   0.3996   0.4095   0.4184
  0.4378   0.4443   0.4747   0.4879   0.5137   0.5299   0.5302   0.5593
  0.5757   0.5816   0.5892   0.5911   0.6061   0.6138   0.6259   0.6289
  0.6616   0.6712   0.6793   0.6988   0.7035   0.7099   0.7242   0.7276
  0.7295   0.7476   0.7608   0.7769   0.7800   0.8018   0.8097   0.8213
  0.8262   0.8334   0.8431   0.8470   0.8528   0.8595   0.8879   0.9084
  0.9385   0.9553   1.0196   1.0318   1.0722   1.0778   1.0941   1.1002
  1.1025   1.1212   1.1463   1.1470   1.1549   1.1754   1.1832   1.2015
  1.2258   1.2305   1.2443   1.2530   1.2673   1.2819   1.2906   1.2961
  1.3240   1.3260   1.3372   1.3521   1.3582   1.3760   1.3947   1.4046
  1.4181   1.4320   1.4409   1.4438   1.4568   1.4772   1.4916   1.5035
  1.5096   1.5331   1.5456   1.5577   1.5622   1.5771   1.5978   1.6324
  1.6477   1.6813   1.6895   1.7197   1.7409   1.7586   1.7778   1.7914
  1.8263   1.8540   1.8626   1.9221   1.9480   1.9552   2.0331   2.0541
  2.0849   2.1169   2.1248   2.2117   2.2642   2.3439   2.3556   2.3770
  2.4610   2.4847   2.5712   2.5897   2.6155   2.6178   2.6386   2.6887
  2.7131   2.7511   2.7853   2.7895   2.7984   2.7998   2.8216   2.8252
  2.8519   2.8663   2.8684   2.8834   2.9056   2.9102   2.9332   2.9524
  2.9672   2.9838   2.9953   3.0432   3.0578   3.0744   3.1254   3.1477
  3.1618   3.1780   3.1973   3.2233   3.2356   3.2548   3.2751   3.2912
  3.3145   3.3228   3.3420   3.3714   3.3834   3.4103   3.4138   3.4457
  3.4532   3.4802   3.4849   3.4981   3.5126   3.5196   3.5465   3.5696
  3.5949   3.6192   3.6303   3.7078   3.7234   3.7354   3.7496   3.7877
  3.8064   3.8146   3.8361   3.8571   3.8733   3.8837   3.8949   3.9088
  3.9322   3.9630   3.9913   4.0036   4.0135   4.0243   4.0905   4.1365
  4.1569   4.1808   4.1990   4.2494   4.2827   4.3010   4.3243   4.3347
  4.3497   4.3754   4.4116   4.4480   4.4692   4.4773   4.5124   4.5417
  4.5657   4.5909   4.6238   4.6455   4.6522   4.6793   4.6971   4.7025
  4.7334   4.7468   4.7797   4.8048   4.8216   4.8553   4.9480   4.9630
  5.0346   5.0685   5.1164   5.1346   5.1590   5.1943   5.2042   5.2097
  5.2462   5.2595   5.2652   5.2679   5.3069   5.3303   5.3397   5.3577
  5.3808   5.4025   5.4495   5.4518   5.5659   5.6231   5.6359   5.6572
  5.6585   5.6973   5.7345   5.7575   5.8064   5.8935   5.9604   6.1092
  6.2294   6.4429   6.5181   6.5191   6.7133   6.8994   6.9327   7.0074
  7.0396   7.1031   7.1512   7.1627   7.1905   7.3406   7.4063   7.4386
  7.4940   7.5229   7.6633   7.8284   7.9980   8.0452  24.2113  24.5937
 24.8016  24.8551  25.0505  25.3884  50.4643  50.5498  50.6351
 --------------------------------------------------------------
 
          Ground-State Mulliken Net Atomic Charges

     Atom                 Charge (a.u.)    Spin (a.u.)
  --------------------------------------------------------
      1 C                    -0.711270      -0.021444
      2 C                     0.521488       0.023956
      3 C                    -0.744102      -0.022923
      4 C                     0.252066       0.016253
      5 C                    -0.644727      -0.005375
      6 C                     0.382543       0.006320
      7 H                     0.240234       0.000284
      8 H                     0.342732      -0.000313
      9 H                     0.291264      -0.000934
     10 H                     0.293256      -0.000086
     11 O                    -0.366031       0.001861
     12 H                     0.311541      -0.000452
     13 O                    -0.458486       0.537027
     14 O                    -0.344949       0.465360
     15 H                     0.324726      -0.000094
     16 H                     0.309715       0.000561
  --------------------------------------------------------
  Sum of atomic charges =    -0.000000
  Sum of spin   charges =     1.000000

 -----------------------------------------------------------------
                    Cartesian Multipole Moments
 -----------------------------------------------------------------
    Charge (ESU x 10^10)
                -0.0000
    Dipole Moment (Debye)
         X     -13.9909      Y       0.8194      Z       4.5369
       Tot      14.7309
    Quadrupole Moments (Debye-Ang)
        XX     -95.6398     XY     -43.6810     YY     -42.4024
        XZ       7.7810     YZ      11.2002     ZZ     -51.5866
    Octopole Moments (Debye-Ang^2)
       XXX    -367.3211    XXY    -311.6641    XYY    -215.2087
       YYY    -487.9220    XXZ     -13.2054    XYZ      10.4078
       YYZ      -3.3706    XZZ     -69.6206    YZZ    -184.8127
       ZZZ     -69.6966
    Hexadecapole Moments (Debye-Ang^3)
      XXXX   -2003.6192   XXXY   -1132.1479   XXYY   -1354.3103
      XYYY   -1250.5352   YYYY   -3957.3311   XXXZ       4.3904
      XXYZ    -113.0080   XYYZ     -48.0303   YYYZ    -311.0112
      XXZZ    -318.3865   XYZZ    -252.1625   YYZZ    -789.5000
      XZZZ     -47.8452   YZZZ    -285.1141   ZZZZ    -292.4116
 -----------------------------------------------------------------
 Calculating analytic gradient of the SCF energy
 Gradient of CDS energy
            1           2           3           4           5           6
    1   0.0034707   0.0001623   0.0001001  -0.0003552  -0.0003806   0.0000405
    2   0.0018461  -0.0000191  -0.0004286  -0.0003037   0.0002744   0.0003903
    3  -0.0000288   0.0002060   0.0001011  -0.0001478  -0.0002046   0.0000084
            7           8           9          10          11          12
    1  -0.0000644   0.0002097   0.0000082  -0.0001620  -0.0033487   0.0003166
    2   0.0000226  -0.0000104  -0.0002053   0.0000833  -0.0018055   0.0002298
    3   0.0001934   0.0000080   0.0000050  -0.0000940   0.0002341  -0.0001372
           13          14          15          16
    1   0.0000047   0.0000979   0.0000573  -0.0001570
    2  -0.0000650  -0.0001041   0.0002110  -0.0001158
    3  -0.0000821   0.0000116   0.0000013  -0.0000745
 Gradient of SCF Energy
            1           2           3           4           5           6
    1   0.0148061  -0.0043849   0.0123626   0.0054773  -0.0012396   0.0117720
    2   0.0040689   0.0069598  -0.0003036   0.0044788   0.0029818  -0.0138478
    3  -0.0202247  -0.0069413   0.0090312   0.0032354   0.0021970   0.0129467
            7           8           9          10          11          12
    1  -0.0080618   0.0005336  -0.0010809  -0.0188293   0.0104467  -0.0074690
    2   0.0008937  -0.0030365  -0.0168113   0.0094559   0.0007039   0.0020069
    3   0.0146788   0.0057881   0.0012250  -0.0100784  -0.0018257   0.0034633
           13          14          15          16
    1   0.0095341  -0.0027666  -0.0022631  -0.0188371
    2  -0.0040053   0.0030818   0.0166265  -0.0132537
    3  -0.0015648  -0.0024929  -0.0015441  -0.0078936
 Max gradient component =       2.022E-02
 RMS gradient           =       9.035E-03
 Computing fast CPCM-SWIG gradient
 Updating gradient with PCM contributions...
 -- total gradient after adding PCM contribution --
---------------------------------------------------
  Atom         X              Y              Z     
---------------------------------------------------
   1      -0.001199      -0.000092      -0.000037
   2       0.000178      -0.000023       0.000038
   3      -0.000030       0.000046      -0.000004
   4       0.000018      -0.000006      -0.000026
   5       0.000026      -0.000020       0.000049
   6       0.000312      -0.000103       0.000156
   7       0.000084      -0.000040      -0.000128
   8       0.000006      -0.000048      -0.000019
   9       0.000013      -0.000000      -0.000009
  10      -0.000009       0.000003       0.000017
  11       0.000542       0.000210      -0.000029
  12       0.000068       0.000022      -0.000024
  13       0.000008       0.000018      -0.000020
  14      -0.000003       0.000035       0.000007
  15      -0.000013       0.000003       0.000025
  16      -0.000000      -0.000005       0.000003
---------------------------------------------------
 Number of fixed atoms: 0
 Gradient time:  CPU 299.41 s  wall 26.47 s
 ----------------------------------------------------------------
             Standard Nuclear Orientation (Angstroms)
    I     Atom           X                Y                Z
 ----------------------------------------------------------------
    1      C       1.1721199476     4.3204969512     1.3611603150
    2      C       1.2828169949     2.8626384628     1.2846857499
    3      C       0.2326112362     2.1060064573     0.8284041854
    4      C      -0.8590349677     2.7506815480     0.2620922090
    5      C      -0.9452901903     4.1560898597     0.1340564971
    6      C       0.0644170044     4.9252301395     0.6034264526
    7      H       0.7614088085     4.4112255700     2.4022060087
    8      H       2.1639907381     2.4133293287     1.7209388077
    9      H       0.2754833950     1.0279742641     0.8547354828
   10      H      -1.7983455325     4.5945485881    -0.3608268164
   11      O       2.3969503572     5.0011426767     1.3171576594
   12      H       2.8495354084     4.5879889130     0.5532675708
   13      O       3.9613766700     2.5918664849    -0.3393291319
   14      O       2.8479937976     3.2104667919    -0.6782138380
   15      H       0.0559497010     6.0035408755     0.5173760217
   16      H      -1.6730283685     2.1505287887    -0.1228625739
 ----------------------------------------------------------------
 Nuclear Repulsion Energy =         430.46236013 hartrees
 There are       34 alpha and       33 beta electrons
 Discretize the solute cavity surface with Lebedev spheres
	Using 110 Lebedev grid points for each H atom
	Using 194 Lebedev grid points for other atoms
	Atomic van der Waals radii will be scaled by 1.20
 Remove points where switching function is < 1.0e-08
 Keep 1260 surface tesserae and discard 1256 interior tesserae
 Molecular Surface Area = 151.184 Angst**2
 Requested basis set is 6-311++G(2df,2p)
 There are 114 shells and 376 basis functions
 A cutoff of  1.0D-12 yielded   5961 shell pairs
 There are     65043 function pairs (     81299 Cartesian)
 Smallest overlap matrix eigenvalue = 1.64E-06
 Guess MOs from SCF MO coefficient file

 -----------------------------------------------------------------------
  General SCF calculation program by
  Eric Jon Sundstrom, Paul Horn, Yuezhi Mao, Dmitri Zuev, Alec White,
  David Stuck, Shaama M.S., Shane Yost, Joonho Lee, David Small,
  Daniel Levine, Susi Lehtola, Hugh Burton, Evgeny Epifanovsky,
  Bang C. Huynh
 -----------------------------------------------------------------------
 Exchange:     0.1500 Hartree-Fock + 1.0000 wB97M-V + LR-HF
 Correlation:  1.0000 wB97M-V
 Using SG-2 standard quadrature grid
 Nonlocal Correlation:  VV10 with C = 0.0100 and b = 6.00 and scale = 1.00000
 Grid used for NLC:  SG-1 standard quadrature
 
 Citation of the SMD model:
 Marenich, A.V.; Cramer, C.J.; Truhlar, D.G.
 J. Phys. Chem. B 2009, 113, 6378-6396.
 iSolventCode=           1
 Solvent: water                                                           
 
 vradii
            1           2           3           4           5           6
    1   1.8500000   1.8500000   1.8500000   1.8500000   1.8500000   1.8500000
            7           8           9          10          11          12
    1   1.2000000   1.2000000   1.2000000   1.2000000   1.5200000   1.2000000
           13          14          15          16
    1   1.5200000   1.5200000   1.2000000   1.2000000
 -------------------------------------------------------
 OpenMP BLAS3 based DFT computing Module                
 Release: version 1.0, May 2013, Q-Chem Inc. Pittsburgh 
 -------------------------------------------------------
 A unrestricted SCF calculation will be
 performed using Roothaan-Hall, DIIS, GDM
 SCF converges when RMS gradient is below 1.0e-07
 ---------------------------------------
  Cycle       Energy         DIIS error
 ---------------------------------------
    1    -458.2438469314      2.75e-04  Roothaan Step
 ---------------------------------------
  Cycle       Energy         DIIS error
 ---------------------------------------
    1    -458.2948708488      3.61e-04  
    2    -458.3060998453      3.59e-04  Done DIIS. Switching to GDM
 ---------------------------------------
  Cycle       Energy        RMS Gradient
 ---------------------------------------
    1    -458.3060998453      1.60e-02   Normal BFGS step
    2    -458.3080601644      4.03e-02   Normal BFGS step
    3    -458.3135210736      1.47e-02   Normal BFGS step
    4    -458.3138002170      7.54e-03   Normal BFGS step
    5    -458.3140427435      1.33e-03   Normal BFGS step
    6    -458.3140633886      1.09e-03   Normal BFGS step
    7    -458.3140716012      6.75e-04   Normal BFGS step
    8    -458.3140737953      3.56e-04   Normal BFGS step
    9    -458.3140744577      1.66e-04   Normal BFGS step
   10    -458.3140746953      1.69e-04   Normal BFGS step
   11    -458.3140747970      1.60e-04   Normal BFGS step
   12    -458.3140749329      1.54e-04   Normal BFGS step
   13    -458.3140750721      1.45e-04   Normal BFGS step
   14    -458.3140752302      1.93e-04   Normal BFGS step
   15    -458.3140754252      2.15e-04   Normal BFGS step
   16    -458.3140756585      1.90e-04   Normal BFGS step
   17    -458.3140759104      2.20e-04   Normal BFGS step
   18    -458.3140761176      1.77e-04   Normal BFGS step
   19    -458.3140762261      1.10e-04   Normal BFGS step
   20    -458.3140762593      2.72e-05   Normal BFGS step
   21    -458.3140762673      1.10e-05   Normal BFGS step
   22    -458.3140762693      5.38e-06   Normal BFGS step
   23    -458.3140762698      4.03e-06   Normal BFGS step
   24    -458.3140762698      1.59e-06   Normal BFGS step
   25    -458.3140762699      2.26e-06   Normal BFGS step
   26    -458.3140762699      3.81e-07   Normal BFGS step
   27    -458.3140762699      1.48e-07   Normal BFGS step
   28    -458.3140762699      6.77e-08  Convergence criterion met
 ---------------------------------------
 SCF time:   CPU 3069.56s  wall 237.00s 
<S^2> =          0.756243085
(3)  G-ENP(liq) elect-nuc-pol free energy of system     -458.314076270 a.u.
(4)  G-CDS(liq) cavity-dispersion-solvent structure 
     free energy                                                2.3722 kcal/mol
(6)  G-S(liq) free energy of system                     -458.310295876 a.u.
 SCF   energy in the final basis set =     -458.3102958756
 Total energy in the final basis set =     -458.3102958756
 
 --------------------------------------------------------------
 
                    Orbital Energies (a.u.)
 --------------------------------------------------------------
 
 Alpha MOs
 -- Occupied --
-19.3586 -19.3533 -19.3487 -10.4315 -10.4143 -10.4111 -10.3984 -10.3718
-10.3706  -1.2384  -1.1789  -1.0176  -0.9151  -0.8969  -0.8801  -0.7656
 -0.7543  -0.6718  -0.6389  -0.6068  -0.5938  -0.5777  -0.5631  -0.5419
 -0.5362  -0.5203  -0.5012  -0.4831  -0.4753  -0.4436  -0.4152  -0.3831
 -0.3354  -0.3057
 -- Virtual --
 -0.0537   0.0256   0.0375   0.0392   0.0449   0.0507   0.0595   0.0607
  0.0813   0.1004   0.1041   0.1131   0.1348   0.1384   0.1447   0.1519
  0.1535   0.1577   0.1610   0.1623   0.1656   0.1696   0.1731   0.1796
  0.1840   0.1882   0.1936   0.2055   0.2148   0.2205   0.2241   0.2318
  0.2375   0.2467   0.2575   0.2645   0.2820   0.2900   0.2987   0.3063
  0.3120   0.3144   0.3230   0.3272   0.3376   0.3484   0.3579   0.3631
  0.3654   0.3740   0.3860   0.3902   0.3967   0.4082   0.4182   0.4372
  0.4440   0.4734   0.4856   0.5137   0.5297   0.5300   0.5591   0.5754
  0.5815   0.5891   0.5911   0.6059   0.6135   0.6255   0.6284   0.6613
  0.6706   0.6792   0.6986   0.7034   0.7098   0.7240   0.7274   0.7292
  0.7472   0.7607   0.7769   0.7793   0.8014   0.8092   0.8206   0.8256
  0.8330   0.8429   0.8464   0.8527   0.8593   0.8877   0.9075   0.9377
  0.9535   1.0178   1.0301   1.0689   1.0765   1.0911   1.0977   1.1015
  1.1177   1.1434   1.1458   1.1515   1.1716   1.1725   1.1936   1.2171
  1.2232   1.2396   1.2508   1.2615   1.2761   1.2873   1.2916   1.3203
  1.3237   1.3357   1.3504   1.3576   1.3744   1.3921   1.4004   1.4176
  1.4298   1.4403   1.4416   1.4553   1.4717   1.4830   1.4965   1.5076
  1.5311   1.5381   1.5554   1.5615   1.5751   1.5958   1.6301   1.6420
  1.6633   1.6721   1.7130   1.7388   1.7562   1.7776   1.7903   1.8138
  1.8434   1.8562   1.9136   1.9467   1.9546   2.0330   2.0538   2.0834
  2.1145   2.1170   2.2064   2.2529   2.3292   2.3436   2.3703   2.4579
  2.4834   2.5711   2.5896   2.6155   2.6175   2.6385   2.6880   2.7054
  2.7507   2.7852   2.7893   2.7981   2.7995   2.8210   2.8253   2.8516
  2.8661   2.8684   2.8833   2.9055   2.9104   2.9333   2.9524   2.9670
  2.9836   2.9954   3.0436   3.0580   3.0742   3.1253   3.1476   3.1617
  3.1780   3.1969   3.2234   3.2362   3.2547   3.2749   3.2913   3.3145
  3.3228   3.3419   3.3714   3.3834   3.4103   3.4138   3.4457   3.4532
  3.4802   3.4850   3.4982   3.5125   3.5198   3.5465   3.5695   3.5950
  3.6192   3.6303   3.7076   3.7234   3.7352   3.7495   3.7877   3.8064
  3.8146   3.8360   3.8570   3.8730   3.8836   3.8946   3.9087   3.9322
  3.9633   3.9914   4.0031   4.0134   4.0240   4.0905   4.1363   4.1567
  4.1807   4.1991   4.2492   4.2822   4.3007   4.3243   4.3339   4.3498
  4.3742   4.4108   4.4479   4.4691   4.4773   4.5121   4.5405   4.5653
  4.5893   4.6173   4.6235   4.6422   4.6784   4.6932   4.7017   4.7321
  4.7456   4.7763   4.7787   4.7972   4.8444   4.9478   4.9622   5.0337
  5.0660   5.0920   5.1147   5.1215   5.1290   5.1781   5.1993   5.2203
  5.2354   5.2399   5.2545   5.2764   5.2840   5.3346   5.3520   5.3664
  5.3858   5.4443   5.4514   5.5656   5.6147   5.6276   5.6343   5.6400
  5.6969   5.7338   5.7573   5.8066   5.8936   5.9617   6.1118   6.2295
  6.4428   6.4720   6.5073   6.7149   6.8309   6.8628   6.9582   6.9771
  7.0722   7.1053   7.1485   7.1616   7.3374   7.4062   7.4181   7.4519
  7.5113   7.6618   7.8282   7.9797   8.0268  24.2116  24.5935  24.8019
 24.8548  25.0503  25.3879  50.4531  50.5395  50.6354
 
 Beta MOs
 -- Occupied --
-19.3486 -19.3449 -19.3381 -10.4315 -10.4144 -10.4111 -10.3984 -10.3717
-10.3705  -1.2096  -1.1783  -1.0176  -0.9149  -0.8969  -0.8382  -0.7654
 -0.7543  -0.6714  -0.6383  -0.6066  -0.5929  -0.5762  -0.5626  -0.5172
 -0.5145  -0.4932  -0.4846  -0.4770  -0.4526  -0.4427  -0.4140  -0.3794
 -0.2852
 -- Virtual --
 -0.0549   0.0195   0.0260   0.0378   0.0397   0.0467   0.0514   0.0597
  0.0613   0.0819   0.1010   0.1042   0.1140   0.1354   0.1389   0.1453
  0.1526   0.1536   0.1584   0.1612   0.1626   0.1660   0.1700   0.1744
  0.1804   0.1853   0.1886   0.1958   0.2059   0.2157   0.2212   0.2247
  0.2327   0.2393   0.2475   0.2579   0.2662   0.2835   0.2926   0.3052
  0.3092   0.3139   0.3157   0.3241   0.3304   0.3398   0.3500   0.3610
  0.3649   0.3675   0.3747   0.3878   0.3918   0.3996   0.4094   0.4184
  0.4379   0.4444   0.4747   0.4880   0.5137   0.5300   0.5304   0.5594
  0.5756   0.5817   0.5892   0.5911   0.6061   0.6137   0.6258   0.6289
  0.6615   0.6711   0.6793   0.6989   0.7035   0.7100   0.7242   0.7276
  0.7295   0.7475   0.7609   0.7769   0.7800   0.8017   0.8097   0.8213
  0.8262   0.8333   0.8431   0.8469   0.8528   0.8595   0.8878   0.9084
  0.9385   0.9552   1.0196   1.0318   1.0721   1.0778   1.0941   1.1001
  1.1024   1.1213   1.1463   1.1469   1.1549   1.1754   1.1831   1.2014
  1.2257   1.2304   1.2443   1.2530   1.2673   1.2819   1.2906   1.2961
  1.3239   1.3260   1.3373   1.3521   1.3581   1.3759   1.3947   1.4046
  1.4182   1.4319   1.4409   1.4438   1.4567   1.4773   1.4916   1.5035
  1.5095   1.5331   1.5455   1.5576   1.5623   1.5771   1.5979   1.6323
  1.6477   1.6813   1.6895   1.7196   1.7409   1.7585   1.7778   1.7914
  1.8263   1.8540   1.8626   1.9223   1.9483   1.9553   2.0332   2.0540
  2.0850   2.1173   2.1251   2.2123   2.2643   2.3444   2.3556   2.3771
  2.4612   2.4849   2.5712   2.5896   2.6156   2.6176   2.6386   2.6888
  2.7131   2.7509   2.7853   2.7895   2.7982   2.7999   2.8217   2.8254
  2.8520   2.8663   2.8685   2.8834   2.9056   2.9104   2.9333   2.9524
  2.9673   2.9838   2.9953   3.0435   3.0579   3.0741   3.1253   3.1477
  3.1616   3.1779   3.1969   3.2234   3.2361   3.2547   3.2750   3.2913
  3.3144   3.3227   3.3419   3.3714   3.3833   3.4104   3.4138   3.4456
  3.4532   3.4801   3.4851   3.4983   3.5125   3.5197   3.5464   3.5695
  3.5950   3.6192   3.6302   3.7076   3.7235   3.7352   3.7495   3.7877
  3.8064   3.8146   3.8360   3.8570   3.8730   3.8836   3.8947   3.9087
  3.9321   3.9632   3.9914   4.0031   4.0134   4.0240   4.0905   4.1364
  4.1568   4.1807   4.1991   4.2492   4.2822   4.3009   4.3243   4.3339
  4.3498   4.3750   4.4112   4.4479   4.4691   4.4773   4.5122   4.5411
  4.5656   4.5907   4.6238   4.6450   4.6522   4.6793   4.6969   4.7021
  4.7332   4.7464   4.7796   4.8048   4.8216   4.8553   4.9479   4.9625
  5.0346   5.0680   5.1163   5.1346   5.1591   5.1943   5.2041   5.2097
  5.2461   5.2595   5.2651   5.2678   5.3069   5.3303   5.3398   5.3577
  5.3811   5.4026   5.4498   5.4521   5.5665   5.6228   5.6356   5.6572
  5.6586   5.6969   5.7348   5.7575   5.8065   5.8936   5.9620   6.1118
  6.2296   6.4428   6.5181   6.5192   6.7166   6.8994   6.9327   7.0074
  7.0396   7.1032   7.1516   7.1628   7.1905   7.3411   7.4071   7.4386
  7.4940   7.5229   7.6639   7.8286   7.9980   8.0452  24.2116  24.5935
 24.8018  24.8548  25.0503  25.3879  50.4644  50.5498  50.6357
 --------------------------------------------------------------
 
          Ground-State Mulliken Net Atomic Charges

     Atom                 Charge (a.u.)    Spin (a.u.)
  --------------------------------------------------------
      1 C                    -0.711955      -0.021382
      2 C                     0.521255       0.023892
      3 C                    -0.744274      -0.022883
      4 C                     0.252209       0.016260
      5 C                    -0.645416      -0.005377
      6 C                     0.383783       0.006327
      7 H                     0.240244       0.000296
      8 H                     0.342637      -0.000317
      9 H                     0.291270      -0.000935
     10 H                     0.293284      -0.000086
     11 O                    -0.365490       0.001863
     12 H                     0.311674      -0.000461
[...]
 Remove points where switching function is < 1.0e-08
 Keep 1259 surface tesserae and discard 1257 interior tesserae
 Molecular Surface Area = 150.760 Angst**2
 Applying Cartesian multipole field
    Component          Value
    ---------          -----
     (2,0,0)        1.00000E-11
     (0,2,0)        2.00000E-12
     (0,0,2)       -3.00000E-11
 Nucleus-field energy     =     0.0000000107 hartrees
 Requested basis set is 6-311++G(2df,2p)
 There are 114 shells and 376 basis functions
 A cutoff of  1.0D-12 yielded   5969 shell pairs
 There are     65205 function pairs (     81558 Cartesian)
 Smallest overlap matrix eigenvalue = 1.70E-06
 Guess MOs from SCF MO coefficient file

 -----------------------------------------------------------------------
  General SCF calculation program by
  Eric Jon Sundstrom, Paul Horn, Yuezhi Mao, Dmitri Zuev, Alec White,
  David Stuck, Shaama M.S., Shane Yost, Joonho Lee, David Small,
  Daniel Levine, Susi Lehtola, Hugh Burton, Evgeny Epifanovsky,
  Bang C. Huynh
 -----------------------------------------------------------------------
 Exchange:     0.1500 Hartree-Fock + 1.0000 wB97M-V + LR-HF
 Correlation:  1.0000 wB97M-V
 Using SG-2 standard quadrature grid
 Nonlocal Correlation:  VV10 with C = 0.0100 and b = 6.00 and scale = 1.00000
 Grid used for NLC:  SG-1 standard quadrature
 
 Citation of the SMD model:
 Marenich, A.V.; Cramer, C.J.; Truhlar, D.G.
 J. Phys. Chem. B 2009, 113, 6378-6396.
 iSolventCode=           1
 Solvent: water                                                           
 
 vradii
            1           2           3           4           5           6
    1   1.8500000   1.8500000   1.8500000   1.8500000   1.8500000   1.8500000
            7           8           9          10          11          12
    1   1.2000000   1.2000000   1.2000000   1.2000000   1.5200000   1.2000000
           13          14          15          16
    1   1.5200000   1.5200000   1.2000000   1.2000000
 -------------------------------------------------------
 OpenMP BLAS3 based DFT computing Module                
 Release: version 1.0, May 2013, Q-Chem Inc. Pittsburgh 
 -------------------------------------------------------
 A unrestricted SCF calculation will be
 performed using Roothaan-Hall, DIIS, GDM
 SCF converges when RMS gradient is below 1.0e-07
 ---------------------------------------
  Cycle       Energy         DIIS error
 ---------------------------------------
    1    -458.2494947348      2.70e-04  Roothaan Step
 ---------------------------------------
  Cycle       Energy         DIIS error
 ---------------------------------------
    1    -458.2952400783      3.71e-04  
    2    -458.3054126485      3.87e-04  Done DIIS. Switching to GDM
 ---------------------------------------
  Cycle       Energy        RMS Gradient
 ---------------------------------------
    1    -458.3054126485      1.80e-02   Normal BFGS step
    2    -458.3069300223      5.01e-02   Normal BFGS step
    3    -458.3137980318      1.28e-02   Normal BFGS step
    4    -458.3140967222      7.58e-03   Normal BFGS step
    5    -458.3142602039      2.50e-03   Normal BFGS step
    6    -458.3143000384      2.52e-03   Normal BFGS step
    7    -458.3143117554      9.38e-04   Normal BFGS step
    8    -458.3143176489      7.02e-04   Normal BFGS step
    9    -458.3143200031      4.21e-04   Normal BFGS step
   10    -458.3143207068      2.84e-04   Normal BFGS step
   11    -458.3143209622      1.97e-04   Normal BFGS step
   12    -458.3143210869      1.10e-04   Normal BFGS step
   13    -458.3143211422      5.36e-05   Normal BFGS step
   14    -458.3143211602      4.20e-05   Normal BFGS step
   15    -458.3143211672      2.18e-05   Normal BFGS step
   16    -458.3143211695      2.06e-05   Normal BFGS step
   17    -458.3143211711      1.98e-05   Normal BFGS step
   18    -458.3143211729      1.96e-05   Normal BFGS step
   19    -458.3143211754      2.53e-05   Normal BFGS step
   20    -458.3143211792      2.78e-05   Normal BFGS step
   21    -458.3143211840      2.14e-05   Normal BFGS step
   22    -458.3143211878      1.49e-05   Normal BFGS step
   23    -458.3143211895      8.78e-06   Normal BFGS step
   24    -458.3143211899      4.38e-06   Normal BFGS step
   25    -458.3143211900      2.12e-06   Normal BFGS step
   26    -458.3143211900      4.69e-07   Normal BFGS step
   27    -458.3143211900      1.77e-07   Normal BFGS step
   28    -458.3143211900      2.25e-07   Normal BFGS step
   29    -458.3143211900      6.18e-08  Convergence criterion met
 ---------------------------------------
 SCF time:   CPU 3055.60s  wall 240.00s 
<S^2> =          0.758436924
(3)  G-ENP(liq) elect-nuc-pol free energy of system     -458.314321190 a.u.
(4)  G-CDS(liq) cavity-dispersion-solvent structure 
     free energy                                                2.3706 kcal/mol
(6)  G-S(liq) free energy of system                     -458.310543321 a.u.
 SCF   energy in the final basis set =     -458.3105433207
 Total energy in the final basis set =     -458.3105433207
 
 --------------------------------------------------------------
 
                    Orbital Energies (a.u.)
 --------------------------------------------------------------
 
 Alpha MOs
 -- Occupied --
-19.3647 -19.3577 -19.3497 -10.4295 -10.4161 -10.4072 -10.3932 -10.3691
-10.3683  -1.2455  -1.1793  -1.0149  -0.9128  -0.8947  -0.8824  -0.7641
 -0.7517  -0.6710  -0.6381  -0.6045  -0.5931  -0.5770  -0.5610  -0.5464
 -0.5404  -0.5213  -0.5030  -0.4815  -0.4729  -0.4438  -0.4143  -0.3812
 -0.3389  -0.3063
 -- Virtual --
 -0.0508   0.0256   0.0376   0.0392   0.0467   0.0507   0.0595   0.0607
  0.0815   0.1005   0.1044   0.1128   0.1350   0.1388   0.1451   0.1521
  0.1536   0.1577   0.1611   0.1624   0.1656   0.1695   0.1733   0.1796
  0.1836   0.1883   0.1939   0.2055   0.2133   0.2204   0.2246   0.2317
  0.2378   0.2457   0.2579   0.2646   0.2810   0.2887   0.2997   0.3065
  0.3142   0.3143   0.3258   0.3301   0.3369   0.3468   0.3618   0.3636
  0.3663   0.3748   0.3866   0.3896   0.3974   0.4095   0.4187   0.4375
  0.4452   0.4747   0.4852   0.5148   0.5291   0.5306   0.5551   0.5757
  0.5820   0.5907   0.5917   0.6076   0.6162   0.6262   0.6305   0.6608
  0.6715   0.6779   0.6998   0.7022   0.7095   0.7234   0.7302   0.7324
  0.7505   0.7599   0.7789   0.7823   0.8028   0.8114   0.8240   0.8280
  0.8354   0.8445   0.8471   0.8526   0.8585   0.8908   0.9112   0.9364
  0.9562   1.0196   1.0326   1.0689   1.0776   1.0872   1.0972   1.1025
  1.1190   1.1429   1.1470   1.1494   1.1729   1.1741   1.1929   1.2178
  1.2255   1.2379   1.2500   1.2641   1.2777   1.2897   1.2900   1.3214
  1.3249   1.3375   1.3499   1.3577   1.3737   1.3943   1.3996   1.4180
  1.4308   1.4404   1.4443   1.4542   1.4811   1.4862   1.4962   1.5089
  1.5302   1.5440   1.5558   1.5635   1.5782   1.6001   1.6337   1.6428
  1.6576   1.6760   1.7086   1.7391   1.7577   1.7769   1.7872   1.8231
  1.8422   1.8588   1.9192   1.9400   1.9529   2.0326   2.0526   2.0797
  2.0934   2.1135   2.2087   2.2532   2.3333   2.3356   2.3640   2.4517
  2.4719   2.5745   2.5947   2.6180   2.6245   2.6398   2.6856   2.7080
  2.7541   2.7879   2.7902   2.7986   2.8029   2.8233   2.8282   2.8528
  2.8692   2.8718   2.8874   2.9074   2.9134   2.9384   2.9561   2.9667
  2.9868   2.9985   3.0424   3.0601   3.0795   3.1269   3.1513   3.1594
  3.1799   3.2002   3.2246   3.2416   3.2587   3.2779   3.2975   3.3216
  3.3267   3.3446   3.3722   3.3900   3.4109   3.4194   3.4481   3.4588
  3.4805   3.4884   3.4973   3.5147   3.5261   3.5517   3.5745   3.5976
  3.6208   3.6319   3.7031   3.7226   3.7356   3.7508   3.7874   3.8098
  3.8172   3.8391   3.8577   3.8744   3.8830   3.8975   3.9135   3.9331
  3.9634   3.9969   4.0079   4.0118   4.0248   4.0909   4.1391   4.1583
  4.1874   4.1987   4.2450   4.2846   4.3057   4.3255   4.3312   4.3477
  4.3706   4.4050   4.4479   4.4686   4.4775   4.5162   4.5457   4.5749
  4.5883   4.6180   4.6270   4.6441   4.6767   4.6903   4.7040   4.7299
  4.7457   4.7715   4.7800   4.7930   4.8553   4.9430   4.9581   5.0320
  5.0624   5.0875   5.1144   5.1193   5.1292   5.1767   5.1959   5.2194
  5.2363   5.2414   5.2556   5.2788   5.2828   5.3317   5.3553   5.3662
  5.3856   5.4445   5.4498   5.5635   5.6199   5.6312   5.6373   5.6451
  5.6958   5.7312   5.7563   5.8042   5.8942   5.9640   6.1019   6.2282
  6.4228   6.4869   6.5209   6.7079   6.8283   6.8598   6.9576   6.9824
  7.0793   7.0964   7.1458   7.1638   7.3455   7.4064   7.4162   7.4575
  7.5056   7.6623   7.8220   7.9851   8.0304  24.2164  24.5905  24.7971
 24.8546  25.0549  25.3824  50.4525  50.5371  50.6329
 
 Beta MOs
 -- Occupied --
-19.3508 -19.3496 -19.3421 -10.4295 -10.4163 -10.4074 -10.3933 -10.3691
-10.3682  -1.2162  -1.1788  -1.0150  -0.9125  -0.8947  -0.8403  -0.7640
 -0.7517  -0.6705  -0.6375  -0.6042  -0.5924  -0.5748  -0.5606  -0.5203
 -0.5141  -0.4981  -0.4826  -0.4751  -0.4554  -0.4433  -0.4136  -0.3779
 -0.2842
 -- Virtual --
 -0.0522   0.0184   0.0259   0.0378   0.0397   0.0477   0.0510   0.0598
  0.0613   0.0820   0.1011   0.1045   0.1138   0.1356   0.1392   0.1457
  0.1530   0.1537   0.1586   0.1614   0.1628   0.1660   0.1700   0.1743
  0.1802   0.1851   0.1887   0.1960   0.2059   0.2144   0.2211   0.2252
  0.2327   0.2395   0.2465   0.2584   0.2662   0.2828   0.2917   0.3065
  0.3086   0.3144   0.3171   0.3268   0.3335   0.3390   0.3484   0.3633
  0.3660   0.3692   0.3755   0.3892   0.3900   0.4013   0.4104   0.4189
  0.4383   0.4457   0.4762   0.4875   0.5149   0.5294   0.5309   0.5555
  0.5758   0.5823   0.5909   0.5917   0.6078   0.6164   0.6264   0.6312
  0.6610   0.6717   0.6780   0.7001   0.7022   0.7096   0.7235   0.7303
  0.7325   0.7507   0.7600   0.7789   0.7831   0.8030   0.8116   0.8243
  0.8285   0.8360   0.8447   0.8476   0.8529   0.8586   0.8908   0.9118
  0.9375   0.9575   1.0212   1.0343   1.0719   1.0785   1.0930   1.0989
  1.1040   1.1222   1.1457   1.1491   1.1530   1.1768   1.1829   1.2029
  1.2273   1.2300   1.2426   1.2523   1.2688   1.2838   1.2918   1.2957
  1.3238   1.3284   1.3399   1.3517   1.3582   1.3754   1.3970   1.4036
  1.4185   1.4329   1.4413   1.4452   1.4562   1.4828   1.4980   1.5035
  1.5128   1.5323   1.5487   1.5575   1.5642   1.5804   1.6017   1.6365
  1.6497   1.6764   1.6912   1.7171   1.7408   1.7604   1.7773   1.7885
  1.8342   1.8502   1.8664   1.9268   1.9412   1.9541   2.0328   2.0532
  2.0855   2.0986   2.1163   2.2137   2.2657   2.3363   2.3588   2.3718
  2.4551   2.4737   2.5745   2.5946   2.6179   2.6244   2.6398   2.6882
  2.7137   2.7544   2.7878   2.7903   2.7986   2.8031   2.8237   2.8280
  2.8530   2.8692   2.8718   2.8872   2.9071   2.9130   2.9383   2.9561
  2.9667   2.9868   2.9982   3.0420   3.0599   3.0794   3.1267   3.1512
  3.1592   3.1797   3.2000   3.2244   3.2413   3.2586   3.2779   3.2974
  3.3215   3.3265   3.3445   3.3719   3.3897   3.4109   3.4193   3.4478
  3.4587   3.4802   3.4883   3.4974   3.5146   3.5259   3.5514   3.5743
  3.5973   3.6206   3.6317   3.7030   3.7227   3.7354   3.7506   3.7871
  3.8097   3.8171   3.8390   3.8575   3.8744   3.8829   3.8974   3.9134
  3.9330   3.9632   3.9967   4.0078   4.0115   4.0246   4.0908   4.1390
  4.1583   4.1873   4.1986   4.2448   4.2845   4.3057   4.3253   4.3310
  4.3476   4.3718   4.4053   4.4478   4.4685   4.4774   4.5161   4.5462
  4.5749   4.5890   4.6241   4.6466   4.6550   4.6775   4.6951   4.7045
  4.7321   4.7466   4.7813   4.7994   4.8163   4.8664   4.9428   4.9582
  5.0328   5.0655   5.1183   5.1328   5.1553   5.1944   5.2001   5.2067
  5.2499   5.2591   5.2651   5.2705   5.3060   5.3320   5.3376   5.3591
  5.3801   5.4033   5.4483   5.4518   5.5643   5.6277   5.6377   5.6604
  5.6652   5.6958   5.7325   5.7563   5.8039   5.8940   5.9642   6.1018
  6.2281   6.4227   6.5322   6.5348   6.7097   6.8979   6.9312   7.0106
  7.0428   7.1095   7.1421   7.1639   7.1913   7.3486   7.4078   7.4421
  7.4931   7.5197   7.6642   7.8225   8.0028   8.0501  24.2164  24.5904
 24.7971  24.8545  25.0549  25.3823  50.4639  50.5478  50.6333
 --------------------------------------------------------------
 
          Ground-State Mulliken Net Atomic Charges

     Atom                 Charge (a.u.)    Spin (a.u.)
  --------------------------------------------------------
      1 C                    -0.675164      -0.008884
      2 C                     0.490893       0.007696
      3 C                    -0.734328      -0.011845
      4 C                     0.233224       0.003854
      5 C                    -0.625980       0.000385
      6 C                     0.334073      -0.005433
      7 H                     0.235835      -0.001578
      8 H                     0.346248      -0.000418
      9 H                     0.290245      -0.000559
     10 H                     0.293509      -0.000072
     11 O                    -0.367330       0.001690
     12 H                     0.312474      -0.001394
     13 O                    -0.434708       0.547512
     14 O                    -0.329177       0.468461
     15 H                     0.321626       0.000122
     16 H                     0.308559       0.000464
  --------------------------------------------------------
  Sum of atomic charges =    -0.000000
  Sum of spin   charges =     1.000000

 -----------------------------------------------------------------
                    Cartesian Multipole Moments
 -----------------------------------------------------------------
    Charge (ESU x 10^10)
                -0.0000
    Dipole Moment (Debye)
         X     -13.1055      Y       0.7243      Z       4.2598
       Tot      13.7995
    Quadrupole Moments (Debye-Ang)
        XX     -92.7899     XY     -40.8103     YY     -43.3741
        XZ       7.3653     YZ      10.3188     ZZ     -51.7784
    Octopole Moments (Debye-Ang^2)
       XXX    -354.3551    XXY    -302.7204    XYY    -204.4284
       YYY    -494.9235    XXZ     -14.5128    XYZ       9.5876
       YYZ      -6.9176    XZZ     -68.7370    YZZ    -185.7635
       ZZZ     -70.9807
    Hexadecapole Moments (Debye-Ang^3)
      XXXX   -1942.9703   XXXY   -1091.6895   XXYY   -1320.5428
      XYYY   -1205.3908   YYYY   -4004.7605   XXXZ      -1.6012
      XXYZ    -115.3529   XYYZ     -51.1116   YYYZ    -328.7488
      XXZZ    -313.6863   XYZZ    -249.4263   YYZZ    -794.4152
      XZZZ     -52.2528   YZZZ    -291.3634   ZZZZ    -290.5726
 -----------------------------------------------------------------
 Calculating analytic gradient of the SCF energy
 Gradient of CDS energy
            1           2           3           4           5           6
    1   0.0033126   0.0001626   0.0000967  -0.0003497  -0.0003781   0.0000363
    2   0.0017760  -0.0000169  -0.0004209  -0.0003157   0.0002814   0.0003908
    3  -0.0000061   0.0001922   0.0000992  -0.0001400  -0.0002075   0.0000027
            7           8           9          10          11          12
    1  -0.0000633   0.0002108   0.0000085  -0.0001624  -0.0031945   0.0003209
    2   0.0000217  -0.0000105  -0.0002052   0.0000827  -0.0017450   0.0002317
    3   0.0001944   0.0000093   0.0000057  -0.0000937   0.0002183  -0.0001402
           13          14          15          16
    1   0.0000005   0.0000999   0.0000573  -0.0001579
    2  -0.0000717  -0.0000943   0.0002106  -0.0001148
    3  -0.0000811   0.0000174   0.0000027  -0.0000734
 Gradient of SCF Energy
            1           2           3           4           5           6
    1   0.0139825  -0.0041186   0.0108795   0.0052522  -0.0012807   0.0114370
    2   0.0037886   0.0063939   0.0001988   0.0049010   0.0023436  -0.0131921
    3  -0.0176394  -0.0077582   0.0100592   0.0023254   0.0024279   0.0115729
            7           8           9          10          11          12
    1  -0.0080450   0.0003666  -0.0011947  -0.0178480   0.0087774  -0.0066223
    2   0.0010276  -0.0030810  -0.0159691   0.0088288   0.0006103   0.0009852
    3   0.0139382   0.0062444   0.0014089  -0.0093641  -0.0011702   0.0023785
           13          14          15          16
    1   0.0083827  -0.0000993  -0.0020545  -0.0178148
    2  -0.0025854   0.0027538   0.0154130  -0.0124168
    3  -0.0022360  -0.0032288  -0.0013738  -0.0075850
 Max gradient component =       1.785E-02
 RMS gradient           =       8.442E-03
 Computing fast CPCM-SWIG gradient
 Updating gradient with PCM contributions...
 -- total gradient after adding PCM contribution --
---------------------------------------------------
  Atom         X              Y              Z     
---------------------------------------------------
   1      -0.000246      -0.000142       0.000353
   2      -0.000367       0.000059       0.000768
   3      -0.000648      -0.000038       0.000431
   4      -0.000092      -0.000252       0.000051
   5      -0.000034       0.000160       0.000239
   6      -0.000169       0.000002      -0.000003
   7      -0.000276       0.000217      -0.000221
   8      -0.000218      -0.000112       0.000437
   9      -0.000104       0.000030       0.000151
  10      -0.000085       0.000005       0.000098
  11       0.000026      -0.000443      -0.000264
  12      -0.000221      -0.000732      -0.000382
  13      -0.000043       0.000148      -0.000386
  14       0.002291       0.001156      -0.001115
  15       0.000093      -0.000192       0.000005
  16       0.000093       0.000136      -0.000161
---------------------------------------------------
 Number of fixed atoms: 0
 Gradient time:  CPU 286.49 s  wall 25.92 s
rPathMan2.  file_steps = 952
 IRC --- Status = 4.  Checking bisector search.
 IRC --- Bisector search finished successfully.
 ------------------------------------------------------------------------
 Reaction path following.  The coordinates are cartesian              
 Step   3 E=    -458.310543 |G|=  0.003361 S_lin= 0.1769 S_tot= 0.1782
 ------------------------------------------------------------------------
  IRC -- convergence criterion reached.
 ----------------------------------------------------------------
             Standard Nuclear Orientation (Angstroms)
    I     Atom           X                Y                Z
 ----------------------------------------------------------------
    1      C       1.1721199476     4.3194969512     1.3611603150
    2      C       1.2828169949     2.8626384628     1.2846857499
    3      C       0.2326112362     2.1060064573     0.8284041854
    4      C      -0.8590349677     2.7506815480     0.2620922090
    5      C      -0.9452901903     4.1560898597     0.1340564971
    6      C       0.0644170044     4.9252301395     0.6034264526
    7      H       0.7614088085     4.4112255700     2.4022060087
    8      H       2.1639907381     2.4133293287     1.7209388077
    9      H       0.2754833950     1.0279742641     0.8547354828
   10      H      -1.7983455325     4.5945485881    -0.3608268164
   11      O       2.3969503572     5.0011426767     1.3171576594
   12      H       2.8495354084     4.5879889130     0.5532675708
   13      O       3.9613766700     2.5918664849    -0.3393291319
   14      O       2.8479937976     3.2104667919    -0.6782138380
   15      H       0.0559497010     6.0035408755     0.5173760217
   16      H      -1.6730283685     2.1505287887    -0.1228625739
 ----------------------------------------------------------------
 Nuclear Repulsion Energy =         430.46789868 hartrees
 There are       34 alpha and       33 beta electrons
 Here is where we should summarize the reaction path
 Total job time:  4232.44s(wall), 53434.55s(cpu) 
 Wed May  8 18:11:06 2024

        *************************************************************
        *                                                           *
        *  Thank you very much for using Q-Chem.  Have a nice day.  *
        *                                                           *
        *************************************************************


