
Running Job 1 of 2 Q_in.in
qchem Q_in.in_145838.0 /scratch/ari.fischer/qChem2086647.hpc-mn1/qchem145838/ 0
/usr/local/qchem-5.4.1/exe/qcprog.exe_s Q_in.in_145838.0 /scratch/ari.fischer/qChem2086647.hpc-mn1/qchem145838/
                  Welcome to Q-Chem
     A Quantum Leap Into The Future Of Chemistry


 Q-Chem 5.4, Q-Chem, Inc., Pleasanton, CA (2021)

 License issued to: Nanyang Technological University (site)

 E. Epifanovsky,  A. T. B. Gilbert,  Xintian Feng,  Joonho Lee,  Yuezhi Mao,  
 N. Mardirossian,  P. Pokhilko,  A. White,  M. Wormit,  M. P. Coons,  
 A. L. Dempwolff,  Zhengting Gan,  D. Hait,  P. R. Horn,  L. D. Jacobson,  
 I. Kaliman,  J. Kussmann,  A. W. Lange,  Ka Un Lao,  D. S. Levine,  Jie Liu,  
 S. C. McKenzie,  A. F. Morrison,  K. Nanda,  F. Plasser,  D. R. Rehn,  
 M. L. Vidal,  Zhi-Qiang You,  Ying Zhu,  B. Alam,  B. Albrecht,  
 A. Aldossary,  E. Alguire,  J. H. Andersen,  D. Barton,  K. Begam,  A. Behn,  
 Y. A. Bernard,  E. J. Berquist,  H. Burton,  A. Carreras,  K. Carter-Fenk,  
 R. Chakraborty,  A. D. Chien,  K. D. Closser,  V. Cofer-Shabica,  
 S. Dasgupta,  Jia Deng,  M. de Wergifosse,  M. Diedenhofen,  Hainam Do,  
 S. Ehlert,  Po-Tung Fang,  S. Fatehi,  Qingguo Feng,  T. Friedhoff,  
 J. Gayvert,  Qinghui Ge,  G. Gidofalvi,  M. Goldey,  J. Gomes,  
 C. Gonzalez-Espinoza,  S. Gulania,  A. Gunina,  M. W. D. Hanson-Heine,  
 P. H. P. Harbach,  A. W. Hauser,  M. F. Herbst,  M. Hernandez Vera,  
 M. Hodecker,  Z. C. Holden,  S. Houck,  Xunkun Huang,  Kerwin Hui,  
 B. C. Huynh,  M. Ivanov,  Hyunjun Ji,  Hanjie Jiang,  B. Kaduk,  S. Kaehler,  
 K. Khistyaev,  Jaehoon Kim,  P. Klunzinger,  Z. Koczor-Benda,  
 Joong Hoon Koh,  D. Kosenkov,  L. Koulias,  T. Kowalczyk,  C. M. Krauter,  
 K. Kue,  A. Kunitsa,  T. Kus,  A. Landau,  K. V. Lawler,  D. Lefrancois,  
 S. Lehtola,  Rain Li,  Yi-Pei Li,  Jiashu Liang,  M. Liebenthal,  
 Hung-Hsuan Lin,  You-Sheng Lin,  Fenglai Liu,  Kuan-Yu Liu,  
 M. Loipersberger,  A. Luenser,  A. Manjanath,  P. Manohar,  E. Mansoor,  
 S. F. Manzer,  Shan-Ping Mao,  A. V. Marenich,  T. Markovich,  S. Mason,  
 S. A. Maurer,  P. F. McLaughlin,  M. F. S. J. Menger,  J.-M. Mewes,  
 S. A. Mewes,  P. Morgante,  J. W. Mullinax,  K. J. Oosterbaan,  G. Paran,  
 Alexander C. Paul,  Suranjan K. Paul,  F. Pavosevic,  Zheng Pei,  S. Prager,  
 E. I. Proynov,  E. Ramos,  B. Rana,  A. E. Rask,  A. Rettig,  R. M. Richard,  
 F. Rob,  E. Rossomme,  T. Scheele,  M. Scheurer,  M. Schneider,  
 N. Sergueev,  S. M. Sharada,  W. Skomorowski,  D. W. Small,  C. J. Stein,  
 Yu-Chuan Su,  E. J. Sundstrom,  Zhen Tao,  J. Thirman,  T. Tsuchimochi,  
 N. M. Tubman,  S. P. Veccham,  O. Vydrov,  J. Wenzel,  J. Witte,  A. Yamada,  
 Kun Yao,  S. Yeganeh,  S. R. Yost,  A. Zech,  Igor Ying Zhang,  Xing Zhang,  
 Yu Zhang,  D. Zuev,  A. Aspuru-Guzik,  A. T. Bell,  N. A. Besley,  
 K. B. Bravaya,  B. R. Brooks,  D. Casanova,  Jeng-Da Chai,  S. Coriani,  
 C. J. Cramer,  A. E. DePrince, III,  R. A. DiStasio Jr.,  A. Dreuw,  
 B. D. Dunietz,  T. R. Furlani,  W. A. Goddard III,  S. Grimme,  
 S. Hammes-Schiffer,  T. Head-Gordon,  W. J. Hehre,  Chao-Ping Hsu,  
 T.-C. Jagau,  Yousung Jung,  A. Klamt,  Jing Kong,  D. S. Lambrecht,  
 WanZhen Liang,  N. J. Mayhall,  C. W. McCurdy,  J. B. Neaton,  
 C. Ochsenfeld,  J. A. Parkhill,  R. Peverati,  V. A. Rassolov,  Yihan Shao,  
 L. V. Slipchenko,  T. Stauch,  R. P. Steele,  J. E. Subotnik,  
 A. J. W. Thom,  A. Tkatchenko,  D. G. Truhlar,  T. Van Voorhis,  
 T. A. Wesolowski,  K. B. Whaley,  H. L. Woodcock III,  P. M. Zimmerman,  
 S. Faraji,  P. M. W. Gill,  M. Head-Gordon,  J. M. Herbert,  A. I. Krylov

 Additional authors for Version 5.4.1: 
 S. Kotaru,  Shaozhi Li,  Xiangyuan Li,  F. Matz,  A. Molle,  Haisheng Ren,  
 Yingli Su,  Hung-Yi Tsai,  C. Utku,  Fang Wang

 Contributors to earlier versions of Q-Chem not listed above: 
 R. D. Adamson,  B. Austin,  R. Baer,  J. Baker,  G. J. O. Beran,  
 K. Brandhorst,  S. T. Brown,  E. F. C. Byrd,  A. K. Chakraborty,  
 G. K. L. Chan,  Chun-Min Chang,  Yunqing Chen,  C.-L. Cheng,  
 Siu Hung Chien,  D. M. Chipman,  D. L. Crittenden,  H. Dachsel,  
 R. J. Doerksen,  A. D. Dutoi,  R. G. Edgar,  J. Fosso-Tande,  
 L. Fusti-Molnar,  D. Ghosh,  A. Ghysels,  A. Golubeva-Zadorozhnaya,  
 J. Gonthier,  M. S. Gordon,  S. R. Gwaltney,  G. Hawkins,  J. E. Herr,  
 A. Heyden,  S. Hirata,  E. G. Hohenstein,  G. Kedziora,  F. J. Keil,  
 C. Kelley,  Jihan Kim,  R. A. King,  R. Z. Khaliullin,  P. P. Korambath,  
 W. Kurlancheek,  A. Laurent,  A. M. Lee,  M. S. Lee,  S. V. Levchenko,  
 Ching Yeh Lin,  D. Liotard,  E. Livshits,  R. C. Lochan,  I. Lotan,  
 L. A. Martinez-Martinez,  P. E. Maslen,  N. Nair,  D. P. O'Neill,  
 D. Neuhauser,  E. Neuscamman,  C. M. Oana,  R. Olivares-Amaya,  R. Olson,  
 T. M. Perrine,  B. Peters,  P. A. Pieniazek,  A. Prociuk,  Y. M. Rhee,  
 J. Ritchie,  M. A. Rohrdanz,  E. Rosta,  N. J. Russ,  H. F. Schaefer III,  
 M. W. Schmidt,  N. E. Schultz,  S. Sharma,  N. Shenvi,  C. D. Sherrill,  
 A. C. Simmonett,  A. Sodt,  T. Stein,  D. Stuck,  K. S. Thanthiriwatte,  
 V. Vanovschi,  L. Vogt,  Tao Wang,  A. Warshel,  M. A. Watson,  
 C. F. Williams,  Q. Wu,  X. Xu,  Jun Yang,  W. Zhang,  Yan Zhao

 Please cite Q-Chem as follows:
 Y. Shao et al., Mol. Phys. 113, 184-215 (2015)
 DOI: 10.1080/00268976.2014.952696

 Q-Chem 5.4.1 for Intel X86 EM64T Linux

 Parts of Q-Chem use Armadillo 9.800.1 (Horizon Scraper).
 http://arma.sourceforge.net/

 Q-Chem begins on Tue May  7 18:29:08 2024  

 Host: 
0

     Scratch files written to /scratch/ari.fischer/qChem2086647.hpc-mn1/qchem145838//
 Aug1521 |scratch|qcdevops|jenkins|workspace|build_RNUM 8249   
 Processing $rem in /usr/local/qchem-5.4.1/config/preferences:
 Processing $rem in /home/ari.fischer/.qchemrc:
 Symmetry turned off for PCM/SM12/SMD calculation


!!********************************************.
!!******************Warning*******************.
!!Desired Analytical derivatives not available.
!!Finite difference job might take a long time.
!!********************************************.
!!********************************************.


 2-order derivative to be evaluated numerically with 1-order analytical derivatives

 Checking the input file for inconsistencies... 	...done.

--------------------------------------------------------------
User input:
--------------------------------------------------------------
$molecule
0 2
C    1.1740722    4.3274681    1.4044916
C    1.2900490    2.8659074    1.3056992
C    0.2477875    2.1103158    0.8466715
C   -0.8522231    2.7384137    0.2606315
C   -0.9195436    4.1530214    0.1234145
C    0.0749914    4.9194035    0.6145665
H    0.7877101    4.4456812    2.4439163
H    2.1668492    2.4131264    1.7463224
H    0.2973690    1.0303740    0.8678941
H   -1.7597968    4.5922198   -0.3916219
O    2.4019152    5.0090348    1.3330490
H    2.8345964    4.6218501    0.5503276
O    3.8740570    2.5953614   -0.3987496
O    2.7122173    3.1525579   -0.6680977
H    0.0616654    5.9972999    0.5210341
H   -1.6027612    2.1407203   -0.2212745
$end

$rem
BASIS = 6-311++G(2df,2p)
GUI = 2
JOB_TYPE = Frequency
METHOD = wB97M-V
SCF_ALGORITHM = DIIS_GDM
MAX_SCF_CYCLES = 400
SCF_CONVERGENCE = 6
THRESH = 11
solvent_method = SMD
$end

--------------------------------------------------------------
 ----------------------------------------------------------------
             Standard Nuclear Orientation (Angstroms)
    I     Atom           X                Y                Z
 ----------------------------------------------------------------
    1      C       1.1740722000     4.3274681000     1.4044916000
    2      C       1.2900490000     2.8659074000     1.3056992000
    3      C       0.2477875000     2.1103158000     0.8466715000
    4      C      -0.8522231000     2.7384137000     0.2606315000
    5      C      -0.9195436000     4.1530214000     0.1234145000
    6      C       0.0749914000     4.9194035000     0.6145665000
    7      H       0.7877101000     4.4456812000     2.4439163000
    8      H       2.1668492000     2.4131264000     1.7463224000
    9      H       0.2973690000     1.0303740000     0.8678941000
   10      H      -1.7597968000     4.5922198000    -0.3916219000
   11      O       2.4019152000     5.0090348000     1.3330490000
   12      H       2.8345964000     4.6218501000     0.5503276000
   13      O       3.8740570000     2.5953614000    -0.3987496000
   14      O       2.7122173000     3.1525579000    -0.6680977000
   15      H       0.0616654000     5.9972999000     0.5210341000
   16      H      -1.6027612000     2.1407203000    -0.2212745000
 ----------------------------------------------------------------
 Nuclear Repulsion Energy =         432.18832468 hartrees
 There are       34 alpha and       33 beta electrons
 Requested basis set is 6-311++G(2df,2p)
 There are 114 shells and 376 basis functions

 Total QAlloc Memory Limit 288000 MB
 Mega-Array Size       188 MB
 MEM_STATIC part       192 MB
 
 Citation of the SMD model:
 Marenich, A.V.; Cramer, C.J.; Truhlar, D.G.
 J. Phys. Chem. B 2009, 113, 6378-6396.
 iSolventCode=           1
 Solvent: water                                                           
 
 vradii
            1           2           3           4           5           6
    1   1.8500000   1.8500000   1.8500000   1.8500000   1.8500000   1.8500000
            7           8           9          10          11          12
    1   1.2000000   1.2000000   1.2000000   1.2000000   1.5200000   1.2000000
           13          14          15          16
    1   1.5200000   1.5200000   1.2000000   1.2000000
 Changing PCM_VDW_RADII to SMD_RADIUS
 Discretize the solute cavity surface with Lebedev spheres
	Using 110 Lebedev grid points for each H atom
	Using 194 Lebedev grid points for other atoms
	Atomic van der Waals radii will be scaled by 1.20
 Remove points where switching function is < 1.0e-08
 Keep 1258 surface tesserae and discard 1258 interior tesserae
 Molecular Surface Area = 150.892 Angst**2
 A cutoff of  1.0D-11 yielded   5883 shell pairs
 There are     64158 function pairs (     80140 Cartesian)
 Smallest overlap matrix eigenvalue = 1.55E-06

 Q-Chem warning in module stvman/mkSTV.C, line 323:

 Overlap eigenvalue is smaller than square root of threshold
 Use THRESH >= 12 to get rid of this warning

 Guess from superposition of atomic densities
 Warning:  Energy on first SCF cycle will be non-variational
 SAD guess density has 67.000000 electrons

 -----------------------------------------------------------------------
  General SCF calculation program by
  Eric Jon Sundstrom, Paul Horn, Yuezhi Mao, Dmitri Zuev, Alec White,
  David Stuck, Shaama M.S., Shane Yost, Joonho Lee, David Small,
  Daniel Levine, Susi Lehtola, Hugh Burton, Evgeny Epifanovsky,
  Bang C. Huynh
 -----------------------------------------------------------------------
 Exchange:     0.1500 Hartree-Fock + 1.0000 wB97M-V + LR-HF
 Correlation:  1.0000 wB97M-V
 Using SG-2 standard quadrature grid
 Nonlocal Correlation:  VV10 with C = 0.0100 and b = 6.00 and scale = 1.00000
 Grid used for NLC:  SG-1 standard quadrature
 using 16 threads for integral computing
 -------------------------------------------------------
 OpenMP Integral computing Module                
 Release: version 1.0, May 2013, Q-Chem Inc. Pittsburgh 
 -------------------------------------------------------
 
 Citation of the SMD model:
 Marenich, A.V.; Cramer, C.J.; Truhlar, D.G.
 J. Phys. Chem. B 2009, 113, 6378-6396.
 iSolventCode=           1
 Solvent: water                                                           
 
 vradii
            1           2           3           4           5           6
    1   1.8500000   1.8500000   1.8500000   1.8500000   1.8500000   1.8500000
            7           8           9          10          11          12
    1   1.2000000   1.2000000   1.2000000   1.2000000   1.5200000   1.2000000
           13          14          15          16
    1   1.5200000   1.5200000   1.2000000   1.2000000
 -------------------------------------------------------
 OpenMP BLAS3 based DFT computing Module                
 Release: version 1.0, May 2013, Q-Chem Inc. Pittsburgh 
 -------------------------------------------------------
 A unrestricted SCF calculation will be
 performed using DIIS, GDM
 SCF converges when RMS gradient is below 1.0e-06
 ---------------------------------------
  Cycle       Energy         DIIS error
 ---------------------------------------
    1    -460.4285315496      1.27e-02  
    2    -458.2254352595      1.14e-03  Done DIIS. Switching to GDM
 ---------------------------------------
  Cycle       Energy        RMS Gradient
 ---------------------------------------
    1    -458.2254352595      3.75e-02   Descent step
    2    -458.2968677767      3.12e-02   Normal BFGS step
    3    -458.3103612692      2.11e-02   Normal BFGS step
    4    -458.3120561364      1.25e-02   Normal BFGS step
    5    -458.3128710834      7.24e-03   Normal BFGS step
    6    -458.3130726143      4.34e-03   Normal BFGS step
    7    -458.3131295829      2.11e-03   Normal BFGS step
    8    -458.3131491300      1.81e-03   Normal BFGS step
    9    -458.3131617289      1.70e-03   Normal BFGS step
   10    -458.3131830379      1.74e-03   Normal BFGS step
   11    -458.3132123743      2.40e-03   Normal BFGS step
   12    -458.3132474314      2.18e-03   Normal BFGS step
   13    -458.3132802248      2.31e-03   Normal BFGS step
   14    -458.3133050750      1.92e-03   Normal BFGS step
   15    -458.3133234842      1.52e-03   Normal BFGS step
   16    -458.3133356940      1.15e-03   Normal BFGS step
   17    -458.3133418523      9.33e-04   Normal BFGS step
   18    -458.3133440093      1.98e-04   Normal BFGS step
   19    -458.3133445827      1.04e-04   Normal BFGS step
   20    -458.3133446948      5.88e-05   Normal BFGS step
   21    -458.3133447207      4.47e-05   Normal BFGS step
   22    -458.3133447281      1.53e-05   Normal BFGS step
   23    -458.3133447305      5.98e-06   Normal BFGS step
   24    -458.3133447308      5.08e-06   Normal BFGS step
   25    -458.3133447309      4.12e-06   Normal BFGS step
   26    -458.3133447312      1.25e-06   Normal BFGS step
   27    -458.3133447312      6.65e-07  Convergence criterion met
 ---------------------------------------
 SCF time:   CPU 2387.34s  wall 170.00s 
<S^2> =          0.758780838
(3)  G-ENP(liq) elect-nuc-pol free energy of system     -458.313344731 a.u.
(4)  G-CDS(liq) cavity-dispersion-solvent structure 
     free energy                                                2.3632 kcal/mol
(6)  G-S(liq) free energy of system                     -458.309578803 a.u.
 SCF   energy in the final basis set =     -458.3095788030
 Total energy in the final basis set =     -458.3095788030
 
 --------------------------------------------------------------
 
                    Orbital Energies (a.u.)
 --------------------------------------------------------------
 
 Alpha MOs
 -- Occupied --
-19.3645 -19.3572 -19.3496 -10.4285 -10.4134 -10.4108 -10.3935 -10.3695
-10.3682  -1.2431  -1.1783  -1.0139  -0.9132  -0.8937  -0.8825  -0.7660
 -0.7499  -0.6711  -0.6392  -0.6038  -0.5920  -0.5759  -0.5598  -0.5455
 -0.5394  -0.5217  -0.5060  -0.4798  -0.4704  -0.4445  -0.4152  -0.3815
 -0.3386  -0.3066
 -- Virtual --
 -0.0542   0.0257   0.0377   0.0393   0.0481   0.0506   0.0600   0.0608
  0.0816   0.1001   0.1045   0.1122   0.1349   0.1382   0.1439   0.1515
  0.1544   0.1602   0.1611   0.1618   0.1662   0.1697   0.1740   0.1795
  0.1835   0.1885   0.1945   0.2045   0.2137   0.2198   0.2239   0.2314
  0.2374   0.2468   0.2590   0.2668   0.2759   0.2870   0.2984   0.3064
  0.3134   0.3154   0.3249   0.3307   0.3356   0.3451   0.3624   0.3662
  0.3675   0.3725   0.3801   0.3895   0.3980   0.4072   0.4185   0.4384
  0.4456   0.4778   0.4839   0.5143   0.5296   0.5341   0.5568   0.5755
  0.5844   0.5894   0.5941   0.6068   0.6150   0.6259   0.6320   0.6575
  0.6695   0.6767   0.6979   0.7011   0.7053   0.7215   0.7314   0.7328
  0.7490   0.7595   0.7785   0.7814   0.8047   0.8094   0.8185   0.8295
  0.8335   0.8408   0.8452   0.8533   0.8602   0.8816   0.9120   0.9446
  0.9510   1.0172   1.0354   1.0735   1.0775   1.0799   1.0964   1.1078
  1.1160   1.1377   1.1490   1.1512   1.1730   1.1792   1.1928   1.2174
  1.2244   1.2448   1.2511   1.2644   1.2791   1.2881   1.2913   1.3202
  1.3249   1.3395   1.3543   1.3557   1.3738   1.3925   1.4002   1.4171
  1.4351   1.4384   1.4514   1.4553   1.4782   1.4877   1.4943   1.5026
  1.5268   1.5411   1.5561   1.5630   1.5813   1.6022   1.6284   1.6392
  1.6558   1.6734   1.7125   1.7368   1.7506   1.7780   1.7945   1.8153
  1.8386   1.8575   1.9234   1.9400   1.9584   2.0294   2.0386   2.0684
  2.0909   2.1112   2.1958   2.2442   2.3264   2.3310   2.3617   2.4491
  2.4758   2.5743   2.6016   2.6124   2.6189   2.6382   2.6825   2.7060
  2.7550   2.7817   2.7920   2.8014   2.8039   2.8199   2.8297   2.8550
  2.8676   2.8731   2.8827   2.8983   2.9116   2.9397   2.9590   2.9665
  2.9916   3.0027   3.0365   3.0620   3.0820   3.1221   3.1464   3.1599
  3.1865   3.2006   3.2286   3.2426   3.2576   3.2834   3.3054   3.3160
  3.3302   3.3394   3.3616   3.3811   3.4058   3.4117   3.4524   3.4561
  3.4752   3.4903   3.5010   3.5130   3.5213   3.5492   3.5801   3.6047
  3.6293   3.6382   3.7059   3.7250   3.7348   3.7446   3.7811   3.7911
  3.8126   3.8384   3.8492   3.8743   3.8796   3.8983   3.9158   3.9395
  3.9769   3.9956   4.0038   4.0114   4.0270   4.0821   4.1385   4.1609
  4.1864   4.2142   4.2513   4.2763   4.3044   4.3199   4.3321   4.3533
  4.3688   4.4012   4.4379   4.4649   4.4776   4.5160   4.5501   4.5656
  4.5886   4.6133   4.6230   4.6476   4.6781   4.6909   4.7054   4.7262
  4.7324   4.7744   4.7868   4.7986   4.8489   4.9459   4.9613   5.0310
  5.0667   5.0893   5.1162   5.1187   5.1271   5.1766   5.1998   5.2190
  5.2371   5.2396   5.2499   5.2773   5.2847   5.3329   5.3467   5.3675
  5.3843   5.4431   5.4491   5.5667   5.6174   5.6264   5.6278   5.6470
  5.6915   5.7244   5.7471   5.8212   5.8953   5.9619   6.0835   6.2231
  6.4151   6.4759   6.5101   6.7027   6.8277   6.8596   6.9568   6.9802
  7.0755   7.0898   7.1440   7.1621   7.3436   7.4000   7.4182   7.4551
  7.5038   7.6641   7.8226   7.9817   8.0221  24.2205  24.5754  24.8060
 24.8436  25.0654  25.3764  50.4497  50.5359  50.6289
 
 Beta MOs
 -- Occupied --
-19.3504 -19.3495 -19.3417 -10.4285 -10.4136 -10.4109 -10.3936 -10.3695
-10.3681  -1.2138  -1.1778  -1.0140  -0.9128  -0.8938  -0.8404  -0.7659
 -0.7499  -0.6706  -0.6387  -0.6036  -0.5912  -0.5738  -0.5595  -0.5195
 -0.5169  -0.4976  -0.4820  -0.4728  -0.4539  -0.4440  -0.4144  -0.3777
 -0.2843
 -- Virtual --
 -0.0557   0.0184   0.0260   0.0379   0.0398   0.0492   0.0508   0.0602
  0.0614   0.0822   0.1008   0.1046   0.1131   0.1353   0.1387   0.1447
  0.1525   0.1546   0.1606   0.1618   0.1622   0.1665   0.1701   0.1753
  0.1801   0.1846   0.1888   0.1965   0.2051   0.2147   0.2207   0.2243
  0.2325   0.2391   0.2477   0.2593   0.2685   0.2779   0.2899   0.3053
  0.3091   0.3145   0.3163   0.3260   0.3351   0.3379   0.3461   0.3635
  0.3676   0.3699   0.3741   0.3833   0.3902   0.4004   0.4095   0.4187
  0.4391   0.4461   0.4791   0.4862   0.5143   0.5299   0.5344   0.5572
  0.5756   0.5847   0.5894   0.5942   0.6071   0.6152   0.6261   0.6326
  0.6578   0.6698   0.6768   0.6979   0.7012   0.7057   0.7216   0.7315
  0.7330   0.7492   0.7595   0.7788   0.7819   0.8050   0.8095   0.8193
  0.8298   0.8343   0.8409   0.8455   0.8537   0.8605   0.8817   0.9126
  0.9457   0.9522   1.0194   1.0367   1.0743   1.0810   1.0832   1.0990
  1.1093   1.1206   1.1412   1.1511   1.1547   1.1758   1.1869   1.2047
  1.2250   1.2313   1.2472   1.2537   1.2700   1.2843   1.2914   1.2942
  1.3219   1.3311   1.3421   1.3550   1.3580   1.3752   1.3949   1.4050
  1.4175   1.4379   1.4388   1.4519   1.4578   1.4796   1.4954   1.5000
  1.5112   1.5288   1.5462   1.5583   1.5638   1.5832   1.6036   1.6307
  1.6450   1.6752   1.6890   1.7208   1.7383   1.7536   1.7781   1.7962
  1.8255   1.8467   1.8661   1.9321   1.9412   1.9592   2.0301   2.0390
  2.0754   2.0948   2.1138   2.1987   2.2588   2.3284   2.3558   2.3690
  2.4522   2.4773   2.5743   2.6015   2.6123   2.6187   2.6381   2.6844
  2.7122   2.7554   2.7813   2.7920   2.8015   2.8039   2.8209   2.8295
  2.8551   2.8677   2.8731   2.8825   2.8981   2.9112   2.9396   2.9589
  2.9666   2.9917   3.0022   3.0361   3.0618   3.0819   3.1219   3.1463
  3.1597   3.1864   3.2005   3.2283   3.2423   3.2575   3.2834   3.3053
  3.3158   3.3300   3.3393   3.3613   3.3809   3.4058   3.4117   3.4523
  3.4558   3.4748   3.4902   3.5011   3.5128   3.5211   3.5489   3.5798
  3.6044   3.6291   3.6381   3.7058   3.7250   3.7347   3.7444   3.7808
  3.7910   3.8124   3.8384   3.8490   3.8741   3.8794   3.8983   3.9157
  3.9394   3.9768   3.9955   4.0036   4.0112   4.0268   4.0821   4.1384
  4.1609   4.1863   4.2141   4.2512   4.2762   4.3043   4.3197   4.3318
  4.3531   4.3700   4.4014   4.4377   4.4648   4.4774   4.5159   4.5505
  4.5657   4.5894   4.6147   4.6491   4.6568   4.6784   4.6960   4.7058
  4.7277   4.7334   4.7921   4.8034   4.8175   4.8599   4.9459   4.9615
  5.0320   5.0704   5.1164   5.1333   5.1572   5.1932   5.2035   5.2078
  5.2451   5.2598   5.2668   5.2675   5.3038   5.3340   5.3373   5.3504
  5.3818   5.4015   5.4488   5.4502   5.5677   5.6257   5.6313   5.6555
  5.6634   5.6916   5.7257   5.7472   5.8208   5.8952   5.9620   6.0834
  6.2230   6.4150   6.5214   6.5235   6.7045   6.8970   6.9306   7.0098
  7.0411   7.1073   7.1397   7.1572   7.1897   7.3465   7.4013   7.4431
  7.4925   7.5172   7.6659   7.8231   8.0008   8.0405  24.2205  24.5754
 24.8059  24.8435  25.0654  25.3763  50.4612  50.5466  50.6292
 --------------------------------------------------------------
 
          Ground-State Mulliken Net Atomic Charges

     Atom                 Charge (a.u.)    Spin (a.u.)
  --------------------------------------------------------
      1 C                    -0.733772      -0.010363
      2 C                     0.532800       0.003517
      3 C                    -0.727080      -0.003391
      4 C                     0.214155      -0.003247
      5 C                    -0.612530       0.004613
      6 C                     0.364854      -0.006562
      7 H                     0.233955      -0.001655
      8 H                     0.342538      -0.000735
      9 H                     0.292349       0.000196
     10 H                     0.298164       0.000049
     11 O                    -0.364362       0.001631
     12 H                     0.313489      -0.001406
     13 O                    -0.438935       0.545069
     14 O                    -0.327132       0.472232
     15 H                     0.322319       0.000097
     16 H                     0.289190      -0.000045
  --------------------------------------------------------
  Sum of atomic charges =     0.000000
  Sum of spin   charges =     1.000000

 -----------------------------------------------------------------
                    Cartesian Multipole Moments
 -----------------------------------------------------------------
    Charge (ESU x 10^10)
                 0.0000
    Dipole Moment (Debye)
         X     -12.9550      Y       0.7691      Z       4.3307
       Tot      13.6813
    Quadrupole Moments (Debye-Ang)
        XX     -91.5821     XY     -40.2936     YY     -43.0096
        XZ       7.8606     YZ      10.5102     ZZ     -51.6699
    Octopole Moments (Debye-Ang^2)
       XXX    -343.8192    XXY    -299.5681    XYY    -201.8525
       YYY    -492.1693    XXZ     -14.3450    XYZ      10.2937
       YYZ      -6.4777    XZZ     -68.4104    YZZ    -184.8977
       ZZZ     -70.5275
    Hexadecapole Moments (Debye-Ang^3)
      XXXX   -1862.5421   XXXY   -1065.4303   XXYY   -1306.3768
      XYYY   -1192.3294   YYYY   -3985.8711   XXXZ      -0.0085
      XXYZ    -117.9146   XYYZ     -50.6996   YYYZ    -329.3068
      XXZZ    -309.9418   XYZZ    -248.3353   YYZZ    -791.3615
      XZZZ     -49.4557   YZZZ    -290.4579   ZZZZ    -302.5449
 -----------------------------------------------------------------
 Calculating analytic gradient of the SCF energy
 Gradient of CDS energy
            1           2           3           4           5           6
    1   0.0028208   0.0001454   0.0001235  -0.0004061  -0.0003588   0.0000304
    2   0.0014894  -0.0000274  -0.0004008  -0.0003462   0.0003011   0.0003740
    3  -0.0000493   0.0001925   0.0001119  -0.0001392  -0.0002097   0.0000086
            7           8           9          10          11          12
    1  -0.0000575   0.0002149   0.0000095  -0.0001590  -0.0027148   0.0003265
    2   0.0000310  -0.0000126  -0.0002079   0.0000831  -0.0014531   0.0002285
    3   0.0001970   0.0000091   0.0000041  -0.0000974   0.0002641  -0.0001431
           13          14          15          16
    1  -0.0000022   0.0001051   0.0000572  -0.0001349
    2  -0.0000727  -0.0000907   0.0002117  -0.0001074
    3  -0.0000824   0.0000202   0.0000003  -0.0000866
 Gradient of SCF Energy
            1           2           3           4           5           6
    1   0.0151813  -0.0119139   0.0268911  -0.0152553   0.0025282   0.0106429
    2   0.0061153   0.0000575   0.0049552  -0.0001298   0.0057935  -0.0157518
    3  -0.0151215  -0.0094690   0.0114898   0.0109183  -0.0031661   0.0122289
            7           8           9          10          11          12
    1  -0.0068339   0.0003044  -0.0018489  -0.0173204   0.0091039  -0.0065966
    2   0.0016362  -0.0029214  -0.0167758   0.0081860   0.0014196   0.0013908
    3   0.0133108   0.0058472   0.0013080  -0.0093459  -0.0013841   0.0023587
           13          14          15          16
    1   0.0103035  -0.0026080  -0.0026103  -0.0099679
    2  -0.0036424   0.0032444   0.0154491  -0.0090263
    3  -0.0018630  -0.0037360  -0.0011106  -0.0122656
 Max gradient component =       2.689E-02
 RMS gradient           =       9.575E-03
 Computing fast CPCM-SWIG gradient
 Updating gradient with PCM contributions...
 -- total gradient after adding PCM contribution --
---------------------------------------------------
  Atom         X              Y              Z     
---------------------------------------------------
   1      -0.000219       0.001274       0.002526
   2      -0.006985      -0.006656      -0.001969
   3       0.016104       0.005839       0.004393
   4      -0.020399      -0.005896       0.001884
   5       0.004358       0.004466      -0.001274
   6      -0.000501      -0.002487      -0.001620
   7       0.000684       0.000461      -0.000714
   8      -0.000443       0.000052       0.000109
   9      -0.000661      -0.001157       0.000353
  10      -0.000091      -0.000394       0.000747
  11       0.000333       0.000455      -0.000285
  12      -0.000168      -0.000408      -0.000406
  13       0.002176      -0.001063       0.000300
  14      -0.000535       0.001919      -0.001837
  15      -0.000325       0.000022       0.000207
  16       0.006673       0.003573      -0.002412
---------------------------------------------------
 Number of fixed atoms: 0
 Gradient time:  CPU 230.11 s  wall 19.12 s
 ######################################################
 ######################################################
 # Starting finite difference calculation for IDERIV  #
 Finite diff step size:  1.88973e-03 a.u.
 ----------------------------------------------------------------
             Standard Nuclear Orientation (Angstroms)
    I     Atom           X                Y                Z
 ----------------------------------------------------------------
    1      C       1.1750722000     4.3274681000     1.4044916000
    2      C       1.2900490000     2.8659074000     1.3056992000
    3      C       0.2477875000     2.1103158000     0.8466715000
    4      C      -0.8522231000     2.7384137000     0.2606315000
    5      C      -0.9195436000     4.1530214000     0.1234145000
    6      C       0.0749914000     4.9194035000     0.6145665000
    7      H       0.7877101000     4.4456812000     2.4439163000
    8      H       2.1668492000     2.4131264000     1.7463224000
    9      H       0.2973690000     1.0303740000     0.8678941000
   10      H      -1.7597968000     4.5922198000    -0.3916219000
   11      O       2.4019152000     5.0090348000     1.3330490000
   12      H       2.8345964000     4.6218501000     0.5503276000
   13      O       3.8740570000     2.5953614000    -0.3987496000
   14      O       2.7122173000     3.1525579000    -0.6680977000
   15      H       0.0616654000     5.9972999000     0.5210341000
   16      H      -1.6027612000     2.1407203000    -0.2212745000
 ----------------------------------------------------------------
 Nuclear Repulsion Energy =         432.19067978 hartrees
 There are       34 alpha and       33 beta electrons
 Discretize the solute cavity surface with Lebedev spheres
	Using 110 Lebedev grid points for each H atom
	Using 194 Lebedev grid points for other atoms
	Atomic van der Waals radii will be scaled by 1.20
 Remove points where switching function is < 1.0e-08
 Keep 1258 surface tesserae and discard 1258 interior tesserae
 Molecular Surface Area = 150.891 Angst**2
 Requested basis set is 6-311++G(2df,2p)
 There are 114 shells and 376 basis functions
 A cutoff of  1.0D-11 yielded   5883 shell pairs
 There are     64158 function pairs (     80140 Cartesian)
 Smallest overlap matrix eigenvalue = 1.55E-06

 Q-Chem warning in module stvman/mkSTV.C, line 323:

 Overlap eigenvalue is smaller than square root of threshold
 Use THRESH >= 12 to get rid of this warning

 Guess MOs from SCF MO coefficient file

 -----------------------------------------------------------------------
  General SCF calculation program by
  Eric Jon Sundstrom, Paul Horn, Yuezhi Mao, Dmitri Zuev, Alec White,
  David Stuck, Shaama M.S., Shane Yost, Joonho Lee, David Small,
  Daniel Levine, Susi Lehtola, Hugh Burton, Evgeny Epifanovsky,
  Bang C. Huynh
 -----------------------------------------------------------------------
 Exchange:     0.1500 Hartree-Fock + 1.0000 wB97M-V + LR-HF
 Correlation:  1.0000 wB97M-V
 Using SG-2 standard quadrature grid
 Nonlocal Correlation:  VV10 with C = 0.0100 and b = 6.00 and scale = 1.00000
 Grid used for NLC:  SG-1 standard quadrature
 
 Citation of the SMD model:
 Marenich, A.V.; Cramer, C.J.; Truhlar, D.G.
 J. Phys. Chem. B 2009, 113, 6378-6396.
 iSolventCode=           1
 Solvent: water                                                           
 
 vradii
            1           2           3           4           5           6
    1   1.8500000   1.8500000   1.8500000   1.8500000   1.8500000   1.8500000
            7           8           9          10          11          12
    1   1.2000000   1.2000000   1.2000000   1.2000000   1.5200000   1.2000000
           13          14          15          16
    1   1.5200000   1.5200000   1.2000000   1.2000000
 -------------------------------------------------------
 OpenMP BLAS3 based DFT computing Module                
 Release: version 1.0, May 2013, Q-Chem Inc. Pittsburgh 
 -------------------------------------------------------
 A unrestricted SCF calculation will be
 performed using Roothaan-Hall, DIIS, GDM
 SCF converges when RMS gradient is below 1.0e-06
 ---------------------------------------
  Cycle       Energy         DIIS error
 ---------------------------------------
    1    -458.2490794579      2.68e-04  Roothaan Step
 ---------------------------------------
  Cycle       Energy         DIIS error
 ---------------------------------------
    1    -458.2931954388      3.81e-04  
    2    -458.3034072592      4.09e-04  Done DIIS. Switching to GDM
 ---------------------------------------
  Cycle       Energy        RMS Gradient
 ---------------------------------------
    1    -458.3034072592      2.16e-02   Normal BFGS step
    2    -458.3048568433      5.59e-02   Normal BFGS step
    3    -458.3127319333      1.38e-02   Normal BFGS step
    4    -458.3130702234      8.44e-03   Normal BFGS step
    5    -458.3132626655      3.35e-03   Normal BFGS step
    6    -458.3133170930      2.81e-03   Normal BFGS step
    7    -458.3133336200      1.20e-03   Normal BFGS step
    8    -458.3133417943      9.25e-04   Normal BFGS step
    9    -458.3133458178      4.71e-04   Normal BFGS step
   10    -458.3133469668      3.86e-04   Normal BFGS step
   11    -458.3133474822      2.78e-04   Normal BFGS step
   12    -458.3133478281      1.86e-04   Normal BFGS step
   13    -458.3133480549      1.78e-04   Normal BFGS step
   14    -458.3133481940      1.78e-04   Normal BFGS step
   15    -458.3133483461      1.78e-04   Normal BFGS step
   16    -458.3133485153      1.69e-04   Normal BFGS step
   17    -458.3133487537      2.10e-04   Normal BFGS step
   18    -458.3133490471      2.52e-04   Normal BFGS step
   19    -458.3133493137      2.43e-04   Normal BFGS step
   20    -458.3133494590      1.18e-04   Normal BFGS step
   21    -458.3133495090      4.69e-05   Normal BFGS step
   22    -458.3133495233      1.98e-05   Normal BFGS step
   23    -458.3133495269      1.39e-05   Normal BFGS step
   24    -458.3133495278      5.90e-06   Normal BFGS step
   25    -458.3133495280      1.83e-06   Normal BFGS step
   26    -458.3133495281      7.07e-07  Convergence criterion met
 ---------------------------------------
 SCF time:   CPU 2357.95s  wall 160.00s 
<S^2> =          0.758762248
(3)  G-ENP(liq) elect-nuc-pol free energy of system     -458.313349528 a.u.
(4)  G-CDS(liq) cavity-dispersion-solvent structure 
     free energy                                                2.3666 kcal/mol
(6)  G-S(liq) free energy of system                     -458.309578081 a.u.
 SCF   energy in the final basis set =     -458.3095780807
 Total energy in the final basis set =     -458.3095780807
 
 --------------------------------------------------------------
 
                    Orbital Energies (a.u.)
 --------------------------------------------------------------
 
 Alpha MOs
 -- Occupied --
-19.3645 -19.3571 -19.3496 -10.4286 -10.4134 -10.4108 -10.3935 -10.3695
-10.3682  -1.2431  -1.1786  -1.0139  -0.9131  -0.8937  -0.8825  -0.7660
 -0.7499  -0.6712  -0.6393  -0.6038  -0.5921  -0.5759  -0.5598  -0.5455
 -0.5394  -0.5217  -0.5060  -0.4798  -0.4705  -0.4445  -0.4152  -0.3815
 -0.3386  -0.3066
 -- Virtual --
 -0.0542   0.0257   0.0377   0.0393   0.0481   0.0506   0.0600   0.0608
  0.0816   0.1001   0.1045   0.1122   0.1349   0.1382   0.1439   0.1515
  0.1544   0.1602   0.1611   0.1618   0.1662   0.1697   0.1740   0.1795
  0.1835   0.1885   0.1945   0.2045   0.2137   0.2199   0.2239   0.2314
  0.2374   0.2469   0.2590   0.2668   0.2759   0.2870   0.2984   0.3064
  0.3133   0.3155   0.3249   0.3307   0.3356   0.3451   0.3624   0.3662
  0.3674   0.3725   0.3800   0.3895   0.3980   0.4072   0.4185   0.4384
  0.4456   0.4778   0.4839   0.5143   0.5297   0.5342   0.5569   0.5755
  0.5844   0.5894   0.5941   0.6068   0.6150   0.6259   0.6320   0.6575
  0.6695   0.6767   0.6979   0.7012   0.7054   0.7215   0.7314   0.7328
  0.7490   0.7595   0.7785   0.7814   0.8047   0.8094   0.8185   0.8295
  0.8335   0.8407   0.8452   0.8534   0.8601   0.8816   0.9120   0.9446
  0.9510   1.0172   1.0354   1.0734   1.0775   1.0798   1.0964   1.1078
  1.1160   1.1377   1.1490   1.1511   1.1730   1.1791   1.1928   1.2174
  1.2244   1.2448   1.2510   1.2644   1.2790   1.2882   1.2913   1.3201
  1.3250   1.3395   1.3543   1.3557   1.3737   1.3925   1.4002   1.4172
  1.4351   1.4384   1.4513   1.4552   1.4783   1.4877   1.4943   1.5025
  1.5268   1.5411   1.5560   1.5630   1.5813   1.6023   1.6283   1.6392
  1.6558   1.6734   1.7125   1.7368   1.7506   1.7781   1.7945   1.8153
  1.8386   1.8576   1.9236   1.9400   1.9584   2.0294   2.0387   2.0685
  2.0910   2.1114   2.1962   2.2443   2.3268   2.3310   2.3618   2.4493
  2.4759   2.5743   2.6016   2.6124   2.6188   2.6382   2.6826   2.7060
  2.7549   2.7817   2.7920   2.8014   2.8038   2.8200   2.8297   2.8550
  2.8677   2.8731   2.8828   2.8984   2.9117   2.9398   2.9590   2.9666
  2.9916   3.0026   3.0367   3.0619   3.0820   3.1220   3.1464   3.1598
  3.1865   3.2005   3.2287   3.2428   3.2576   3.2834   3.3053   3.3160
  3.3302   3.3393   3.3616   3.3812   3.4059   3.4117   3.4524   3.4561
  3.4752   3.4903   3.5010   3.5131   3.5213   3.5492   3.5800   3.6047
  3.6294   3.6382   3.7058   3.7250   3.7347   3.7444   3.7810   3.7911
  3.8127   3.8383   3.8491   3.8743   3.8795   3.8980   3.9158   3.9394
  3.9770   3.9957   4.0038   4.0110   4.0268   4.0822   4.1384   4.1608
  4.1864   4.2142   4.2511   4.2762   4.3044   4.3198   4.3316   4.3533
  4.3687   4.4008   4.4378   4.4649   4.4775   4.5158   4.5496   4.5653
  4.5885   4.6133   4.6230   4.6473   4.6780   4.6909   4.7052   4.7260
  4.7323   4.7743   4.7868   4.7985   4.8488   4.9459   4.9610   5.0310
  5.0664   5.0893   5.1162   5.1187   5.1270   5.1766   5.1997   5.2191
  5.2371   5.2397   5.2499   5.2773   5.2845   5.3329   5.3468   5.3676
  5.3843   5.4432   5.4493   5.5670   5.6173   5.6263   5.6277   5.6467
  5.6915   5.7247   5.7471   5.8213   5.8953   5.9628   6.0852   6.2233
  6.4152   6.4759   6.5102   6.7048   6.8278   6.8596   6.9568   6.9802
  7.0757   7.0899   7.1440   7.1621   7.3440   7.4005   7.4183   7.4552
  7.5038   7.6644   7.8228   7.9817   8.0221  24.2206  24.5752  24.8060
 24.8436  25.0653  25.3761  50.4498  50.5359  50.6293
 
 Beta MOs
 -- Occupied --
-19.3504 -19.3496 -19.3417 -10.4286 -10.4135 -10.4109 -10.3936 -10.3695
-10.3681  -1.2138  -1.1781  -1.0140  -0.9127  -0.8937  -0.8404  -0.7659
 -0.7499  -0.6707  -0.6387  -0.6036  -0.5913  -0.5738  -0.5594  -0.5195
 -0.5169  -0.4976  -0.4820  -0.4729  -0.4539  -0.4440  -0.4143  -0.3777
 -0.2843
 -- Virtual --
 -0.0556   0.0184   0.0260   0.0379   0.0398   0.0492   0.0508   0.0602
  0.0614   0.0822   0.1008   0.1046   0.1131   0.1353   0.1387   0.1447
  0.1525   0.1546   0.1606   0.1618   0.1622   0.1665   0.1701   0.1753
  0.1801   0.1846   0.1888   0.1965   0.2051   0.2147   0.2208   0.2243
  0.2325   0.2390   0.2478   0.2594   0.2685   0.2779   0.2899   0.3053
  0.3090   0.3145   0.3164   0.3259   0.3351   0.3379   0.3461   0.3635
  0.3676   0.3698   0.3741   0.3833   0.3902   0.4004   0.4095   0.4187
  0.4391   0.4461   0.4791   0.4862   0.5143   0.5299   0.5344   0.5572
  0.5756   0.5847   0.5894   0.5943   0.6071   0.6152   0.6261   0.6326
  0.6577   0.6698   0.6768   0.6980   0.7012   0.7057   0.7216   0.7315
  0.7330   0.7492   0.7596   0.7788   0.7819   0.8050   0.8095   0.8193
  0.8298   0.8343   0.8408   0.8455   0.8537   0.8604   0.8817   0.9125
  0.9457   0.9522   1.0194   1.0367   1.0742   1.0810   1.0832   1.0990
  1.1093   1.1207   1.1412   1.1511   1.1547   1.1758   1.1868   1.2047
  1.2249   1.2313   1.2471   1.2537   1.2700   1.2842   1.2915   1.2942
  1.3218   1.3312   1.3421   1.3551   1.3580   1.3752   1.3949   1.4050
  1.4175   1.4379   1.4388   1.4518   1.4577   1.4797   1.4955   1.5000
  1.5112   1.5287   1.5461   1.5582   1.5638   1.5832   1.6037   1.6306
  1.6451   1.6752   1.6890   1.7208   1.7383   1.7536   1.7782   1.7962
  1.8255   1.8467   1.8661   1.9323   1.9412   1.9592   2.0302   2.0391
  2.0755   2.0950   2.1140   2.1991   2.2589   2.3288   2.3558   2.3691
  2.4524   2.4775   2.5743   2.6015   2.6123   2.6185   2.6381   2.6845
  2.7122   2.7553   2.7813   2.7920   2.8015   2.8038   2.8210   2.8295
  2.8551   2.8678   2.8731   2.8826   2.8982   2.9113   2.9397   2.9589
  2.9667   2.9918   3.0022   3.0363   3.0617   3.0819   3.1218   3.1463
  3.1596   3.1863   3.2003   3.2285   3.2425   3.2575   3.2834   3.3052
  3.3158   3.3300   3.3392   3.3612   3.3809   3.4058   3.4117   3.4523
  3.4558   3.4748   3.4902   3.5011   3.5130   3.5211   3.5489   3.5798
  3.6044   3.6292   3.6380   3.7057   3.7251   3.7346   3.7442   3.7808
  3.7911   3.8124   3.8383   3.8490   3.8741   3.8794   3.8980   3.9157
  3.9393   3.9768   3.9956   4.0035   4.0109   4.0266   4.0821   4.1383
  4.1608   4.1863   4.2141   4.2509   4.2761   4.3043   4.3196   4.3313
  4.3532   4.3699   4.4010   4.4376   4.4649   4.4773   4.5157   4.5501
  4.5654   4.5893   4.6148   4.6488   4.6568   4.6784   4.6959   4.7056
  4.7275   4.7332   4.7920   4.8034   4.8175   4.8599   4.9458   4.9612
  5.0319   5.0701   5.1164   5.1333   5.1573   5.1932   5.2035   5.2078
  5.2450   5.2598   5.2666   5.2675   5.3038   5.3340   5.3374   5.3504
  5.3820   5.4015   5.4491   5.4502   5.5680   5.6258   5.6307   5.6556
  5.6634   5.6915   5.7258   5.7472   5.8209   5.8952   5.9629   6.0852
  6.2231   6.4151   6.5214   6.5236   6.7067   6.8971   6.9306   7.0099
  7.0412   7.1073   7.1398   7.1572   7.1897   7.3469   7.4018   7.4432
  7.4925   7.5172   7.6661   7.8232   8.0008   8.0405  24.2206  24.5752
 24.8059  24.8436  25.0653  25.3761  50.4612  50.5466  50.6296
 --------------------------------------------------------------
 
          Ground-State Mulliken Net Atomic Charges

     Atom                 Charge (a.u.)    Spin (a.u.)
  --------------------------------------------------------
      1 C                    -0.734465      -0.010345
      2 C                     0.533143       0.003506
      3 C                    -0.726953      -0.003375
      4 C                     0.213930      -0.003206
      5 C                    -0.612531       0.004606
      6 C                     0.365066      -0.006536
      7 H                     0.233969      -0.001648
      8 H                     0.342474      -0.000737
      9 H                     0.292373       0.000196
     10 H                     0.298194       0.000050
     11 O                    -0.363976       0.001634
     12 H                     0.313567      -0.001410
     13 O                    -0.438977       0.545030
     14 O                    -0.327193       0.472185
     15 H                     0.322264       0.000096
     16 H                     0.289114      -0.000046
  --------------------------------------------------------
  Sum of atomic charges =     0.000000
  Sum of spin   charges =     1.000000

 -----------------------------------------------------------------
                    Cartesian Multipole Moments
 -----------------------------------------------------------------
    Charge (ESU x 10^10)
                 0.0000
    Dipole Moment (Debye)
         X     -12.9516      Y       0.7721      Z       4.3319
       Tot      13.6787
    Quadrupole Moments (Debye-Ang)
        XX     -91.5763     XY     -40.2712     YY     -42.9869
        XZ       7.8671     YZ      10.5172     ZZ     -51.6702
    Octopole Moments (Debye-Ang^2)
       XXX    -343.8189    XXY    -299.5196    XYY    -201.7293
       YYY    -492.0320    XXZ     -14.3288    XYZ      10.3264
       YYZ      -6.4379    XZZ     -68.4060    YZZ    -184.8911
       ZZZ     -70.5295
    Hexadecapole Moments (Debye-Ang^3)
      XXXX   -1862.6025   XXXY   -1065.3577   XXYY   -1306.0952
      XYYY   -1191.6834   YYYY   -3985.0880   XXXZ       0.0140
      XXYZ    -117.8369   XYYZ     -50.5369   YYYZ    -329.0862
      XXZZ    -309.9269   XYZZ    -248.2979   YYZZ    -791.3087
      XZZZ     -49.4575   YZZZ    -290.4549   ZZZZ    -302.5632
 -----------------------------------------------------------------
 Calculating analytic gradient of the SCF energy
 Gradient of CDS energy
            1           2           3           4           5           6
    1   0.0030193   0.0001452   0.0001235  -0.0004061  -0.0003588   0.0000296
    2   0.0016000  -0.0000275  -0.0004008  -0.0003462   0.0003010   0.0003744
    3  -0.0000608   0.0001923   0.0001119  -0.0001392  -0.0002097   0.0000084
            7           8           9          10          11          12
    1  -0.0000581   0.0002147   0.0000095  -0.0001590  -0.0029109   0.0003259
    2   0.0000308  -0.0000127  -0.0002079   0.0000831  -0.0015629   0.0002280
    3   0.0001970   0.0000091   0.0000041  -0.0000974   0.0002759  -0.0001431
           13          14          15          16
    1  -0.0000022   0.0001051   0.0000570  -0.0001349
    2  -0.0000727  -0.0000908   0.0002116  -0.0001074
    3  -0.0000824   0.0000202   0.0000002  -0.0000866
 Gradient of SCF Energy
            1           2           3           4           5           6
    1   0.0163769  -0.0120609   0.0268825  -0.0152418   0.0024793   0.0103704
    2   0.0061890   0.0001133   0.0048858  -0.0001287   0.0058022  -0.0156447
    3  -0.0151144  -0.0095045   0.0114698   0.0109429  -0.0032116   0.0121047
            7           8           9          10          11          12
    1  -0.0069289   0.0003053  -0.0018518  -0.0173121   0.0085162  -0.0066523
    2   0.0016645  -0.0028699  -0.0167753   0.0081800   0.0012069   0.0013702
    3   0.0134353   0.0058582   0.0012968  -0.0093496  -0.0013230   0.0023720
           13          14          15          16
    1   0.0102931  -0.0026108  -0.0026016  -0.0099636
    2  -0.0036403   0.0032267   0.0154436  -0.0090233
    3  -0.0018666  -0.0037294  -0.0011163  -0.0122644
 Max gradient component =       2.688E-02
 RMS gradient           =       9.600E-03
 Computing fast CPCM-SWIG gradient
 Updating gradient with PCM contributions...
 -- total gradient after adding PCM contribution --
---------------------------------------------------
  Atom         X              Y              Z     
---------------------------------------------------
   1       0.000983       0.001374       0.002545
   2      -0.007144      -0.006632      -0.002014
   3       0.016120       0.005788       0.004385
   4      -0.020403      -0.005902       0.001896
   5       0.004335       0.004490      -0.001309
   6      -0.000810      -0.002392      -0.001761
   7       0.000597       0.000487      -0.000580
   8      -0.000444       0.000097       0.000119
   9      -0.000663      -0.001160       0.000342
  10      -0.000087      -0.000398       0.000741
  11      -0.000235       0.000240      -0.000235
  12      -0.000230      -0.000429      -0.000387
  13       0.002161      -0.001057       0.000298
  14      -0.000532       0.001901      -0.001830
  15      -0.000321       0.000017       0.000201
  16       0.006674       0.003574      -0.002412
---------------------------------------------------
 Number of fixed atoms: 0
 Gradient time:  CPU 227.78 s  wall 18.75 s
 ----------------------------------------------------------------
             Standard Nuclear Orientation (Angstroms)
    I     Atom           X                Y                Z
 ----------------------------------------------------------------
    1      C       1.1730722000     4.3274681000     1.4044916000
    2      C       1.2900490000     2.8659074000     1.3056992000
    3      C       0.2477875000     2.1103158000     0.8466715000
    4      C      -0.8522231000     2.7384137000     0.2606315000
    5      C      -0.9195436000     4.1530214000     0.1234145000
    6      C       0.0749914000     4.9194035000     0.6145665000
    7      H       0.7877101000     4.4456812000     2.4439163000
    8      H       2.1668492000     2.4131264000     1.7463224000
    9      H       0.2973690000     1.0303740000     0.8678941000
   10      H      -1.7597968000     4.5922198000    -0.3916219000
   11      O       2.4019152000     5.0090348000     1.3330490000
   12      H       2.8345964000     4.6218501000     0.5503276000
   13      O       3.8740570000     2.5953614000    -0.3987496000
   14      O       2.7122173000     3.1525579000    -0.6680977000
   15      H       0.0616654000     5.9972999000     0.5210341000
   16      H      -1.6027612000     2.1407203000    -0.2212745000
 ----------------------------------------------------------------
 Nuclear Repulsion Energy =         432.18597979 hartrees
 There are       34 alpha and       33 beta electrons
 Discretize the solute cavity surface with Lebedev spheres
	Using 110 Lebedev grid points for each H atom
	Using 194 Lebedev grid points for other atoms
	Atomic van der Waals radii will be scaled by 1.20
 Remove points where switching function is < 1.0e-08
 Keep 1258 surface tesserae and discard 1258 interior tesserae
 Molecular Surface Area = 150.892 Angst**2
 Requested basis set is 6-311++G(2df,2p)
 There are 114 shells and 376 basis functions
 A cutoff of  1.0D-11 yielded   5883 shell pairs
 There are     64158 function pairs (     80140 Cartesian)
 Smallest overlap matrix eigenvalue = 1.55E-06

 Q-Chem warning in module stvman/mkSTV.C, line 323:

 Overlap eigenvalue is smaller than square root of threshold
 Use THRESH >= 12 to get rid of this warning

 Guess MOs from SCF MO coefficient file

 -----------------------------------------------------------------------
  General SCF calculation program by
  Eric Jon Sundstrom, Paul Horn, Yuezhi Mao, Dmitri Zuev, Alec White,
  David Stuck, Shaama M.S., Shane Yost, Joonho Lee, David Small,
  Daniel Levine, Susi Lehtola, Hugh Burton, Evgeny Epifanovsky,
  Bang C. Huynh
 -----------------------------------------------------------------------
 Exchange:     0.1500 Hartree-Fock + 1.0000 wB97M-V + LR-HF
 Correlation:  1.0000 wB97M-V
 Using SG-2 standard quadrature grid
 Nonlocal Correlation:  VV10 with C = 0.0100 and b = 6.00 and scale = 1.00000
 Grid used for NLC:  SG-1 standard quadrature
 
 Citation of the SMD model:
 Marenich, A.V.; Cramer, C.J.; Truhlar, D.G.
 J. Phys. Chem. B 2009, 113, 6378-6396.
 iSolventCode=           1
 Solvent: water                                                           
 
 vradii
            1           2           3           4           5           6
    1   1.8500000   1.8500000   1.8500000   1.8500000   1.8500000   1.8500000
            7           8           9          10          11          12
    1   1.2000000   1.2000000   1.2000000   1.2000000   1.5200000   1.2000000
           13          14          15          16
    1   1.5200000   1.5200000   1.2000000   1.2000000
 -------------------------------------------------------
 OpenMP BLAS3 based DFT computing Module                
 Release: version 1.0, May 2013, Q-Chem Inc. Pittsburgh 
 -------------------------------------------------------
 A unrestricted SCF calculation will be
 performed using Roothaan-Hall, DIIS, GDM
 SCF converges when RMS gradient is below 1.0e-06
 ---------------------------------------
  Cycle       Energy         DIIS error
 ---------------------------------------
    1    -458.2490553620      2.67e-04  Roothaan Step
 ---------------------------------------
  Cycle       Energy         DIIS error
 ---------------------------------------
    1    -458.2931486797      3.82e-04  
    2    -458.3033666093      4.10e-04  Done DIIS. Switching to GDM
 ---------------------------------------
  Cycle       Energy        RMS Gradient
 ---------------------------------------
    1    -458.3033666093      2.17e-02   Normal BFGS step
    2    -458.3048077308      5.60e-02   Normal BFGS step
    3    -458.3127217428      1.38e-02   Normal BFGS step
    4    -458.3130595686      8.43e-03   Normal BFGS step
    5    -458.3132533825      3.18e-03   Normal BFGS step
    6    -458.3133061475      2.81e-03   Normal BFGS step
    7    -458.3133224860      1.20e-03   Normal BFGS step
    8    -458.3133306734      9.21e-04   Normal BFGS step
    9    -458.3133346433      4.74e-04   Normal BFGS step
   10    -458.3133357859      3.88e-04   Normal BFGS step
   11    -458.3133362875      2.77e-04   Normal BFGS step
   12    -458.3133366122      1.67e-04   Normal BFGS step
   13    -458.3133368128      1.61e-04   Normal BFGS step
   14    -458.3133369299      1.62e-04   Normal BFGS step
   15    -458.3133370494      1.64e-04   Normal BFGS step
   16    -458.3133371791      1.57e-04   Normal BFGS step
   17    -458.3133373645      1.87e-04   Normal BFGS step
   18    -458.3133376022      2.33e-04   Normal BFGS step
   19    -458.3133378329      2.31e-04   Normal BFGS step
   20    -458.3133379690      1.20e-04   Normal BFGS step
   21    -458.3133380190      4.74e-05   Normal BFGS step
   22    -458.3133380334      2.00e-05   Normal BFGS step
   23    -458.3133380371      1.37e-05   Normal BFGS step
   24    -458.3133380379      5.86e-06   Normal BFGS step
   25    -458.3133380382      1.80e-06   Normal BFGS step
   26    -458.3133380383      6.94e-07  Convergence criterion met
 ---------------------------------------
 SCF time:   CPU 2358.29s  wall 159.00s 
<S^2> =          0.758800363
(3)  G-ENP(liq) elect-nuc-pol free energy of system     -458.313338038 a.u.
(4)  G-CDS(liq) cavity-dispersion-solvent structure 
     free energy                                                2.3599 kcal/mol
(6)  G-S(liq) free energy of system                     -458.309577249 a.u.
 SCF   energy in the final basis set =     -458.3095772487
 Total energy in the final basis set =     -458.3095772487
 
 --------------------------------------------------------------
 
                    Orbital Energies (a.u.)
 --------------------------------------------------------------
 
 Alpha MOs
 -- Occupied --
-19.3645 -19.3572 -19.3495 -10.4285 -10.4134 -10.4108 -10.3935 -10.3695
-10.3682  -1.2431  -1.1780  -1.0140  -0.9132  -0.8938  -0.8825  -0.7660
 -0.7499  -0.6711  -0.6392  -0.6038  -0.5920  -0.5759  -0.5599  -0.5455
 -0.5395  -0.5218  -0.5060  -0.4798  -0.4703  -0.4445  -0.4153  -0.3815
 -0.3386  -0.3066
 -- Virtual --
 -0.0543   0.0257   0.0377   0.0393   0.0481   0.0506   0.0600   0.0608
  0.0816   0.1001   0.1045   0.1122   0.1349   0.1382   0.1439   0.1515
  0.1544   0.1602   0.1611   0.1618   0.1662   0.1697   0.1740   0.1794
  0.1834   0.1885   0.1944   0.2045   0.2137   0.2198   0.2239   0.2315
  0.2374   0.2468   0.2589   0.2668   0.2759   0.2870   0.2984   0.3065
  0.3135   0.3153   0.3250   0.3307   0.3356   0.3452   0.3624   0.3661
  0.3675   0.3725   0.3801   0.3895   0.3980   0.4072   0.4185   0.4383
  0.4455   0.4779   0.4839   0.5143   0.5296   0.5341   0.5568   0.5755
  0.5843   0.5894   0.5941   0.6068   0.6150   0.6259   0.6320   0.6576
  0.6695   0.6767   0.6978   0.7011   0.7053   0.7216   0.7314   0.7328
  0.7490   0.7594   0.7785   0.7814   0.8048   0.8094   0.8185   0.8295
  0.8335   0.8409   0.8452   0.8533   0.8602   0.8817   0.9121   0.9447
  0.9510   1.0172   1.0354   1.0736   1.0775   1.0799   1.0964   1.1079
  1.1159   1.1377   1.1490   1.1512   1.1731   1.1792   1.1928   1.2175
  1.2245   1.2448   1.2511   1.2645   1.2792   1.2881   1.2912   1.3202
  1.3249   1.3395   1.3543   1.3557   1.3738   1.3925   1.4002   1.4171
  1.4351   1.4384   1.4514   1.4553   1.4782   1.4877   1.4943   1.5026
  1.5269   1.5412   1.5562   1.5630   1.5814   1.6021   1.6284   1.6391
  1.6558   1.6734   1.7125   1.7368   1.7507   1.7779   1.7945   1.8153
  1.8386   1.8575   1.9232   1.9399   1.9584   2.0293   2.0386   2.0683
  2.0908   2.1110   2.1955   2.2441   2.3260   2.3310   2.3616   2.4488
  2.4757   2.5743   2.6016   2.6123   2.6191   2.6382   2.6825   2.7060
  2.7550   2.7817   2.7920   2.8014   2.8040   2.8199   2.8297   2.8550
  2.8676   2.8730   2.8827   2.8983   2.9114   2.9396   2.9590   2.9664
  2.9915   3.0028   3.0363   3.0621   3.0819   3.1222   3.1463   3.1600
  3.1866   3.2008   3.2284   3.2425   3.2576   3.2834   3.3054   3.3160
  3.3303   3.3394   3.3616   3.3811   3.4058   3.4117   3.4524   3.4561
  3.4752   3.4904   3.5010   3.5128   3.5213   3.5492   3.5801   3.6047
  3.6292   3.6383   3.7060   3.7249   3.7349   3.7447   3.7811   3.7911
  3.8126   3.8385   3.8492   3.8743   3.8796   3.8986   3.9158   3.9395
  3.9769   3.9954   4.0038   4.0117   4.0272   4.0821   4.1385   4.1610
  4.1864   4.2141   4.2515   4.2763   4.3044   4.3200   4.3325   4.3532
  4.3689   4.4016   4.4379   4.4648   4.4777   4.5161   4.5505   4.5659
  4.5887   4.6133   4.6230   4.6479   4.6781   4.6910   4.7056   4.7264
  4.7326   4.7744   4.7868   4.7987   4.8489   4.9460   4.9616   5.0310
  5.0669   5.0894   5.1162   5.1187   5.1271   5.1766   5.1998   5.2190
  5.2372   5.2396   5.2500   5.2773   5.2848   5.3328   5.3466   5.3674
  5.3843   5.4429   5.4489   5.5664   5.6175   5.6264   5.6279   5.6473
  5.6915   5.7242   5.7471   5.8210   5.8953   5.9611   6.0817   6.2230
  6.4150   6.4759   6.5101   6.7006   6.8276   6.8596   6.9567   6.9802
  7.0754   7.0898   7.1440   7.1620   7.3433   7.3995   7.4181   7.4551
  7.5037   7.6639   7.8225   7.9817   8.0221  24.2204  24.5756  24.8060
 24.8435  25.0654  25.3766  50.4497  50.5359  50.6285
 
 Beta MOs
 -- Occupied --
-19.3504 -19.3495 -19.3417 -10.4285 -10.4136 -10.4109 -10.3936 -10.3695
-10.3681  -1.2138  -1.1775  -1.0141  -0.9128  -0.8938  -0.8404  -0.7659
 -0.7500  -0.6706  -0.6386  -0.6036  -0.5911  -0.5738  -0.5595  -0.5195
 -0.5169  -0.4976  -0.4820  -0.4727  -0.4539  -0.4441  -0.4144  -0.3777
 -0.2843
 -- Virtual --
 -0.0557   0.0184   0.0260   0.0379   0.0398   0.0492   0.0508   0.0602
  0.0614   0.0822   0.1008   0.1046   0.1131   0.1353   0.1387   0.1447
  0.1525   0.1546   0.1606   0.1618   0.1622   0.1665   0.1701   0.1753
  0.1801   0.1845   0.1888   0.1965   0.2051   0.2146   0.2207   0.2243
  0.2326   0.2391   0.2477   0.2593   0.2685   0.2779   0.2899   0.3053
  0.3091   0.3145   0.3162   0.3260   0.3352   0.3379   0.3462   0.3635
  0.3676   0.3699   0.3741   0.3833   0.3902   0.4004   0.4095   0.4187
  0.4390   0.4460   0.4792   0.4862   0.5143   0.5298   0.5343   0.5571
  0.5756   0.5847   0.5894   0.5942   0.6071   0.6152   0.6261   0.6326
  0.6578   0.6697   0.6768   0.6979   0.7011   0.7057   0.7216   0.7315
  0.7330   0.7493   0.7595   0.7788   0.7819   0.8050   0.8095   0.8193
  0.8298   0.8343   0.8410   0.8455   0.8537   0.8605   0.8818   0.9126
  0.9458   0.9522   1.0193   1.0367   1.0744   1.0810   1.0832   1.0990
  1.1094   1.1206   1.1412   1.1512   1.1547   1.1758   1.1869   1.2047
  1.2251   1.2313   1.2472   1.2537   1.2701   1.2844   1.2914   1.2941
  1.3219   1.3311   1.3421   1.3550   1.3580   1.3753   1.3948   1.4050
  1.4174   1.4380   1.4388   1.4519   1.4579   1.4795   1.4954   1.5001
  1.5113   1.5288   1.5462   1.5584   1.5637   1.5832   1.6035   1.6307
  1.6450   1.6752   1.6891   1.7208   1.7383   1.7536   1.7780   1.7962
  1.8255   1.8466   1.8661   1.9319   1.9412   1.9591   2.0301   2.0390
  2.0753   2.0947   2.1135   2.1983   2.2588   2.3280   2.3558   2.3689
  2.4520   2.4772   2.5743   2.6015   2.6123   2.6188   2.6381   2.6843
  2.7122   2.7555   2.7813   2.7920   2.8014   2.8040   2.8209   2.8295
  2.8551   2.8676   2.8730   2.8825   2.8981   2.9110   2.9395   2.9589
  2.9664   2.9917   3.0023   3.0359   3.0619   3.0818   3.1220   3.1462
  3.1598   3.1865   3.2007   3.2282   3.2422   3.2575   3.2834   3.3053
  3.3158   3.3300   3.3393   3.3613   3.3808   3.4057   3.4118   3.4522
  3.4558   3.4748   3.4902   3.5011   3.5127   3.5211   3.5489   3.5799
  3.6044   3.6290   3.6381   3.7059   3.7250   3.7348   3.7446   3.7809
  3.7910   3.8124   3.8385   3.8490   3.8742   3.8795   3.8986   3.9157
  3.9394   3.9767   3.9953   4.0036   4.0116   4.0270   4.0820   4.1384
  4.1609   4.1863   4.2141   4.2514   4.2762   4.3043   4.3197   4.3323
  4.3531   4.3701   4.4018   4.4378   4.4648   4.4775   4.5161   4.5509
  4.5660   4.5896   4.6146   4.6493   4.6569   4.6784   4.6960   4.7060
  4.7279   4.7336   4.7921   4.8034   4.8175   4.8599   4.9459   4.9618
  5.0320   5.0706   5.1164   5.1333   5.1572   5.1932   5.2036   5.2078
  5.2451   5.2598   5.2669   5.2676   5.3038   5.3339   5.3372   5.3503
  5.3816   5.4015   5.4485   5.4503   5.5674   5.6255   5.6319   5.6555
  5.6634   5.6916   5.7255   5.7471   5.8207   5.8952   5.9612   6.0816
  6.2228   6.4149   6.5214   6.5235   6.7024   6.8970   6.9306   7.0098
  7.0411   7.1072   7.1396   7.1572   7.1896   7.3462   7.4008   7.4430
  7.4924   7.5171   7.6656   7.8230   8.0008   8.0405  24.2204  24.5756
 24.8059  24.8435  25.0654  25.3766  50.4612  50.5466  50.6288
 --------------------------------------------------------------
 
          Ground-State Mulliken Net Atomic Charges

     Atom                 Charge (a.u.)    Spin (a.u.)
  --------------------------------------------------------
      1 C                    -0.733068      -0.010381
      2 C                     0.532451       0.003523
      3 C                    -0.727207      -0.003407
      4 C                     0.214376      -0.003286
      5 C                    -0.612523       0.004620
      6 C                     0.364631      -0.006589
      7 H                     0.233941      -0.001662
      8 H                     0.342601      -0.000733
      9 H                     0.292325       0.000196
     10 H                     0.298134       0.000049
     11 O                    -0.364749       0.001628
     12 H                     0.313412      -0.001402
     13 O                    -0.438890       0.545110
     14 O                    -0.327073       0.472279
     15 H                     0.322374       0.000097
     16 H                     0.289265      -0.000044
  --------------------------------------------------------
  Sum of atomic charges =     0.000000
  Sum of spin   charges =     1.000000

 -----------------------------------------------------------------
                    Cartesian Multipole Moments
 -----------------------------------------------------------------
    Charge (ESU x 10^10)
                 0.0000
    Dipole Moment (Debye)
         X     -12.9583      Y       0.7661      Z       4.3295
       Tot      13.6839
    Quadrupole Moments (Debye-Ang)
        XX     -91.5876     XY     -40.3160     YY     -43.0323
        XZ       7.8540     YZ      10.5031     ZZ     -51.6696
    Octopole Moments (Debye-Ang^2)
       XXX    -343.8187    XXY    -299.6162    XYY    -201.9754
       YYY    -492.3067    XXZ     -14.3612    XYZ      10.2610
       YYZ      -6.5176    XZZ     -68.4148    YZZ    -184.9044
       ZZZ     -70.5256
    Hexadecapole Moments (Debye-Ang^3)
      XXXX   -1862.4784   XXXY   -1065.5009   XXYY   -1306.6570
      XYYY   -1192.9742   YYYY   -3986.6545   XXXZ      -0.0315
      XXYZ    -117.9925   XYYZ     -50.8623   YYYZ    -329.5276
      XXZZ    -309.9565   XYZZ    -248.3725   YYZZ    -791.4142
      XZZZ     -49.4540   YZZZ    -290.4610   ZZZZ    -302.5267
 -----------------------------------------------------------------
 Calculating analytic gradient of the SCF energy
 Gradient of CDS energy
            1           2           3           4           5           6
    1   0.0026169   0.0001456   0.0001235  -0.0004061  -0.0003588   0.0000311
    2   0.0013759  -0.0000274  -0.0004008  -0.0003462   0.0003013   0.0003736
    3  -0.0000375   0.0001926   0.0001119  -0.0001392  -0.0002097   0.0000087
            7           8           9          10          11          12
    1  -0.0000570   0.0002150   0.0000095  -0.0001590  -0.0025132   0.0003272
    2   0.0000312  -0.0000124  -0.0002079   0.0000831  -0.0013405   0.0002290
    3   0.0001970   0.0000092   0.0000041  -0.0000974   0.0002520  -0.0001432
           13          14          15          16
    1  -0.0000022   0.0001050   0.0000573  -0.0001349
    2  -0.0000727  -0.0000907   0.0002119  -0.0001074
    3  -0.0000824   0.0000202   0.0000003  -0.0000866
 Gradient of SCF Energy
            1           2           3           4           5           6
    1   0.0139814  -0.0117670   0.0268996  -0.0152687   0.0025773   0.0109162
    2   0.0060412   0.0000011   0.0050248  -0.0001312   0.0057852  -0.0158599
    3  -0.0151292  -0.0094337   0.0115100   0.0108936  -0.0031203   0.0123537
            7           8           9          10          11          12
    1  -0.0067391   0.0003035  -0.0018461  -0.0173287   0.0096950  -0.0065411
    2   0.0016078  -0.0029729  -0.0167761   0.0081919   0.0016340   0.0014113
    3   0.0131861   0.0058363   0.0013192  -0.0093423  -0.0014452   0.0023455
           13          14          15          16
    1   0.0103138  -0.0026052  -0.0026189  -0.0099722
    2  -0.0036446   0.0032622   0.0154544  -0.0090293
    3  -0.0018594  -0.0037426  -0.0011050  -0.0122668
 Max gradient component =       2.690E-02
 RMS gradient           =       9.555E-03
 Computing fast CPCM-SWIG gradient
 Updating gradient with PCM contributions...
 -- total gradient after adding PCM contribution --
---------------------------------------------------
  Atom         X              Y              Z     
---------------------------------------------------
   1      -0.001426       0.001174       0.002506
   2      -0.006826      -0.006681      -0.001925
   3       0.016089       0.005889       0.004401
   4      -0.020395      -0.005891       0.001871
   5       0.004381       0.004443      -0.001238
   6      -0.000190      -0.002582      -0.001478
   7       0.000770       0.000434      -0.000849
   8      -0.000442       0.000007       0.000098
   9      -0.000658      -0.001154       0.000363
  10      -0.000095      -0.000390       0.000753
  11       0.000903       0.000671      -0.000336
  12      -0.000106      -0.000387      -0.000424
  13       0.002191      -0.001070       0.000302
  14      -0.000538       0.001937      -0.001844
  15      -0.000330       0.000026       0.000212
  16       0.006672       0.003573      -0.002412
---------------------------------------------------
 Number of fixed atoms: 0
 Gradient time:  CPU 229.35 s  wall 19.22 s
 ----------------------------------------------------------------
             Standard Nuclear Orientation (Angstroms)
    I     Atom           X                Y                Z
 ----------------------------------------------------------------
    1      C       1.1740722000     4.3284681000     1.4044916000
    2      C       1.2900490000     2.8659074000     1.3056992000
    3      C       0.2477875000     2.1103158000     0.8466715000
    4      C      -0.8522231000     2.7384137000     0.2606315000
    5      C      -0.9195436000     4.1530214000     0.1234145000
    6      C       0.0749914000     4.9194035000     0.6145665000
    7      H       0.7877101000     4.4456812000     2.4439163000
    8      H       2.1668492000     2.4131264000     1.7463224000
    9      H       0.2973690000     1.0303740000     0.8678941000
   10      H      -1.7597968000     4.5922198000    -0.3916219000
   11      O       2.4019152000     5.0090348000     1.3330490000
   12      H       2.8345964000     4.6218501000     0.5503276000
   13      O       3.8740570000     2.5953614000    -0.3987496000
   14      O       2.7122173000     3.1525579000    -0.6680977000
   15      H       0.0616654000     5.9972999000     0.5210341000
   16      H      -1.6027612000     2.1407203000    -0.2212745000
 ----------------------------------------------------------------
 Nuclear Repulsion Energy =         432.18267144 hartrees
 There are       34 alpha and       33 beta electrons
 Discretize the solute cavity surface with Lebedev spheres
	Using 110 Lebedev grid points for each H atom
	Using 194 Lebedev grid points for other atoms
	Atomic van der Waals radii will be scaled by 1.20
 Remove points where switching function is < 1.0e-08
 Keep 1258 surface tesserae and discard 1258 interior tesserae
 Molecular Surface Area = 150.891 Angst**2
 Requested basis set is 6-311++G(2df,2p)
 There are 114 shells and 376 basis functions
 A cutoff of  1.0D-11 yielded   5883 shell pairs
 There are     64158 function pairs (     80140 Cartesian)
 Smallest overlap matrix eigenvalue = 1.56E-06

 Q-Chem warning in module stvman/mkSTV.C, line 323:

 Overlap eigenvalue is smaller than square root of threshold
 Use THRESH >= 12 to get rid of this warning

 Guess MOs from SCF MO coefficient file

 -----------------------------------------------------------------------
  General SCF calculation program by
  Eric Jon Sundstrom, Paul Horn, Yuezhi Mao, Dmitri Zuev, Alec White,
  David Stuck, Shaama M.S., Shane Yost, Joonho Lee, David Small,
  Daniel Levine, Susi Lehtola, Hugh Burton, Evgeny Epifanovsky,
  Bang C. Huynh
 -----------------------------------------------------------------------
 Exchange:     0.1500 Hartree-Fock + 1.0000 wB97M-V + LR-HF
 Correlation:  1.0000 wB97M-V
 Using SG-2 standard quadrature grid
 Nonlocal Correlation:  VV10 with C = 0.0100 and b = 6.00 and scale = 1.00000
 Grid used for NLC:  SG-1 standard quadrature
 
 Citation of the SMD model:
 Marenich, A.V.; Cramer, C.J.; Truhlar, D.G.
 J. Phys. Chem. B 2009, 113, 6378-6396.
 iSolventCode=           1
 Solvent: water                                                           
 
 vradii
            1           2           3           4           5           6
    1   1.8500000   1.8500000   1.8500000   1.8500000   1.8500000   1.8500000
            7           8           9          10          11          12
    1   1.2000000   1.2000000   1.2000000   1.2000000   1.5200000   1.2000000
           13          14          15          16
    1   1.5200000   1.5200000   1.2000000   1.2000000
 -------------------------------------------------------
 OpenMP BLAS3 based DFT computing Module                
 Release: version 1.0, May 2013, Q-Chem Inc. Pittsburgh 
 -------------------------------------------------------
 A unrestricted SCF calculation will be
 performed using Roothaan-Hall, DIIS, GDM
 SCF converges when RMS gradient is below 1.0e-06
 ---------------------------------------
  Cycle       Energy         DIIS error
 ---------------------------------------
    1    -458.2490584651      2.68e-04  Roothaan Step
 ---------------------------------------
  Cycle       Energy         DIIS error
 ---------------------------------------
    1    -458.2931784434      3.82e-04  
    2    -458.3033922932      4.09e-04  Done DIIS. Switching to GDM
 ---------------------------------------
  Cycle       Energy        RMS Gradient
 ---------------------------------------
    1    -458.3033922932      2.17e-02   Normal BFGS step
    2    -458.3048405249      5.60e-02   Normal BFGS step
    3    -458.3127257468      1.38e-02   Normal BFGS step
    4    -458.3130643837      8.46e-03   Normal BFGS step
    5    -458.3132580302      3.28e-03   Normal BFGS step
    6    -458.3133115286      2.83e-03   Normal BFGS step
    7    -458.3133281825      1.21e-03   Normal BFGS step
    8    -458.3133363746      9.28e-04   Normal BFGS step
    9    -458.3133404168      4.71e-04   Normal BFGS step
   10    -458.3133415795      3.90e-04   Normal BFGS step
   11    -458.3133420982      2.80e-04   Normal BFGS step
   12    -458.3133424486      1.87e-04   Normal BFGS step
   13    -458.3133426789      1.79e-04   Normal BFGS step
   14    -458.3133428196      1.79e-04   Normal BFGS step
   15    -458.3133429746      1.80e-04   Normal BFGS step
   16    -458.3133431466      1.70e-04   Normal BFGS step
   17    -458.3133433888      2.12e-04   Normal BFGS step
   18    -458.3133436863      2.54e-04   Normal BFGS step
   19    -458.3133439563      2.44e-04   Normal BFGS step
   20    -458.3133441032      1.19e-04   Normal BFGS step
   21    -458.3133441537      4.74e-05   Normal BFGS step
   22    -458.3133441682      1.99e-05   Normal BFGS step
   23    -458.3133441718      1.40e-05   Normal BFGS step
   24    -458.3133441727      5.91e-06   Normal BFGS step
   25    -458.3133441730      1.82e-06   Normal BFGS step
   26    -458.3133441730      7.07e-07  Convergence criterion met
 ---------------------------------------
 SCF time:   CPU 2362.49s  wall 160.00s 
<S^2> =          0.758779716
(3)  G-ENP(liq) elect-nuc-pol free energy of system     -458.313344173 a.u.
(4)  G-CDS(liq) cavity-dispersion-solvent structure 
     free energy                                                2.3650 kcal/mol
(6)  G-S(liq) free energy of system                     -458.309575372 a.u.
 SCF   energy in the final basis set =     -458.3095753724
 Total energy in the final basis set =     -458.3095753724
 
 --------------------------------------------------------------
 
                    Orbital Energies (a.u.)
 --------------------------------------------------------------
 
 Alpha MOs
 -- Occupied --
-19.3645 -19.3572 -19.3496 -10.4285 -10.4134 -10.4108 -10.3934 -10.3695
-10.3682  -1.2431  -1.1785  -1.0139  -0.9131  -0.8937  -0.8825  -0.7660
 -0.7498  -0.6711  -0.6392  -0.6038  -0.5921  -0.5759  -0.5598  -0.5455
 -0.5394  -0.5217  -0.5060  -0.4798  -0.4704  -0.4444  -0.4152  -0.3815
 -0.3386  -0.3066
 -- Virtual --
 -0.0542   0.0257   0.0377   0.0393   0.0481   0.0506   0.0600   0.0608
  0.0816   0.1001   0.1045   0.1122   0.1349   0.1382   0.1439   0.1515
  0.1544   0.1602   0.1611   0.1618   0.1662   0.1697   0.1740   0.1795
  0.1835   0.1885   0.1945   0.2045   0.2137   0.2198   0.2239   0.2314
  0.2374   0.2468   0.2590   0.2668   0.2759   0.2870   0.2984   0.3064
  0.3134   0.3155   0.3250   0.3307   0.3356   0.3451   0.3624   0.3662
  0.3675   0.3725   0.3800   0.3895   0.3980   0.4072   0.4185   0.4384
  0.4456   0.4778   0.4839   0.5143   0.5297   0.5342   0.5569   0.5754
  0.5844   0.5894   0.5941   0.6068   0.6149   0.6259   0.6320   0.6575
  0.6694   0.6767   0.6979   0.7012   0.7054   0.7215   0.7314   0.7328
  0.7490   0.7595   0.7786   0.7814   0.8047   0.8094   0.8185   0.8295
  0.8335   0.8408   0.8452   0.8534   0.8601   0.8816   0.9120   0.9446
  0.9509   1.0172   1.0354   1.0735   1.0775   1.0799   1.0963   1.1077
  1.1160   1.1377   1.1490   1.1512   1.1730   1.1792   1.1928   1.2174
  1.2243   1.2448   1.2510   1.2644   1.2791   1.2881   1.2913   1.3202
  1.3249   1.3395   1.3543   1.3556   1.3737   1.3925   1.4002   1.4171
  1.4351   1.4384   1.4514   1.4553   1.4782   1.4877   1.4942   1.5025
  1.5268   1.5411   1.5561   1.5630   1.5813   1.6022   1.6283   1.6391
  1.6558   1.6734   1.7125   1.7368   1.7506   1.7781   1.7945   1.8153
  1.8386   1.8575   1.9235   1.9401   1.9584   2.0293   2.0387   2.0684
  2.0910   2.1113   2.1960   2.2442   2.3265   2.3310   2.3617   2.4492
  2.4759   2.5743   2.6016   2.6124   2.6188   2.6382   2.6825   2.7059
  2.7549   2.7817   2.7920   2.8015   2.8039   2.8199   2.8298   2.8550
  2.8676   2.8731   2.8826   2.8983   2.9116   2.9397   2.9591   2.9665
  2.9915   3.0027   3.0366   3.0620   3.0818   3.1222   3.1463   3.1598
  3.1865   3.2006   3.2285   3.2429   3.2576   3.2834   3.3054   3.3158
  3.3303   3.3393   3.3616   3.3811   3.4058   3.4119   3.4524   3.4561
  3.4752   3.4904   3.5010   3.5130   3.5214   3.5490   3.5801   3.6047
  3.6293   3.6382   3.7057   3.7250   3.7347   3.7446   3.7811   3.7911
  3.8126   3.8384   3.8492   3.8742   3.8794   3.8983   3.9158   3.9395
  3.9770   3.9955   4.0038   4.0112   4.0268   4.0821   4.1384   4.1608
  4.1864   4.2142   4.2514   4.2760   4.3043   4.3194   4.3324   4.3533
  4.3686   4.4010   4.4378   4.4649   4.4775   4.5160   4.5498   4.5657
  4.5887   4.6132   4.6230   4.6475   4.6780   4.6908   4.7051   4.7261
  4.7323   4.7744   4.7868   4.7985   4.8488   4.9459   4.9610   5.0309
  5.0665   5.0893   5.1162   5.1187   5.1270   5.1766   5.1997   5.2190
  5.2371   5.2396   5.2498   5.2773   5.2846   5.3329   5.3467   5.3676
  5.3843   5.4433   5.4491   5.5669   5.6173   5.6263   5.6276   5.6472
  5.6912   5.7245   5.7471   5.8211   5.8954   5.9626   6.0843   6.2232
  6.4148   6.4759   6.5102   6.7038   6.8277   6.8596   6.9568   6.9802
  7.0756   7.0898   7.1441   7.1621   7.3438   7.4003   7.4182   7.4551
  7.5037   7.6645   7.8227   7.9817   8.0221  24.2207  24.5753  24.8059
 24.8435  25.0653  25.3761  50.4497  50.5359  50.6291
 
 Beta MOs
 -- Occupied --
-19.3504 -19.3495 -19.3417 -10.4285 -10.4136 -10.4109 -10.3935 -10.3695
-10.3681  -1.2138  -1.1780  -1.0140  -0.9128  -0.8937  -0.8404  -0.7660
 -0.7499  -0.6707  -0.6387  -0.6036  -0.5912  -0.5738  -0.5594  -0.5195
 -0.5169  -0.4976  -0.4820  -0.4728  -0.4539  -0.4439  -0.4144  -0.3777
 -0.2843
 -- Virtual --
 -0.0557   0.0184   0.0260   0.0379   0.0398   0.0492   0.0508   0.0602
  0.0614   0.0822   0.1008   0.1046   0.1131   0.1353   0.1387   0.1447
  0.1525   0.1546   0.1606   0.1618   0.1622   0.1665   0.1701   0.1753
  0.1801   0.1846   0.1888   0.1965   0.2051   0.2146   0.2208   0.2243
  0.2325   0.2390   0.2477   0.2594   0.2685   0.2779   0.2899   0.3053
  0.3091   0.3145   0.3164   0.3260   0.3351   0.3379   0.3461   0.3635
  0.3676   0.3699   0.3741   0.3833   0.3902   0.4003   0.4095   0.4187
  0.4391   0.4461   0.4791   0.4862   0.5143   0.5299   0.5344   0.5572
  0.5755   0.5847   0.5894   0.5942   0.6070   0.6151   0.6261   0.6326
  0.6577   0.6697   0.6768   0.6980   0.7012   0.7057   0.7216   0.7315
  0.7330   0.7492   0.7595   0.7788   0.7819   0.8049   0.8094   0.8193
  0.8298   0.8343   0.8409   0.8455   0.8537   0.8604   0.8817   0.9126
  0.9457   0.9522   1.0193   1.0367   1.0743   1.0810   1.0832   1.0990
  1.1092   1.1207   1.1411   1.1511   1.1547   1.1758   1.1869   1.2047
  1.2250   1.2312   1.2471   1.2537   1.2700   1.2843   1.2915   1.2941
  1.3219   1.3311   1.3421   1.3550   1.3579   1.3752   1.3949   1.4050
  1.4175   1.4379   1.4388   1.4519   1.4578   1.4796   1.4954   1.5000
  1.5112   1.5288   1.5461   1.5583   1.5638   1.5832   1.6036   1.6306
  1.6450   1.6752   1.6890   1.7207   1.7383   1.7535   1.7781   1.7962
  1.8255   1.8467   1.8661   1.9322   1.9413   1.9592   2.0301   2.0391
  2.0754   2.0949   2.1138   2.1989   2.2588   2.3286   2.3558   2.3690
  2.4523   2.4774   2.5743   2.6015   2.6123   2.6186   2.6381   2.6844
  2.7122   2.7554   2.7813   2.7919   2.8016   2.8040   2.8209   2.8296
  2.8551   2.8677   2.8731   2.8825   2.8981   2.9112   2.9396   2.9590
  2.9666   2.9917   3.0023   3.0362   3.0618   3.0817   3.1220   3.1462
  3.1596   3.1864   3.2004   3.2283   3.2426   3.2575   3.2834   3.3053
  3.3157   3.3301   3.3392   3.3613   3.3809   3.4057   3.4119   3.4523
  3.4558   3.4748   3.4903   3.5011   3.5128   3.5212   3.5487   3.5798
  3.6044   3.6292   3.6380   3.7055   3.7251   3.7346   3.7445   3.7808
  3.7911   3.8124   3.8384   3.8490   3.8740   3.8793   3.8983   3.9157
  3.9394   3.9769   3.9954   4.0035   4.0110   4.0266   4.0820   4.1383
  4.1608   4.1863   4.2141   4.2512   4.2759   4.3043   4.3191   4.3321
  4.3531   4.3699   4.4012   4.4377   4.4649   4.4774   4.5159   4.5503
  4.5658   4.5895   4.6146   4.6489   4.6568   4.6784   4.6959   4.7056
  4.7276   4.7332   4.7920   4.8034   4.8175   4.8599   4.9458   4.9612
  5.0319   5.0702   5.1164   5.1333   5.1573   5.1932   5.2036   5.2077
  5.2450   5.2598   5.2667   5.2675   5.3038   5.3340   5.3374   5.3503
  5.3820   5.4015   5.4489   5.4503   5.5679   5.6253   5.6316   5.6555
  5.6635   5.6913   5.7257   5.7472   5.8208   5.8953   5.9627   6.0842
  6.2231   6.4147   6.5214   6.5235   6.7056   6.8970   6.9306   7.0099
  7.0411   7.1073   7.1398   7.1572   7.1897   7.3467   7.4016   7.4431
  7.4925   7.5171   7.6662   7.8231   8.0008   8.0405  24.2207  24.5753
 24.8058  24.8435  25.0653  25.3760  50.4612  50.5466  50.6294
 --------------------------------------------------------------
 
          Ground-State Mulliken Net Atomic Charges

     Atom                 Charge (a.u.)    Spin (a.u.)
  --------------------------------------------------------
      1 C                    -0.733448      -0.010327
      2 C                     0.531874       0.003471
      3 C                    -0.726862      -0.003361
      4 C                     0.213998      -0.003263
      5 C                    -0.612617       0.004618
      6 C                     0.365430      -0.006568
      7 H                     0.233937      -0.001648
      8 H                     0.342499      -0.000737
      9 H                     0.292352       0.000196
     10 H                     0.298187       0.000050
     11 O                    -0.364211       0.001632
     12 H                     0.313559      -0.001407
     13 O                    -0.438947       0.545068
[...]
  --------------------------------------------------------
      1 C                    -0.712222      -0.021428
      2 C                     0.522077       0.023949
      3 C                    -0.744332      -0.022908
      4 C                     0.252209       0.016268
      5 C                    -0.645166      -0.005377
      6 C                     0.383107       0.006325
      7 H                     0.240265       0.000290
      8 H                     0.342674      -0.000315
      9 H                     0.291274      -0.000935
     10 H                     0.293269      -0.000086
     11 O                    -0.365640       0.001863
     12 H                     0.311604      -0.000458
     13 O                    -0.458501       0.537003
     14 O                    -0.344984       0.465343
     15 H                     0.324683      -0.000095
     16 H                     0.309684       0.000560
  --------------------------------------------------------
  Sum of atomic charges =     0.000000
  Sum of spin   charges =     1.000000

 -----------------------------------------------------------------
                    Cartesian Multipole Moments
 -----------------------------------------------------------------
    Charge (ESU x 10^10)
                 0.0000
    Dipole Moment (Debye)
         X     -13.9867      Y       0.8223      Z       4.5379
       Tot      14.7274
    Quadrupole Moments (Debye-Ang)
        XX     -95.6320     XY     -43.6562     YY     -42.3807
        XZ       7.7872     YZ      11.2069     ZZ     -51.5864
    Octopole Moments (Debye-Ang^2)
       XXX    -367.3117    XXY    -311.6104    XYY    -215.0786
       YYY    -487.7923    XXZ     -13.1917    XYZ      10.4398
       YYZ      -3.3316    XZZ     -69.6140    YZZ    -184.8044
       ZZZ     -69.6989
    Hexadecapole Moments (Debye-Ang^3)
      XXXX   -2003.6445   XXXY   -1132.0542   XXYY   -1354.0172
      XYYY   -1249.8666   YYYY   -3956.6017   XXXZ       4.4033
      XXYZ    -112.9368   XYYZ     -47.8673   YYYZ    -310.7926
      XXZZ    -318.3653   XYZZ    -252.1180   YYZZ    -789.4409
      XZZZ     -47.8472   YZZZ    -285.1110   ZZZZ    -292.4264
 -----------------------------------------------------------------
 Calculating analytic gradient of the SCF energy
 Gradient of CDS energy
            1           2           3           4           5           6
    1   0.0036463   0.0001621   0.0001001  -0.0003552  -0.0003806   0.0000397
    2   0.0019444  -0.0000191  -0.0004285  -0.0003037   0.0002743   0.0003907
    3  -0.0000351   0.0002059   0.0001011  -0.0001478  -0.0002046   0.0000082
            7           8           9          10          11          12
    1  -0.0000650   0.0002095   0.0000082  -0.0001620  -0.0035215   0.0003158
    2   0.0000223  -0.0000105  -0.0002053   0.0000833  -0.0019027   0.0002291
    3   0.0001934   0.0000080   0.0000050  -0.0000940   0.0002408  -0.0001372
           13          14          15          16
    1   0.0000047   0.0000980   0.0000571  -0.0001570
    2  -0.0000650  -0.0001042   0.0002108  -0.0001158
    3  -0.0000821   0.0000116   0.0000013  -0.0000745
 Gradient of SCF Energy
            1           2           3           4           5           6
    1   0.0159987  -0.0045434   0.0123639   0.0054889  -0.0012982   0.0114927
    2   0.0041366   0.0070115  -0.0003772   0.0044866   0.0029912  -0.0137409
    3  -0.0201840  -0.0069874   0.0090214   0.0032542   0.0021524   0.0128130
            7           8           9          10          11          12
    1  -0.0081527   0.0005359  -0.0010837  -0.0188211   0.0098783  -0.0075312
    2   0.0009190  -0.0029848  -0.0168103   0.0094496   0.0005031   0.0019863
    3   0.0148012   0.0057973   0.0012136  -0.0100814  -0.0017777   0.0034806
           13          14          15          16
    1   0.0095276  -0.0027710  -0.0022539  -0.0188308
    2  -0.0040045   0.0030631   0.0166198  -0.0132492
    3  -0.0015675  -0.0024922  -0.0015511  -0.0078923
 Max gradient component =       2.018E-02
 RMS gradient           =       9.056E-03
 Computing fast CPCM-SWIG gradient
 Updating gradient with PCM contributions...
 -- total gradient after adding PCM contribution --
---------------------------------------------------
  Atom         X              Y              Z     
---------------------------------------------------
   1       0.000001      -0.000003       0.000003
   2       0.000013      -0.000003      -0.000010
   3      -0.000007      -0.000005      -0.000007
   4       0.000011      -0.000005      -0.000015
   5      -0.000003       0.000001       0.000012
   6      -0.000008      -0.000001       0.000012
   7      -0.000000      -0.000016       0.000005
   8       0.000006      -0.000003      -0.000009
   9       0.000010      -0.000003      -0.000019
  10      -0.000005      -0.000001       0.000012
  11      -0.000005       0.000007       0.000009
  12      -0.000001       0.000001      -0.000001
  13      -0.000001       0.000023      -0.000021
  14      -0.000003       0.000016       0.000008
  15      -0.000008      -0.000002       0.000019
  16       0.000000      -0.000004       0.000003
---------------------------------------------------
 Number of fixed atoms: 0
 Gradient time:  CPU 261.23 s  wall 21.68 s
 Geometry Optimization Parameters
   NAtoms,    NIC,     NZ,  NCons,   NDum,   NFix, NCnnct, MaxDiis
       16     105       0       0       0       0       0       0

 Cartesian Hessian Update
 Hessian updated using Powell/Murtagh-Sargent update
  Mixing factors:     0.999499 Powell                      0.000501 Murtagh-Sargent


** GEOMETRY OPTIMIZATION IN DELOCALIZED INTERNAL COORDINATES **
   Searching for a Transition State

   Optimization Cycle:   8

                       Coordinates (Angstroms)
     ATOM                X               Y               Z
      1  C         1.1721199476    4.3194969512    1.3611603150
      2  C         1.2828169949    2.8626384628    1.2846857499
      3  C         0.2326112362    2.1060064573    0.8284041854
      4  C        -0.8590349677    2.7506815480    0.2620922090
      5  C        -0.9452901903    4.1560898597    0.1340564971
      6  C         0.0644170044    4.9252301395    0.6034264526
      7  H         0.7614088085    4.4112255700    2.4022060087
      8  H         2.1639907381    2.4133293287    1.7209388077
      9  H         0.2754833950    1.0279742641    0.8547354828
     10  H        -1.7983455325    4.5945485881   -0.3608268164
     11  O         2.3969503572    5.0011426767    1.3171576594
     12  H         2.8495354084    4.5879889130    0.5532675708
     13  O         3.9613766700    2.5918664849   -0.3393291319
     14  O         2.8479937976    3.2104667919   -0.6782138380
     15  H         0.0559497010    6.0035408755    0.5173760217
     16  H        -1.6730283685    2.1505287887   -0.1228625739
   Point Group: c1    Number of degrees of freedom:    42


   Energy is   -458.310296902

 Hessian updated using Powell/Murtagh-Sargent update
  Mixing factors:     0.919441 Powell                      0.080559 Murtagh-Sargent

 42 Hessian modes will be used to form the next step
  Hessian Eigenvalues:
    -0.147075    0.002476    0.004576    0.007151    0.012076    0.013089
     0.016219    0.019347    0.021535    0.022324    0.022937    0.028004
     0.035033    0.040567    0.052373    0.064168    0.087235    0.102278
     0.104668    0.106798    0.119864    0.122078    0.154337    0.182506
     0.188118    0.196265    0.211522    0.284291    0.303338    0.313374
     0.363555    0.364329    0.367266    0.368112    0.377707    0.382548
     0.435184    0.464808    0.476383    0.495003    0.548651    0.585599

 Transition state search - taking P-RFO step
 Searching for Lamda that Maximizes Along the Lowest mode
 Value Taken    Lamda =   0.00000000
 Searching for Lamda that Minimizes Along All other modes
 Value Taken    Lamda =  -0.00000003
 Step Taken.  Stepsize is  0.002175

                             Maximum     Tolerance    Cnvgd?
         Gradient           0.000019      0.000300     YES
         Displacement       0.000921      0.001200     YES
         Energy change     -0.000000      0.000001     YES

 Final energy is   -458.310296902409     


 ******************************
 **  OPTIMIZATION CONVERGED  **
 ******************************

                       Coordinates (Angstroms)
     ATOM                X               Y               Z
      1  C         1.1721199476    4.3194969512    1.3611603150
      2  C         1.2828169949    2.8626384628    1.2846857499
      3  C         0.2326112362    2.1060064573    0.8284041854
      4  C        -0.8590349677    2.7506815480    0.2620922090
      5  C        -0.9452901903    4.1560898597    0.1340564971
      6  C         0.0644170044    4.9252301395    0.6034264526
      7  H         0.7614088085    4.4112255700    2.4022060087
      8  H         2.1639907381    2.4133293287    1.7209388077
      9  H         0.2754833950    1.0279742641    0.8547354828
     10  H        -1.7983455325    4.5945485881   -0.3608268164
     11  O         2.3969503572    5.0011426767    1.3171576594
     12  H         2.8495354084    4.5879889130    0.5532675708
     13  O         3.9613766700    2.5918664849   -0.3393291319
     14  O         2.8479937976    3.2104667919   -0.6782138380
     15  H         0.0559497010    6.0035408755    0.5173760217
     16  H        -1.6730283685    2.1505287887   -0.1228625739

Z-matrix Print:
$molecule
0 2
O 
H  1 0.979315
C  1 1.402422 2 102.887768
H  3 1.122886 1 107.988759 2 157.696026 0
C  3 1.463058 1 114.599266 2 48.381418 0
H  5 1.081047 3 117.029027 1 32.063127 0
C  5 1.372449 3 120.560348 1 -155.808242 0
H  7 1.079206 5 120.809897 3 -174.359990 0
C  7 1.388527 5 118.765677 3 9.179500 0
H  9 1.082108 7 118.619187 5 178.253259 0
C  9 1.413862 7 123.120933 5 -0.165656 0
H  11 1.079286 9 119.574970 7 176.904732 0
C  11 1.353290 9 119.210767 7 -1.288166 0
H  13 1.081772 11 122.215195 9 179.038343 0
O  2 1.847733 1 146.512677 3 -10.874295 0
O  15 1.318003 2 100.243788 1 -116.177512 0
$end

 
 --------------------------------------------------------------
 
                    Orbital Energies (a.u.)
 --------------------------------------------------------------
 
 Alpha MOs
 -- Occupied --
-19.3586 -19.3533 -19.3486 -10.4315 -10.4142 -10.4111 -10.3984 -10.3718
-10.3706  -1.2384  -1.1787  -1.0176  -0.9151  -0.8969  -0.8801  -0.7655
 -0.7543  -0.6718  -0.6389  -0.6068  -0.5938  -0.5777  -0.5631  -0.5419
 -0.5362  -0.5203  -0.5012  -0.4831  -0.4753  -0.4436  -0.4152  -0.3831
 -0.3354  -0.3057
 -- Virtual --
 -0.0537   0.0256   0.0375   0.0392   0.0449   0.0507   0.0595   0.0607
  0.0813   0.1004   0.1041   0.1131   0.1348   0.1384   0.1447   0.1519
  0.1535   0.1577   0.1610   0.1623   0.1656   0.1696   0.1731   0.1796
  0.1840   0.1882   0.1935   0.2054   0.2148   0.2205   0.2241   0.2318
  0.2375   0.2467   0.2575   0.2645   0.2820   0.2900   0.2987   0.3063
  0.3120   0.3144   0.3230   0.3272   0.3376   0.3484   0.3579   0.3631
  0.3654   0.3740   0.3860   0.3902   0.3966   0.4083   0.4183   0.4371
  0.4440   0.4734   0.4855   0.5137   0.5297   0.5300   0.5590   0.5755
  0.5814   0.5891   0.5911   0.6059   0.6135   0.6255   0.6284   0.6614
  0.6707   0.6792   0.6986   0.7033   0.7098   0.7240   0.7274   0.7291
  0.7472   0.7607   0.7769   0.7792   0.8014   0.8092   0.8206   0.8256
  0.8330   0.8429   0.8464   0.8526   0.8593   0.8877   0.9075   0.9377
  0.9536   1.0178   1.0301   1.0689   1.0765   1.0911   1.0977   1.1016
  1.1176   1.1435   1.1458   1.1514   1.1716   1.1725   1.1936   1.2171
  1.2232   1.2396   1.2508   1.2615   1.2761   1.2873   1.2916   1.3203
  1.3237   1.3357   1.3504   1.3576   1.3745   1.3921   1.4004   1.4176
  1.4298   1.4403   1.4416   1.4553   1.4717   1.4830   1.4965   1.5077
  1.5311   1.5382   1.5555   1.5615   1.5751   1.5958   1.6301   1.6421
  1.6633   1.6721   1.7131   1.7388   1.7563   1.7777   1.7903   1.8138
  1.8434   1.8562   1.9136   1.9465   1.9546   2.0329   2.0539   2.0834
  2.1145   2.1168   2.2062   2.2528   2.3292   2.3435   2.3702   2.4578
  2.4832   2.5711   2.5896   2.6155   2.6176   2.6385   2.6880   2.7055
  2.7507   2.7852   2.7893   2.7981   2.7994   2.8211   2.8252   2.8516
  2.8662   2.8684   2.8834   2.9055   2.9104   2.9332   2.9524   2.9670
  2.9836   2.9953   3.0434   3.0580   3.0744   3.1253   3.1476   3.1618
  3.1780   3.1970   3.2235   3.2359   3.2547   3.2750   3.2912   3.3145
  3.3228   3.3420   3.3714   3.3834   3.4102   3.4138   3.4457   3.4532
  3.4802   3.4849   3.4982   3.5126   3.5197   3.5466   3.5696   3.5950
  3.6192   3.6303   3.7078   3.7233   3.7353   3.7495   3.7877   3.8064
  3.8147   3.8359   3.8571   3.8732   3.8835   3.8945   3.9087   3.9322
  3.9632   3.9913   4.0034   4.0136   4.0241   4.0905   4.1364   4.1568
  4.1808   4.1991   4.2491   4.2826   4.3007   4.3241   4.3343   4.3499
  4.3743   4.4109   4.4479   4.4692   4.4773   4.5121   4.5407   4.5653
  4.5892   4.6173   4.6236   4.6423   4.6785   4.6934   4.7019   4.7322
  4.7458   4.7764   4.7788   4.7972   4.8444   4.9479   4.9625   5.0337
  5.0662   5.0920   5.1147   5.1215   5.1290   5.1782   5.1993   5.2204
  5.2354   5.2399   5.2547   5.2764   5.2841   5.3346   5.3519   5.3663
  5.3857   5.4440   5.4514   5.5654   5.6148   5.6276   5.6345   5.6398
  5.6972   5.7338   5.7573   5.8067   5.8935   5.9610   6.1110   6.2295
  6.4430   6.4720   6.5073   6.7138   6.8308   6.8628   6.9582   6.9771
  7.0722   7.1052   7.1484   7.1616   7.3373   7.4058   7.4181   7.4519
  7.5113   7.6614   7.8282   7.9797   8.0268  24.2114  24.5936  24.8017
 24.8551  25.0504  25.3882  50.4531  50.5395  50.6352
 
 Beta MOs
 -- Occupied --
-19.3486 -19.3449 -19.3381 -10.4315 -10.4144 -10.4111 -10.3984 -10.3717
-10.3705  -1.2096  -1.1781  -1.0176  -0.9149  -0.8969  -0.8382  -0.7653
 -0.7543  -0.6714  -0.6383  -0.6066  -0.5929  -0.5762  -0.5627  -0.5172
 -0.5145  -0.4932  -0.4846  -0.4770  -0.4526  -0.4428  -0.4140  -0.3794
 -0.2852
 -- Virtual --
 -0.0549   0.0195   0.0260   0.0378   0.0397   0.0466   0.0514   0.0597
  0.0613   0.0819   0.1010   0.1042   0.1140   0.1354   0.1389   0.1453
  0.1527   0.1536   0.1584   0.1612   0.1626   0.1660   0.1700   0.1743
  0.1804   0.1853   0.1886   0.1958   0.2059   0.2157   0.2212   0.2247
  0.2327   0.2393   0.2475   0.2579   0.2662   0.2835   0.2926   0.3052
  0.3091   0.3139   0.3158   0.3241   0.3304   0.3398   0.3500   0.3610
  0.3649   0.3674   0.3748   0.3878   0.3918   0.3996   0.4094   0.4184
  0.4379   0.4444   0.4747   0.4879   0.5137   0.5300   0.5303   0.5593
  0.5757   0.5816   0.5892   0.5911   0.6061   0.6138   0.6259   0.6289
  0.6615   0.6712   0.6793   0.6988   0.7035   0.7100   0.7242   0.7276
  0.7295   0.7475   0.7609   0.7769   0.7800   0.8017   0.8097   0.8213
  0.8262   0.8334   0.8431   0.8469   0.8528   0.8595   0.8878   0.9084
  0.9385   0.9553   1.0197   1.0318   1.0721   1.0778   1.0941   1.1002
  1.1025   1.1212   1.1463   1.1470   1.1549   1.1754   1.1831   1.2014
  1.2257   1.2304   1.2443   1.2530   1.2673   1.2819   1.2906   1.2961
  1.3239   1.3260   1.3373   1.3521   1.3582   1.3759   1.3947   1.4046
  1.4181   1.4319   1.4409   1.4438   1.4567   1.4773   1.4916   1.5035
  1.5096   1.5331   1.5456   1.5576   1.5623   1.5771   1.5979   1.6324
  1.6478   1.6813   1.6895   1.7197   1.7409   1.7585   1.7779   1.7915
  1.8264   1.8540   1.8626   1.9222   1.9482   1.9553   2.0331   2.0541
  2.0850   2.1172   2.1251   2.2121   2.2643   2.3443   2.3556   2.3770
  2.4612   2.4848   2.5712   2.5897   2.6156   2.6177   2.6386   2.6888
  2.7131   2.7510   2.7853   2.7895   2.7982   2.7998   2.8217   2.8253
  2.8519   2.8663   2.8685   2.8834   2.9057   2.9104   2.9333   2.9524
  2.9673   2.9839   2.9952   3.0433   3.0579   3.0744   3.1253   3.1477
  3.1617   3.1779   3.1970   3.2234   3.2358   3.2547   3.2750   3.2913
  3.3144   3.3228   3.3420   3.3713   3.3834   3.4103   3.4138   3.4456
  3.4533   3.4801   3.4849   3.4983   3.5126   3.5196   3.5465   3.5695
  3.5950   3.6192   3.6302   3.7078   3.7234   3.7353   3.7494   3.7877
  3.8064   3.8147   3.8360   3.8571   3.8732   3.8836   3.8946   3.9088
  3.9322   3.9631   3.9913   4.0034   4.0135   4.0241   4.0906   4.1364
  4.1568   4.1808   4.1992   4.2491   4.2826   4.3009   4.3241   4.3343
  4.3498   4.3752   4.4113   4.4479   4.4692   4.4773   4.5122   4.5413
  4.5656   4.5907   4.6238   4.6452   4.6522   4.6793   4.6970   4.7023
  4.7332   4.7465   4.7796   4.8048   4.8216   4.8553   4.9480   4.9628
  5.0346   5.0682   5.1164   5.1346   5.1590   5.1943   5.2041   5.2097
  5.2462   5.2595   5.2651   5.2679   5.3069   5.3303   5.3398   5.3577
  5.3809   5.4026   5.4496   5.4521   5.5663   5.6229   5.6355   5.6572
  5.6585   5.6972   5.7347   5.7575   5.8066   5.8935   5.9613   6.1110
  6.2295   6.4430   6.5181   6.5192   6.7155   6.8994   6.9327   7.0074
  7.0396   7.1032   7.1514   7.1628   7.1905   7.3410   7.4068   7.4387
  7.4940   7.5229   7.6635   7.8286   7.9980   8.0452  24.2114  24.5935
 24.8017  24.8551  25.0504  25.3882  50.4644  50.5498  50.6355
 --------------------------------------------------------------
 
          Ground-State Mulliken Net Atomic Charges

     Atom                 Charge (a.u.)    Spin (a.u.)
  --------------------------------------------------------
      1 C                    -0.712222      -0.021428
      2 C                     0.522077       0.023949
      3 C                    -0.744332      -0.022908
      4 C                     0.252209       0.016268
      5 C                    -0.645166      -0.005377
      6 C                     0.383107       0.006325
      7 H                     0.240265       0.000290
      8 H                     0.342674      -0.000315
      9 H                     0.291274      -0.000935
     10 H                     0.293269      -0.000086
     11 O                    -0.365640       0.001863
     12 H                     0.311604      -0.000458
     13 O                    -0.458501       0.537003
     14 O                    -0.344984       0.465343
     15 H                     0.324683      -0.000095
     16 H                     0.309684       0.000560
  --------------------------------------------------------
  Sum of atomic charges =     0.000000
  Sum of spin   charges =     1.000000

 -----------------------------------------------------------------
                    Cartesian Multipole Moments
 -----------------------------------------------------------------
    Charge (ESU x 10^10)
                 0.0000
    Dipole Moment (Debye)
         X     -13.9867      Y       0.8223      Z       4.5379
       Tot      14.7274
    Quadrupole Moments (Debye-Ang)
        XX     -95.6320     XY     -43.6562     YY     -42.3807
        XZ       7.7872     YZ      11.2069     ZZ     -51.5864
    Octopole Moments (Debye-Ang^2)
       XXX    -367.3117    XXY    -311.6104    XYY    -215.0786
       YYY    -487.7923    XXZ     -13.1917    XYZ      10.4398
       YYZ      -3.3316    XZZ     -69.6140    YZZ    -184.8044
       ZZZ     -69.6989
    Hexadecapole Moments (Debye-Ang^3)
      XXXX   -2003.6445   XXXY   -1132.0542   XXYY   -1354.0172
      XYYY   -1249.8666   YYYY   -3956.6017   XXXZ       4.4033
      XXYZ    -112.9368   XYYZ     -47.8673   YYYZ    -310.7926
      XXZZ    -318.3653   XYZZ    -252.1180   YYZZ    -789.4409
      XZZZ     -47.8472   YZZZ    -285.1110   ZZZZ    -292.4264
 -----------------------------------------------------------------
 Total job time:  1715.61s(wall), 24740.16s(cpu) 
 Tue May  7 23:55:22 2024

        *************************************************************
        *                                                           *
        *  Thank you very much for using Q-Chem.  Have a nice day.  *
        *                                                           *
        *************************************************************


