
Running Job 1 of 1 Q_in.in
qchem Q_in.in_94986.0 /scratch/ari.fischer/qChem2192735.hpc-mn1/qchem94986/ 0
/usr/local/qchem-5.4.1/exe/qcprog.exe_s Q_in.in_94986.0 /scratch/ari.fischer/qChem2192735.hpc-mn1/qchem94986/
                  Welcome to Q-Chem
     A Quantum Leap Into The Future Of Chemistry


 Q-Chem 5.4, Q-Chem, Inc., Pleasanton, CA (2021)

 License issued to: Nanyang Technological University (site)

 E. Epifanovsky,  A. T. B. Gilbert,  Xintian Feng,  Joonho Lee,  Yuezhi Mao,  
 N. Mardirossian,  P. Pokhilko,  A. White,  M. Wormit,  M. P. Coons,  
 A. L. Dempwolff,  Zhengting Gan,  D. Hait,  P. R. Horn,  L. D. Jacobson,  
 I. Kaliman,  J. Kussmann,  A. W. Lange,  Ka Un Lao,  D. S. Levine,  Jie Liu,  
 S. C. McKenzie,  A. F. Morrison,  K. Nanda,  F. Plasser,  D. R. Rehn,  
 M. L. Vidal,  Zhi-Qiang You,  Ying Zhu,  B. Alam,  B. Albrecht,  
 A. Aldossary,  E. Alguire,  J. H. Andersen,  D. Barton,  K. Begam,  A. Behn,  
 Y. A. Bernard,  E. J. Berquist,  H. Burton,  A. Carreras,  K. Carter-Fenk,  
 R. Chakraborty,  A. D. Chien,  K. D. Closser,  V. Cofer-Shabica,  
 S. Dasgupta,  Jia Deng,  M. de Wergifosse,  M. Diedenhofen,  Hainam Do,  
 S. Ehlert,  Po-Tung Fang,  S. Fatehi,  Qingguo Feng,  T. Friedhoff,  
 J. Gayvert,  Qinghui Ge,  G. Gidofalvi,  M. Goldey,  J. Gomes,  
 C. Gonzalez-Espinoza,  S. Gulania,  A. Gunina,  M. W. D. Hanson-Heine,  
 P. H. P. Harbach,  A. W. Hauser,  M. F. Herbst,  M. Hernandez Vera,  
 M. Hodecker,  Z. C. Holden,  S. Houck,  Xunkun Huang,  Kerwin Hui,  
 B. C. Huynh,  M. Ivanov,  Hyunjun Ji,  Hanjie Jiang,  B. Kaduk,  S. Kaehler,  
 K. Khistyaev,  Jaehoon Kim,  P. Klunzinger,  Z. Koczor-Benda,  
 Joong Hoon Koh,  D. Kosenkov,  L. Koulias,  T. Kowalczyk,  C. M. Krauter,  
 K. Kue,  A. Kunitsa,  T. Kus,  A. Landau,  K. V. Lawler,  D. Lefrancois,  
 S. Lehtola,  Rain Li,  Yi-Pei Li,  Jiashu Liang,  M. Liebenthal,  
 Hung-Hsuan Lin,  You-Sheng Lin,  Fenglai Liu,  Kuan-Yu Liu,  
 M. Loipersberger,  A. Luenser,  A. Manjanath,  P. Manohar,  E. Mansoor,  
 S. F. Manzer,  Shan-Ping Mao,  A. V. Marenich,  T. Markovich,  S. Mason,  
 S. A. Maurer,  P. F. McLaughlin,  M. F. S. J. Menger,  J.-M. Mewes,  
 S. A. Mewes,  P. Morgante,  J. W. Mullinax,  K. J. Oosterbaan,  G. Paran,  
 Alexander C. Paul,  Suranjan K. Paul,  F. Pavosevic,  Zheng Pei,  S. Prager,  
 E. I. Proynov,  E. Ramos,  B. Rana,  A. E. Rask,  A. Rettig,  R. M. Richard,  
 F. Rob,  E. Rossomme,  T. Scheele,  M. Scheurer,  M. Schneider,  
 N. Sergueev,  S. M. Sharada,  W. Skomorowski,  D. W. Small,  C. J. Stein,  
 Yu-Chuan Su,  E. J. Sundstrom,  Zhen Tao,  J. Thirman,  T. Tsuchimochi,  
 N. M. Tubman,  S. P. Veccham,  O. Vydrov,  J. Wenzel,  J. Witte,  A. Yamada,  
 Kun Yao,  S. Yeganeh,  S. R. Yost,  A. Zech,  Igor Ying Zhang,  Xing Zhang,  
 Yu Zhang,  D. Zuev,  A. Aspuru-Guzik,  A. T. Bell,  N. A. Besley,  
 K. B. Bravaya,  B. R. Brooks,  D. Casanova,  Jeng-Da Chai,  S. Coriani,  
 C. J. Cramer,  A. E. DePrince, III,  R. A. DiStasio Jr.,  A. Dreuw,  
 B. D. Dunietz,  T. R. Furlani,  W. A. Goddard III,  S. Grimme,  
 S. Hammes-Schiffer,  T. Head-Gordon,  W. J. Hehre,  Chao-Ping Hsu,  
 T.-C. Jagau,  Yousung Jung,  A. Klamt,  Jing Kong,  D. S. Lambrecht,  
 WanZhen Liang,  N. J. Mayhall,  C. W. McCurdy,  J. B. Neaton,  
 C. Ochsenfeld,  J. A. Parkhill,  R. Peverati,  V. A. Rassolov,  Yihan Shao,  
 L. V. Slipchenko,  T. Stauch,  R. P. Steele,  J. E. Subotnik,  
 A. J. W. Thom,  A. Tkatchenko,  D. G. Truhlar,  T. Van Voorhis,  
 T. A. Wesolowski,  K. B. Whaley,  H. L. Woodcock III,  P. M. Zimmerman,  
 S. Faraji,  P. M. W. Gill,  M. Head-Gordon,  J. M. Herbert,  A. I. Krylov

 Additional authors for Version 5.4.1: 
 S. Kotaru,  Shaozhi Li,  Xiangyuan Li,  F. Matz,  A. Molle,  Haisheng Ren,  
 Yingli Su,  Hung-Yi Tsai,  C. Utku,  Fang Wang

 Contributors to earlier versions of Q-Chem not listed above: 
 R. D. Adamson,  B. Austin,  R. Baer,  J. Baker,  G. J. O. Beran,  
 K. Brandhorst,  S. T. Brown,  E. F. C. Byrd,  A. K. Chakraborty,  
 G. K. L. Chan,  Chun-Min Chang,  Yunqing Chen,  C.-L. Cheng,  
 Siu Hung Chien,  D. M. Chipman,  D. L. Crittenden,  H. Dachsel,  
 R. J. Doerksen,  A. D. Dutoi,  R. G. Edgar,  J. Fosso-Tande,  
 L. Fusti-Molnar,  D. Ghosh,  A. Ghysels,  A. Golubeva-Zadorozhnaya,  
 J. Gonthier,  M. S. Gordon,  S. R. Gwaltney,  G. Hawkins,  J. E. Herr,  
 A. Heyden,  S. Hirata,  E. G. Hohenstein,  G. Kedziora,  F. J. Keil,  
 C. Kelley,  Jihan Kim,  R. A. King,  R. Z. Khaliullin,  P. P. Korambath,  
 W. Kurlancheek,  A. Laurent,  A. M. Lee,  M. S. Lee,  S. V. Levchenko,  
 Ching Yeh Lin,  D. Liotard,  E. Livshits,  R. C. Lochan,  I. Lotan,  
 L. A. Martinez-Martinez,  P. E. Maslen,  N. Nair,  D. P. O'Neill,  
 D. Neuhauser,  E. Neuscamman,  C. M. Oana,  R. Olivares-Amaya,  R. Olson,  
 T. M. Perrine,  B. Peters,  P. A. Pieniazek,  A. Prociuk,  Y. M. Rhee,  
 J. Ritchie,  M. A. Rohrdanz,  E. Rosta,  N. J. Russ,  H. F. Schaefer III,  
 M. W. Schmidt,  N. E. Schultz,  S. Sharma,  N. Shenvi,  C. D. Sherrill,  
 A. C. Simmonett,  A. Sodt,  T. Stein,  D. Stuck,  K. S. Thanthiriwatte,  
 V. Vanovschi,  L. Vogt,  Tao Wang,  A. Warshel,  M. A. Watson,  
 C. F. Williams,  Q. Wu,  X. Xu,  Jun Yang,  W. Zhang,  Yan Zhao

 Please cite Q-Chem as follows:
 Y. Shao et al., Mol. Phys. 113, 184-215 (2015)
 DOI: 10.1080/00268976.2014.952696

 Q-Chem 5.4.1 for Intel X86 EM64T Linux

 Parts of Q-Chem use Armadillo 9.800.1 (Horizon Scraper).
 http://arma.sourceforge.net/

 Q-Chem begins on Wed Jun 26 20:20:13 2024  

 Host: 
0

     Scratch files written to /scratch/ari.fischer/qChem2192735.hpc-mn1/qchem94986//
 Aug1521 |scratch|qcdevops|jenkins|workspace|build_RNUM 8249   
 Processing $rem in /usr/local/qchem-5.4.1/config/preferences:
 Processing $rem in /home/ari.fischer/.qchemrc:
 Symmetry turned off for PCM/SM12/SMD calculation


!!********************************************.
!!******************Warning*******************.
!!Desired Analytical derivatives not available.
!!Finite difference job might take a long time.
!!********************************************.
!!********************************************.


 2-order derivative to be evaluated numerically with 1-order analytical derivatives

 Checking the input file for inconsistencies... 	...done.

--------------------------------------------------------------
User input:
--------------------------------------------------------------
$molecule
1 1
H        -1.1764267247   -0.0719282716   -0.1134863707
O        -0.4643731605    0.5322741648    0.1472500655
H         0.0989277522    0.8515494285   -0.7549061607
H         0.8425890259    2.1217394338   -1.9404474393
O         0.8034424988    1.1631096318   -1.8257047225
H         0.3687809731    0.8173897244   -2.6167919776
H        -0.8820784648    1.3012450881    0.5646410053
$end

$rem
BASIS = 6-311++G(2df,2p)
GUI = 2
JOB_TYPE = Frequency
METHOD = wB97M-V
SOLVENT_METHOD = SMD
SCF_ALGORITHM = DIIS_GDM
MAX_SCF_CYCLES = 400
SCF_CONVERGENCE = 7
THRESH = 12
$end
--------------------------------------------------------------
 ----------------------------------------------------------------
             Standard Nuclear Orientation (Angstroms)
    I     Atom           X                Y                Z
 ----------------------------------------------------------------
    1      H      -1.1764267247    -0.0719282716    -0.1134863707
    2      O      -0.4643731605     0.5322741648     0.1472500655
    3      H       0.0989277522     0.8515494285    -0.7549061607
    4      H       0.8425890259     2.1217394338    -1.9404474393
    5      O       0.8034424988     1.1631096318    -1.8257047225
    6      H       0.3687809731     0.8173897244    -2.6167919776
    7      H      -0.8820784648     1.3012450881     0.5646410053
 ----------------------------------------------------------------
 Nuclear Repulsion Energy =          46.78258629 hartrees
 There are       10 alpha and       10 beta electrons
 Requested basis set is 6-311++G(2df,2p)
 There are 46 shells and 118 basis functions

 Total QAlloc Memory Limit 288000 MB
 Mega-Array Size       188 MB
 MEM_STATIC part       192 MB
 
 Citation of the SMD model:
 Marenich, A.V.; Cramer, C.J.; Truhlar, D.G.
 J. Phys. Chem. B 2009, 113, 6378-6396.
 iSolventCode=           1
 Solvent: water                                                           
 
 vradii
            1           2           3           4           5           6
    1   1.2000000   1.5200000   1.2000000   1.2000000   1.5200000   1.2000000
            7
    1   1.2000000
 Changing PCM_VDW_RADII to SMD_RADIUS
 Discretize the solute cavity surface with Lebedev spheres
	Using 110 Lebedev grid points for each H atom
	Using 194 Lebedev grid points for other atoms
	Atomic van der Waals radii will be scaled by 1.20
 Remove points where switching function is < 1.0e-08
 Keep 582 surface tesserae and discard 356 interior tesserae
 Molecular Surface Area = 65.862 Angst**2

                       Distance Matrix (Angstroms)
             H (  1)   O (  2)   H (  3)   H (  4)   O (  5)   H (  6)
   O (  2)  0.969569
   H (  3)  1.700223  1.110464
   H (  4)  3.496625  2.931387  1.889953
   O (  5)  2.894286  2.428551  1.319098  0.966266
   H (  6)  3.073287  2.900925  1.881650  1.543782  0.966577
   H (  7)  1.559520  0.969541  1.704642  3.150104  2.928108  3.452576

 
 A cutoff of  1.0D-12 yielded   1064 shell pairs
 There are      7100 function pairs (      8401 Cartesian)
 Smallest overlap matrix eigenvalue = 6.10E-04
 Guess from superposition of atomic densities
 Warning:  Energy on first SCF cycle will be non-variational
 SAD guess density has 21.000000 electrons

 -----------------------------------------------------------------------
  General SCF calculation program by
  Eric Jon Sundstrom, Paul Horn, Yuezhi Mao, Dmitri Zuev, Alec White,
  David Stuck, Shaama M.S., Shane Yost, Joonho Lee, David Small,
  Daniel Levine, Susi Lehtola, Hugh Burton, Evgeny Epifanovsky,
  Bang C. Huynh
 -----------------------------------------------------------------------
 Exchange:     0.1500 Hartree-Fock + 1.0000 wB97M-V + LR-HF
 Correlation:  1.0000 wB97M-V
 Using SG-2 standard quadrature grid
 Nonlocal Correlation:  VV10 with C = 0.0100 and b = 6.00 and scale = 1.00000
 Grid used for NLC:  SG-1 standard quadrature
 using 16 threads for integral computing
 -------------------------------------------------------
 OpenMP Integral computing Module                
 Release: version 1.0, May 2013, Q-Chem Inc. Pittsburgh 
 -------------------------------------------------------
 
 Citation of the SMD model:
 Marenich, A.V.; Cramer, C.J.; Truhlar, D.G.
 J. Phys. Chem. B 2009, 113, 6378-6396.
 iSolventCode=           1
 Solvent: water                                                           
 
 vradii
            1           2           3           4           5           6
    1   1.2000000   1.5200000   1.2000000   1.2000000   1.5200000   1.2000000
            7
    1   1.2000000
 -------------------------------------------------------
 OpenMP BLAS3 based DFT computing Module                
 Release: version 1.0, May 2013, Q-Chem Inc. Pittsburgh 
 -------------------------------------------------------
 A restricted SCF calculation will be
 performed using DIIS, GDM
 SCF converges when RMS gradient is below 1.0e-07
 ---------------------------------------
  Cycle       Energy         DIIS error
 ---------------------------------------
    1    -153.5591217036      4.49e-02  
    2    -153.2772680778      5.11e-03  Done DIIS. Switching to GDM
 ---------------------------------------
  Cycle       Energy        RMS Gradient
 ---------------------------------------
    1    -153.2772680778      5.43e-02   Normal BFGS step
    2    -153.2970243661      3.90e-02   Normal BFGS step
    3    -153.3141493887      3.04e-03   Normal BFGS step
    4    -153.3143486294      1.94e-03   Normal BFGS step
    5    -153.3143821433      7.13e-04   Normal BFGS step
    6    -153.3143890187      1.47e-04   Normal BFGS step
    7    -153.3143894618      3.61e-05   Normal BFGS step
    8    -153.3143894736      1.06e-05   Normal BFGS step
    9    -153.3143894746      1.45e-06   Normal BFGS step
   10    -153.3143894746      4.38e-07   Normal BFGS step
   11    -153.3143894746      3.62e-08  Convergence criterion met
 ---------------------------------------
 SCF time:   CPU 98.85s  wall 6.00s 
(3)  G-ENP(liq) elect-nuc-pol free energy of system     -153.314389475 a.u.
(4)  G-CDS(liq) cavity-dispersion-solvent structure 
     free energy                                                3.0442 kcal/mol
(6)  G-S(liq) free energy of system                     -153.309538235 a.u.
 SCF   energy in the final basis set =     -153.3095382347
 Total energy in the final basis set =     -153.3095382347
 
 --------------------------------------------------------------
 
                    Orbital Energies (a.u.)
 --------------------------------------------------------------
 
 Alpha MOs
 -- Occupied --
-19.4190 -19.3824  -1.2392  -1.1887  -0.7109  -0.7089  -0.6771  -0.5566
 -0.5362  -0.4747
 -- Virtual --
  0.0175   0.0472   0.0537   0.0797   0.0834   0.1741   0.2019   0.2037
  0.2127   0.2281   0.2455   0.2504   0.2563   0.2745   0.2955   0.3018
  0.3849   0.4029   0.5155   0.5866   0.5913   0.5996   0.6204   0.6558
  0.6830   0.7871   0.7974   0.8456   0.8717   0.9223   0.9761   0.9821
  1.0115   1.0512   1.1393   1.1602   1.2078   1.2143   1.2791   1.4073
  1.4202   1.4657   1.4865   1.5255   1.6728   1.7776   1.8328   1.9669
  2.0259   2.1024   2.1952   2.2496   2.2796   2.3062   2.3683   2.4554
  2.6198   2.7943   2.8356   2.8693   2.9061   3.6255   3.6897   3.7418
  3.8296   3.8527   3.8874   3.9181   3.9527   3.9792   4.0400   4.1056
  4.1382   4.1779   4.2545   4.2979   5.0952   5.1609   5.2104   5.2451
  5.2531   5.3196   5.3608   5.4239   5.4581   5.6435   5.6708   5.7040
  5.7831   5.8184   5.8422   6.7398   6.9865   7.0406   7.0592   7.1035
  7.1850   7.2200   7.2593   7.3323   7.3390   7.3886   7.6011   7.6123
  7.6451   7.8408  50.4332  50.5430
 --------------------------------------------------------------
 
          Ground-State Mulliken Net Atomic Charges

     Atom                 Charge (a.u.)
  ----------------------------------------
      1 H                     0.378470
      2 O                    -0.454932
      3 H                     0.561978
      4 H                     0.363579
      5 O                    -0.591242
      6 H                     0.363458
      7 H                     0.378688
  ----------------------------------------
  Sum of atomic charges =     1.000000

 -----------------------------------------------------------------
                    Cartesian Multipole Moments
 -----------------------------------------------------------------
    Charge (ESU x 10^10)
                 4.8032
    Dipole Moment (Debye)
         X      -3.2816      Y       5.6126      Z      -4.8153
       Tot       8.0906
    Quadrupole Moments (Debye-Ang)
        XX      -9.7130     XY       0.2429     YY      -1.2242
        XZ      -1.3845     YZ      -5.9133     ZZ       0.4872
    Octopole Moments (Debye-Ang^2)
       XXX     -12.6237    XXY      -9.2577    XYY       0.9707
       YYY      -9.9438    XXZ      13.7610    XYZ      -5.4641
       YYZ      -1.9184    XZZ      -0.0216    YZZ       6.4798
       ZZZ      -0.6962
    Hexadecapole Moments (Debye-Ang^3)
      XXXX     -43.6429   XXXY     -14.8903   XXYY     -13.9944
      XYYY      -1.9489   YYYY     -30.0144   XXXZ      32.8704
      XXYZ      14.3770   XYYZ      -4.0626   YYYZ       9.2846
      XXZZ     -34.9515   XYZZ       2.9907   YYZZ      -5.0938
      XZZZ      21.0624   YZZZ       2.3215   ZZZZ     -53.7952
 -----------------------------------------------------------------
 Calculating analytic gradient of the SCF energy
 Gradient of CDS energy
            1           2           3           4           5           6
    1  -0.0002600   0.0000847   0.0001416   0.0001211   0.0001405  -0.0001215
    2  -0.0003659  -0.0000610  -0.0000179   0.0004405  -0.0000797  -0.0002583
    3  -0.0000648   0.0000720   0.0000313   0.0000207   0.0000180  -0.0003554
            7
    1  -0.0001064
    2   0.0003423
    3   0.0002781
 Gradient of SCF Energy
            1           2           3           4           5           6
    1  -0.0439008   0.0500317  -0.0034585  -0.0040140   0.0590646  -0.0333149
    2  -0.0397844  -0.0285697   0.0161813   0.0555904  -0.0307198  -0.0241533
    3  -0.0196796   0.0343401  -0.0233121   0.0020382   0.0196920  -0.0388298
            7
    1  -0.0244081
    2   0.0514555
    3   0.0257513
 Max gradient component =       5.906E-02
 RMS gradient           =       3.398E-02
 Computing fast CPCM-SWIG gradient
 Updating gradient with PCM contributions...
 -- total gradient after adding PCM contribution --
---------------------------------------------------
  Atom         X              Y              Z     
---------------------------------------------------
   1      -0.000049       0.000123       0.000041
   2      -0.000467      -0.000440      -0.000640
   3       0.001148       0.000678       0.001118
   4       0.000140       0.000041       0.000087
   5      -0.000702      -0.000076      -0.000451
   6      -0.000065      -0.000246      -0.000136
   7      -0.000005      -0.000080      -0.000019
---------------------------------------------------
 Number of fixed atoms: 0
 Gradient time:  CPU 18.27 s  wall 1.53 s
 ######################################################
 ######################################################
 # Starting finite difference calculation for IDERIV  #
 Finite diff step size:  1.88973e-03 a.u.
 ----------------------------------------------------------------
             Standard Nuclear Orientation (Angstroms)
    I     Atom           X                Y                Z
 ----------------------------------------------------------------
    1      H      -1.1754267247    -0.0719282716    -0.1134863707
    2      O      -0.4643731605     0.5322741648     0.1472500655
    3      H       0.0989277522     0.8515494285    -0.7549061607
    4      H       0.8425890259     2.1217394338    -1.9404474393
    5      O       0.8034424988     1.1631096318    -1.8257047225
    6      H       0.3687809731     0.8173897244    -2.6167919776
    7      H      -0.8820784648     1.3012450881     0.5646410053
 ----------------------------------------------------------------
 Nuclear Repulsion Energy =          46.78647223 hartrees
 There are       10 alpha and       10 beta electrons
 Discretize the solute cavity surface with Lebedev spheres
	Using 110 Lebedev grid points for each H atom
	Using 194 Lebedev grid points for other atoms
	Atomic van der Waals radii will be scaled by 1.20
 Remove points where switching function is < 1.0e-08
 Keep 581 surface tesserae and discard 357 interior tesserae
 Molecular Surface Area = 65.857 Angst**2

                       Distance Matrix (Angstroms)
             H (  1)   O (  2)   H (  3)   H (  4)   O (  5)   H (  6)
   O (  2)  0.968835
   H (  3)  1.699473  1.110464
   H (  4)  3.496048  2.931387  1.889953
   O (  5)  2.893602  2.428551  1.319098  0.966266
   H (  6)  3.072784  2.900925  1.881650  1.543782  0.966577
   H (  7)  1.559332  0.969541  1.704642  3.150104  2.928108  3.452576

 
 Requested basis set is 6-311++G(2df,2p)
 There are 46 shells and 118 basis functions
 A cutoff of  1.0D-12 yielded   1064 shell pairs
 There are      7100 function pairs (      8401 Cartesian)
 Smallest overlap matrix eigenvalue = 6.10E-04
 Guess MOs from SCF MO coefficient file

 -----------------------------------------------------------------------
  General SCF calculation program by
  Eric Jon Sundstrom, Paul Horn, Yuezhi Mao, Dmitri Zuev, Alec White,
  David Stuck, Shaama M.S., Shane Yost, Joonho Lee, David Small,
  Daniel Levine, Susi Lehtola, Hugh Burton, Evgeny Epifanovsky,
  Bang C. Huynh
 -----------------------------------------------------------------------
 Exchange:     0.1500 Hartree-Fock + 1.0000 wB97M-V + LR-HF
 Correlation:  1.0000 wB97M-V
 Using SG-2 standard quadrature grid
 Nonlocal Correlation:  VV10 with C = 0.0100 and b = 6.00 and scale = 1.00000
 Grid used for NLC:  SG-1 standard quadrature
 
 Citation of the SMD model:
 Marenich, A.V.; Cramer, C.J.; Truhlar, D.G.
 J. Phys. Chem. B 2009, 113, 6378-6396.
 iSolventCode=           1
 Solvent: water                                                           
 
 vradii
            1           2           3           4           5           6
    1   1.2000000   1.5200000   1.2000000   1.2000000   1.5200000   1.2000000
            7
    1   1.2000000
 -------------------------------------------------------
 OpenMP BLAS3 based DFT computing Module                
 Release: version 1.0, May 2013, Q-Chem Inc. Pittsburgh 
 -------------------------------------------------------
 A restricted SCF calculation will be
 performed using Roothaan-Hall, DIIS, GDM
 SCF converges when RMS gradient is below 1.0e-07
 ---------------------------------------
  Cycle       Energy         DIIS error
 ---------------------------------------
    1    -153.1705414303      1.23e-03  Roothaan Step
 ---------------------------------------
  Cycle       Energy         DIIS error
 ---------------------------------------
    1    -153.3110027911      1.16e-03  
    2    -153.3140699353      4.33e-04  Done DIIS. Switching to GDM
 ---------------------------------------
  Cycle       Energy        RMS Gradient
 ---------------------------------------
    1    -153.3140699353      5.66e-03   Normal BFGS step
    2    -153.3142631047      4.11e-03   Normal BFGS step
    3    -153.3143842551      4.43e-04   Normal BFGS step
    4    -153.3143880705      1.70e-04   Normal BFGS step
    5    -153.3143884459      1.04e-04   Normal BFGS step
    6    -153.3143885555      1.86e-05   Normal BFGS step
    7    -153.3143885614      5.27e-06   Normal BFGS step
    8    -153.3143885616      1.39e-06   Normal BFGS step
    9    -153.3143885616      1.61e-07   Normal BFGS step
   10    -153.3143885616      4.91e-08  Convergence criterion met
 ---------------------------------------
 SCF time:   CPU 100.68s  wall 6.00s 
(3)  G-ENP(liq) elect-nuc-pol free energy of system     -153.314388562 a.u.
(4)  G-CDS(liq) cavity-dispersion-solvent structure 
     free energy                                                3.0439 kcal/mol
(6)  G-S(liq) free energy of system                     -153.309537813 a.u.
 SCF   energy in the final basis set =     -153.3095378134
 Total energy in the final basis set =     -153.3095378134
 
 --------------------------------------------------------------
 
                    Orbital Energies (a.u.)
 --------------------------------------------------------------
 
 Alpha MOs
 -- Occupied --
-19.4189 -19.3824  -1.2393  -1.1888  -0.7109  -0.7091  -0.6771  -0.5566
 -0.5363  -0.4748
 -- Virtual --
  0.0175   0.0472   0.0537   0.0797   0.0834   0.1741   0.2019   0.2038
  0.2127   0.2281   0.2455   0.2505   0.2563   0.2745   0.2955   0.3018
  0.3848   0.4029   0.5156   0.5866   0.5914   0.5997   0.6204   0.6558
  0.6830   0.7872   0.7975   0.8456   0.8717   0.9224   0.9761   0.9821
  1.0115   1.0513   1.1394   1.1601   1.2080   1.2143   1.2791   1.4075
  1.4204   1.4658   1.4866   1.5253   1.6726   1.7775   1.8329   1.9669
  2.0260   2.1024   2.1951   2.2496   2.2795   2.3062   2.3683   2.4554
  2.6197   2.7943   2.8359   2.8693   2.9061   3.6255   3.6897   3.7420
  3.8297   3.8527   3.8877   3.9181   3.9530   3.9798   4.0401   4.1056
  4.1388   4.1779   4.2553   4.2979   5.0951   5.1608   5.2105   5.2452
  5.2531   5.3199   5.3609   5.4239   5.4583   5.6439   5.6709   5.7045
  5.7839   5.8189   5.8427   6.7399   6.9866   7.0413   7.0592   7.1040
  7.1851   7.2201   7.2593   7.3332   7.3406   7.3886   7.6007   7.6124
  7.6451   7.8409  50.4335  50.5431
 --------------------------------------------------------------
 
          Ground-State Mulliken Net Atomic Charges

     Atom                 Charge (a.u.)
  ----------------------------------------
      1 H                     0.378055
      2 O                    -0.454461
      3 H                     0.561877
      4 H                     0.363587
      5 O                    -0.591232
      6 H                     0.363462
      7 H                     0.378712
  ----------------------------------------
  Sum of atomic charges =     1.000000

 -----------------------------------------------------------------
                    Cartesian Multipole Moments
 -----------------------------------------------------------------
    Charge (ESU x 10^10)
                 4.8032
    Dipole Moment (Debye)
         X      -3.2796      Y       5.6128      Z      -4.8152
       Tot       8.0898
    Quadrupole Moments (Debye-Ang)
        XX      -9.7181     XY       0.2422     YY      -1.2228
        XZ      -1.3850     YZ      -5.9131     ZZ       0.4881
    Octopole Moments (Debye-Ang^2)
       XXX     -12.6156    XXY      -9.2564    XYY       0.9693
       YYY      -9.9421    XXZ      13.7618    XYZ      -5.4643
       YYZ      -1.9181    XZZ      -0.0226    YZZ       6.4802
       ZZZ      -0.6963
    Hexadecapole Moments (Debye-Ang^3)
      XXXX     -43.6522   XXXY     -14.8923   XXYY     -13.9922
      XYYY      -1.9500   YYYY     -30.0104   XXXZ      32.8689
      XXYZ      14.3769   XYYZ      -4.0629   YYYZ       9.2851
      XXZZ     -34.9497   XYZZ       2.9906   YYZZ      -5.0928
      XZZZ      21.0622   YZZZ       2.3214   ZZZZ     -53.7934
 -----------------------------------------------------------------
 Calculating analytic gradient of the SCF energy
 Gradient of CDS energy
            1           2           3           4           5           6
    1  -0.0002604   0.0000855   0.0001417   0.0001211   0.0001405  -0.0001215
    2  -0.0003660  -0.0000609  -0.0000178   0.0004405  -0.0000797  -0.0002583
    3  -0.0000645   0.0000717   0.0000314   0.0000207   0.0000180  -0.0003554
            7
    1  -0.0001069
    2   0.0003421
    3   0.0002781
 Gradient of SCF Energy
            1           2           3           4           5           6
    1  -0.0432777   0.0493521  -0.0034648  -0.0040151   0.0590701  -0.0333163
    2  -0.0394117  -0.0289994   0.0161717   0.0555900  -0.0307155  -0.0241549
    3  -0.0195337   0.0341456  -0.0233042   0.0020402   0.0196873  -0.0388279
            7
    1  -0.0243482
    2   0.0515197
    3   0.0257928
 Max gradient component =       5.907E-02
 RMS gradient           =       3.388E-02
 Computing fast CPCM-SWIG gradient
 Updating gradient with PCM contributions...
 -- total gradient after adding PCM contribution --
---------------------------------------------------
  Atom         X              Y              Z     
---------------------------------------------------
   1       0.000495       0.000537       0.000191
   2      -0.001018      -0.000871      -0.000790
   3       0.001126       0.000665       0.001109
   4       0.000140       0.000041       0.000087
   5      -0.000700      -0.000074      -0.000451
   6      -0.000065      -0.000247      -0.000135
   7       0.000023      -0.000052      -0.000011
---------------------------------------------------
 Number of fixed atoms: 0
 Gradient time:  CPU 17.70 s  wall 1.21 s
 ----------------------------------------------------------------
             Standard Nuclear Orientation (Angstroms)
    I     Atom           X                Y                Z
 ----------------------------------------------------------------
    1      H      -1.1774267247    -0.0719282716    -0.1134863707
    2      O      -0.4643731605     0.5322741648     0.1472500655
    3      H       0.0989277522     0.8515494285    -0.7549061607
    4      H       0.8425890259     2.1217394338    -1.9404474393
    5      O       0.8034424988     1.1631096318    -1.8257047225
    6      H       0.3687809731     0.8173897244    -2.6167919776
    7      H      -0.8820784648     1.3012450881     0.5646410053
 ----------------------------------------------------------------
 Nuclear Repulsion Energy =          46.77870323 hartrees
 There are       10 alpha and       10 beta electrons
 Discretize the solute cavity surface with Lebedev spheres
	Using 110 Lebedev grid points for each H atom
	Using 194 Lebedev grid points for other atoms
	Atomic van der Waals radii will be scaled by 1.20
 Remove points where switching function is < 1.0e-08
 Keep 582 surface tesserae and discard 356 interior tesserae
 Molecular Surface Area = 65.868 Angst**2

                       Distance Matrix (Angstroms)
             H (  1)   O (  2)   H (  3)   H (  4)   O (  5)   H (  6)
   O (  2)  0.970304
   H (  3)  1.700974  1.110464
   H (  4)  3.497203  2.931387  1.889953
   O (  5)  2.894970  2.428551  1.319098  0.966266
   H (  6)  3.073790  2.900925  1.881650  1.543782  0.966577
   H (  7)  1.559709  0.969541  1.704642  3.150104  2.928108  3.452576

 
 Requested basis set is 6-311++G(2df,2p)
 There are 46 shells and 118 basis functions
 A cutoff of  1.0D-12 yielded   1064 shell pairs
 There are      7100 function pairs (      8401 Cartesian)
 Smallest overlap matrix eigenvalue = 6.10E-04
 Guess MOs from SCF MO coefficient file

 -----------------------------------------------------------------------
  General SCF calculation program by
  Eric Jon Sundstrom, Paul Horn, Yuezhi Mao, Dmitri Zuev, Alec White,
  David Stuck, Shaama M.S., Shane Yost, Joonho Lee, David Small,
  Daniel Levine, Susi Lehtola, Hugh Burton, Evgeny Epifanovsky,
  Bang C. Huynh
 -----------------------------------------------------------------------
 Exchange:     0.1500 Hartree-Fock + 1.0000 wB97M-V + LR-HF
 Correlation:  1.0000 wB97M-V
 Using SG-2 standard quadrature grid
 Nonlocal Correlation:  VV10 with C = 0.0100 and b = 6.00 and scale = 1.00000
 Grid used for NLC:  SG-1 standard quadrature
 
 Citation of the SMD model:
 Marenich, A.V.; Cramer, C.J.; Truhlar, D.G.
 J. Phys. Chem. B 2009, 113, 6378-6396.
 iSolventCode=           1
 Solvent: water                                                           
 
 vradii
            1           2           3           4           5           6
    1   1.2000000   1.5200000   1.2000000   1.2000000   1.5200000   1.2000000
            7
    1   1.2000000
 -------------------------------------------------------
 OpenMP BLAS3 based DFT computing Module                
 Release: version 1.0, May 2013, Q-Chem Inc. Pittsburgh 
 -------------------------------------------------------
 A restricted SCF calculation will be
 performed using Roothaan-Hall, DIIS, GDM
 SCF converges when RMS gradient is below 1.0e-07
 ---------------------------------------
  Cycle       Energy         DIIS error
 ---------------------------------------
    1    -153.1705437262      1.23e-03  Roothaan Step
 ---------------------------------------
  Cycle       Energy         DIIS error
 ---------------------------------------
    1    -153.3109999986      1.17e-03  
    2    -153.3140681148      4.36e-04  Done DIIS. Switching to GDM
 ---------------------------------------
  Cycle       Energy        RMS Gradient
 ---------------------------------------
    1    -153.3140681148      5.69e-03   Normal BFGS step
    2    -153.3142618373      4.09e-03   Normal BFGS step
    3    -153.3143850631      4.50e-04   Normal BFGS step
    4    -153.3143888875      1.73e-04   Normal BFGS step
    5    -153.3143892475      1.05e-04   Normal BFGS step
    6    -153.3143893548      1.83e-05   Normal BFGS step
    7    -153.3143893607      5.27e-06   Normal BFGS step
    8    -153.3143893609      1.39e-06   Normal BFGS step
    9    -153.3143893609      1.61e-07   Normal BFGS step
   10    -153.3143893609      4.88e-08  Convergence criterion met
 ---------------------------------------
 SCF time:   CPU 92.01s  wall 6.00s 
(3)  G-ENP(liq) elect-nuc-pol free energy of system     -153.314389361 a.u.
(4)  G-CDS(liq) cavity-dispersion-solvent structure 
     free energy                                                3.0445 kcal/mol
(6)  G-S(liq) free energy of system                     -153.309537630 a.u.
 SCF   energy in the final basis set =     -153.3095376299
 Total energy in the final basis set =     -153.3095376299
 
 --------------------------------------------------------------
 
                    Orbital Energies (a.u.)
 --------------------------------------------------------------
 
 Alpha MOs
 -- Occupied --
-19.4190 -19.3824  -1.2390  -1.1887  -0.7108  -0.7086  -0.6771  -0.5566
 -0.5362  -0.4747
 -- Virtual --
  0.0175   0.0472   0.0537   0.0797   0.0834   0.1741   0.2018   0.2037
  0.2127   0.2281   0.2455   0.2504   0.2563   0.2745   0.2955   0.3018
  0.3849   0.4029   0.5154   0.5866   0.5912   0.5995   0.6203   0.6558
  0.6829   0.7871   0.7972   0.8456   0.8718   0.9222   0.9762   0.9822
  1.0114   1.0511   1.1393   1.1603   1.2077   1.2143   1.2790   1.4070
  1.4201   1.4656   1.4864   1.5256   1.6729   1.7778   1.8328   1.9668
  2.0258   2.1025   2.1953   2.2497   2.2797   2.3062   2.3683   2.4554
  2.6199   2.7942   2.8352   2.8693   2.9061   3.6256   3.6896   3.7417
  3.8296   3.8527   3.8871   3.9181   3.9525   3.9786   4.0399   4.1056
  4.1375   4.1778   4.2538   4.2979   5.0952   5.1609   5.2103   5.2450
  5.2530   5.3194   5.3607   5.4239   5.4580   5.6432   5.6708   5.7035
  5.7823   5.8179   5.8417   6.7397   6.9864   7.0398   7.0592   7.1030
  7.1848   7.2199   7.2592   7.3309   7.3379   7.3886   7.6015   7.6123
  7.6451   7.8407  50.4329  50.5429
 --------------------------------------------------------------
 
          Ground-State Mulliken Net Atomic Charges

     Atom                 Charge (a.u.)
  ----------------------------------------
      1 H                     0.378884
      2 O                    -0.455401
      3 H                     0.562079
      4 H                     0.363571
      5 O                    -0.591251
      6 H                     0.363455
      7 H                     0.378664
  ----------------------------------------
  Sum of atomic charges =     1.000000

 -----------------------------------------------------------------
                    Cartesian Multipole Moments
 -----------------------------------------------------------------
    Charge (ESU x 10^10)
                 4.8032
    Dipole Moment (Debye)
         X      -3.2837      Y       5.6124      Z      -4.8154
       Tot       8.0913
    Quadrupole Moments (Debye-Ang)
        XX      -9.7079     XY       0.2436     YY      -1.2255
        XZ      -1.3840     YZ      -5.9134     ZZ       0.4862
    Octopole Moments (Debye-Ang^2)
       XXX     -12.6318    XXY      -9.2589    XYY       0.9721
       YYY      -9.9455    XXZ      13.7602    XYZ      -5.4640
       YYZ      -1.9186    XZZ      -0.0206    YZZ       6.4793
       ZZZ      -0.6962
    Hexadecapole Moments (Debye-Ang^3)
      XXXX     -43.6336   XXXY     -14.8883   XXYY     -13.9965
      XYYY      -1.9479   YYYY     -30.0184   XXXZ      32.8719
      XXYZ      14.3771   XYYZ      -4.0623   YYYZ       9.2842
      XXZZ     -34.9533   XYZZ       2.9908   YYZZ      -5.0948
      XZZZ      21.0626   YZZZ       2.3215   ZZZZ     -53.7970
 -----------------------------------------------------------------
 Calculating analytic gradient of the SCF energy
 Gradient of CDS energy
            1           2           3           4           5           6
    1  -0.0002597   0.0000840   0.0001415   0.0001211   0.0001405  -0.0001215
    2  -0.0003658  -0.0000611  -0.0000180   0.0004405  -0.0000797  -0.0002583
    3  -0.0000651   0.0000723   0.0000312   0.0000207   0.0000180  -0.0003554
            7
    1  -0.0001059
    2   0.0003424
    3   0.0002782
 Gradient of SCF Energy
            1           2           3           4           5           6
    1  -0.0445218   0.0507094  -0.0034522  -0.0040129   0.0590590  -0.0333135
    2  -0.0401545  -0.0281426   0.0161908   0.0555907  -0.0307242  -0.0241517
    3  -0.0198244   0.0345335  -0.0233200   0.0020361   0.0196967  -0.0388317
            7
    1  -0.0244680
    2   0.0513914
    3   0.0257099
 Max gradient component =       5.906E-02
 RMS gradient           =       3.408E-02
 Computing fast CPCM-SWIG gradient
 Updating gradient with PCM contributions...
 -- total gradient after adding PCM contribution --
---------------------------------------------------
  Atom         X              Y              Z     
---------------------------------------------------
   1      -0.000591      -0.000289      -0.000108
   2       0.000083      -0.000011      -0.000491
   3       0.001170       0.000691       0.001126
   4       0.000139       0.000041       0.000087
   5      -0.000704      -0.000077      -0.000450
   6      -0.000065      -0.000246      -0.000137
   7      -0.000033      -0.000108      -0.000028
---------------------------------------------------
 Number of fixed atoms: 0
 Gradient time:  CPU 18.14 s  wall 1.32 s
 ----------------------------------------------------------------
             Standard Nuclear Orientation (Angstroms)
    I     Atom           X                Y                Z
 ----------------------------------------------------------------
    1      H      -1.1764267247    -0.0709282716    -0.1134863707
    2      O      -0.4643731605     0.5322741648     0.1472500655
    3      H       0.0989277522     0.8515494285    -0.7549061607
    4      H       0.8425890259     2.1217394338    -1.9404474393
    5      O       0.8034424988     1.1631096318    -1.8257047225
    6      H       0.3687809731     0.8173897244    -2.6167919776
    7      H      -0.8820784648     1.3012450881     0.5646410053
 ----------------------------------------------------------------
 Nuclear Repulsion Energy =          46.78594306 hartrees
 There are       10 alpha and       10 beta electrons
 Discretize the solute cavity surface with Lebedev spheres
	Using 110 Lebedev grid points for each H atom
	Using 194 Lebedev grid points for other atoms
	Atomic van der Waals radii will be scaled by 1.20
 Remove points where switching function is < 1.0e-08
 Keep 581 surface tesserae and discard 357 interior tesserae
 Molecular Surface Area = 65.857 Angst**2

                       Distance Matrix (Angstroms)
             H (  1)   O (  2)   H (  3)   H (  4)   O (  5)   H (  6)
   O (  2)  0.968946
   H (  3)  1.699680  1.110464
   H (  4)  3.495998  2.931387  1.889953
   O (  5)  2.893860  2.428551  1.319098  0.966266
   H (  6)  3.072998  2.900925  1.881650  1.543782  0.966577
   H (  7)  1.558640  0.969541  1.704642  3.150104  2.928108  3.452576

 
 Requested basis set is 6-311++G(2df,2p)
 There are 46 shells and 118 basis functions
 A cutoff of  1.0D-12 yielded   1064 shell pairs
 There are      7100 function pairs (      8401 Cartesian)
 Smallest overlap matrix eigenvalue = 6.10E-04
 Guess MOs from SCF MO coefficient file

 -----------------------------------------------------------------------
  General SCF calculation program by
  Eric Jon Sundstrom, Paul Horn, Yuezhi Mao, Dmitri Zuev, Alec White,
  David Stuck, Shaama M.S., Shane Yost, Joonho Lee, David Small,
  Daniel Levine, Susi Lehtola, Hugh Burton, Evgeny Epifanovsky,
  Bang C. Huynh
 -----------------------------------------------------------------------
 Exchange:     0.1500 Hartree-Fock + 1.0000 wB97M-V + LR-HF
 Correlation:  1.0000 wB97M-V
 Using SG-2 standard quadrature grid
 Nonlocal Correlation:  VV10 with C = 0.0100 and b = 6.00 and scale = 1.00000
 Grid used for NLC:  SG-1 standard quadrature
 
 Citation of the SMD model:
 Marenich, A.V.; Cramer, C.J.; Truhlar, D.G.
 J. Phys. Chem. B 2009, 113, 6378-6396.
 iSolventCode=           1
 Solvent: water                                                           
 
 vradii
            1           2           3           4           5           6
    1   1.2000000   1.5200000   1.2000000   1.2000000   1.5200000   1.2000000
            7
    1   1.2000000
 -------------------------------------------------------
 OpenMP BLAS3 based DFT computing Module                
 Release: version 1.0, May 2013, Q-Chem Inc. Pittsburgh 
 -------------------------------------------------------
 A restricted SCF calculation will be
 performed using Roothaan-Hall, DIIS, GDM
 SCF converges when RMS gradient is below 1.0e-07
 ---------------------------------------
  Cycle       Energy         DIIS error
 ---------------------------------------
    1    -153.1705301079      1.23e-03  Roothaan Step
 ---------------------------------------
  Cycle       Energy         DIIS error
 ---------------------------------------
    1    -153.3110001488      1.16e-03  
    2    -153.3140697462      4.33e-04  Done DIIS. Switching to GDM
 ---------------------------------------
  Cycle       Energy        RMS Gradient
 ---------------------------------------
    1    -153.3140697462      5.66e-03   Normal BFGS step
    2    -153.3142629188      4.12e-03   Normal BFGS step
    3    -153.3143838343      4.42e-04   Normal BFGS step
    4    -153.3143876513      1.70e-04   Normal BFGS step
    5    -153.3143880298      1.03e-04   Normal BFGS step
    6    -153.3143881399      1.86e-05   Normal BFGS step
    7    -153.3143881458      5.28e-06   Normal BFGS step
    8    -153.3143881460      1.39e-06   Normal BFGS step
    9    -153.3143881460      1.61e-07   Normal BFGS step
   10    -153.3143881460      4.92e-08  Convergence criterion met
 ---------------------------------------
 SCF time:   CPU 90.75s  wall 6.00s 
(3)  G-ENP(liq) elect-nuc-pol free energy of system     -153.314388146 a.u.
(4)  G-CDS(liq) cavity-dispersion-solvent structure 
     free energy                                                3.0438 kcal/mol
(6)  G-S(liq) free energy of system                     -153.309537598 a.u.
 SCF   energy in the final basis set =     -153.3095375978
 Total energy in the final basis set =     -153.3095375978
 
 --------------------------------------------------------------
 
                    Orbital Energies (a.u.)
 --------------------------------------------------------------
 
 Alpha MOs
 -- Occupied --
-19.4190 -19.3824  -1.2393  -1.1888  -0.7109  -0.7090  -0.6771  -0.5567
 -0.5363  -0.4748
 -- Virtual --
  0.0175   0.0472   0.0537   0.0797   0.0834   0.1741   0.2019   0.2038
  0.2127   0.2281   0.2456   0.2505   0.2563   0.2745   0.2955   0.3018
  0.3849   0.4029   0.5155   0.5867   0.5913   0.5997   0.6204   0.6558
  0.6830   0.7872   0.7973   0.8455   0.8717   0.9223   0.9762   0.9820
  1.0115   1.0513   1.1393   1.1602   1.2079   1.2143   1.2790   1.4077
  1.4203   1.4659   1.4866   1.5255   1.6729   1.7778   1.8328   1.9669
  2.0258   2.1024   2.1951   2.2494   2.2794   2.3061   2.3682   2.4554
  2.6200   2.7943   2.8361   2.8693   2.9061   3.6255   3.6896   3.7418
  3.8297   3.8528   3.8874   3.9181   3.9528   3.9793   4.0401   4.1060
  4.1386   4.1779   4.2556   4.2980   5.0951   5.1609   5.2104   5.2452
  5.2530   5.3199   5.3613   5.4241   5.4583   5.6439   5.6709   5.7044
  5.7832   5.8185   5.8427   6.7398   6.9865   7.0410   7.0592   7.1039
  7.1849   7.2201   7.2590   7.3331   7.3407   7.3886   7.6012   7.6123
  7.6451   7.8408  50.4335  50.5431
 --------------------------------------------------------------
 
          Ground-State Mulliken Net Atomic Charges

     Atom                 Charge (a.u.)
  ----------------------------------------
      1 H                     0.378059
      2 O                    -0.454563
      3 H                     0.562076
      4 H                     0.363573
      5 O                    -0.591230
      6 H                     0.363445
      7 H                     0.378640
  ----------------------------------------
  Sum of atomic charges =     1.000000

 -----------------------------------------------------------------
                    Cartesian Multipole Moments
 -----------------------------------------------------------------
    Charge (ESU x 10^10)
                 4.8032
    Dipole Moment (Debye)
         X      -3.2813      Y       5.6151      Z      -4.8154
       Tot       8.0922
    Quadrupole Moments (Debye-Ang)
        XX      -9.7123     XY       0.2400     YY      -1.2244
        XZ      -1.3844     YZ      -5.9138     ZZ       0.4882
    Octopole Moments (Debye-Ang^2)
       XXX     -12.6251    XXY      -9.2538    XYY       0.9713
       YYY      -9.9445    XXZ      13.7607    XYZ      -5.4637
       YYZ      -1.9186    XZZ      -0.0218    YZZ       6.4801
       ZZZ      -0.6969
    Hexadecapole Moments (Debye-Ang^3)
      XXXX     -43.6382   XXXY     -14.8942   XXYY     -13.9942
      XYYY      -1.9477   YYYY     -30.0137   XXXZ      32.8703
      XXYZ      14.3762   XYYZ      -4.0628   YYYZ       9.2840
      XXZZ     -34.9502   XYZZ       2.9913   YYZZ      -5.0928
      XZZZ      21.0620   YZZZ       2.3206   ZZZZ     -53.7919
 -----------------------------------------------------------------
 Calculating analytic gradient of the SCF energy
 Gradient of CDS energy
            1           2           3           4           5           6
    1  -0.0002601   0.0000844   0.0001417   0.0001211   0.0001405  -0.0001215
    2  -0.0003661  -0.0000608  -0.0000179   0.0004405  -0.0000797  -0.0002583
    3  -0.0000650   0.0000721   0.0000313   0.0000207   0.0000180  -0.0003554
            7
    1  -0.0001060
    2   0.0003424
    3   0.0002782
 Gradient of SCF Energy
            1           2           3           4           5           6
    1  -0.0434846   0.0496359  -0.0034409  -0.0040134   0.0590730  -0.0333157
    2  -0.0392881  -0.0290306   0.0161835   0.0555952  -0.0307221  -0.0241526
    3  -0.0194912   0.0341728  -0.0233045   0.0020374   0.0196838  -0.0388338
            7
    1  -0.0244543
    2   0.0514147
    3   0.0257356
 Max gradient component =       5.907E-02
 RMS gradient           =       3.391E-02
 Computing fast CPCM-SWIG gradient
 Updating gradient with PCM contributions...
 -- total gradient after adding PCM contribution --
---------------------------------------------------
  Atom         X              Y              Z     
---------------------------------------------------
   1       0.000366       0.000551       0.000219
   2      -0.000818      -0.000819      -0.000805
   3       0.001132       0.000666       0.001126
   4       0.000140       0.000041       0.000087
   5      -0.000699      -0.000073      -0.000455
   6      -0.000065      -0.000246      -0.000136
   7      -0.000056      -0.000119      -0.000037
---------------------------------------------------
 Number of fixed atoms: 0
 Gradient time:  CPU 16.74 s  wall 1.14 s
 ----------------------------------------------------------------
             Standard Nuclear Orientation (Angstroms)
    I     Atom           X                Y                Z
 ----------------------------------------------------------------
    1      H      -1.1764267247    -0.0729282716    -0.1134863707
    2      O      -0.4643731605     0.5322741648     0.1472500655
    3      H       0.0989277522     0.8515494285    -0.7549061607
    4      H       0.8425890259     2.1217394338    -1.9404474393
    5      O       0.8034424988     1.1631096318    -1.8257047225
    6      H       0.3687809731     0.8173897244    -2.6167919776
    7      H      -0.8820784648     1.3012450881     0.5646410053
 ----------------------------------------------------------------
 Nuclear Repulsion Energy =          46.77923037 hartrees
 There are       10 alpha and       10 beta electrons
 Discretize the solute cavity surface with Lebedev spheres
	Using 110 Lebedev grid points for each H atom
	Using 194 Lebedev grid points for other atoms
	Atomic van der Waals radii will be scaled by 1.20
 Remove points where switching function is < 1.0e-08
 Keep 582 surface tesserae and discard 356 interior tesserae
 Molecular Surface Area = 65.867 Angst**2

                       Distance Matrix (Angstroms)
             H (  1)   O (  2)   H (  3)   H (  4)   O (  5)   H (  6)
   O (  2)  0.970193
   H (  3)  1.700767  1.110464
   H (  4)  3.497253  2.931387  1.889953
   O (  5)  2.894713  2.428551  1.319098  0.966266
   H (  6)  3.073576  2.900925  1.881650  1.543782  0.966577
   H (  7)  1.560401  0.969541  1.704642  3.150104  2.928108  3.452576

 
 Requested basis set is 6-311++G(2df,2p)
 There are 46 shells and 118 basis functions
 A cutoff of  1.0D-12 yielded   1064 shell pairs
 There are      7100 function pairs (      8401 Cartesian)
 Smallest overlap matrix eigenvalue = 6.11E-04
 Guess MOs from SCF MO coefficient file

 -----------------------------------------------------------------------
  General SCF calculation program by
  Eric Jon Sundstrom, Paul Horn, Yuezhi Mao, Dmitri Zuev, Alec White,
  David Stuck, Shaama M.S., Shane Yost, Joonho Lee, David Small,
  Daniel Levine, Susi Lehtola, Hugh Burton, Evgeny Epifanovsky,
  Bang C. Huynh
 -----------------------------------------------------------------------
 Exchange:     0.1500 Hartree-Fock + 1.0000 wB97M-V + LR-HF
 Correlation:  1.0000 wB97M-V
 Using SG-2 standard quadrature grid
 Nonlocal Correlation:  VV10 with C = 0.0100 and b = 6.00 and scale = 1.00000
 Grid used for NLC:  SG-1 standard quadrature
 
 Citation of the SMD model:
 Marenich, A.V.; Cramer, C.J.; Truhlar, D.G.
 J. Phys. Chem. B 2009, 113, 6378-6396.
 iSolventCode=           1
 Solvent: water                                                           
 
 vradii
            1           2           3           4           5           6
    1   1.2000000   1.5200000   1.2000000   1.2000000   1.5200000   1.2000000
            7
    1   1.2000000
 -------------------------------------------------------
 OpenMP BLAS3 based DFT computing Module                
 Release: version 1.0, May 2013, Q-Chem Inc. Pittsburgh 
 -------------------------------------------------------
 A restricted SCF calculation will be
 performed using Roothaan-Hall, DIIS, GDM
 SCF converges when RMS gradient is below 1.0e-07
 ---------------------------------------
  Cycle       Energy         DIIS error
 ---------------------------------------
    1    -153.1705546671      1.23e-03  Roothaan Step
 ---------------------------------------
  Cycle       Energy         DIIS error
 ---------------------------------------
    1    -153.3110029795      1.16e-03  
    2    -153.3140691551      4.36e-04  Done DIIS. Switching to GDM
 ---------------------------------------
  Cycle       Energy        RMS Gradient
 ---------------------------------------
    1    -153.3140691551      5.69e-03   Normal BFGS step
    2    -153.3142628071      4.09e-03   Normal BFGS step
    3    -153.3143856952      4.49e-04   Normal BFGS step
    4    -153.3143895182      1.72e-04   Normal BFGS step
    5    -153.3143898795      1.05e-04   Normal BFGS step
    6    -153.3143899871      1.83e-05   Normal BFGS step
    7    -153.3143899930      5.27e-06   Normal BFGS step
    8    -153.3143899932      1.39e-06   Normal BFGS step
    9    -153.3143899932      1.61e-07   Normal BFGS step
   10    -153.3143899932      4.88e-08  Convergence criterion met
 ---------------------------------------
 SCF time:   CPU 91.79s  wall 6.00s 
(3)  G-ENP(liq) elect-nuc-pol free energy of system     -153.314389993 a.u.
(4)  G-CDS(liq) cavity-dispersion-solvent structure 
     free energy                                                3.0446 kcal/mol
(6)  G-S(liq) free energy of system                     -153.309538062 a.u.
 SCF   energy in the final basis set =     -153.3095380620
 Total energy in the final basis set =     -153.3095380620
 
 --------------------------------------------------------------
 
                    Orbital Energies (a.u.)
 --------------------------------------------------------------
 
 Alpha MOs
 -- Occupied --
-19.4190 -19.3824  -1.2390  -1.1887  -0.7108  -0.7087  -0.6771  -0.5565
 -0.5362  -0.4747
 -- Virtual --
  0.0175   0.0472   0.0537   0.0797   0.0834   0.1741   0.2018   0.2037
  0.2127   0.2281   0.2455   0.2504   0.2563   0.2745   0.2955   0.3018
  0.3848   0.4029   0.5155   0.5865   0.5913   0.5995   0.6203   0.6558
  0.6829   0.7871   0.7974   0.8457   0.8718   0.9223   0.9761   0.9822
  1.0115   1.0511   1.1393   1.1602   1.2078   1.2144   1.2791   1.4069
  1.4201   1.4655   1.4864   1.5254   1.6726   1.7774   1.8328   1.9668
  2.0261   2.1024   2.1953   2.2498   2.2797   2.3063   2.3684   2.4555
  2.6196   2.7942   2.8350   2.8693   2.9061   3.6256   3.6897   3.7419
  3.8296   3.8526   3.8874   3.9181   3.9527   3.9791   4.0400   4.1052
  4.1378   4.1778   4.2535   4.2979   5.0952   5.1608   5.2104   5.2450
  5.2531   5.3193   5.3603   5.4237   5.4580   5.6431   5.6708   5.7036
  5.7830   5.8183   5.8417   6.7398   6.9865   7.0401   7.0592   7.1031
  7.1850   7.2199   7.2595   7.3310   7.3379   7.3886   7.6010   7.6123
  7.6451   7.8408  50.4329  50.5429
 --------------------------------------------------------------
 
          Ground-State Mulliken Net Atomic Charges

     Atom                 Charge (a.u.)
  ----------------------------------------
      1 H                     0.378880
      2 O                    -0.455300
      3 H                     0.561880
      4 H                     0.363585
      5 O                    -0.591253
      6 H                     0.363472
      7 H                     0.378736
  ----------------------------------------
  Sum of atomic charges =     1.000000

 -----------------------------------------------------------------
                    Cartesian Multipole Moments
 -----------------------------------------------------------------
    Charge (ESU x 10^10)
                 4.8032
    Dipole Moment (Debye)
         X      -3.2820      Y       5.6102      Z      -4.8152
       Tot       8.0890
    Quadrupole Moments (Debye-Ang)
        XX      -9.7138     XY       0.2458     YY      -1.2239
        XZ      -1.3846     YZ      -5.9128     ZZ       0.4861
    Octopole Moments (Debye-Ang^2)
       XXX     -12.6222    XXY      -9.2615    XYY       0.9701
       YYY      -9.9431    XXZ      13.7612    XYZ      -5.4645
       YYZ      -1.9181    XZZ      -0.0214    YZZ       6.4795
       ZZZ      -0.6955
    Hexadecapole Moments (Debye-Ang^3)
      XXXX     -43.6476   XXXY     -14.8864   XXYY     -13.9946
      XYYY      -1.9502   YYYY     -30.0151   XXXZ      32.8705
      XXYZ      14.3777   XYYZ      -4.0624   YYYZ       9.2852
      XXZZ     -34.9529   XYZZ       2.9901   YYZZ      -5.0949
      XZZZ      21.0628   YZZZ       2.3223   ZZZZ     -53.7985
 -----------------------------------------------------------------
 Calculating analytic gradient of the SCF energy
 Gradient of CDS energy
            1           2           3           4           5           6
    1  -0.0002600   0.0000851   0.0001416   0.0001211   0.0001405  -0.0001215
    2  -0.0003657  -0.0000612  -0.0000179   0.0004405  -0.0000797  -0.0002583
    3  -0.0000646   0.0000719   0.0000313   0.0000207   0.0000180  -0.0003554
            7
    1  -0.0001068
    2   0.0003422
    3   0.0002780
 Gradient of SCF Energy
            1           2           3           4           5           6
    1  -0.0443148   0.0504253  -0.0034759  -0.0040145   0.0590561  -0.0333141
    2  -0.0402797  -0.0281095   0.0161791   0.0555856  -0.0307175  -0.0241540
    3  -0.0198671   0.0345067  -0.0233197   0.0020389   0.0197002  -0.0388259
            7
    1  -0.0243621
    2   0.0514960
    3   0.0257668
 Max gradient component =       5.906E-02
 RMS gradient           =       3.406E-02
 Computing fast CPCM-SWIG gradient
 Updating gradient with PCM contributions...
 -- total gradient after adding PCM contribution --
---------------------------------------------------
  Atom         X              Y              Z     
---------------------------------------------------
   1      -0.000461      -0.000305      -0.000137
   2      -0.000118      -0.000061      -0.000476
   3       0.001164       0.000690       0.001110
   4       0.000139       0.000041       0.000088
   5      -0.000705      -0.000078      -0.000446
   6      -0.000065      -0.000247      -0.000136
   7       0.000046      -0.000041      -0.000002
---------------------------------------------------
 Number of fixed atoms: 0
 Gradient time:  CPU 17.59 s  wall 1.25 s
 ----------------------------------------------------------------
             Standard Nuclear Orientation (Angstroms)
    I     Atom           X                Y                Z
 ----------------------------------------------------------------
    1      H      -1.1764267247    -0.0719282716    -0.1124863707
    2      O      -0.4643731605     0.5322741648     0.1472500655
    3      H       0.0989277522     0.8515494285    -0.7549061607
    4      H       0.8425890259     2.1217394338    -1.9404474393
    5      O       0.8034424988     1.1631096318    -1.8257047225
    6      H       0.3687809731     0.8173897244    -2.6167919776
    7      H      -0.8820784648     1.3012450881     0.5646410053
 ----------------------------------------------------------------
 Nuclear Repulsion Energy =          46.78345379 hartrees
 There are       10 alpha and       10 beta electrons
 Discretize the solute cavity surface with Lebedev spheres
	Using 110 Lebedev grid points for each H atom
	Using 194 Lebedev grid points for other atoms
	Atomic van der Waals radii will be scaled by 1.20
 Remove points where switching function is < 1.0e-08
 Keep 582 surface tesserae and discard 356 interior tesserae
 Molecular Surface Area = 65.860 Angst**2

                       Distance Matrix (Angstroms)
             H (  1)   O (  2)   H (  3)   H (  4)   O (  5)   H (  6)
   O (  2)  0.969301
   H (  3)  1.700601  1.110464
   H (  4)  3.497148  2.931387  1.889953
   O (  5)  2.894878  2.428551  1.319098  0.966266
   H (  6)  3.074101  2.900925  1.881650  1.543782  0.966577
   H (  7)  1.559085  0.969541  1.704642  3.150104  2.928108  3.452576

 
 Requested basis set is 6-311++G(2df,2p)
 There are 46 shells and 118 basis functions
 A cutoff of  1.0D-12 yielded   1064 shell pairs
 There are      7100 function pairs (      8401 Cartesian)
 Smallest overlap matrix eigenvalue = 6.10E-04
 Guess MOs from SCF MO coefficient file

 -----------------------------------------------------------------------
  General SCF calculation program by
  Eric Jon Sundstrom, Paul Horn, Yuezhi Mao, Dmitri Zuev, Alec White,
  David Stuck, Shaama M.S., Shane Yost, Joonho Lee, David Small,
  Daniel Levine, Susi Lehtola, Hugh Burton, Evgeny Epifanovsky,
  Bang C. Huynh
 -----------------------------------------------------------------------
 Exchange:     0.1500 Hartree-Fock + 1.0000 wB97M-V + LR-HF
 Correlation:  1.0000 wB97M-V
 Using SG-2 standard quadrature grid
 Nonlocal Correlation:  VV10 with C = 0.0100 and b = 6.00 and scale = 1.00000
 Grid used for NLC:  SG-1 standard quadrature
 
 Citation of the SMD model:
 Marenich, A.V.; Cramer, C.J.; Truhlar, D.G.
 J. Phys. Chem. B 2009, 113, 6378-6396.
 iSolventCode=           1
 Solvent: water                                                           
 
 vradii
            1           2           3           4           5           6
    1   1.2000000   1.5200000   1.2000000   1.2000000   1.5200000   1.2000000
            7
    1   1.2000000
 -------------------------------------------------------
 OpenMP BLAS3 based DFT computing Module                
 Release: version 1.0, May 2013, Q-Chem Inc. Pittsburgh 
 -------------------------------------------------------
 A restricted SCF calculation will be
 performed using Roothaan-Hall, DIIS, GDM
 SCF converges when RMS gradient is below 1.0e-07
 ---------------------------------------
  Cycle       Energy         DIIS error
 ---------------------------------------
    1    -153.1705476639      1.23e-03  Roothaan Step
 ---------------------------------------
  Cycle       Energy         DIIS error
 ---------------------------------------
    1    -153.3110042304      1.16e-03  
    2    -153.3140706482      4.33e-04  Done DIIS. Switching to GDM
 ---------------------------------------
  Cycle       Energy        RMS Gradient
 ---------------------------------------
    1    -153.3140706482      5.66e-03   Normal BFGS step
    2    -153.3142637099      4.12e-03   Normal BFGS step
    3    -153.3143848512      4.43e-04   Normal BFGS step
    4    -153.3143886659      1.70e-04   Normal BFGS step
    5    -153.3143890418      1.03e-04   Normal BFGS step
    6    -153.3143891515      1.86e-05   Normal BFGS step
    7    -153.3143891575      5.27e-06   Normal BFGS step
    8    -153.3143891576      1.39e-06   Normal BFGS step
    9    -153.3143891577      1.61e-07   Normal BFGS step
   10    -153.3143891577      4.91e-08  Convergence criterion met
 ---------------------------------------
 SCF time:   CPU 90.47s  wall 6.00s 
(3)  G-ENP(liq) elect-nuc-pol free energy of system     -153.314389158 a.u.
(4)  G-CDS(liq) cavity-dispersion-solvent structure 
     free energy                                                3.0441 kcal/mol
(6)  G-S(liq) free energy of system                     -153.309538041 a.u.
 SCF   energy in the final basis set =     -153.3095380408
 Total energy in the final basis set =     -153.3095380408
 
 --------------------------------------------------------------
 
                    Orbital Energies (a.u.)
 --------------------------------------------------------------
 
 Alpha MOs
 -- Occupied --
-19.4190 -19.3824  -1.2392  -1.1887  -0.7109  -0.7089  -0.6771  -0.5566
 -0.5362  -0.4748
 -- Virtual --
  0.0175   0.0472   0.0537   0.0797   0.0834   0.1742   0.2019   0.2037
  0.2127   0.2281   0.2455   0.2504   0.2563   0.2745   0.2955   0.3018
  0.3848   0.4029   0.5155   0.5867   0.5913   0.5996   0.6204   0.6559
  0.6829   0.7871   0.7973   0.8456   0.8717   0.9223   0.9762   0.9821
  1.0115   1.0513   1.1394   1.1603   1.2079   1.2143   1.2791   1.4074
  1.4203   1.4657   1.4865   1.5253   1.6727   1.7775   1.8328   1.9669
  2.0259   2.1025   2.1951   2.2497   2.2796   2.3062   2.3682   2.4554
  2.6196   2.7943   2.8358   2.8693   2.9061   3.6255   3.6896   3.7419
  3.8296   3.8529   3.8874   3.9183   3.9528   3.9793   4.0401   4.1055
  4.1383   4.1778   4.2550   4.2980   5.0952   5.1609   5.2104   5.2451
  5.2531   5.3195   5.3611   5.4240   5.4583   5.6437   5.6709   5.7042
  5.7832   5.8185   5.8421   6.7398   6.9865   7.0408   7.0593   7.1037
  7.1849   7.2199   7.2594   7.3328   7.3397   7.3886   7.6012   7.6123
  7.6451   7.8407  50.4332  50.5430
 --------------------------------------------------------------
 
          Ground-State Mulliken Net Atomic Charges

     Atom                 Charge (a.u.)
  ----------------------------------------
      1 H                     0.378299
      2 O                    -0.454736
      3 H                     0.562002
      4 H                     0.363581
      5 O                    -0.591236
      6 H                     0.363461
      7 H                     0.378630
  ----------------------------------------
  Sum of atomic charges =     1.000000

 -----------------------------------------------------------------
                    Cartesian Multipole Moments
 -----------------------------------------------------------------
    Charge (ESU x 10^10)
                 4.8032
    Dipole Moment (Debye)
         X      -3.2815      Y       5.6125      Z      -4.8134
       Tot       8.0893
    Quadrupole Moments (Debye-Ang)
        XX      -9.7128     XY       0.2431     YY      -1.2238
        XZ      -1.3876     YZ      -5.9142     ZZ       0.4869
    Octopole Moments (Debye-Ang^2)
       XXX     -12.6242    XXY      -9.2576    XYY       0.9707
       YYY      -9.9435    XXZ      13.7642    XYZ      -5.4638
       YYZ      -1.9194    XZZ      -0.0207    YZZ       6.4800
       ZZZ      -0.6983
    Hexadecapole Moments (Debye-Ang^3)
      XXXX     -43.6409   XXXY     -14.8902   XXYY     -13.9939
      XYYY      -1.9487   YYYY     -30.0133   XXXZ      32.8665
      XXYZ      14.3762   XYYZ      -4.0624   YYYZ       9.2834
      XXZZ     -34.9517   XYZZ       2.9910   YYZZ      -5.0933
      XZZZ      21.0625   YZZZ       2.3199   ZZZZ     -53.7921
 -----------------------------------------------------------------
 Calculating analytic gradient of the SCF energy
 Gradient of CDS energy
            1           2           3           4           5           6
    1  -0.0002598   0.0000847   0.0001411   0.0001211   0.0001405  -0.0001215
    2  -0.0003661  -0.0000605  -0.0000183   0.0004405  -0.0000797  -0.0002583
    3  -0.0000654   0.0000731   0.0000309   0.0000207   0.0000180  -0.0003554
            7
    1  -0.0001062
    2   0.0003424
    3   0.0002781
 Gradient of SCF Energy
            1           2           3           4           5           6
    1  -0.0437741   0.0498857  -0.0034041  -0.0040130   0.0590572  -0.0333087
    2  -0.0396170  -0.0287572   0.0162283   0.0555901  -0.0307276  -0.0241486
    3  -0.0194586   0.0341114  -0.0232777   0.0020390   0.0196744  -0.0388287
            7
    1  -0.0244431
    2   0.0514320
    3   0.0257403
 Max gradient component =       5.906E-02
 RMS gradient           =       3.394E-02
 Computing fast CPCM-SWIG gradient
 Updating gradient with PCM contributions...
 -- total gradient after adding PCM contribution --
---------------------------------------------------
  Atom         X              Y              Z     
---------------------------------------------------
   1       0.000101       0.000301       0.000164
   2      -0.000612      -0.000626      -0.000774
   3       0.001171       0.000705       0.001148
   4       0.000139       0.000041       0.000087
   5      -0.000700      -0.000077      -0.000461
   6      -0.000064      -0.000246      -0.000137
   7      -0.000035      -0.000099      -0.000029
---------------------------------------------------
 Number of fixed atoms: 0
 Gradient time:  CPU 16.99 s  wall 1.15 s
 ----------------------------------------------------------------
             Standard Nuclear Orientation (Angstroms)
    I     Atom           X                Y                Z
 ----------------------------------------------------------------
    1      H      -1.1764267247    -0.0719282716    -0.1144863707
    2      O      -0.4643731605     0.5322741648     0.1472500655
    3      H       0.0989277522     0.8515494285    -0.7549061607
    4      H       0.8425890259     2.1217394338    -1.9404474393
    5      O       0.8034424988     1.1631096318    -1.8257047225
    6      H       0.3687809731     0.8173897244    -2.6167919776
    7      H      -0.8820784648     1.3012450881     0.5646410053
 ----------------------------------------------------------------
 Nuclear Repulsion Energy =          46.78171506 hartrees
 There are       10 alpha and       10 beta electrons
 Discretize the solute cavity surface with Lebedev spheres
	Using 110 Lebedev grid points for each H atom
	Using 194 Lebedev grid points for other atoms
	Atomic van der Waals radii will be scaled by 1.20
 Remove points where switching function is < 1.0e-08
 Keep 581 surface tesserae and discard 357 interior tesserae
 Molecular Surface Area = 65.865 Angst**2

                       Distance Matrix (Angstroms)
             H (  1)   O (  2)   H (  3)   H (  4)   O (  5)   H (  6)
   O (  2)  0.969839
   H (  3)  1.699846  1.110464
   H (  4)  3.496103  2.931387  1.889953
   O (  5)  2.893695  2.428551  1.319098  0.966266
   H (  6)  3.072472  2.900925  1.881650  1.543782  0.966577
   H (  7)  1.559955  0.969541  1.704642  3.150104  2.928108  3.452576

 
 Requested basis set is 6-311++G(2df,2p)
 There are 46 shells and 118 basis functions
 A cutoff of  1.0D-12 yielded   1064 shell pairs
 There are      7100 function pairs (      8401 Cartesian)
 Smallest overlap matrix eigenvalue = 6.10E-04
 Guess MOs from SCF MO coefficient file

 -----------------------------------------------------------------------
  General SCF calculation program by
  Eric Jon Sundstrom, Paul Horn, Yuezhi Mao, Dmitri Zuev, Alec White,
  David Stuck, Shaama M.S., Shane Yost, Joonho Lee, David Small,
  Daniel Levine, Susi Lehtola, Hugh Burton, Evgeny Epifanovsky,
  Bang C. Huynh
 -----------------------------------------------------------------------
 Exchange:     0.1500 Hartree-Fock + 1.0000 wB97M-V + LR-HF
 Correlation:  1.0000 wB97M-V
 Using SG-2 standard quadrature grid
 Nonlocal Correlation:  VV10 with C = 0.0100 and b = 6.00 and scale = 1.00000
 Grid used for NLC:  SG-1 standard quadrature
 
 Citation of the SMD model:
 Marenich, A.V.; Cramer, C.J.; Truhlar, D.G.
 J. Phys. Chem. B 2009, 113, 6378-6396.
 iSolventCode=           1
 Solvent: water                                                           
 
 vradii
            1           2           3           4           5           6
    1   1.2000000   1.5200000   1.2000000   1.2000000   1.5200000   1.2000000
            7
    1   1.2000000
 -------------------------------------------------------
 OpenMP BLAS3 based DFT computing Module                
 Release: version 1.0, May 2013, Q-Chem Inc. Pittsburgh 
 -------------------------------------------------------
 A restricted SCF calculation will be
 performed using Roothaan-Hall, DIIS, GDM
 SCF converges when RMS gradient is below 1.0e-07
 ---------------------------------------
  Cycle       Energy         DIIS error
 ---------------------------------------
    1    -153.1705369508      1.23e-03  Roothaan Step
 ---------------------------------------
  Cycle       Energy         DIIS error
 ---------------------------------------
    1    -153.3110000448      1.16e-03  
    2    -153.3140693322      4.35e-04  Done DIIS. Switching to GDM
 ---------------------------------------
  Cycle       Energy        RMS Gradient
 ---------------------------------------
    1    -153.3140693322      5.68e-03   Normal BFGS step
    2    -153.3142629040      4.10e-03   Normal BFGS step
    3    -153.3143852549      4.46e-04   Normal BFGS step
    4    -153.3143890755      1.72e-04   Normal BFGS step
    5    -153.3143894415      1.05e-04   Normal BFGS step
    6    -153.3143895498      1.84e-05   Normal BFGS step
    7    -153.3143895557      5.28e-06   Normal BFGS step
    8    -153.3143895559      1.39e-06   Normal BFGS step
    9    -153.3143895559      1.61e-07   Normal BFGS step
   10    -153.3143895559      4.89e-08  Convergence criterion met
 ---------------------------------------
 SCF time:   CPU 91.87s  wall 6.00s 
(3)  G-ENP(liq) elect-nuc-pol free energy of system     -153.314389556 a.u.
(4)  G-CDS(liq) cavity-dispersion-solvent structure 
     free energy                                                3.0443 kcal/mol
(6)  G-S(liq) free energy of system                     -153.309538194 a.u.
 SCF   energy in the final basis set =     -153.3095381941
 Total energy in the final basis set =     -153.3095381941
 
 --------------------------------------------------------------
 
                    Orbital Energies (a.u.)
 --------------------------------------------------------------
 
 Alpha MOs
 -- Occupied --
-19.4190 -19.3824  -1.2391  -1.1887  -0.7109  -0.7088  -0.6771  -0.5566
 -0.5362  -0.4747
 -- Virtual --
  0.0175   0.0472   0.0537   0.0797   0.0834   0.1741   0.2019   0.2037
  0.2127   0.2281   0.2455   0.2504   0.2563   0.2745   0.2955   0.3018
  0.3849   0.4029   0.5155   0.5865   0.5913   0.5996   0.6203   0.6557
  0.6830   0.7871   0.7974   0.8456   0.8718   0.9223   0.9761   0.9822
  1.0115   1.0512   1.1392   1.1601   1.2078   1.2143   1.2790   1.4072
  1.4202   1.4657   1.4865   1.5256   1.6728   1.7777   1.8328   1.9668
  2.0260   2.1024   2.1953   2.2496   2.2795   2.3061   2.3684   2.4554
  2.6200   2.7943   2.8354   2.8693   2.9061   3.6256   3.6897   3.7418
  3.8296   3.8525   3.8874   3.9179   3.9527   3.9792   4.0400   4.1057
  4.1380   4.1779   4.2541   4.2979   5.0951   5.1609   5.2104   5.2451
  5.2530   5.3197   5.3605   5.4238   5.4580   5.6433   5.6708   5.7038
  5.7831   5.8183   5.8423   6.7398   6.9865   7.0403   7.0592   7.1033
  7.1850   7.2201   7.2591   7.3317   7.3384   7.3886   7.6009   7.6123
  7.6452   7.8409  50.4331  50.5430
 --------------------------------------------------------------
 
          Ground-State Mulliken Net Atomic Charges

     Atom                 Charge (a.u.)
  ----------------------------------------
      1 H                     0.378641
      2 O                    -0.455127
      3 H                     0.561954
      4 H                     0.363577
      5 O                    -0.591247
      6 H                     0.363455
      7 H                     0.378747
  ----------------------------------------
  Sum of atomic charges =     1.000000

 -----------------------------------------------------------------
                    Cartesian Multipole Moments
 -----------------------------------------------------------------
    Charge (ESU x 10^10)
                 4.8032
    Dipole Moment (Debye)
         X      -3.2818      Y       5.6127      Z      -4.8172
       Tot       8.0918
    Quadrupole Moments (Debye-Ang)
        XX      -9.7133     XY       0.2427     YY      -1.2245
        XZ      -1.3814     YZ      -5.9123     ZZ       0.4875
    Octopole Moments (Debye-Ang^2)
       XXX     -12.6231    XXY      -9.2577    XYY       0.9707
       YYY      -9.9441    XXZ      13.7577    XYZ      -5.4644
       YYZ      -1.9173    XZZ      -0.0225    YZZ       6.4795
       ZZZ      -0.6941
    Hexadecapole Moments (Debye-Ang^3)
      XXXX     -43.6449   XXXY     -14.8904   XXYY     -13.9948
      XYYY      -1.9492   YYYY     -30.0155   XXXZ      32.8743
      XXYZ      14.3777   XYYZ      -4.0628   YYYZ       9.2858
      XXZZ     -34.9513   XYZZ       2.9904   YYZZ      -5.0944
      XZZZ      21.0623   YZZZ       2.3230   ZZZZ     -53.7983
 -----------------------------------------------------------------
 Calculating analytic gradient of the SCF energy
 Gradient of CDS energy
            1           2           3           4           5           6
    1  -0.0002603   0.0000847   0.0001421   0.0001211   0.0001405  -0.0001215
    2  -0.0003657  -0.0000615  -0.0000175   0.0004405  -0.0000797  -0.0002583
    3  -0.0000642   0.0000709   0.0000318   0.0000207   0.0000180  -0.0003554
            7
    1  -0.0001066
    2   0.0003421
    3   0.0002782
 Gradient of SCF Energy
            1           2           3           4           5           6
    1  -0.0440277   0.0501780  -0.0035129  -0.0040149   0.0590719  -0.0333212
    2  -0.0399518  -0.0283820   0.0161343   0.0555907  -0.0307120  -0.0241580
    3  -0.0199010   0.0345692  -0.0233464   0.0020373   0.0197096  -0.0388310
            7
    1  -0.0243732
    2   0.0514788
    3   0.0257623
 Max gradient component =       5.907E-02
 RMS gradient           =       3.402E-02
 Computing fast CPCM-SWIG gradient
 Updating gradient with PCM contributions...
 -- total gradient after adding PCM contribution --
---------------------------------------------------
  Atom         X              Y              Z     
---------------------------------------------------
   1      -0.000198      -0.000056      -0.000084
   2      -0.000322      -0.000253      -0.000506
   3       0.001125       0.000651       0.001088
   4       0.000140       0.000041       0.000087
   5      -0.000705      -0.000075      -0.000440
   6      -0.000066      -0.000247      -0.000135
   7       0.000026      -0.000061      -0.000010
---------------------------------------------------
 Number of fixed atoms: 0
 Gradient time:  CPU 17.81 s  wall 1.29 s
 ----------------------------------------------------------------
             Standard Nuclear Orientation (Angstroms)
    I     Atom           X                Y                Z
 ----------------------------------------------------------------
    1      H      -1.1764267247    -0.0719282716    -0.1134863707
    2      O      -0.4633731605     0.5322741648     0.1472500655
    3      H       0.0989277522     0.8515494285    -0.7549061607
    4      H       0.8425890259     2.1217394338    -1.9404474393
    5      O       0.8034424988     1.1631096318    -1.8257047225
    6      H       0.3687809731     0.8173897244    -2.6167919776
    7      H      -0.8820784648     1.3012450881     0.5646410053
 ----------------------------------------------------------------
 Nuclear Repulsion Energy =          46.78244186 hartrees
 There are       10 alpha and       10 beta electrons
 Discretize the solute cavity surface with Lebedev spheres
	Using 110 Lebedev grid points for each H atom
	Using 194 Lebedev grid points for other atoms
	Atomic van der Waals radii will be scaled by 1.20
 Remove points where switching function is < 1.0e-08
 Keep 582 surface tesserae and discard 356 interior tesserae
 Molecular Surface Area = 65.867 Angst**2

                       Distance Matrix (Angstroms)
             H (  1)   O (  2)   H (  3)   H (  4)   O (  5)   H (  6)
   O (  2)  0.970304
   H (  3)  1.700223  1.109957
   H (  4)  3.496625  2.930941  1.889953
   O (  5)  2.894286  2.428029  1.319098  0.966266
   H (  6)  3.073287  2.900638  1.881650  1.543782  0.966577
   H (  7)  1.559520  0.969972  1.704642  3.150104  2.928108  3.452576

 
 Requested basis set is 6-311++G(2df,2p)
 There are 46 shells and 118 basis functions
 A cutoff of  1.0D-12 yielded   1064 shell pairs
 There are      7100 function pairs (      8401 Cartesian)
 Smallest overlap matrix eigenvalue = 6.09E-04
 Guess MOs from SCF MO coefficient file

 -----------------------------------------------------------------------
  General SCF calculation program by
  Eric Jon Sundstrom, Paul Horn, Yuezhi Mao, Dmitri Zuev, Alec White,
  David Stuck, Shaama M.S., Shane Yost, Joonho Lee, David Small,
  Daniel Levine, Susi Lehtola, Hugh Burton, Evgeny Epifanovsky,
  Bang C. Huynh
 -----------------------------------------------------------------------
 Exchange:     0.1500 Hartree-Fock + 1.0000 wB97M-V + LR-HF
 Correlation:  1.0000 wB97M-V
 Using SG-2 standard quadrature grid
 Nonlocal Correlation:  VV10 with C = 0.0100 and b = 6.00 and scale = 1.00000
 Grid used for NLC:  SG-1 standard quadrature
 
 Citation of the SMD model:
 Marenich, A.V.; Cramer, C.J.; Truhlar, D.G.
 J. Phys. Chem. B 2009, 113, 6378-6396.
 iSolventCode=           1
 Solvent: water                                                           
 
 vradii
            1           2           3           4           5           6
    1   1.2000000   1.5200000   1.2000000   1.2000000   1.5200000   1.2000000
            7
    1   1.2000000
 -------------------------------------------------------
 OpenMP BLAS3 based DFT computing Module                
 Release: version 1.0, May 2013, Q-Chem Inc. Pittsburgh 
 -------------------------------------------------------
 A restricted SCF calculation will be
 performed using Roothaan-Hall, DIIS, GDM
 SCF converges when RMS gradient is below 1.0e-07
 ---------------------------------------
  Cycle       Energy         DIIS error
 ---------------------------------------
    1    -153.1705266510      1.23e-03  Roothaan Step
 ---------------------------------------
  Cycle       Energy         DIIS error
 ---------------------------------------
    1    -153.3109965231      1.17e-03  
    2    -153.3140687314      4.36e-04  Done DIIS. Switching to GDM
 ---------------------------------------
  Cycle       Energy        RMS Gradient
 ---------------------------------------
    1    -153.3140687314      5.69e-03   Normal BFGS step
    2    -153.3142626230      4.09e-03   Normal BFGS step
    3    -153.3143853465      4.47e-04   Normal BFGS step
    4    -153.3143891734      1.72e-04   Normal BFGS step
    5    -153.3143895363      1.05e-04   Normal BFGS step
    6    -153.3143896440      1.84e-05   Normal BFGS step
    7    -153.3143896500      5.28e-06   Normal BFGS step
[...]


     2 Order 1, Length 21
    Atom      X          Y          Z
     1   -2.913941226168277e-01  -1.851491610169316e-01  -7.682062909322840e-02
     2    4.849129033447732e-01   8.944067126379071e-02  -8.334508358296330e-02
     3   -3.392693522835461e-02  -1.968309214475087e-02   2.188822132196844e-02
     4   -7.669327389251152e-04   1.968799075226949e-03   2.965634387311535e-03
     5   -2.006239610620759e-02  -1.496011939638034e-02   5.037868507042368e-02
     6   -3.254495598501361e-03  -2.961747087061461e-03   1.168057792072845e-03
     7   -1.355080908068336e-01   1.313446166399332e-01   8.376517799948402e-02

Order 1, Length 21
    Atom      X          Y          Z
     1   -2.273453692785577e-01  -2.006477407552601e-01  -9.858253369858476e-02
     2    8.944067126379071e-02   5.873629753815393e-01   2.166883327277581e-01
     3   -8.907551714092906e-03  -6.592303889908588e-02   1.547553030818038e-03
     4    9.597365657979965e-04   1.079782256387595e-03  -9.400116568362418e-04
     5   -1.303060819107014e-02   6.981857826208517e-03   2.640322078219895e-02
     6   -2.672585452244732e-03  -1.560963259525826e-03   8.966498310847277e-04
     7    1.615557054276299e-01  -3.272929795574913e-01  -1.460131996147281e-01

Order 1, Length 21
    Atom      X          Y          Z
     1   -7.921016568663755e-02  -8.704198264321625e-02  -7.088875449817844e-02
     2   -8.334508358296330e-02   2.166883327277581e-01   3.170661670128336e-01
     3    1.532043566659235e-03   6.908363542095996e-03  -7.893574930120850e-02
     4    2.167479968963815e-03  -3.340804836841509e-03  -4.501897558356793e-03
     5    4.563844025547571e-02   2.661718200948369e-02  -6.273429106811869e-02
     6    2.649420441736579e-03   2.980068087100643e-03   8.370539141541642e-04
     7    1.105678939546715e-01  -1.628111409593962e-01  -1.008426381001483e-01


     3 Order 1, Length 21
    Atom      X          Y          Z
     1   -1.183005757342206e-02  -8.378673006436162e-03   1.217388020979784e-02
     2   -3.392693522835461e-02  -8.907551714092906e-03   1.532043566659235e-03
     3    5.944543151367729e-02   8.404333443423291e-03   8.754579249859751e-03
     4   -5.776186048999426e-04  -2.895580547259863e-03  -4.827030848064004e-03
     5   -1.473335192923144e-02   1.415926644494706e-03  -1.955402179572698e-02
     6    7.497103197343412e-03   7.153169628280705e-03  -6.236853942022356e-03
     7   -5.874530685911705e-03   3.208383398594027e-03   8.157405706403206e-03

Order 1, Length 21
    Atom      X          Y          Z
     1   -6.778602387987701e-03  -6.448264551022021e-03   1.444010251509015e-02
     2   -1.968309214475087e-02  -6.592303889908588e-02   6.908363542095996e-03
     3    8.404333443423291e-03   8.868872054111589e-02   1.703979267017149e-02
     4   -7.773095580485005e-03  -3.966124436706046e-03   1.090650529267189e-02
     5    5.819613991933145e-03  -2.887861989579910e-02  -2.585837330066355e-02
     6    6.969548377997285e-03   3.551223112425003e-03  -3.915503512932099e-03
     7    1.304131278728054e-02   1.297620681713290e-02  -1.952089458303464e-02

Order 1, Length 21
    Atom      X          Y          Z
     1   -4.437047632887843e-03   4.228637301788484e-03   1.603168585173937e-02
     2    2.188822132196844e-02   1.547553030818038e-03  -7.893574930120850e-02
     3    8.754579249859751e-03   1.703979267017149e-02   5.706627283729348e-02
     4   -1.763502625618422e-03   6.742733580913407e-03   5.919397872216080e-03
     5   -2.706950297736618e-02  -2.176661490573959e-02   1.862914943730243e-02
     6    1.440642891393366e-03  -3.170225778085337e-03  -9.785521998669115e-03
     7    1.186615461505082e-03  -4.621848062921475e-03  -8.925094002341982e-03


     4 Order 1, Length 21
    Atom      X          Y          Z
     1    7.450693593869805e-05   8.133079699631471e-05  -2.233015766042177e-04
     2   -7.669327389251152e-04   9.597365657979965e-04   2.167479968963815e-03
     3   -5.776186048999426e-04  -7.773095580485005e-03  -1.763502625618422e-03
     4    1.425191745375249e-02   3.048512237738667e-02   7.883433746913956e-03
     5   -1.080945821039231e-02  -2.684257185130854e-03  -1.047395489035765e-02
     6   -2.045325351193298e-03  -2.089401684058110e-02   2.018324735778982e-03
     7   -1.271000842334041e-04  -1.748512697671499e-04   3.915227969699994e-04

Order 1, Length 21
    Atom      X          Y          Z
     1   -1.307754412754419e-04  -1.559585840847857e-04  -1.022055967419531e-04
     2    1.968799075226949e-03   1.079782256387595e-03  -3.340804836841509e-03
     3   -2.895580547259863e-03  -3.966124436706046e-03   6.742733580913407e-03
     4    3.048512237738667e-02   5.161761052790241e-01  -4.881102305968295e-02
     5   -3.163278659939068e-02  -4.974314783606592e-01   3.999011432437698e-02
     6    2.218718065405639e-03  -1.591076069984024e-02   5.430988186553075e-03
     7   -1.350471879945173e-05   2.084337533177029e-04   9.021829700545843e-05

Order 1, Length 21
    Atom      X          Y          Z
     1   -4.101532044795386e-05  -1.586432462563057e-04   1.214210241725687e-04
     2    2.965634387311535e-03  -9.400116568362418e-04  -4.501897558356793e-03
     3   -4.827030848064004e-03   1.090650529267189e-02   5.919397872216080e-03
     4    7.883433746913956e-03  -4.881102305968295e-02   4.876792067847426e-02
     5   -4.358164225783431e-03   7.715728278973710e-02  -5.401205141848750e-02
     6   -1.977255000086007e-03  -3.862024285980355e-02   4.154245894836926e-03
     7    3.544145732560091e-04   4.661929736142841e-04  -4.490027905185281e-04


     5 Order 1, Length 21
    Atom      X          Y          Z
     1    1.205707317637219e-03   1.716881436605925e-03   1.373747196770667e-03
     2   -2.006239610620759e-02  -1.303060819107014e-02   4.563844025547571e-02
     3   -1.473335192923144e-02   5.819613991933145e-03  -2.706950297736618e-02
     4   -1.080945821039231e-02  -3.163278659939068e-02  -4.358164225783431e-03
     5    1.558736602165736e-01   1.117750447358140e-01   1.638176802384244e-01
     6   -1.113719688000913e-01  -7.156652244520717e-02  -1.796826457476234e-01
     7   -1.022763189008716e-04  -3.081622908072791e-03   2.804553380020127e-04

Order 1, Length 21
    Atom      X          Y          Z
     1    6.521656123567871e-04   1.177369438085760e-03  -5.019485670413179e-04
     2   -1.496011939638034e-02   6.981857826208517e-03   2.661718200948369e-02
     3    1.415926644494706e-03  -2.887861989579910e-02  -2.176661490573959e-02
     4   -2.684257185130854e-03  -4.974314783606592e-01   7.715728278973710e-02
     5    1.117750447358140e-01   6.213770297559227e-01   6.109190810166491e-02
     6   -9.487204561798158e-02  -1.004534073418994e-01  -1.447313470380955e-01
     7   -1.326720136633185e-03  -2.772834671824535e-03   2.133543235558799e-03

Order 1, Length 21
    Atom      X          Y          Z
     1   -1.471543078997272e-04  -2.450779407854826e-03  -5.417425891062005e-03
     2    5.037868507042368e-02   2.640322078219895e-02  -6.273429106811869e-02
     3   -1.955402179572698e-02  -2.585837330066355e-02   1.862914943730243e-02
     4   -1.047395489035765e-02   3.999011432437698e-02  -5.401205141848750e-02
     5    1.638176802384244e-01   6.109190810166491e-02   4.545086824244772e-01
     6   -1.848637575663400e-01  -1.037592076171740e-01  -3.509697721822205e-01
     7    8.425003553273612e-04   4.583027785213894e-03  -4.411047799944528e-06


     6 Order 1, Length 21
    Atom      X          Y          Z
     1   -1.354280377158258e-04  -1.911213648078640e-05   5.660485794641188e-04
     2   -3.254495598501361e-03  -2.672585452244732e-03   2.649420441736579e-03
     3    7.497103197343412e-03   6.969548377997285e-03   1.440642891393366e-03
     4   -2.045325351193298e-03   2.218718065405639e-03  -1.977255000086007e-03
     5   -1.113719688000913e-01  -9.487204561798158e-02  -1.848637575663400e-01
     6    1.092565017973073e-01   8.841417757350217e-02   1.823746581956230e-01
     7    5.366440381390245e-05  -3.867535186016052e-05  -1.897723466879323e-04

Order 1, Length 21
    Atom      X          Y          Z
     1   -8.271431696247426e-05   1.890939103764499e-04   3.412936628242291e-04
     2   -2.961747087061461e-03  -1.560963259525826e-03   2.980068087100643e-03
     3    7.153169628280705e-03   3.551223112425003e-03  -3.170225778085337e-03
     4   -2.089401684058110e-02  -1.591076069984024e-02  -3.862024285980355e-02
     5   -7.156652244520717e-02  -1.004534073418994e-01  -1.037592076171740e-01
     6    8.841417757350217e-02   1.143538556677061e-01   1.422887761127357e-01
     7   -6.234250542092378e-05  -1.690168271205007e-04  -6.048996369811225e-05

Order 1, Length 21
    Atom      X          Y          Z
     1    2.887826199667650e-04   1.909365277950560e-04  -4.302610854037919e-04
     2    1.168057792072845e-03   8.966498310847277e-04   8.370539141541642e-04
     3   -6.236853942022356e-03  -3.915503512932099e-03  -9.785521998669115e-03
     4    2.018324735778982e-03   5.430988186553075e-03   4.154245894836926e-03
     5   -1.796826457476234e-01  -1.447313470380955e-01  -3.509697721822205e-01
     6    1.823746581956230e-01   1.422887761127357e-01   3.561401241920605e-01
     7    6.965653590283682e-05  -1.604896011089017e-04   5.415032232092088e-05


     7 Order 1, Length 21
    Atom      X          Y          Z
     1    1.476162885162972e-02  -2.699664328365733e-02  -1.618857530729368e-02
     2   -1.355080908068336e-01   1.615557054276299e-01   1.105678939546715e-01
     3   -5.874530685911705e-03   1.304131278728054e-02   1.186615461505082e-03
     4   -1.271000842334041e-04  -1.350471879945173e-05   3.544145732560091e-04
     5   -1.022763189008716e-04  -1.326720136633185e-03   8.425003553273612e-04
     6    5.366440381390245e-05  -6.234250542092378e-05   6.965653590283682e-05
     7    1.267967656081287e-01  -1.461977809326251e-01  -9.683253369688390e-02

Order 1, Length 21
    Atom      X          Y          Z
     1    1.493995807526738e-02  -2.080802328222282e-02  -9.916689042296652e-03
     2    1.313446166399332e-01  -3.272929795574913e-01  -1.628111409593962e-01
     3    3.208383398594027e-03   1.297620681713290e-02  -4.621848062921475e-03
     4   -1.748512697671499e-04   2.084337533177029e-04   4.661929736142841e-04
     5   -3.081622908072791e-03  -2.772834671824535e-03   4.583027785213894e-03
     6   -3.867535186016052e-05  -1.690168271205007e-04  -1.604896011089017e-04
     7   -1.461977809326251e-01   3.378582600267756e-01   1.724609598082297e-01

Order 1, Length 21
    Atom      X          Y          Z
     1    4.427739332038239e-03  -9.090178651912568e-03  -5.080320515256733e-03
     2    8.376517799948402e-02  -1.460131996147281e-01  -1.008426381001483e-01
     3    8.157405706403206e-03  -1.952089458303464e-02  -8.925094002341982e-03
     4    3.915227969699994e-04   9.021829700545843e-05  -4.490027905185281e-04
     5    2.804553380020127e-04   2.133543235558799e-03  -4.411047799944528e-06
     6   -1.897723466879323e-04  -6.048996369811225e-05   5.415032232092088e-05
     7   -9.683253369688390e-02   1.724609598082297e-01   1.152473225232358e-01




 # Finishing finite difference calculation for IDERIV #
 ######################################################
 ######################################################
 Requested basis set is 6-311++G(2df,2p)
 There are 46 shells and 118 basis functions
 **********************************************************************
 **                                                                  **
 **                       VIBRATIONAL ANALYSIS                       **
 **                       --------------------                       **
 **                                                                  **
 **        VIBRATIONAL FREQUENCIES (CM**-1) AND NORMAL MODES         **
 **     FORCE CONSTANTS (mDYN/ANGSTROM) AND REDUCED MASSES (AMU)     **
 **                  INFRARED INTENSITIES (KM/MOL)                   **
 **                                                                  **
 **********************************************************************
 

 Mode:                 1                      2                      3
 Frequency:        60.64                 314.51                 418.03
 Force Cnst:      0.0023                 0.1679                 0.1056
 Red. Mass:       1.0461                 2.8809                 1.0258
 IR Active:          YES                    YES                    YES
 IR Intens:        0.330                837.307                 31.447
 Raman Active:       YES                    YES                    YES
               X      Y      Z        X      Y      Z        X      Y      Z
 H          0.320 -0.370  0.089    0.095  0.096 -0.150   -0.130 -0.004  0.352
 O          0.007  0.031  0.016    0.122  0.060 -0.188   -0.006 -0.003  0.012
 H          0.006 -0.000  0.006    0.394  0.152 -0.603   -0.040 -0.337 -0.116
 H          0.418 -0.015  0.258   -0.198 -0.049  0.305   -0.416  0.071  0.472
 O         -0.009 -0.030 -0.017   -0.137 -0.071  0.217    0.020 -0.010 -0.023
 H         -0.310  0.404 -0.042   -0.166 -0.086  0.228    0.211  0.215 -0.225
 H         -0.403 -0.025 -0.292    0.107  0.062 -0.236    0.151  0.260 -0.309
 TransDip   0.013 -0.008  0.011    0.470  0.255 -0.757   -0.131  0.070  0.100

 Mode:                 4                      5                      6
 Frequency:       469.03                 640.02                 726.19
 Force Cnst:      0.1445                 0.2839                 0.3421
 Red. Mass:       1.1151                 1.1763                 1.1011
 IR Active:          YES                    YES                    YES
 IR Intens:      280.872                299.839                 10.452
 Raman Active:       YES                    YES                    YES
               X      Y      Z        X      Y      Z        X      Y      Z
 H          0.013 -0.133  0.317    0.110 -0.300  0.417   -0.155 -0.124  0.568
 O          0.012  0.007 -0.020   -0.027  0.048 -0.064   -0.018 -0.036 -0.033
 H         -0.216  0.043 -0.193   -0.178  0.155 -0.131   -0.033 -0.146 -0.092
 H          0.485 -0.037 -0.080   -0.282  0.015  0.152    0.235 -0.010 -0.376
 O         -0.075  0.005  0.030    0.058 -0.025 -0.008    0.022  0.049  0.025
 H          0.631 -0.018 -0.340   -0.199  0.072  0.083   -0.339 -0.146  0.304
 H          0.077 -0.055  0.150    0.059 -0.299  0.626    0.228  0.227 -0.270
 TransDip   0.509 -0.069 -0.156   -0.203 -0.153  0.493   -0.018 -0.093  0.043

 Mode:                 7                      8                      9
 Frequency:      1207.66                1275.92                1608.19
 Force Cnst:      1.0412                 1.0544                 1.6376
 Red. Mass:       1.2116                 1.0993                 1.0747
 IR Active:          YES                    YES                    YES
 IR Intens:     2839.498                820.520                463.635
 Raman Active:       YES                    YES                    YES
               X      Y      Z        X      Y      Z        X      Y      Z
 H          0.189 -0.168 -0.074    0.114 -0.180  0.073    0.082 -0.078 -0.051
 O          0.021  0.038 -0.092   -0.063  0.016  0.006   -0.019 -0.000  0.011
 H         -0.200 -0.338  0.827    0.870 -0.268  0.048    0.178 -0.015 -0.082
 H         -0.017 -0.034  0.001    0.126  0.023  0.088   -0.251 -0.067 -0.624
 O         -0.037 -0.012  0.042   -0.020  0.021 -0.031    0.012 -0.032  0.053
 H          0.030  0.030  0.007    0.092 -0.138 -0.015    0.008  0.627 -0.277
 H          0.254  0.099  0.032    0.122 -0.027  0.210    0.105  0.051  0.020
 TransDip  -0.661 -0.543  1.477    0.859 -0.084 -0.311    0.200  0.266 -0.604

 Mode:                10                     11                     12
 Frequency:      1670.05                1776.75                3737.23
 Force Cnst:      1.7840                 1.9412                 8.5910
 Red. Mass:       1.0856                 1.0437                 1.0440
 IR Active:          YES                    YES                    YES
 IR Intens:      388.446                124.633                149.674
 Raman Active:       YES                    YES                    YES
               X      Y      Z        X      Y      Z        X      Y      Z
 H          0.405 -0.349 -0.349   -0.099 -0.037  0.247   -0.502 -0.464 -0.190
 O         -0.057 -0.010  0.041   -0.010 -0.038 -0.018    0.048 -0.006 -0.008
 H         -0.184  0.193 -0.249    0.242  0.798  0.382    0.025  0.002 -0.015
 H          0.030  0.017  0.105   -0.069 -0.002  0.095   -0.003 -0.039  0.003
 O          0.007  0.004 -0.011   -0.006 -0.020 -0.011   -0.002  0.001 -0.002
 H         -0.017 -0.103  0.048    0.080  0.039 -0.083    0.018  0.017  0.034
 H          0.560  0.338 -0.030    0.093  0.116 -0.185   -0.278  0.559  0.317
 TransDip   0.461  0.111 -0.416    0.112  0.320  0.113   -0.376  0.024  0.106

 Mode:                13                     14                     15
 Frequency:      3773.28                3799.85                3846.45
 Force Cnst:      8.7669                 9.2136                 9.4373
 Red. Mass:       1.0451                 1.0830                 1.0826
 IR Active:          YES                    YES                    YES
 IR Intens:      103.075                360.532                276.446
 Raman Active:       YES                    YES                    YES
               X      Y      Z        X      Y      Z        X      Y      Z
 H         -0.028 -0.026 -0.011    0.516  0.437  0.184    0.002  0.002  0.001
 O          0.003 -0.000 -0.001   -0.013 -0.062 -0.031   -0.000 -0.000 -0.000
 H         -0.006 -0.010  0.022   -0.001 -0.005 -0.003   -0.001 -0.002 -0.000
 H          0.048  0.677 -0.055   -0.000 -0.004  0.001    0.032  0.723 -0.088
 O          0.017 -0.024  0.040    0.000  0.000  0.000   -0.021 -0.061 -0.030
 H         -0.319 -0.290 -0.587   -0.001 -0.001 -0.002    0.304  0.241  0.559
 H         -0.016  0.032  0.018   -0.308  0.559  0.310   -0.001  0.003  0.001
 TransDip  -0.122  0.153 -0.259    0.112  0.535  0.266    0.160  0.456  0.225

 STANDARD THERMODYNAMIC QUANTITIES AT   298.15 K  AND     1.00 ATM

   This Molecule has  0 Imaginary Frequencies
   Zero point vibrational energy:       36.202 kcal/mol

   Atom    1 Element H  Has Mass    1.00783
   Atom    2 Element O  Has Mass   15.99491
   Atom    3 Element H  Has Mass    1.00783
   Atom    4 Element H  Has Mass    1.00783
   Atom    5 Element O  Has Mass   15.99491
   Atom    6 Element H  Has Mass    1.00783
   Atom    7 Element H  Has Mass    1.00783
   Molecular Mass:    37.028970 amu
   Principal axes and moments of inertia in amu*Bohr^2:
                             1           2           3
    Eigenvalues --       11.46325   206.11436   211.93922
          X              -0.52260     0.25403     0.81385
          Y              -0.26241     0.86032    -0.43703
          Z               0.81119     0.44196     0.38294
   Rotational Symmetry Number is   1
   The Molecule is an Asymmetric Top
   Translational Enthalpy:        0.889 kcal/mol
   Rotational Enthalpy:           0.889 kcal/mol
   Vibrational Enthalpy:         37.478 kcal/mol
   gas constant (RT):             0.592 kcal/mol
   Translational Entropy:        36.757  cal/mol.K
   Rotational Entropy:           20.843  cal/mol.K
   Vibrational Entropy:           8.163  cal/mol.K

   Total Enthalpy:               39.848 kcal/mol
   Total Entropy:                65.762  cal/mol.K
 Total job time:  326.10s(wall), 5017.23s(cpu) 
 Wed Jun 26 20:25:39 2024

        *************************************************************
        *                                                           *
        *  Thank you very much for using Q-Chem.  Have a nice day.  *
        *                                                           *
        *************************************************************


