
Running Job 1 of 1 Q_in.in
qchem Q_in.in_3226243.0 /scratch/ari.fischer/qChem2164575.hpc-mn1/qchem3226243/ 0
/usr/local/qchem-5.4.1/exe/qcprog.exe_s Q_in.in_3226243.0 /scratch/ari.fischer/qChem2164575.hpc-mn1/qchem3226243/
                  Welcome to Q-Chem
     A Quantum Leap Into The Future Of Chemistry


 Q-Chem 5.4, Q-Chem, Inc., Pleasanton, CA (2021)

 License issued to: Nanyang Technological University (site)

 E. Epifanovsky,  A. T. B. Gilbert,  Xintian Feng,  Joonho Lee,  Yuezhi Mao,  
 N. Mardirossian,  P. Pokhilko,  A. White,  M. Wormit,  M. P. Coons,  
 A. L. Dempwolff,  Zhengting Gan,  D. Hait,  P. R. Horn,  L. D. Jacobson,  
 I. Kaliman,  J. Kussmann,  A. W. Lange,  Ka Un Lao,  D. S. Levine,  Jie Liu,  
 S. C. McKenzie,  A. F. Morrison,  K. Nanda,  F. Plasser,  D. R. Rehn,  
 M. L. Vidal,  Zhi-Qiang You,  Ying Zhu,  B. Alam,  B. Albrecht,  
 A. Aldossary,  E. Alguire,  J. H. Andersen,  D. Barton,  K. Begam,  A. Behn,  
 Y. A. Bernard,  E. J. Berquist,  H. Burton,  A. Carreras,  K. Carter-Fenk,  
 Romit Chakraborty,  A. D. Chien,  K. D. Closser,  V. Cofer-Shabica,  
 S. Dasgupta,  Jia Deng,  M. de Wergifosse,  M. Diedenhofen,  Hainam Do,  
 S. Ehlert,  Po-Tung Fang,  S. Fatehi,  Qingguo Feng,  T. Friedhoff,  
 J. Gayvert,  Qinghui Ge,  G. Gidofalvi,  M. Goldey,  J. Gomes,  
 C. Gonzalez-Espinoza,  S. Gulania,  A. Gunina,  M. W. D. Hanson-Heine,  
 P. H. P. Harbach,  A. W. Hauser,  M. F. Herbst,  M. Hernandez Vera,  
 M. Hodecker,  Z. C. Holden,  S. Houck,  Xunkun Huang,  Kerwin Hui,  
 B. C. Huynh,  M. Ivanov,  Hyunjun Ji,  Hanjie Jiang,  B. Kaduk,  S. Kaehler,  
 K. Khistyaev,  Jaehoon Kim,  P. Klunzinger,  Z. Koczor-Benda,  
 Joong Hoon Koh,  D. Kosenkov,  L. Koulias,  T. Kowalczyk,  C. M. Krauter,  
 K. Kue,  A. Kunitsa,  T. Kus,  A. Landau,  K. V. Lawler,  D. Lefrancois,  
 S. Lehtola,  Rain Li,  Yi-Pei Li,  Jiashu Liang,  M. Liebenthal,  
 Hung-Hsuan Lin,  You-Sheng Lin,  Fenglai Liu,  Kuan-Yu Liu,  
 M. Loipersberger,  A. Luenser,  A. Manjanath,  P. Manohar,  E. Mansoor,  
 S. F. Manzer,  Shan-Ping Mao,  A. V. Marenich,  T. Markovich,  S. Mason,  
 S. A. Maurer,  P. F. McLaughlin,  M. F. S. J. Menger,  J.-M. Mewes,  
 S. A. Mewes,  P. Morgante,  J. W. Mullinax,  K. J. Oosterbaan,  G. Paran,  
 Alexander C. Paul,  Suranjan K. Paul,  F. Pavosevic,  Zheng Pei,  S. Prager,  
 E. I. Proynov,  E. Ramos,  B. Rana,  A. E. Rask,  A. Rettig,  R. M. Richard,  
 F. Rob,  E. Rossomme,  T. Scheele,  M. Scheurer,  M. Schneider,  
 N. Sergueev,  S. M. Sharada,  W. Skomorowski,  D. W. Small,  C. J. Stein,  
 Yu-Chuan Su,  E. J. Sundstrom,  Zhen Tao,  J. Thirman,  T. Tsuchimochi,  
 N. M. Tubman,  S. P. Veccham,  O. Vydrov,  J. Wenzel,  J. Witte,  A. Yamada,  
 Kun Yao,  S. Yeganeh,  S. R. Yost,  A. Zech,  Igor Ying Zhang,  Xing Zhang,  
 Yu Zhang,  D. Zuev,  A. Aspuru-Guzik,  A. T. Bell,  N. A. Besley,  
 K. B. Bravaya,  B. R. Brooks,  D. Casanova,  Jeng-Da Chai,  S. Coriani,  
 C. J. Cramer,  A. E. DePrince, III,  R. A. DiStasio Jr.,  A. Dreuw,  
 B. D. Dunietz,  T. R. Furlani,  W. A. Goddard III,  S. Grimme,  
 S. Hammes-Schiffer,  T. Head-Gordon,  W. J. Hehre,  Chao-Ping Hsu,  
 T.-C. Jagau,  Yousung Jung,  A. Klamt,  Jing Kong,  D. S. Lambrecht,  
 WanZhen Liang,  N. J. Mayhall,  C. W. McCurdy,  J. B. Neaton,  T. Neudecker,  
 C. Ochsenfeld,  J. A. Parkhill,  R. Peverati,  V. A. Rassolov,  Yihan Shao,  
 L. V. Slipchenko,  R. P. Steele,  J. E. Subotnik,  A. J. W. Thom,  
 A. Tkatchenko,  D. G. Truhlar,  T. Van Voorhis,  T. A. Wesolowski,  
 K. B. Whaley,  H. L. Woodcock III,  P. M. Zimmerman,  S. Faraji,  
 P. M. W. Gill,  M. Head-Gordon,  J. M. Herbert,  A. I. Krylov

 Additional authors since Version 5.4.0: 
 Chandrima Chakravarty,  L. Cunha,  R. Kang,  Yongbin Kim,  S. Kotaru,  
 Shaozhi Li,  Xiangyuan Li,  F. Matz,  A. Molle,  V. Parravicini,  
 Haisheng Ren,  Hengyuan Shen,  Yingli Su,  Hung-Yi Tsai,  C. Utku,  
 Fang Wang,  Jeff Yang,  F. Zeller

 Contributors to earlier versions of Q-Chem not listed above: 
 R. D. Adamson,  B. Austin,  R. Baer,  J. Baker,  G. J. O. Beran,  
 K. Brandhorst,  S. T. Brown,  E. F. C. Byrd,  Arup K. Chakraborty,  
 G. K. L. Chan,  Chun-Min Chang,  Yunqing Chen,  C.-L. Cheng,  
 Siu Hung Chien,  D. M. Chipman,  D. L. Crittenden,  H. Dachsel,  
 R. J. Doerksen,  A. D. Dutoi,  R. G. Edgar,  J. Fosso-Tande,  
 L. Fusti-Molnar,  D. Ghosh,  A. Ghysels,  A. Golubeva-Zadorozhnaya,  
 J. Gonthier,  M. S. Gordon,  S. R. Gwaltney,  G. Hawkins,  J. E. Herr,  
 A. Heyden,  S. Hirata,  E. G. Hohenstein,  G. Kedziora,  F. J. Keil,  
 C. Kelley,  Jihan Kim,  R. A. King,  R. Z. Khaliullin,  P. P. Korambath,  
 W. Kurlancheek,  A. Laurent,  A. M. Lee,  M. S. Lee,  S. V. Levchenko,  
 Ching Yeh Lin,  D. Liotard,  E. Livshits,  R. C. Lochan,  I. Lotan,  
 L. A. Martinez-Martinez,  P. E. Maslen,  N. Nair,  D. P. O'Neill,  
 D. Neuhauser,  E. Neuscamman,  C. M. Oana,  R. Olivares-Amaya,  R. Olson,  
 T. M. Perrine,  B. Peters,  P. A. Pieniazek,  A. Prociuk,  Y. M. Rhee,  
 J. Ritchie,  M. A. Rohrdanz,  E. Rosta,  N. J. Russ,  H. F. Schaefer III,  
 M. W. Schmidt,  N. E. Schultz,  S. Sharma,  N. Shenvi,  C. D. Sherrill,  
 A. C. Simmonett,  A. Sodt,  T. Stein,  D. Stuck,  K. S. Thanthiriwatte,  
 V. Vanovschi,  L. Vogt,  Tao Wang,  A. Warshel,  M. A. Watson,  
 C. F. Williams,  Q. Wu,  X. Xu,  Jun Yang,  W. Zhang,  Yan Zhao

   Please cite Q-Chem as follows:
  "Software for the frontiers of quantum chemistry:
   An overview of developments in the Q-Chem 5 package"
   J. Chem. Phys. 155, 084801 (2021)
   https://doi.org/10.1063/5.0055522 (open access)

 Q-Chem 5.4.2 for Intel X86 EM64T Linux

 Parts of Q-Chem use Armadillo 9.900.5 (Nocturnal Misbehaviour).
 http://arma.sourceforge.net/

 Q-Chem begins on Mon Jun 10 15:58:43 2024  

 Host: 
0

     Scratch files written to /scratch/ari.fischer/qChem2164575.hpc-mn1/qchem3226243//
 Dec1321 |scratch|qcdevops|jenkins|workspace|build_RNUM 8249   
 Processing $rem in /usr/local/qchem-5.4.1/config/preferences:
 Processing $rem in /home/ari.fischer/.qchemrc:
 Symmetry turned off for PCM/SM12/SMD calculation

 Checking the input file for inconsistencies... 	...done.

--------------------------------------------------------------
User input:
--------------------------------------------------------------
$molecule
1 1
H   -1.4535104    0.1894817   -0.1420526
O   -0.6038892    0.3298634    0.3468661
H    0.0905986    0.3349061   -0.3588954
H    0.5501287    2.3119691   -2.2522735
O    1.0258303    1.4617568   -2.0750750
H    0.6304232    0.8183112   -2.7155373
H   -0.6487193    1.2690909    0.6575221
$end

$rem
BASIS = 6-311++G(2df,2p)
GUI = 2
JOB_TYPE = Optimization
METHOD = wB97M-V
SCF_ALGORITHM = DIIS_GDM
MAX_SCF_CYCLES = 400
GEOM_OPT_MAX_CYCLES = 150
SCF_CONVERGENCE = 7
THRESH = 12
Solvent_method = SMD
$end
--------------------------------------------------------------
 ----------------------------------------------------------------
             Standard Nuclear Orientation (Angstroms)
    I     Atom           X                Y                Z
 ----------------------------------------------------------------
    1      H      -1.4535104000     0.1894817000    -0.1420526000
    2      O      -0.6038892000     0.3298634000     0.3468661000
    3      H       0.0905986000     0.3349061000    -0.3588954000
    4      H       0.5501287000     2.3119691000    -2.2522735000
    5      O       1.0258303000     1.4617568000    -2.0750750000
    6      H       0.6304232000     0.8183112000    -2.7155373000
    7      H      -0.6487193000     1.2690909000     0.6575221000
 ----------------------------------------------------------------
 Nuclear Repulsion Energy =          41.49163857 hartrees
 There are       10 alpha and       10 beta electrons
 Requested basis set is 6-311++G(2df,2p)
 There are 46 shells and 118 basis functions

 Total QAlloc Memory Limit 288000 MB
 Mega-Array Size       188 MB
 MEM_STATIC part       192 MB
 
 Citation of the SMD model:
 Marenich, A.V.; Cramer, C.J.; Truhlar, D.G.
 J. Phys. Chem. B 2009, 113, 6378-6396.
 iSolventCode=           1
 Solvent: water                                                           
 
 vradii
            1           2           3           4           5           6
    1   1.2000000   1.5200000   1.2000000   1.2000000   1.5200000   1.2000000
            7
    1   1.2000000
 Changing PCM_VDW_RADII to SMD_RADIUS
 Discretize the solute cavity surface with Lebedev spheres
	Using 110 Lebedev grid points for each H atom
	Using 194 Lebedev grid points for other atoms
	Atomic van der Waals radii will be scaled by 1.20
 Remove points where switching function is < 1.0e-08
 Keep 616 surface tesserae and discard 322 interior tesserae
 Molecular Surface Area = 73.469 Angst**2
 A cutoff of  1.0D-12 yielded   1031 shell pairs
 There are      6690 function pairs (      7858 Cartesian)
 Smallest overlap matrix eigenvalue = 8.88E-04

 Scale SEOQF with 1.000000e-01/1.000000e-01/1.000000e-01

 Standard Electronic Orientation quadrupole field applied
 Nucleus-field energy     =    -0.0000000028 hartrees
 Guess from superposition of atomic densities
 Warning:  Energy on first SCF cycle will be non-variational
 SAD guess density has 21.000000 electrons

 -----------------------------------------------------------------------
  General SCF calculation program by
  Eric Jon Sundstrom, Paul Horn, Yuezhi Mao, Dmitri Zuev, Alec White,
  David Stuck, Shaama M.S., Shane Yost, Joonho Lee, David Small,
  Daniel Levine, Susi Lehtola, Hugh Burton, Evgeny Epifanovsky,
  Bang C. Huynh
 -----------------------------------------------------------------------
 Exchange:     0.1500 Hartree-Fock + 1.0000 wB97M-V + LR-HF
 Correlation:  1.0000 wB97M-V
 Using SG-2 standard quadrature grid
 Nonlocal Correlation:  VV10 with C = 0.0100 and b = 6.00 and scale = 1.00000
 Grid used for NLC:  SG-1 standard quadrature
 
 Citation of the SMD model:
 Marenich, A.V.; Cramer, C.J.; Truhlar, D.G.
 J. Phys. Chem. B 2009, 113, 6378-6396.
 iSolventCode=           1
 Solvent: water                                                           
 
 vradii
            1           2           3           4           5           6
    1   1.2000000   1.5200000   1.2000000   1.2000000   1.5200000   1.2000000
            7
    1   1.2000000
 using 8 threads for integral computing
 -------------------------------------------------------
 OpenMP Integral computing Module                
 Release: version 1.0, May 2013, Q-Chem Inc. Pittsburgh 
 -------------------------------------------------------
 -------------------------------------------------------
 OpenMP BLAS3 based DFT computing Module                
 Release: version 1.0, May 2013, Q-Chem Inc. Pittsburgh 
 -------------------------------------------------------
 A restricted SCF calculation will be
 performed using DIIS, GDM
 SCF converges when RMS gradient is below 1.0e-07
 ---------------------------------------
  Cycle       Energy         DIIS error
 ---------------------------------------
    1    -153.3942915953      4.33e-02  
    2    -153.2429445527      6.16e-03  Done DIIS. Switching to GDM
 ---------------------------------------
  Cycle       Energy        RMS Gradient
 ---------------------------------------
    1    -153.2429445527      7.49e-02   Normal BFGS step
    2    -153.2575028125      6.10e-02   Normal BFGS step
    3    -153.2985157797      4.61e-03   Normal BFGS step
    4    -153.2988678251      1.45e-03   Normal BFGS step
    5    -153.2988960259      8.90e-04   Normal BFGS step
    6    -153.2989022683      2.24e-04   Normal BFGS step
    7    -153.2989028233      4.58e-05   Normal BFGS step
    8    -153.2989028430      1.22e-05   Normal BFGS step
    9    -153.2989028448      2.14e-06   Normal BFGS step
   10    -153.2989028449      6.94e-07   Normal BFGS step
   11    -153.2989028449      7.75e-08  Convergence criterion met
 ---------------------------------------
 SCF time:   CPU 66.28s  wall 9.00s 
(3)  G-ENP(liq) elect-nuc-pol free energy of system     -153.298902845 a.u.
(4)  G-CDS(liq) cavity-dispersion-solvent structure 
     free energy                                                3.2788 kcal/mol
(6)  G-S(liq) free energy of system                     -153.293677674 a.u.
 SCF   energy in the final basis set =     -153.2936776739
 Total energy in the final basis set =     -153.2936776739
 
 --------------------------------------------------------------
 
                    Orbital Energies (a.u.)
 --------------------------------------------------------------
 
 Alpha MOs
 -- Occupied --
-19.4741 -19.3445  -1.2860  -1.1343  -0.7327  -0.7325  -0.6291  -0.5860
 -0.5110  -0.4365
 -- Virtual --
  0.0138   0.0461   0.0536   0.0651   0.0845   0.1725   0.1942   0.1956
  0.2020   0.2125   0.2226   0.2461   0.2511   0.2701   0.2790   0.2847
  0.3139   0.4140   0.5156   0.5434   0.5729   0.6178   0.6192   0.6303
  0.6667   0.7556   0.7602   0.8054   0.9148   0.9268   0.9396   0.9853
  0.9906   1.0225   1.0604   1.0815   1.1063   1.1196   1.2347   1.3240
  1.3976   1.4094   1.4507   1.4954   1.5972   1.7459   1.8652   1.8797
  1.9001   1.9590   1.9951   2.1197   2.1925   2.2140   2.2724   2.4149
  2.5399   2.6399   2.7986   2.8326   2.8865   3.5765   3.6781   3.7074
  3.7210   3.7606   3.8270   3.8798   3.8826   3.9099   3.9581   4.0655
  4.0814   4.1508   4.2356   4.3026   5.0781   5.1022   5.2106   5.2164
  5.2876   5.2953   5.3746   5.3826   5.4390   5.5422   5.6269   5.6345
  5.6539   5.6869   5.7505   6.8764   6.9833   7.0118   7.0168   7.0348
  7.0620   7.1176   7.1383   7.1761   7.2012   7.2525   7.4267   7.5807
  7.5930   7.6659  50.4160  50.4392
 --------------------------------------------------------------
 
          Ground-State Mulliken Net Atomic Charges

     Atom                 Charge (a.u.)
  ----------------------------------------
      1 H                     0.400156
      2 O                    -0.242050
      3 H                     0.428589
      4 H                     0.337491
      5 O                    -0.664270
      6 H                     0.337871
      7 H                     0.402213
  ----------------------------------------
  Sum of atomic charges =     1.000000

 -----------------------------------------------------------------
                    Cartesian Multipole Moments
 -----------------------------------------------------------------
    Charge (ESU x 10^10)
                 4.8032
    Dipole Moment (Debye)
         X      -5.0863      Y       4.0290      Z      -2.3414
       Tot       6.8982
    Quadrupole Moments (Debye-Ang)
        XX     -11.1837     XY      -4.5254     YY      -5.1651
        XZ       2.6414     YZ      -1.1413     ZZ      -4.2515
    Octopole Moments (Debye-Ang^2)
       XXX     -22.8491    XXY     -16.0218    XYY      -7.7059
       YYY     -17.1590    XXZ      19.5549    XYZ       3.4078
       YYZ       4.9641    XZZ      -7.7189    YZZ      -1.5174
       ZZZ      12.9427
    Hexadecapole Moments (Debye-Ang^3)
      XXXX     -64.4310   XXXY     -36.6041   XXYY     -35.4491
      XYYY     -28.0591   YYYY     -57.0579   XXXZ      59.8662
      XXYZ      33.1822   XYYZ      18.0660   YYYZ      31.0711
      XXZZ     -59.8406   XYZZ     -18.6155   YYZZ     -24.1905
      XZZZ      51.5378   YZZZ      36.5110   ZZZZ    -126.3947
 -----------------------------------------------------------------
 Calculating analytic gradient of the SCF energy
 Gradient of CDS energy
            1           2           3           4           5           6
    1  -0.0003991   0.0000079   0.0003171  -0.0001227   0.0001760   0.0000228
    2  -0.0002044   0.0000404  -0.0002526   0.0004428  -0.0000853  -0.0002696
    3  -0.0001025  -0.0000385   0.0001051   0.0000359   0.0000402  -0.0003716
            7
    1  -0.0000020
    2   0.0003286
    3   0.0003315
 Gradient of SCF Energy
            1           2           3           4           5           6
    1  -0.0685914   0.0268368   0.0381960  -0.0384922   0.0829657  -0.0350216
    2  -0.0100590  -0.0666663  -0.0029963   0.0620317   0.0009874  -0.0568066
    3  -0.0404191   0.0697222  -0.0462871  -0.0029478   0.0328163  -0.0355711
            7
    1  -0.0058933
    2   0.0735092
    3   0.0226866
 Max gradient component =       8.297E-02
 RMS gradient           =       4.632E-02
 Computing fast CPCM-SWIG gradient
 Updating gradient with PCM contributions...
 -- total gradient after adding PCM contribution --
---------------------------------------------------
  Atom         X              Y              Z     
---------------------------------------------------
   1      -0.008035       0.001880      -0.007520
   2       0.007179      -0.014924       0.014160
   3       0.000448      -0.001237      -0.002273
   4      -0.010697       0.022124      -0.003775
   5       0.021537      -0.001632       0.015121
   6      -0.009141      -0.017287      -0.014998
   7      -0.001291       0.011077      -0.000714
---------------------------------------------------
 Number of fixed atoms: 0
 Gradient time:  CPU 10.87 s  wall 1.71 s
 Geometry Optimization Parameters
   NAtoms,    NIC,     NZ,  NCons,   NDum,   NFix, NCnnct, MaxDiis
        7      40       0       0       0       0       0       0


** GEOMETRY OPTIMIZATION IN DELOCALIZED INTERNAL COORDINATES **
   Searching for a Minimum

   Optimization Cycle:   1

                       Coordinates (Angstroms)
     ATOM                X               Y               Z
      1  H        -1.4535104000    0.1894817000   -0.1420526000
      2  O        -0.6038892000    0.3298634000    0.3468661000
      3  H         0.0905986000    0.3349061000   -0.3588954000
      4  H         0.5501287000    2.3119691000   -2.2522735000
      5  O         1.0258303000    1.4617568000   -2.0750750000
      6  H         0.6304232000    0.8183112000   -2.7155373000
      7  H        -0.6487193000    1.2690909000    0.6575221000
   Point Group: c1    Number of degrees of freedom:    15


   Energy is   -153.293677674


 Attempting to generate delocalized internal coordinates
 Initial Hessian constructed with Jon Baker's OPTIMIZE code

 15 Hessian modes will be used to form the next step
  Hessian Eigenvalues:
     0.006902    0.009595    0.021952    0.048613    0.070495    0.072362
     0.084441    0.100835    0.160000    0.160000    0.429215    0.494379
     0.494435    0.494484    0.494591

 Minimum search - taking simple RFO step
 Searching for Lamda that Minimizes Along All modes
 Value Taken    Lamda =  -0.00430245
 Step Taken.  Stepsize is  0.185821

                             Maximum     Tolerance    Cnvgd?
         Gradient           0.031824      0.000300      NO
         Displacement       0.104646      0.001200      NO
         Energy change     *********      0.000001      NO


 New Cartesian Coordinates Obtained by Inverse Iteration

 Displacement from previous Coordinates is:  0.144561
 ----------------------------------------------------------------
             Standard Nuclear Orientation (Angstroms)
    I     Atom           X                Y                Z
 ----------------------------------------------------------------
    1      H      -1.4513802084     0.1814263801    -0.1347130722
    2      O      -0.5973352953     0.3514504542     0.3132384537
    3      H       0.0936264737     0.3598789056    -0.3874125632
    4      H       0.5476613286     2.2754073486    -2.2395972782
    5      O       1.0151534031     1.4510721271    -2.0634313017
    6      H       0.6303580802     0.8338603617    -2.6970880775
    7      H      -0.6472218819     1.2622836225     0.6695582391
 ----------------------------------------------------------------
 Nuclear Repulsion Energy =          42.15645925 hartrees
 There are       10 alpha and       10 beta electrons
 Discretize the solute cavity surface with Lebedev spheres
	Using 110 Lebedev grid points for each H atom
	Using 194 Lebedev grid points for other atoms
	Atomic van der Waals radii will be scaled by 1.20
 Remove points where switching function is < 1.0e-08
 Keep 610 surface tesserae and discard 328 interior tesserae
 Molecular Surface Area = 72.389 Angst**2
 Applying Cartesian multipole field
    Component          Value
    ---------          -----
     (2,0,0)        1.00000E-11
     (0,2,0)        2.00000E-11
     (0,0,2)       -3.00000E-11
 Nucleus-field energy     =    -0.0000000028 hartrees
 Requested basis set is 6-311++G(2df,2p)
 There are 46 shells and 118 basis functions
 A cutoff of  1.0D-12 yielded   1036 shell pairs
 There are      6795 function pairs (      8023 Cartesian)
 Smallest overlap matrix eigenvalue = 9.37E-04
 Guess MOs from SCF MO coefficient file

 -----------------------------------------------------------------------
  General SCF calculation program by
  Eric Jon Sundstrom, Paul Horn, Yuezhi Mao, Dmitri Zuev, Alec White,
  David Stuck, Shaama M.S., Shane Yost, Joonho Lee, David Small,
  Daniel Levine, Susi Lehtola, Hugh Burton, Evgeny Epifanovsky,
  Bang C. Huynh
 -----------------------------------------------------------------------
 Exchange:     0.1500 Hartree-Fock + 1.0000 wB97M-V + LR-HF
 Correlation:  1.0000 wB97M-V
 Using SG-2 standard quadrature grid
 Nonlocal Correlation:  VV10 with C = 0.0100 and b = 6.00 and scale = 1.00000
 Grid used for NLC:  SG-1 standard quadrature
 
 Citation of the SMD model:
 Marenich, A.V.; Cramer, C.J.; Truhlar, D.G.
 J. Phys. Chem. B 2009, 113, 6378-6396.
 iSolventCode=           1
 Solvent: water                                                           
 
 vradii
            1           2           3           4           5           6
    1   1.2000000   1.5200000   1.2000000   1.2000000   1.5200000   1.2000000
            7
    1   1.2000000
 -------------------------------------------------------
 OpenMP BLAS3 based DFT computing Module                
 Release: version 1.0, May 2013, Q-Chem Inc. Pittsburgh 
 -------------------------------------------------------
 A restricted SCF calculation will be
 performed using Roothaan-Hall, DIIS, GDM
 SCF converges when RMS gradient is below 1.0e-07
 ---------------------------------------
  Cycle       Energy         DIIS error
 ---------------------------------------
    1    -153.1394530173      1.68e-03  Roothaan Step
 ---------------------------------------
  Cycle       Energy         DIIS error
 ---------------------------------------
    1    -153.2966212232      1.34e-03  
    2    -153.3010050340      5.33e-04  Done DIIS. Switching to GDM
 ---------------------------------------
  Cycle       Energy        RMS Gradient
 ---------------------------------------
    1    -153.3010050340      6.60e-03   Normal BFGS step
    2    -153.3013117520      4.48e-03   Normal BFGS step
    3    -153.3015467560      9.01e-04   Normal BFGS step
    4    -153.3015552431      3.50e-04   Normal BFGS step
    5    -153.3015559167      1.12e-04   Normal BFGS step
    6    -153.3015560143      3.81e-05   Normal BFGS step
    7    -153.3015560351      6.00e-06   Normal BFGS step
    8    -153.3015560355      1.46e-06   Normal BFGS step
    9    -153.3015560356      2.20e-07   Normal BFGS step
   10    -153.3015560355      5.50e-08  Convergence criterion met
 ---------------------------------------
 SCF time:   CPU 66.43s  wall 10.00s 
(3)  G-ENP(liq) elect-nuc-pol free energy of system     -153.301556036 a.u.
(4)  G-CDS(liq) cavity-dispersion-solvent structure 
     free energy                                                3.2412 kcal/mol
(6)  G-S(liq) free energy of system                     -153.296390880 a.u.
 SCF   energy in the final basis set =     -153.2963908802
 Total energy in the final basis set =     -153.2963908802
 
 --------------------------------------------------------------
 
                    Orbital Energies (a.u.)
 --------------------------------------------------------------
 
 Alpha MOs
 -- Occupied --
-19.4713 -19.3421  -1.2880  -1.1464  -0.7401  -0.7396  -0.6383  -0.5814
 -0.5166  -0.4394
 -- Virtual --
  0.0149   0.0468   0.0540   0.0656   0.0849   0.1753   0.1963   0.1986
  0.2058   0.2147   0.2255   0.2479   0.2564   0.2696   0.2791   0.2870
  0.3116   0.4133   0.5221   0.5487   0.5835   0.6176   0.6305   0.6390
  0.6739   0.7602   0.7741   0.8167   0.9073   0.9175   0.9353   0.9806
  1.0012   1.0212   1.0645   1.0948   1.1198   1.1347   1.2339   1.3246
  1.4064   1.4128   1.4733   1.5168   1.5903   1.7022   1.8837   1.8910
  1.9112   1.9790   2.0098   2.1616   2.1877   2.2148   2.2565   2.4131
  2.5569   2.6010   2.8000   2.8365   2.9244   3.5702   3.6836   3.7207
  3.7283   3.7715   3.8449   3.9119   3.9195   3.9397   3.9798   4.0739
  4.1008   4.1868   4.2786   4.3494   5.0964   5.1018   5.2154   5.2256
  5.2931   5.3087   5.3541   5.3650   5.5091   5.5977   5.6698   5.6746
  5.7184   5.7586   5.8039   6.8999   6.9971   7.0249   7.0433   7.0619
  7.1059   7.1497   7.1763   7.2403   7.2445   7.4219   7.4541   7.5675
  7.5814   7.6560  50.4121  50.4751
 --------------------------------------------------------------
 
          Ground-State Mulliken Net Atomic Charges

     Atom                 Charge (a.u.)
  ----------------------------------------
      1 H                     0.394748
      2 O                    -0.232032
      3 H                     0.428646
      4 H                     0.326880
      5 O                    -0.642030
      6 H                     0.327400
      7 H                     0.396387
  ----------------------------------------
  Sum of atomic charges =     1.000000

 -----------------------------------------------------------------
                    Cartesian Multipole Moments
 -----------------------------------------------------------------
    Charge (ESU x 10^10)
                 4.8032
    Dipole Moment (Debye)
         X      -5.0503      Y       4.0311      Z      -2.3168
       Tot       6.8646
    Quadrupole Moments (Debye-Ang)
        XX     -11.0193     XY      -4.3648     YY      -5.2838
        XZ       2.4351     YZ      -1.1723     ZZ      -4.0443
    Octopole Moments (Debye-Ang^2)
       XXX     -22.5168    XXY     -15.8942    XYY      -7.5292
       YYY     -17.9545    XXZ      19.4027    XYZ       3.1583
       YYZ       5.3002    XZZ      -7.4608    YZZ      -1.2403
       ZZZ      13.0453
    Hexadecapole Moments (Debye-Ang^3)
      XXXX     -62.6607   XXXY     -35.3664   XXYY     -34.6867
      XYYY     -27.3813   YYYY     -58.4292   XXXZ      58.0109
      XXYZ      32.3565   XYYZ      17.4792   YYYZ      31.8259
      XXZZ     -58.1503   XYZZ     -17.8184   YYZZ     -23.7370
      XZZZ      49.5553   YZZZ      34.8482   ZZZZ    -122.3109
 -----------------------------------------------------------------
 Calculating analytic gradient of the SCF energy
 Gradient of CDS energy
            1           2           3           4           5           6
    1  -0.0003958   0.0000219   0.0003129  -0.0001257   0.0001628   0.0000278
    2  -0.0001970   0.0000279  -0.0002514   0.0004540  -0.0000882  -0.0002759
    3  -0.0001099  -0.0000206   0.0000944   0.0000403   0.0000491  -0.0003757
            7
    1  -0.0000039
    2   0.0003306
    3   0.0003224
 Gradient of SCF Energy
            1           2           3           4           5           6
    1  -0.0647044   0.0226200   0.0381316  -0.0286134   0.0654358  -0.0274857
    2  -0.0142705  -0.0506897  -0.0062513   0.0387419   0.0064106  -0.0388063
    3  -0.0322286   0.0520174  -0.0419921  -0.0000087   0.0147349  -0.0202057
            7
    1  -0.0053838
    2   0.0648653
    3   0.0276829
 Max gradient component =       6.544E-02
 RMS gradient           =       3.716E-02
 Computing fast CPCM-SWIG gradient
 Updating gradient with PCM contributions...
 -- total gradient after adding PCM contribution --
---------------------------------------------------
  Atom         X              Y              Z     
---------------------------------------------------
   1      -0.002004       0.001293      -0.002010
   2       0.002482      -0.004377       0.004520
   3      -0.001167      -0.003506       0.002093
   4      -0.000386      -0.000186      -0.001453
   5       0.003382       0.003488      -0.001764
   6      -0.001385       0.000147      -0.000429
   7      -0.000922       0.003141      -0.000957
---------------------------------------------------
 Number of fixed atoms: 0
 Gradient time:  CPU 11.38 s  wall 1.57 s
 Geometry Optimization Parameters
   NAtoms,    NIC,     NZ,  NCons,   NDum,   NFix, NCnnct, MaxDiis
        7      40       0       0       0       0       0       0

 Cartesian Hessian Update
 Hessian updated using BFGS update


** GEOMETRY OPTIMIZATION IN DELOCALIZED INTERNAL COORDINATES **
   Searching for a Minimum

   Optimization Cycle:   2

                       Coordinates (Angstroms)
     ATOM                X               Y               Z
      1  H        -1.4513802084    0.1814263801   -0.1347130722
      2  O        -0.5973352953    0.3514504542    0.3132384537
      3  H         0.0936264737    0.3598789056   -0.3874125632
      4  H         0.5476613286    2.2754073486   -2.2395972782
      5  O         1.0151534031    1.4510721271   -2.0634313017
      6  H         0.6303580802    0.8338603617   -2.6970880775
      7  H        -0.6472218819    1.2622836225    0.6695582391
   Point Group: c1    Number of degrees of freedom:    15


   Energy is   -153.296390880

 Hessian updated using BFGS update

 15 Hessian modes will be used to form the next step
  Hessian Eigenvalues:
     0.006894    0.009585    0.017697    0.048264    0.063626    0.073483
     0.085038    0.097883    0.157246    0.160008    0.442332    0.480610
     0.494408    0.494566    0.547990

 Minimum search - taking simple RFO step
 Searching for Lamda that Minimizes Along All modes
 Value Taken    Lamda =  -0.00131299
 Step Taken.  Stepsize is  0.235751

                             Maximum     Tolerance    Cnvgd?
         Gradient           0.004964      0.000300      NO
         Displacement       0.150899      0.001200      NO
         Energy change     -0.002713      0.000001      NO


 New Cartesian Coordinates Obtained by Inverse Iteration

 Displacement from previous Coordinates is:  0.183255
 ----------------------------------------------------------------
             Standard Nuclear Orientation (Angstroms)
    I     Atom           X                Y                Z
 ----------------------------------------------------------------
    1      H      -1.4403396864     0.1718032155    -0.1411388756
    2      O      -0.5841186908     0.3763423267     0.2745937195
    3      H       0.1027599891     0.3923022431    -0.4253853460
    4      H       0.5396018356     2.2564747110    -2.1984762576
    5      O       0.9960422707     1.4294152622    -2.0383572322
    6      H       0.6186905710     0.8233806868    -2.6768821098
    7      H      -0.6417743892     1.2656607547     0.6662005018
 ----------------------------------------------------------------
 Nuclear Repulsion Energy =          42.77352996 hartrees
 There are       10 alpha and       10 beta electrons
 Discretize the solute cavity surface with Lebedev spheres
	Using 110 Lebedev grid points for each H atom
	Using 194 Lebedev grid points for other atoms
	Atomic van der Waals radii will be scaled by 1.20
 Remove points where switching function is < 1.0e-08
 Keep 607 surface tesserae and discard 331 interior tesserae
 Molecular Surface Area = 71.411 Angst**2
 Applying Cartesian multipole field
    Component          Value
    ---------          -----
     (2,0,0)        1.00000E-11
     (0,2,0)        2.00000E-11
     (0,0,2)       -3.00000E-11
 Nucleus-field energy     =    -0.0000000027 hartrees
 Requested basis set is 6-311++G(2df,2p)
 There are 46 shells and 118 basis functions
 A cutoff of  1.0D-12 yielded   1040 shell pairs
 There are      6873 function pairs (      8134 Cartesian)
 Smallest overlap matrix eigenvalue = 9.81E-04
 Guess MOs from SCF MO coefficient file

 -----------------------------------------------------------------------
  General SCF calculation program by
  Eric Jon Sundstrom, Paul Horn, Yuezhi Mao, Dmitri Zuev, Alec White,
  David Stuck, Shaama M.S., Shane Yost, Joonho Lee, David Small,
  Daniel Levine, Susi Lehtola, Hugh Burton, Evgeny Epifanovsky,
  Bang C. Huynh
 -----------------------------------------------------------------------
 Exchange:     0.1500 Hartree-Fock + 1.0000 wB97M-V + LR-HF
 Correlation:  1.0000 wB97M-V
 Using SG-2 standard quadrature grid
 Nonlocal Correlation:  VV10 with C = 0.0100 and b = 6.00 and scale = 1.00000
 Grid used for NLC:  SG-1 standard quadrature
 
 Citation of the SMD model:
 Marenich, A.V.; Cramer, C.J.; Truhlar, D.G.
 J. Phys. Chem. B 2009, 113, 6378-6396.
 iSolventCode=           1
 Solvent: water                                                           
 
 vradii
            1           2           3           4           5           6
    1   1.2000000   1.5200000   1.2000000   1.2000000   1.5200000   1.2000000
            7
    1   1.2000000
 -------------------------------------------------------
 OpenMP BLAS3 based DFT computing Module                
 Release: version 1.0, May 2013, Q-Chem Inc. Pittsburgh 
 -------------------------------------------------------
 A restricted SCF calculation will be
 performed using Roothaan-Hall, DIIS, GDM
 SCF converges when RMS gradient is below 1.0e-07
 ---------------------------------------
  Cycle       Energy         DIIS error
 ---------------------------------------
    1    -153.1422325102      1.56e-03  Roothaan Step
 ---------------------------------------
  Cycle       Energy         DIIS error
 ---------------------------------------
    1    -153.2977057574      1.35e-03  
    2    -153.3018971889      6.65e-04  Done DIIS. Switching to GDM
 ---------------------------------------
  Cycle       Energy        RMS Gradient
 ---------------------------------------
    1    -153.3018971889      8.18e-03   Normal BFGS step
    2    -153.3021644026      5.82e-03   Normal BFGS step
    3    -153.3025828458      1.19e-03   Normal BFGS step
    4    -153.3025944936      4.58e-04   Normal BFGS step
    5    -153.3025955410      1.47e-04   Normal BFGS step
    6    -153.3025957007      4.64e-05   Normal BFGS step
    7    -153.3025957290      1.16e-05   Normal BFGS step
    8    -153.3025957298      2.44e-06   Normal BFGS step
    9    -153.3025957299      3.31e-07   Normal BFGS step
   10    -153.3025957299      9.25e-08  Convergence criterion met
 ---------------------------------------
 SCF time:   CPU 66.06s  wall 9.00s 
(3)  G-ENP(liq) elect-nuc-pol free energy of system     -153.302595730 a.u.
(4)  G-CDS(liq) cavity-dispersion-solvent structure 
     free energy                                                3.2180 kcal/mol
(6)  G-S(liq) free energy of system                     -153.297467598 a.u.
 SCF   energy in the final basis set =     -153.2974675984
 Total energy in the final basis set =     -153.2974675984
 
 --------------------------------------------------------------
 
                    Orbital Energies (a.u.)
 --------------------------------------------------------------
 
 Alpha MOs
 -- Occupied --
-19.4682 -19.3425  -1.2876  -1.1503  -0.7442  -0.7430  -0.6437  -0.5769
 -0.5175  -0.4415
 -- Virtual --
  0.0155   0.0471   0.0541   0.0663   0.0852   0.1773   0.1974   0.2001
  0.2082   0.2173   0.2262   0.2482   0.2608   0.2698   0.2781   0.2890
  0.3110   0.4088   0.5259   0.5509   0.5878   0.6149   0.6330   0.6404
  0.6814   0.7719   0.7805   0.8279   0.9004   0.9098   0.9350   0.9754
  1.0178   1.0244   1.0746   1.0993   1.1347   1.1479   1.2350   1.3219
  1.4079   1.4122   1.4836   1.5189   1.5665   1.7048   1.8853   1.8995
  1.9220   1.9948   2.0261   2.1877   2.1936   2.2328   2.2547   2.4130
  2.5598   2.5869   2.7969   2.8412   2.9310   3.5669   3.6914   3.7257
  3.7442   3.7764   3.8620   3.9328   3.9475   3.9638   3.9924   4.0794
  4.1179   4.2016   4.2895   4.3681   5.0959   5.1184   5.2107   5.2323
  5.3004   5.3118   5.3354   5.3504   5.5143   5.6235   5.6937   5.6967
  5.7307   5.8125   5.8320   6.9150   6.9977   7.0330   7.0534   7.0735
  7.1238   7.1661   7.2087   7.2691   7.2737   7.4347   7.4966   7.5561
  7.5750   7.6472  50.4111  50.4889
 --------------------------------------------------------------
 
          Ground-State Mulliken Net Atomic Charges

     Atom                 Charge (a.u.)
  ----------------------------------------
      1 H                     0.392744
      2 O                    -0.231600
      3 H                     0.429234
      4 H                     0.328502
      5 O                    -0.640710
      6 H                     0.328016
      7 H                     0.393814
  ----------------------------------------
  Sum of atomic charges =     1.000000

 -----------------------------------------------------------------
                    Cartesian Multipole Moments
 -----------------------------------------------------------------
    Charge (ESU x 10^10)
                 4.8032
    Dipole Moment (Debye)
         X      -4.9678      Y       4.1009      Z      -2.3799
       Tot       6.8674
    Quadrupole Moments (Debye-Ang)
        XX     -10.9410     XY      -4.1262     YY      -5.1182
        XZ       2.2475     YZ      -1.2489     ZZ      -3.9188
    Octopole Moments (Debye-Ang^2)
       XXX     -21.9516    XXY     -15.7026    XYY      -7.1500
       YYY     -17.7445    XXZ      19.0898    XYZ       2.8423
       YYZ       5.3524    XZZ      -7.0942    YZZ      -1.3352
       ZZZ      13.3400
    Hexadecapole Moments (Debye-Ang^3)
      XXXX     -60.3835   XXXY     -33.5549   XXYY     -33.5014
      XYYY     -25.8066   YYYY     -56.6109   XXXZ      55.5039
      XXYZ      31.1007   XYYZ      16.3700   YYYZ      30.8284
      XXZZ     -55.8962   XYZZ     -16.7445   YYZZ     -23.2046
      XZZZ      46.9164   YZZZ      34.0673   ZZZZ    -117.9759
 -----------------------------------------------------------------
 Calculating analytic gradient of the SCF energy
 Gradient of CDS energy
            1           2           3           4           5           6
    1  -0.0003935   0.0000389   0.0003125  -0.0001269   0.0001529   0.0000274
    2  -0.0001924   0.0000181  -0.0002462   0.0004541  -0.0000974  -0.0002683
    3  -0.0001143  -0.0000097   0.0000911   0.0000434   0.0000574  -0.0003840
            7
    1  -0.0000112
    2   0.0003320
    3   0.0003161
 Gradient of SCF Energy
            1           2           3           4           5           6
    1  -0.0625052   0.0215234   0.0365821  -0.0258830   0.0600153  -0.0248760
    2  -0.0183980  -0.0396533  -0.0086187   0.0347368   0.0074710  -0.0356416
    3  -0.0277261   0.0400347  -0.0385691   0.0034043   0.0060578  -0.0145127
            7
    1  -0.0048566
    2   0.0601037
    3   0.0313111
 Max gradient component =       6.251E-02
 RMS gradient           =       3.370E-02
 Computing fast CPCM-SWIG gradient
 Updating gradient with PCM contributions...
 -- total gradient after adding PCM contribution --
---------------------------------------------------
  Atom         X              Y              Z     
---------------------------------------------------
   1       0.001212       0.000656       0.000582
   2       0.000054       0.002194      -0.001507
   3      -0.002420      -0.005646       0.005384
   4       0.002711      -0.004693      -0.000062
   5      -0.002826       0.004742      -0.008149
   6       0.001590       0.003766       0.004594
   7      -0.000320      -0.001018      -0.000841
---------------------------------------------------
 Number of fixed atoms: 0
 Gradient time:  CPU 10.13 s  wall 1.51 s
 Geometry Optimization Parameters
   NAtoms,    NIC,     NZ,  NCons,   NDum,   NFix, NCnnct, MaxDiis
        7      40       0       0       0       0       0       0

 Cartesian Hessian Update
 Hessian updated using BFGS update


** GEOMETRY OPTIMIZATION IN DELOCALIZED INTERNAL COORDINATES **
   Searching for a Minimum

   Optimization Cycle:   3

                       Coordinates (Angstroms)
     ATOM                X               Y               Z
      1  H        -1.4403396864    0.1718032155   -0.1411388756
      2  O        -0.5841186908    0.3763423267    0.2745937195
      3  H         0.1027599891    0.3923022431   -0.4253853460
      4  H         0.5396018356    2.2564747110   -2.1984762576
      5  O         0.9960422707    1.4294152622   -2.0383572322
      6  H         0.6186905710    0.8233806868   -2.6768821098
      7  H        -0.6417743892    1.2656607547    0.6662005018
   Point Group: c1    Number of degrees of freedom:    15


   Energy is   -153.297467598

 Hessian updated using BFGS update

 15 Hessian modes will be used to form the next step
  Hessian Eigenvalues:
     0.004246    0.007391    0.009673    0.048448    0.063780    0.074693
     0.084591    0.096938    0.159981    0.162329    0.449892    0.492619
     0.494411    0.503441    0.735150

 Minimum search - taking simple RFO step
 Searching for Lamda that Minimizes Along All modes
 Value Taken    Lamda =  -0.00245449
 Calculated Step too Large.  Step scaled by  0.522594
 Step Taken.  Stepsize is  0.300000

                             Maximum     Tolerance    Cnvgd?
         Gradient           0.005932      0.000300      NO
         Displacement       0.194700      0.001200      NO
         Energy change     -0.001077      0.000001      NO


 New Cartesian Coordinates Obtained by Inverse Iteration

 Displacement from previous Coordinates is:  0.241472
 ----------------------------------------------------------------
             Standard Nuclear Orientation (Angstroms)
    I     Atom           X                Y                Z
 ----------------------------------------------------------------
    1      H      -1.4218945400     0.1599363985    -0.1537306459
    2      O      -0.5656536663     0.4045916442     0.2307615308
    3      H       0.1160481650     0.4330582431    -0.4729000502
    4      H       0.5287582823     2.2341421970    -2.1399791413
    5      O       0.9724529149     1.3982589721    -2.0013791717
    6      H       0.5967197236     0.8097743294    -2.6531711890
    7      H      -0.6355689795     1.2756174157     0.6509530673
 ----------------------------------------------------------------
 Nuclear Repulsion Energy =          43.51510836 hartrees
 There are       10 alpha and       10 beta electrons
 Discretize the solute cavity surface with Lebedev spheres
	Using 110 Lebedev grid points for each H atom
	Using 194 Lebedev grid points for other atoms
	Atomic van der Waals radii will be scaled by 1.20
 Remove points where switching function is < 1.0e-08
 Keep 601 surface tesserae and discard 337 interior tesserae
 Molecular Surface Area = 70.397 Angst**2
 Applying Cartesian multipole field
    Component          Value
    ---------          -----
     (2,0,0)        1.00000E-11
     (0,2,0)        2.00000E-11
     (0,0,2)       -3.00000E-11
 Nucleus-field energy     =    -0.0000000026 hartrees
 Requested basis set is 6-311++G(2df,2p)
 There are 46 shells and 118 basis functions
 A cutoff of  1.0D-12 yielded   1044 shell pairs
 There are      6896 function pairs (      8159 Cartesian)
 Smallest overlap matrix eigenvalue = 1.02E-03
 Guess MOs from SCF MO coefficient file

 -----------------------------------------------------------------------
  General SCF calculation program by
  Eric Jon Sundstrom, Paul Horn, Yuezhi Mao, Dmitri Zuev, Alec White,
  David Stuck, Shaama M.S., Shane Yost, Joonho Lee, David Small,
  Daniel Levine, Susi Lehtola, Hugh Burton, Evgeny Epifanovsky,
  Bang C. Huynh
 -----------------------------------------------------------------------
 Exchange:     0.1500 Hartree-Fock + 1.0000 wB97M-V + LR-HF
 Correlation:  1.0000 wB97M-V
 Using SG-2 standard quadrature grid
 Nonlocal Correlation:  VV10 with C = 0.0100 and b = 6.00 and scale = 1.00000
 Grid used for NLC:  SG-1 standard quadrature
 
 Citation of the SMD model:
 Marenich, A.V.; Cramer, C.J.; Truhlar, D.G.
 J. Phys. Chem. B 2009, 113, 6378-6396.
 iSolventCode=           1
 Solvent: water                                                           
 
 vradii
            1           2           3           4           5           6
    1   1.2000000   1.5200000   1.2000000   1.2000000   1.5200000   1.2000000
            7
    1   1.2000000
 -------------------------------------------------------
 OpenMP BLAS3 based DFT computing Module                
 Release: version 1.0, May 2013, Q-Chem Inc. Pittsburgh 
 -------------------------------------------------------
 A restricted SCF calculation will be
 performed using Roothaan-Hall, DIIS, GDM
 SCF converges when RMS gradient is below 1.0e-07
 ---------------------------------------
  Cycle       Energy         DIIS error
 ---------------------------------------
    1    -153.1447823357      1.58e-03  Roothaan Step
 ---------------------------------------
  Cycle       Energy         DIIS error
 ---------------------------------------
    1    -153.2989958665      1.35e-03  
    2    -153.3030931111      6.59e-04  Done DIIS. Switching to GDM
 ---------------------------------------
  Cycle       Energy        RMS Gradient
 ---------------------------------------
    1    -153.3030931111      8.69e-03   Normal BFGS step
    2    -153.3033490594      5.42e-03   Normal BFGS step
    3    -153.3037567505      1.12e-03   Normal BFGS step
    4    -153.3037676841      4.41e-04   Normal BFGS step
    5    -153.3037686760      1.30e-04   Normal BFGS step
    6    -153.3037688488      4.23e-05   Normal BFGS step
    7    -153.3037688731      1.18e-05   Normal BFGS step
    8    -153.3037688739      2.42e-06   Normal BFGS step
    9    -153.3037688740      3.16e-07   Normal BFGS step
   10    -153.3037688740      8.80e-08  Convergence criterion met
 ---------------------------------------
 SCF time:   CPU 67.98s  wall 10.00s 
(3)  G-ENP(liq) elect-nuc-pol free energy of system     -153.303768874 a.u.
(4)  G-CDS(liq) cavity-dispersion-solvent structure 
     free energy                                                3.1897 kcal/mol
(6)  G-S(liq) free energy of system                     -153.298685843 a.u.
 SCF   energy in the final basis set =     -153.2986858426
 Total energy in the final basis set =     -153.2986858426
 
 --------------------------------------------------------------
 
                    Orbital Energies (a.u.)
 --------------------------------------------------------------
 
 Alpha MOs
 -- Occupied --
-19.4643 -19.3446  -1.2854  -1.1536  -0.7463  -0.7443  -0.6478  -0.5723
 -0.5193  -0.4443
 -- Virtual --
  0.0160   0.0475   0.0541   0.0672   0.0855   0.1790   0.1978   0.2016
  0.2104   0.2199   0.2266   0.2485   0.2649   0.2711   0.2773   0.2926
  0.3115   0.4053   0.5280   0.5521   0.5895   0.6118   0.6355   0.6401
  0.6892   0.7830   0.7871   0.8405   0.8920   0.9027   0.9374   0.9710
  1.0247   1.0377   1.0869   1.1120   1.1501   1.1638   1.2360   1.3233
  1.3998   1.4154   1.4918   1.5176   1.5421   1.7280   1.8793   1.9141
  1.9381   2.0034   2.0552   2.1904   2.2198   2.2424   2.2844   2.4082
  2.5473   2.6048   2.7940   2.8525   2.9324   3.5666   3.7003   3.7274
  3.7598   3.7813   3.8766   3.9474   3.9720   3.9848   4.0008   4.0871
  4.1395   4.2106   4.3021   4.3791   5.0961   5.1301   5.2042   5.2392
  5.3094   5.3121   5.3200   5.3447   5.5130   5.6478   5.7074   5.7090
  5.7326   5.8448   5.8569   6.9285   6.9959   7.0427   7.0657   7.0831
  7.1279   7.1837   7.2340   7.2881   7.2935   7.4530   7.5067   7.5471
  7.5733   7.6420  50.4121  50.5002
 --------------------------------------------------------------
 
          Ground-State Mulliken Net Atomic Charges

     Atom                 Charge (a.u.)
  ----------------------------------------
      1 H                     0.391591
      2 O                    -0.237250
      3 H                     0.431408
      4 H                     0.332841
      5 O                    -0.641309
      6 H                     0.330762
      7 H                     0.391956
  ----------------------------------------
  Sum of atomic charges =     1.000000

 -----------------------------------------------------------------
                    Cartesian Multipole Moments
 -----------------------------------------------------------------
    Charge (ESU x 10^10)
                 4.8032
    Dipole Moment (Debye)
         X      -4.8535      Y       4.2300      Z      -2.5267
       Tot       6.9162
    Quadrupole Moments (Debye-Ang)
        XX     -10.9004     XY      -3.8201     YY      -4.8147
        XZ       2.0603     YZ      -1.4407     ZZ      -3.7478
    Octopole Moments (Debye-Ang^2)
       XXX     -21.1724    XXY     -15.4077    XYY      -6.6632
       YYY     -17.2005    XXZ      18.6338    XYZ       2.4373
       YYZ       5.2448    XZZ      -6.6459    YZZ      -1.3662
       ZZZ      13.3132
    Hexadecapole Moments (Debye-Ang^3)
      XXXX     -57.7202   XXXY     -31.2675   XXYY     -31.9200
      XYYY     -23.8065   YYYY     -53.7394   XXXZ      52.4061
      XXYZ      29.4270   XYYZ      14.9206   YYYZ      29.2123
      XXZZ     -53.0980   XYZZ     -15.3247   YYZZ     -22.3485
      XZZZ      43.7403   YZZZ      32.5890   ZZZZ    -111.6065
 -----------------------------------------------------------------
 Calculating analytic gradient of the SCF energy
 Gradient of CDS energy
            1           2           3           4           5           6
    1  -0.0003913   0.0000590   0.0003131  -0.0001246   0.0001403   0.0000258
    2  -0.0001914   0.0000102  -0.0002384   0.0004534  -0.0001080  -0.0002590
    3  -0.0001171   0.0000000   0.0000890   0.0000512   0.0000581  -0.0003923
            7
    1  -0.0000223
    2   0.0003333
    3   0.0003110
 Gradient of SCF Energy
            1           2           3           4           5           6
    1  -0.0609529   0.0223077   0.0342234  -0.0256426   0.0593803  -0.0246867
    2  -0.0223566  -0.0309819  -0.0104854   0.0341500   0.0073019  -0.0346793
    3  -0.0245172   0.0303160  -0.0354721   0.0065154   0.0010006  -0.0117333
            7
    1  -0.0046293
    2   0.0570514
    3   0.0338906
 Max gradient component =       6.095E-02
 RMS gradient           =       3.204E-02
 Computing fast CPCM-SWIG gradient
 Updating gradient with PCM contributions...
 -- total gradient after adding PCM contribution --
---------------------------------------------------
  Atom         X              Y              Z     
---------------------------------------------------
   1       0.003086       0.000254       0.001958
   2      -0.001389       0.006897      -0.006020
   3      -0.003501      -0.007962       0.008323
   4       0.003798      -0.005946       0.000470
   5      -0.005240       0.005579      -0.011188
   6       0.002890       0.004716       0.007148
   7       0.000356      -0.003539      -0.000691
---------------------------------------------------
 Number of fixed atoms: 0
 Gradient time:  CPU 11.78 s  wall 1.65 s
 Geometry Optimization Parameters
   NAtoms,    NIC,     NZ,  NCons,   NDum,   NFix, NCnnct, MaxDiis
        7      40       0       0       0       0       0       0

 Cartesian Hessian Update
 Hessian updated using BFGS update


** GEOMETRY OPTIMIZATION IN DELOCALIZED INTERNAL COORDINATES **
   Searching for a Minimum

   Optimization Cycle:   4

                       Coordinates (Angstroms)
     ATOM                X               Y               Z
      1  H        -1.4218945400    0.1599363985   -0.1537306459
      2  O        -0.5656536663    0.4045916442    0.2307615308
      3  H         0.1160481650    0.4330582431   -0.4729000502
      4  H         0.5287582823    2.2341421970   -2.1399791413
      5  O         0.9724529149    1.3982589721   -2.0013791717
      6  H         0.5967197236    0.8097743294   -2.6531711890
      7  H        -0.6355689795    1.2756174157    0.6509530673
   Point Group: c1    Number of degrees of freedom:    15


   Energy is   -153.298685843

 Hessian updated using BFGS update

 15 Hessian modes will be used to form the next step
  Hessian Eigenvalues:
     0.000711    0.007781    0.009666    0.049261    0.064158    0.077430
     0.084333    0.107126    0.159993    0.171769    0.449116    0.492189
     0.494425    0.529819    0.905883

 Minimum search - taking simple RFO step
 Searching for Lamda that Minimizes Along All modes
 Value Taken    Lamda =  -0.00392605
 Calculated Step too Large.  Step scaled by  0.339927
 Step Taken.  Stepsize is  0.300000

                             Maximum     Tolerance    Cnvgd?
         Gradient           0.008508      0.000300      NO
         Displacement       0.193566      0.001200      NO
         Energy change     -0.001218      0.000001      NO


 New Cartesian Coordinates Obtained by Inverse Iteration

 Displacement from previous Coordinates is:  0.245570
 ----------------------------------------------------------------
             Standard Nuclear Orientation (Angstroms)
    I     Atom           X                Y                Z
 ----------------------------------------------------------------
    1      H      -1.4006902327     0.1465578468    -0.1653849424
    2      O      -0.5471314587     0.4318950372     0.1898998881
    3      H       0.1290420263     0.4739278414    -0.5203179330
    4      H       0.5196712638     2.2116357665    -2.0780955570
    5      O       0.9484183000     1.3645781506    -1.9632578047
    6      H       0.5727907072     0.7983765351    -2.6331076018
    7      H      -0.6312387061     1.2884080225     0.6308183509
 ----------------------------------------------------------------
 Nuclear Repulsion Energy =          44.27573663 hartrees
 There are       10 alpha and       10 beta electrons
 Discretize the solute cavity surface with Lebedev spheres
	Using 110 Lebedev grid points for each H atom
	Using 194 Lebedev grid points for other atoms
	Atomic van der Waals radii will be scaled by 1.20
 Remove points where switching function is < 1.0e-08
 Keep 589 surface tesserae and discard 349 interior tesserae
 Molecular Surface Area = 69.512 Angst**2
 Applying Cartesian multipole field
    Component          Value
    ---------          -----
     (2,0,0)        1.00000E-11
     (0,2,0)        2.00000E-11
     (0,0,2)       -3.00000E-11
 Nucleus-field energy     =    -0.0000000025 hartrees
 Requested basis set is 6-311++G(2df,2p)
 There are 46 shells and 118 basis functions
 A cutoff of  1.0D-12 yielded   1049 shell pairs
 There are      6915 function pairs (      8179 Cartesian)
 Smallest overlap matrix eigenvalue = 1.05E-03
 Guess MOs from SCF MO coefficient file

 -----------------------------------------------------------------------
  General SCF calculation program by
  Eric Jon Sundstrom, Paul Horn, Yuezhi Mao, Dmitri Zuev, Alec White,
  David Stuck, Shaama M.S., Shane Yost, Joonho Lee, David Small,
  Daniel Levine, Susi Lehtola, Hugh Burton, Evgeny Epifanovsky,
  Bang C. Huynh
 -----------------------------------------------------------------------
 Exchange:     0.1500 Hartree-Fock + 1.0000 wB97M-V + LR-HF
 Correlation:  1.0000 wB97M-V
 Using SG-2 standard quadrature grid
 Nonlocal Correlation:  VV10 with C = 0.0100 and b = 6.00 and scale = 1.00000
 Grid used for NLC:  SG-1 standard quadrature
 
 Citation of the SMD model:
 Marenich, A.V.; Cramer, C.J.; Truhlar, D.G.
 J. Phys. Chem. B 2009, 113, 6378-6396.
 iSolventCode=           1
 Solvent: water                                                           
 
 vradii
            1           2           3           4           5           6
    1   1.2000000   1.5200000   1.2000000   1.2000000   1.5200000   1.2000000
            7
    1   1.2000000
 -------------------------------------------------------
 OpenMP BLAS3 based DFT computing Module                
 Release: version 1.0, May 2013, Q-Chem Inc. Pittsburgh 
 -------------------------------------------------------
 A restricted SCF calculation will be
 performed using Roothaan-Hall, DIIS, GDM
 SCF converges when RMS gradient is below 1.0e-07
 ---------------------------------------
  Cycle       Energy         DIIS error
 ---------------------------------------
    1    -153.1475229825      1.60e-03  Roothaan Step
 ---------------------------------------
  Cycle       Energy         DIIS error
 ---------------------------------------
    1    -153.3003765050      1.34e-03  
    2    -153.3044056249      6.33e-04  Done DIIS. Switching to GDM
 ---------------------------------------
  Cycle       Energy        RMS Gradient
 ---------------------------------------
    1    -153.3044056249      8.44e-03   Normal BFGS step
    2    -153.3046560954      5.73e-03   Normal BFGS step
    3    -153.3050242486      1.04e-03   Normal BFGS step
    4    -153.3050341488      4.10e-04   Normal BFGS step
    5    -153.3050350283      1.11e-04   Normal BFGS step
    6    -153.3050352062      3.53e-05   Normal BFGS step
    7    -153.3050352254      1.13e-05   Normal BFGS step
    8    -153.3050352260      2.28e-06   Normal BFGS step
    9    -153.3050352261      2.90e-07   Normal BFGS step
   10    -153.3050352261      7.99e-08  Convergence criterion met
 ---------------------------------------
 SCF time:   CPU 63.94s  wall 8.00s 
(3)  G-ENP(liq) elect-nuc-pol free energy of system     -153.305035226 a.u.
(4)  G-CDS(liq) cavity-dispersion-solvent structure 
     free energy                                                3.1610 kcal/mol
(6)  G-S(liq) free energy of system                     -153.299997775 a.u.
 SCF   energy in the final basis set =     -153.2999977747
 Total energy in the final basis set =     -153.2999977747
 
 --------------------------------------------------------------
 
                    Orbital Energies (a.u.)
 --------------------------------------------------------------
 
 Alpha MOs
 -- Occupied --
-19.4596 -19.3473  -1.2822  -1.1568  -0.7465  -0.7440  -0.6515  -0.5678
 -0.5217  -0.4474
 -- Virtual --
  0.0165   0.0479   0.0541   0.0682   0.0857   0.1803   0.1979   0.2033
  0.2125   0.2218   0.2278   0.2490   0.2670   0.2735   0.2772   0.2980
  0.3135   0.4027   0.5291   0.5532   0.5901   0.6093   0.6384   0.6399
  0.6948   0.7872   0.7994   0.8539   0.8845   0.8969   0.9415   0.9678
  1.0276   1.0484   1.0926   1.1366   1.1626   1.1858   1.2360   1.3337
  1.3909   1.4181   1.4982   1.5160   1.5267   1.7492   1.8678   1.9344
  1.9591   2.0063   2.0900   2.1940   2.2369   2.2534   2.3263   2.4018
  2.5417   2.6301   2.7932   2.8712   2.9320   3.5694   3.7087   3.7297
  3.7599   3.7987   3.8823   3.9585   3.9943   4.0015   4.0102   4.0980
  4.1600   4.2170   4.3187   4.3793   5.0981   5.1349   5.2047   5.2449
  5.3026   5.3116   5.3243   5.3501   5.5091   5.6660   5.7142   5.7162
  5.7319   5.8512   5.8912   6.9444   6.9917   7.0552   7.0764   7.0954
  7.1267   7.2024   7.2450   7.3027   7.3100   7.4712   7.5042   7.5428
  7.5752   7.6398  50.4144  50.5129
 --------------------------------------------------------------
 
          Ground-State Mulliken Net Atomic Charges

     Atom                 Charge (a.u.)
  ----------------------------------------
      1 H                     0.390397
      2 O                    -0.246935
      3 H                     0.435274
      4 H                     0.337720
      5 O                    -0.640609
      6 H                     0.334019
      7 H                     0.390135
  ----------------------------------------
  Sum of atomic charges =     1.000000

 -----------------------------------------------------------------
                    Cartesian Multipole Moments
 -----------------------------------------------------------------
    Charge (ESU x 10^10)
                 4.8032
    Dipole Moment (Debye)
         X      -4.7191      Y       4.3825      Z      -2.7118
       Tot       6.9878
    Quadrupole Moments (Debye-Ang)
        XX     -10.8800     XY      -3.4884     YY      -4.4520
        XZ       1.8621     YZ      -1.6974     ZZ      -3.5356
    Octopole Moments (Debye-Ang^2)
       XXX     -20.3080    XXY     -15.0706    XYY      -6.1383
       YYY     -16.5130    XXZ      18.1465    XYZ       1.9913
       YYZ       5.0399    XZZ      -6.1376    YZZ      -1.2970
       ZZZ      12.9492
    Hexadecapole Moments (Debye-Ang^3)
      XXXX     -55.1896   XXXY     -28.9588   XXYY     -30.2807
      XYYY     -21.7600   YYYY     -50.6340   XXXZ      49.3512
      XXYZ      27.7203   XYYZ      13.4246   YYYZ      27.4907
      XXZZ     -50.3503   XYZZ     -13.8165   YYZZ     -21.4100
      XZZZ      40.5538   YZZZ      30.7258   ZZZZ    -104.5920
 -----------------------------------------------------------------
 Calculating analytic gradient of the SCF energy
 Gradient of CDS energy
            1           2           3           4           5           6
    1  -0.0003891   0.0000801   0.0003125  -0.0000820   0.0000905   0.0000227
    2  -0.0001934  -0.0000206  -0.0002311   0.0004607  -0.0001004  -0.0002506
    3  -0.0001195   0.0000280   0.0000857   0.0000165   0.0000822  -0.0003988
            7
    1  -0.0000347
    2   0.0003354
    3   0.0003058
 Gradient of SCF Energy
            1           2           3           4           5           6
    1  -0.0595770   0.0242320   0.0314937  -0.0261991   0.0599704  -0.0252970
    2  -0.0258071  -0.0242219  -0.0119281   0.0348583   0.0062194  -0.0342653
    3  -0.0220607   0.0221397  -0.0327268   0.0093393  -0.0013029  -0.0108963
            7
    1  -0.0046230
    2   0.0551447
    3   0.0355078
 Max gradient component =       5.997E-02
 RMS gradient           =       3.121E-02
 Computing fast CPCM-SWIG gradient
 Updating gradient with PCM contributions...
 -- total gradient after adding PCM contribution --
---------------------------------------------------
  Atom         X              Y              Z     
---------------------------------------------------
   1       0.004228       0.000089       0.002588
   2      -0.002010       0.010305      -0.009650
   3      -0.004070      -0.010229       0.010845
   4       0.004095      -0.006009       0.000679
   5      -0.006666       0.006270      -0.012493
   6       0.003458       0.004627       0.008628
   7       0.000966      -0.005053      -0.000596
---------------------------------------------------
 Number of fixed atoms: 0
 Gradient time:  CPU 11.31 s  wall 1.56 s
 Geometry Optimization Parameters
   NAtoms,    NIC,     NZ,  NCons,   NDum,   NFix, NCnnct, MaxDiis
        7      40       0       0       0       0       0       0

 Cartesian Hessian Update
 Hessian updated using BFGS update


** GEOMETRY OPTIMIZATION IN DELOCALIZED INTERNAL COORDINATES **
   Searching for a Minimum

   Optimization Cycle:   5

                       Coordinates (Angstroms)
     ATOM                X               Y               Z
      1  H        -1.4006902327    0.1465578468   -0.1653849424
      2  O        -0.5471314587    0.4318950372    0.1898998881
      3  H         0.1290420263    0.4739278414   -0.5203179330
      4  H         0.5196712638    2.2116357665   -2.0780955570
      5  O         0.9484183000    1.3645781506   -1.9632578047
      6  H         0.5727907072    0.7983765351   -2.6331076018
      7  H        -0.6312387061    1.2884080225    0.6308183509
   Point Group: c1    Number of degrees of freedom:    15


   Energy is   -153.299997775

 Hessian updated using BFGS update

 15 Hessian modes will be used to form the next step
  Hessian Eigenvalues:
     0.000518    0.008493    0.009877    0.048347    0.060758    0.078126
     0.084086    0.112663    0.160078    0.175856    0.446918    0.492586
     0.494507    0.552171    0.881708

 Minimum search - taking simple RFO step
 Searching for Lamda that Minimizes Along All modes
 Value Taken    Lamda =  -0.00440888
 Calculated Step too Large.  Step scaled by  0.337869
 Step Taken.  Stepsize is  0.300000

                             Maximum     Tolerance    Cnvgd?
         Gradient           0.009224      0.000300      NO
         Displacement       0.191004      0.001200      NO
         Energy change     -0.001312      0.000001      NO


 New Cartesian Coordinates Obtained by Inverse Iteration

 Displacement from previous Coordinates is:  0.245553
 ----------------------------------------------------------------
             Standard Nuclear Orientation (Angstroms)
    I     Atom           X                Y                Z
 ----------------------------------------------------------------
    1      H      -1.3784597165     0.1311005097    -0.1729400228
    2      O      -0.5297790527     0.4589829323     0.1516081284
    3      H       0.1403370656     0.5157324049    -0.5686838088
    4      H       0.5119634591     2.1887265754    -2.0139973608
    5      O       0.9241679785     1.3285232127    -1.9252800175
    6      H       0.5513792407     0.7896054402    -2.6200292415
    7      H      -0.6287470747     1.3027081248     0.6098767231
 ----------------------------------------------------------------
 Nuclear Repulsion Energy =          45.04477730 hartrees
 There are       10 alpha and       10 beta electrons
 Discretize the solute cavity surface with Lebedev spheres
	Using 110 Lebedev grid points for each H atom
	Using 194 Lebedev grid points for other atoms
	Atomic van der Waals radii will be scaled by 1.20
 Remove points where switching function is < 1.0e-08
 Keep 589 surface tesserae and discard 349 interior tesserae
 Molecular Surface Area = 68.623 Angst**2
 Applying Cartesian multipole field
    Component          Value
    ---------          -----
     (2,0,0)        1.00000E-11
     (0,2,0)        2.00000E-11
     (0,0,2)       -3.00000E-11
 Nucleus-field energy     =    -0.0000000024 hartrees
 Requested basis set is 6-311++G(2df,2p)
 There are 46 shells and 118 basis functions
 A cutoff of  1.0D-12 yielded   1054 shell pairs
 There are      6974 function pairs (      8253 Cartesian)
 Smallest overlap matrix eigenvalue = 1.06E-03
 Guess MOs from SCF MO coefficient file

 -----------------------------------------------------------------------
  General SCF calculation program by
  Eric Jon Sundstrom, Paul Horn, Yuezhi Mao, Dmitri Zuev, Alec White,
  David Stuck, Shaama M.S., Shane Yost, Joonho Lee, David Small,
  Daniel Levine, Susi Lehtola, Hugh Burton, Evgeny Epifanovsky,
  Bang C. Huynh
 -----------------------------------------------------------------------
 Exchange:     0.1500 Hartree-Fock + 1.0000 wB97M-V + LR-HF
 Correlation:  1.0000 wB97M-V
 Using SG-2 standard quadrature grid
 Nonlocal Correlation:  VV10 with C = 0.0100 and b = 6.00 and scale = 1.00000
 Grid used for NLC:  SG-1 standard quadrature
 
 Citation of the SMD model:
 Marenich, A.V.; Cramer, C.J.; Truhlar, D.G.
 J. Phys. Chem. B 2009, 113, 6378-6396.
 iSolventCode=           1
 Solvent: water                                                           
 
 vradii
            1           2           3           4           5           6
    1   1.2000000   1.5200000   1.2000000   1.2000000   1.5200000   1.2000000
            7
    1   1.2000000
 -------------------------------------------------------
 OpenMP BLAS3 based DFT computing Module                
 Release: version 1.0, May 2013, Q-Chem Inc. Pittsburgh 
 -------------------------------------------------------
 A restricted SCF calculation will be
 performed using Roothaan-Hall, DIIS, GDM
 SCF converges when RMS gradient is below 1.0e-07
 ---------------------------------------
  Cycle       Energy         DIIS error
 ---------------------------------------
    1    -153.1502085856      1.64e-03  Roothaan Step
 ---------------------------------------
  Cycle       Energy         DIIS error
 ---------------------------------------
    1    -153.3018282461      1.33e-03  
    2    -153.3057655777      6.04e-04  Done DIIS. Switching to GDM
 ---------------------------------------
  Cycle       Energy        RMS Gradient
 ---------------------------------------
    1    -153.3057655777      7.27e-03   Normal BFGS step
    2    -153.3060088763      5.80e-03   Normal BFGS step
    3    -153.3063334479      9.26e-04   Normal BFGS step
    4    -153.3063422328      3.73e-04   Normal BFGS step
    5    -153.3063430156      1.07e-04   Normal BFGS step
    6    -153.3063432034      2.61e-05   Normal BFGS step
    7    -153.3063432175      1.07e-05   Normal BFGS step
    8    -153.3063432181      2.13e-06   Normal BFGS step
    9    -153.3063432181      2.76e-07   Normal BFGS step
   10    -153.3063432181      7.14e-08  Convergence criterion met
 ---------------------------------------
 SCF time:   CPU 67.25s  wall 9.00s 
(3)  G-ENP(liq) elect-nuc-pol free energy of system     -153.306343218 a.u.
(4)  G-CDS(liq) cavity-dispersion-solvent structure 
     free energy                                                3.1276 kcal/mol
(6)  G-S(liq) free energy of system                     -153.301359080 a.u.
 SCF   energy in the final basis set =     -153.3013590796
 Total energy in the final basis set =     -153.3013590796
 
 --------------------------------------------------------------
 
                    Orbital Energies (a.u.)
 --------------------------------------------------------------
 
 Alpha MOs
 -- Occupied --
-19.4539 -19.3510  -1.2776  -1.1603  -0.7454  -0.7424  -0.6551  -0.5629
 -0.5248  -0.4509
 -- Virtual --
  0.0169   0.0481   0.0542   0.0692   0.0858   0.1811   0.1979   0.2049
  0.2145   0.2223   0.2304   0.2497   0.2673   0.2744   0.2788   0.3033
  0.3195   0.4000   0.5295   0.5546   0.5901   0.6070   0.6393   0.6424
  0.6971   0.7888   0.8132   0.8655   0.8813   0.8921   0.9469   0.9661
  1.0291   1.0548   1.0966   1.1554   1.1782   1.2124   1.2359   1.3495
  1.3906   1.4201   1.5008   1.5152   1.5178   1.7659   1.8539   1.9575
  1.9841   2.0072   2.1259   2.1983   2.2388   2.2853   2.3554   2.4020
  2.5407   2.6615   2.7942   2.8962   2.9292   3.5746   3.7132   3.7347
  3.7542   3.8222   3.8813   3.9640   4.0050   4.0207   4.0274   4.1125
  4.1768   4.2205   4.3367   4.3650   5.1022   5.1330   5.2121   5.2474
  5.2922   5.3065   5.3398   5.3622   5.5011   5.6658   5.7143   5.7197
  5.7363   5.8504   5.9196   6.9639   6.9850   7.0648   7.0849   7.1106
  7.1262   7.2211   7.2353   7.3124   7.3252   7.4850   7.4903   7.5470
  7.5793   7.6407  50.4168  50.5265
 --------------------------------------------------------------
 
          Ground-State Mulliken Net Atomic Charges

     Atom                 Charge (a.u.)
  ----------------------------------------
      1 H                     0.388971
      2 O                    -0.261405
      3 H                     0.441349
      4 H                     0.343456
      5 O                    -0.639065
      6 H                     0.338535
      7 H                     0.388159
  ----------------------------------------
  Sum of atomic charges =     1.000000

 -----------------------------------------------------------------
                    Cartesian Multipole Moments
 -----------------------------------------------------------------
    Charge (ESU x 10^10)
                 4.8032
    Dipole Moment (Debye)
         X      -4.5564      Y       4.5566      Z      -2.9326
       Tot       7.0798
    Quadrupole Moments (Debye-Ang)
        XX     -10.8620     XY      -3.1214     YY      -4.0383
        XZ       1.6075     YZ      -2.0219     ZZ      -3.2145
    Octopole Moments (Debye-Ang^2)
       XXX     -19.3625    XXY     -14.7033    XYY      -5.5694
       YYY     -15.7159    XXZ      17.6278    XYZ       1.4835
       YYZ       4.7415    XZZ      -5.4830    YZZ      -1.0590
       ZZZ      12.0968
    Hexadecapole Moments (Debye-Ang^3)
      XXXX     -52.8018   XXXY     -26.6316   XXYY     -28.6298
      XYYY     -19.6819   YYYY     -47.3817   XXXZ      46.3385
      XXYZ      25.9961   XYYZ      11.9014   YYYZ      25.6912
      XXZZ     -47.6175   XYZZ     -12.1840   YYZZ     -20.3396
      XZZZ      37.1257   YZZZ      28.3465   ZZZZ     -96.4614
 -----------------------------------------------------------------
 Calculating analytic gradient of the SCF energy
 Gradient of CDS energy
            1           2           3           4           5           6
    1  -0.0003864   0.0001116   0.0003058  -0.0000164   0.0000320   0.0000186
    2  -0.0001967  -0.0000198  -0.0002262   0.0004622  -0.0000751  -0.0002436
    3  -0.0001248   0.0000473   0.0000768  -0.0000694   0.0001223  -0.0004028
            7
    1  -0.0000652
    2   0.0002992
    3   0.0003505
 Gradient of SCF Energy
            1           2           3           4           5           6
    1  -0.0583910   0.0271703   0.0284629  -0.0275804   0.0615090  -0.0265049
    2  -0.0291255  -0.0186281  -0.0128876   0.0371296   0.0039111  -0.0344432
    3  -0.0198558   0.0142526  -0.0302212   0.0119579  -0.0003122  -0.0125917
            7
    1  -0.0046659
    2   0.0540438
    3   0.0367703
 Max gradient component =       6.151E-02
 RMS gradient           =       3.106E-02
 Computing fast CPCM-SWIG gradient
 Updating gradient with PCM contributions...
 -- total gradient after adding PCM contribution --
---------------------------------------------------
  Atom         X              Y              Z     
---------------------------------------------------
   1       0.004812      -0.000257       0.002785
   2      -0.002030       0.013172      -0.013123
   3      -0.004211      -0.012059       0.012631
   4       0.003533      -0.004590       0.000765
   5      -0.006899       0.006123      -0.011287
   6       0.003196       0.003392       0.008649
   7       0.001598      -0.005780      -0.000419
---------------------------------------------------
 Number of fixed atoms: 0
 Gradient time:  CPU 9.83 s  wall 1.31 s
 Geometry Optimization Parameters
   NAtoms,    NIC,     NZ,  NCons,   NDum,   NFix, NCnnct, MaxDiis
        7      40       0       0       0       0       0       0

 Cartesian Hessian Update
 Hessian updated using BFGS update


** GEOMETRY OPTIMIZATION IN DELOCALIZED INTERNAL COORDINATES **
   Searching for a Minimum

   Optimization Cycle:   6

                       Coordinates (Angstroms)
     ATOM                X               Y               Z
      1  H        -1.3784597165    0.1311005097   -0.1729400228
      2  O        -0.5297790527    0.4589829323    0.1516081284
      3  H         0.1403370656    0.5157324049   -0.5686838088
      4  H         0.5119634591    2.1887265754   -2.0139973608
      5  O         0.9241679785    1.3285232127   -1.9252800175
      6  H         0.5513792407    0.7896054402   -2.6200292415
      7  H        -0.6287470747    1.3027081248    0.6098767231
   Point Group: c1    Number of degrees of freedom:    15


   Energy is   -153.301359080

 Hessian updated using BFGS update

 15 Hessian modes will be used to form the next step
  Hessian Eigenvalues:
     0.002574    0.008425    0.009824    0.041316    0.056692    0.078362
     0.083910    0.107847    0.160076    0.174093    0.436100    0.482122
     0.494445    0.536609    0.728069

 Minimum search - taking simple RFO step
 Searching for Lamda that Minimizes Along All modes
 Value Taken    Lamda =  -0.00362146
 Calculated Step too Large.  Step scaled by  0.465872
 Step Taken.  Stepsize is  0.300000

                             Maximum     Tolerance    Cnvgd?
         Gradient           0.009104      0.000300      NO
         Displacement       0.181661      0.001200      NO
         Energy change     -0.001361      0.000001      NO


 New Cartesian Coordinates Obtained by Inverse Iteration

 Displacement from previous Coordinates is:  0.237394
 ----------------------------------------------------------------
             Standard Nuclear Orientation (Angstroms)
    I     Atom           X                Y                Z
 ----------------------------------------------------------------
    1      H      -1.3582805878     0.1158645886    -0.1737749329
    2      O      -0.5151476269     0.4845474502     0.1191346056
    3      H       0.1488332387     0.5596578057    -0.6182342894
    4      H       0.5028441217     2.1650077906    -1.9493978172
    5      O       0.9000097692     1.2896555623    -1.8894262827
    6      H       0.5410669698     0.7841885740    -2.6223458756
    7      H      -0.6284639847     1.3164574287     0.5945989921
 ----------------------------------------------------------------
 Nuclear Repulsion Energy =          45.74225102 hartrees
 There are       10 alpha and       10 beta electrons
 Discretize the solute cavity surface with Lebedev spheres
	Using 110 Lebedev grid points for each H atom
	Using 194 Lebedev grid points for other atoms
	Atomic van der Waals radii will be scaled by 1.20
 Remove points where switching function is < 1.0e-08
 Keep 594 surface tesserae and discard 344 interior tesserae
 Molecular Surface Area = 67.672 Angst**2
 Applying Cartesian multipole field
    Component          Value
    ---------          -----
     (2,0,0)        1.00000E-11
     (0,2,0)        2.00000E-11
     (0,0,2)       -3.00000E-11
 Nucleus-field energy     =    -0.0000000023 hartrees
 Requested basis set is 6-311++G(2df,2p)
 There are 46 shells and 118 basis functions
 A cutoff of  1.0D-12 yielded   1062 shell pairs
 There are      7043 function pairs (      8333 Cartesian)
 Smallest overlap matrix eigenvalue = 1.07E-03
 Guess MOs from SCF MO coefficient file

 -----------------------------------------------------------------------
  General SCF calculation program by
  Eric Jon Sundstrom, Paul Horn, Yuezhi Mao, Dmitri Zuev, Alec White,
  David Stuck, Shaama M.S., Shane Yost, Joonho Lee, David Small,
  Daniel Levine, Susi Lehtola, Hugh Burton, Evgeny Epifanovsky,
  Bang C. Huynh
 -----------------------------------------------------------------------
 Exchange:     0.1500 Hartree-Fock + 1.0000 wB97M-V + LR-HF
 Correlation:  1.0000 wB97M-V
 Using SG-2 standard quadrature grid
 Nonlocal Correlation:  VV10 with C = 0.0100 and b = 6.00 and scale = 1.00000
 Grid used for NLC:  SG-1 standard quadrature
 
 Citation of the SMD model:
 Marenich, A.V.; Cramer, C.J.; Truhlar, D.G.
 J. Phys. Chem. B 2009, 113, 6378-6396.
 iSolventCode=           1
 Solvent: water                                                           
 
 vradii
            1           2           3           4           5           6
    1   1.2000000   1.5200000   1.2000000   1.2000000   1.5200000   1.2000000
            7
    1   1.2000000
 -------------------------------------------------------
 OpenMP BLAS3 based DFT computing Module                
 Release: version 1.0, May 2013, Q-Chem Inc. Pittsburgh 
 -------------------------------------------------------
 A restricted SCF calculation will be
 performed using Roothaan-Hall, DIIS, GDM
 SCF converges when RMS gradient is below 1.0e-07
 ---------------------------------------
  Cycle       Energy         DIIS error
 ---------------------------------------
    1    -153.1530580869      1.71e-03  Roothaan Step
 ---------------------------------------
  Cycle       Energy         DIIS error
 ---------------------------------------
    1    -153.3034377313      1.31e-03  
    2    -153.3072298425      5.83e-04  Done DIIS. Switching to GDM
 ---------------------------------------
  Cycle       Energy        RMS Gradient
 ---------------------------------------
    1    -153.3072298425      6.26e-03   Normal BFGS step
    2    -153.3074612948      4.93e-03   Normal BFGS step
    3    -153.3077559003      8.21e-04   Normal BFGS step
    4    -153.3077637560      3.40e-04   Normal BFGS step
    5    -153.3077645213      1.19e-04   Normal BFGS step
    6    -153.3077647340      1.63e-05   Normal BFGS step
    7    -153.3077647440      1.01e-05   Normal BFGS step
    8    -153.3077647445      1.96e-06   Normal BFGS step
    9    -153.3077647445      2.65e-07   Normal BFGS step
[...]
       ZZZ      -0.6910
    Hexadecapole Moments (Debye-Ang^3)
      XXXX     -43.6657   XXXY     -14.9202   XXYY     -14.0382
      XYYY      -1.9778   YYYY     -30.0242   XXXZ      32.8941
      XXYZ      14.3937   XYYZ      -4.0493   YYYZ       9.2426
      XXZZ     -34.9389   XYZZ       2.9846   YYZZ      -5.0245
      XZZZ      21.0350   YZZZ       2.3099   ZZZZ     -53.8062
 -----------------------------------------------------------------
 Calculating analytic gradient of the SCF energy
 Gradient of CDS energy
            1           2           3           4           5           6
    1  -0.0002606   0.0000844   0.0001425   0.0001200   0.0001396  -0.0001201
    2  -0.0003655  -0.0000613  -0.0000159   0.0004410  -0.0000812  -0.0002589
    3  -0.0000651   0.0000712   0.0000326   0.0000214   0.0000166  -0.0003555
            7
    1  -0.0001059
    2   0.0003418
    3   0.0002790
 Gradient of SCF Energy
            1           2           3           4           5           6
    1  -0.0439629   0.0500944  -0.0035586  -0.0041494   0.0591726  -0.0332356
    2  -0.0396692  -0.0286979   0.0161996   0.0556022  -0.0308276  -0.0240286
    3  -0.0198385   0.0344145  -0.0233322   0.0017753   0.0196618  -0.0385083
            7
    1  -0.0243606
    2   0.0514215
    3   0.0258274
 Max gradient component =       5.917E-02
 RMS gradient           =       3.399E-02
 Computing fast CPCM-SWIG gradient
 Updating gradient with PCM contributions...
 -- total gradient after adding PCM contribution --
---------------------------------------------------
  Atom         X              Y              Z     
---------------------------------------------------
   1      -0.000064       0.000121       0.000011
   2      -0.000412      -0.000449      -0.000600
   3       0.001103       0.000678       0.001078
   4       0.000112       0.000064      -0.000012
   5      -0.000761      -0.000268      -0.000551
   6       0.000036      -0.000069       0.000098
   7      -0.000014      -0.000077      -0.000023
---------------------------------------------------
 Number of fixed atoms: 0
 Gradient time:  CPU 11.78 s  wall 1.62 s
 Geometry Optimization Parameters
   NAtoms,    NIC,     NZ,  NCons,   NDum,   NFix, NCnnct, MaxDiis
        7      40       0       0       0       0       0       0

 Cartesian Hessian Update
 Hessian updated using BFGS update


** GEOMETRY OPTIMIZATION IN DELOCALIZED INTERNAL COORDINATES **
   Searching for a Minimum

   Optimization Cycle:  32

                       Coordinates (Angstroms)
     ATOM                X               Y               Z
      1  H        -1.1773307259   -0.0707935066   -0.1151588364
      2  O        -0.4643557647    0.5317168334    0.1470956552
      3  H         0.0989968034    0.8521223244   -0.7547566893
      4  H         0.8414458391    2.1220137009   -1.9421024560
      5  O         0.8038916885    1.1635307333   -1.8251363362
      6  H         0.3693512959    0.8163847769   -2.6153432443
      7  H        -0.8811372364    1.3004043378    0.5659563068
   Point Group: c1    Number of degrees of freedom:    15


   Energy is   -153.309537503

 Hessian updated using BFGS update

 15 Hessian modes will be used to form the next step
  Hessian Eigenvalues:
     0.002253    0.008776    0.017997    0.029752    0.034284    0.042281
     0.058987    0.113798    0.162556    0.241973    0.487677    0.494593
     0.552094    0.664823    1.004529

 Minimum search - taking simple RFO step
 Searching for Lamda that Minimizes Along All modes
 Value Taken    Lamda =  -0.00000102
 Step Taken.  Stepsize is  0.010828

                             Maximum     Tolerance    Cnvgd?
         Gradient           0.000135      0.000300     YES
         Displacement       0.007434      0.001200      NO
         Energy change     -0.000002      0.000001      NO


 New Cartesian Coordinates Obtained by Inverse Iteration

 Displacement from previous Coordinates is:  0.007831
 ----------------------------------------------------------------
             Standard Nuclear Orientation (Angstroms)
    I     Atom           X                Y                Z
 ----------------------------------------------------------------
    1      H      -1.1764267247    -0.0719282716    -0.1134863707
    2      O      -0.4643731605     0.5322741648     0.1472500655
    3      H       0.0989277522     0.8515494285    -0.7549061607
    4      H       0.8425890259     2.1217394338    -1.9404474393
    5      O       0.8034424988     1.1631096318    -1.8257047225
    6      H       0.3687809731     0.8173897244    -2.6167919776
    7      H      -0.8820784648     1.3012450881     0.5646410053
 ----------------------------------------------------------------
 Nuclear Repulsion Energy =          46.78258629 hartrees
 There are       10 alpha and       10 beta electrons
 Discretize the solute cavity surface with Lebedev spheres
	Using 110 Lebedev grid points for each H atom
	Using 194 Lebedev grid points for other atoms
	Atomic van der Waals radii will be scaled by 1.20
 Remove points where switching function is < 1.0e-08
 Keep 582 surface tesserae and discard 356 interior tesserae
 Molecular Surface Area = 65.862 Angst**2
 Applying Cartesian multipole field
    Component          Value
    ---------          -----
     (2,0,0)        1.00000E-11
     (0,2,0)        2.00000E-11
     (0,0,2)       -3.00000E-11
 Nucleus-field energy     =    -0.0000000023 hartrees
 Requested basis set is 6-311++G(2df,2p)
 There are 46 shells and 118 basis functions
 A cutoff of  1.0D-12 yielded   1064 shell pairs
 There are      7100 function pairs (      8401 Cartesian)
 Smallest overlap matrix eigenvalue = 6.10E-04
 Guess MOs from SCF MO coefficient file

 -----------------------------------------------------------------------
  General SCF calculation program by
  Eric Jon Sundstrom, Paul Horn, Yuezhi Mao, Dmitri Zuev, Alec White,
  David Stuck, Shaama M.S., Shane Yost, Joonho Lee, David Small,
  Daniel Levine, Susi Lehtola, Hugh Burton, Evgeny Epifanovsky,
  Bang C. Huynh
 -----------------------------------------------------------------------
 Exchange:     0.1500 Hartree-Fock + 1.0000 wB97M-V + LR-HF
 Correlation:  1.0000 wB97M-V
 Using SG-2 standard quadrature grid
 Nonlocal Correlation:  VV10 with C = 0.0100 and b = 6.00 and scale = 1.00000
 Grid used for NLC:  SG-1 standard quadrature
 
 Citation of the SMD model:
 Marenich, A.V.; Cramer, C.J.; Truhlar, D.G.
 J. Phys. Chem. B 2009, 113, 6378-6396.
 iSolventCode=           1
 Solvent: water                                                           
 
 vradii
            1           2           3           4           5           6
    1   1.2000000   1.5200000   1.2000000   1.2000000   1.5200000   1.2000000
            7
    1   1.2000000
 -------------------------------------------------------
 OpenMP BLAS3 based DFT computing Module                
 Release: version 1.0, May 2013, Q-Chem Inc. Pittsburgh 
 -------------------------------------------------------
 A restricted SCF calculation will be
 performed using Roothaan-Hall, DIIS, GDM
 SCF converges when RMS gradient is below 1.0e-07
 ---------------------------------------
  Cycle       Energy         DIIS error
 ---------------------------------------
    1    -153.1705441470      1.23e-03  Roothaan Step
 ---------------------------------------
  Cycle       Energy         DIIS error
 ---------------------------------------
    1    -153.3110015718      1.16e-03  
    2    -153.3140693920      4.35e-04  Done DIIS. Switching to GDM
 ---------------------------------------
  Cycle       Energy        RMS Gradient
 ---------------------------------------
    1    -153.3140693920      5.68e-03   Normal BFGS step
    2    -153.3142628469      4.12e-03   Normal BFGS step
    3    -153.3143851619      4.47e-04   Normal BFGS step
    4    -153.3143889870      1.71e-04   Normal BFGS step
    5    -153.3143893589      1.04e-04   Normal BFGS step
    6    -153.3143894686      1.85e-05   Normal BFGS step
    7    -153.3143894745      5.28e-06   Normal BFGS step
    8    -153.3143894747      1.39e-06   Normal BFGS step
    9    -153.3143894747      1.61e-07   Normal BFGS step
   10    -153.3143894747      4.91e-08  Convergence criterion met
 ---------------------------------------
 SCF time:   CPU 66.73s  wall 9.00s 
(3)  G-ENP(liq) elect-nuc-pol free energy of system     -153.314389475 a.u.
(4)  G-CDS(liq) cavity-dispersion-solvent structure 
     free energy                                                3.0442 kcal/mol
(6)  G-S(liq) free energy of system                     -153.309538235 a.u.
 SCF   energy in the final basis set =     -153.3095382348
 Total energy in the final basis set =     -153.3095382348
 
 --------------------------------------------------------------
 
                    Orbital Energies (a.u.)
 --------------------------------------------------------------
 
 Alpha MOs
 -- Occupied --
-19.4190 -19.3824  -1.2392  -1.1887  -0.7109  -0.7089  -0.6771  -0.5566
 -0.5362  -0.4747
 -- Virtual --
  0.0175   0.0472   0.0537   0.0797   0.0834   0.1741   0.2019   0.2037
  0.2127   0.2281   0.2455   0.2504   0.2563   0.2745   0.2955   0.3018
  0.3849   0.4029   0.5155   0.5866   0.5913   0.5996   0.6204   0.6558
  0.6830   0.7871   0.7974   0.8456   0.8717   0.9223   0.9761   0.9821
  1.0115   1.0512   1.1393   1.1602   1.2078   1.2143   1.2791   1.4073
  1.4202   1.4657   1.4865   1.5255   1.6728   1.7776   1.8328   1.9669
  2.0259   2.1024   2.1952   2.2496   2.2796   2.3062   2.3683   2.4554
  2.6198   2.7943   2.8356   2.8693   2.9061   3.6255   3.6897   3.7418
  3.8296   3.8527   3.8874   3.9181   3.9527   3.9792   4.0400   4.1056
  4.1382   4.1779   4.2545   4.2979   5.0952   5.1609   5.2104   5.2451
  5.2531   5.3196   5.3608   5.4239   5.4581   5.6435   5.6708   5.7040
  5.7831   5.8184   5.8422   6.7398   6.9865   7.0406   7.0592   7.1035
  7.1850   7.2200   7.2593   7.3323   7.3390   7.3886   7.6011   7.6123
  7.6451   7.8408  50.4332  50.5430
 --------------------------------------------------------------
 
          Ground-State Mulliken Net Atomic Charges

     Atom                 Charge (a.u.)
  ----------------------------------------
      1 H                     0.378470
      2 O                    -0.454932
      3 H                     0.561978
      4 H                     0.363579
      5 O                    -0.591242
      6 H                     0.363458
      7 H                     0.378688
  ----------------------------------------
  Sum of atomic charges =     1.000000

 -----------------------------------------------------------------
                    Cartesian Multipole Moments
 -----------------------------------------------------------------
    Charge (ESU x 10^10)
                 4.8032
    Dipole Moment (Debye)
         X      -3.2816      Y       5.6126      Z      -4.8153
       Tot       8.0906
    Quadrupole Moments (Debye-Ang)
        XX      -9.7130     XY       0.2429     YY      -1.2242
        XZ      -1.3845     YZ      -5.9133     ZZ       0.4872
    Octopole Moments (Debye-Ang^2)
       XXX     -12.6237    XXY      -9.2577    XYY       0.9707
       YYY      -9.9438    XXZ      13.7610    XYZ      -5.4641
       YYZ      -1.9184    XZZ      -0.0216    YZZ       6.4798
       ZZZ      -0.6962
    Hexadecapole Moments (Debye-Ang^3)
      XXXX     -43.6429   XXXY     -14.8903   XXYY     -13.9944
      XYYY      -1.9489   YYYY     -30.0144   XXXZ      32.8704
      XXYZ      14.3770   XYYZ      -4.0626   YYYZ       9.2846
      XXZZ     -34.9515   XYZZ       2.9907   YYZZ      -5.0938
      XZZZ      21.0624   YZZZ       2.3215   ZZZZ     -53.7952
 -----------------------------------------------------------------
 Calculating analytic gradient of the SCF energy
 Gradient of CDS energy
            1           2           3           4           5           6
    1  -0.0002600   0.0000847   0.0001416   0.0001211   0.0001405  -0.0001215
    2  -0.0003659  -0.0000610  -0.0000179   0.0004405  -0.0000797  -0.0002583
    3  -0.0000648   0.0000720   0.0000313   0.0000207   0.0000180  -0.0003554
            7
    1  -0.0001064
    2   0.0003423
    3   0.0002781
 Gradient of SCF Energy
            1           2           3           4           5           6
    1  -0.0439008   0.0500317  -0.0034585  -0.0040140   0.0590646  -0.0333149
    2  -0.0397844  -0.0285697   0.0161813   0.0555904  -0.0307198  -0.0241533
    3  -0.0196796   0.0343401  -0.0233121   0.0020382   0.0196920  -0.0388298
            7
    1  -0.0244081
    2   0.0514555
    3   0.0257513
 Max gradient component =       5.906E-02
 RMS gradient           =       3.398E-02
 Computing fast CPCM-SWIG gradient
 Updating gradient with PCM contributions...
 -- total gradient after adding PCM contribution --
---------------------------------------------------
  Atom         X              Y              Z     
---------------------------------------------------
   1      -0.000049       0.000123       0.000041
   2      -0.000467      -0.000440      -0.000640
   3       0.001148       0.000678       0.001118
   4       0.000140       0.000041       0.000087
   5      -0.000702      -0.000076      -0.000451
   6      -0.000065      -0.000246      -0.000136
   7      -0.000005      -0.000080      -0.000019
---------------------------------------------------
 Number of fixed atoms: 0
 Gradient time:  CPU 10.65 s  wall 1.44 s
 Geometry Optimization Parameters
   NAtoms,    NIC,     NZ,  NCons,   NDum,   NFix, NCnnct, MaxDiis
        7      40       0       0       0       0       0       0

 Cartesian Hessian Update
 Hessian updated using BFGS update


** GEOMETRY OPTIMIZATION IN DELOCALIZED INTERNAL COORDINATES **
   Searching for a Minimum

   Optimization Cycle:  33

                       Coordinates (Angstroms)
     ATOM                X               Y               Z
      1  H        -1.1764267247   -0.0719282716   -0.1134863707
      2  O        -0.4643731605    0.5322741648    0.1472500655
      3  H         0.0989277522    0.8515494285   -0.7549061607
      4  H         0.8425890259    2.1217394338   -1.9404474393
      5  O         0.8034424988    1.1631096318   -1.8257047225
      6  H         0.3687809731    0.8173897244   -2.6167919776
      7  H        -0.8820784648    1.3012450881    0.5646410053
   Point Group: c1    Number of degrees of freedom:    15


   Energy is   -153.309538235

 Hessian updated using BFGS update

 15 Hessian modes will be used to form the next step
  Hessian Eigenvalues:
     0.001833    0.008892    0.018936    0.025522    0.033039    0.039012
     0.049791    0.111809    0.163622    0.221462    0.471592    0.494501
     0.556305    0.691097    1.105532

 Minimum search - taking simple RFO step
 Searching for Lamda that Minimizes Along All modes
 Value Taken    Lamda =  -0.00000098
 Step Taken.  Stepsize is  0.013158

                             Maximum     Tolerance    Cnvgd?
         Gradient           0.000193      0.000300     YES
         Displacement       0.008470      0.001200      NO
         Energy change     -0.000001      0.000001     YES


                       Distance Matrix (Angstroms)
             H (  1)   O (  2)   H (  3)   H (  4)   O (  5)   H (  6)
   O (  2)  0.969569
   H (  3)  1.700223  1.110464
   H (  4)  3.496625  2.931387  1.889953
   O (  5)  2.894286  2.428551  1.319098  0.966266
   H (  6)  3.073287  2.900925  1.881650  1.543782  0.966577
   H (  7)  1.559520  0.969541  1.704642  3.150104  2.928108  3.452576

 
 Final energy is   -153.309538234795     


 ******************************
 **  OPTIMIZATION CONVERGED  **
 ******************************

                       Coordinates (Angstroms)
     ATOM                X               Y               Z
      1  H        -1.1764267247   -0.0719282716   -0.1134863707
      2  O        -0.4643731605    0.5322741648    0.1472500655
      3  H         0.0989277522    0.8515494285   -0.7549061607
      4  H         0.8425890259    2.1217394338   -1.9404474393
      5  O         0.8034424988    1.1631096318   -1.8257047225
      6  H         0.3687809731    0.8173897244   -2.6167919776
      7  H        -0.8820784648    1.3012450881    0.5646410053

Z-matrix Print:
$molecule
1 1
O 
H  1 0.969541
H  1 0.969569 2 107.074868
H  1 1.110464 2 109.892413 3 118.807101 0
O  4 1.319098 1 176.681362 2 164.891908 0
H  5 0.966266 4 110.631667 1 -158.768887 0
H  5 0.966577 4 109.860315 1 84.524432 0
$end

 
 --------------------------------------------------------------
 
                    Orbital Energies (a.u.)
 --------------------------------------------------------------
 
 Alpha MOs
 -- Occupied --
-19.4190 -19.3824  -1.2392  -1.1887  -0.7109  -0.7089  -0.6771  -0.5566
 -0.5362  -0.4747
 -- Virtual --
  0.0175   0.0472   0.0537   0.0797   0.0834   0.1741   0.2019   0.2037
  0.2127   0.2281   0.2455   0.2504   0.2563   0.2745   0.2955   0.3018
  0.3849   0.4029   0.5155   0.5866   0.5913   0.5996   0.6204   0.6558
  0.6830   0.7871   0.7974   0.8456   0.8717   0.9223   0.9761   0.9821
  1.0115   1.0512   1.1393   1.1602   1.2078   1.2143   1.2791   1.4073
  1.4202   1.4657   1.4865   1.5255   1.6728   1.7776   1.8328   1.9669
  2.0259   2.1024   2.1952   2.2496   2.2796   2.3062   2.3683   2.4554
  2.6198   2.7943   2.8356   2.8693   2.9061   3.6255   3.6897   3.7418
  3.8296   3.8527   3.8874   3.9181   3.9527   3.9792   4.0400   4.1056
  4.1382   4.1779   4.2545   4.2979   5.0952   5.1609   5.2104   5.2451
  5.2531   5.3196   5.3608   5.4239   5.4581   5.6435   5.6708   5.7040
  5.7831   5.8184   5.8422   6.7398   6.9865   7.0406   7.0592   7.1035
  7.1850   7.2200   7.2593   7.3323   7.3390   7.3886   7.6011   7.6123
  7.6451   7.8408  50.4332  50.5430
 --------------------------------------------------------------
 
          Ground-State Mulliken Net Atomic Charges

     Atom                 Charge (a.u.)
  ----------------------------------------
      1 H                     0.378470
      2 O                    -0.454932
      3 H                     0.561978
      4 H                     0.363579
      5 O                    -0.591242
      6 H                     0.363458
      7 H                     0.378688
  ----------------------------------------
  Sum of atomic charges =     1.000000

 -----------------------------------------------------------------
                    Cartesian Multipole Moments
 -----------------------------------------------------------------
    Charge (ESU x 10^10)
                 4.8032
    Dipole Moment (Debye)
         X      -3.2816      Y       5.6126      Z      -4.8153
       Tot       8.0906
    Quadrupole Moments (Debye-Ang)
        XX      -9.7130     XY       0.2429     YY      -1.2242
        XZ      -1.3845     YZ      -5.9133     ZZ       0.4872
    Octopole Moments (Debye-Ang^2)
       XXX     -12.6237    XXY      -9.2577    XYY       0.9707
       YYY      -9.9438    XXZ      13.7610    XYZ      -5.4641
       YYZ      -1.9184    XZZ      -0.0216    YZZ       6.4798
       ZZZ      -0.6962
    Hexadecapole Moments (Debye-Ang^3)
      XXXX     -43.6429   XXXY     -14.8903   XXYY     -13.9944
      XYYY      -1.9489   YYYY     -30.0144   XXXZ      32.8704
      XXYZ      14.3770   XYYZ      -4.0626   YYYZ       9.2846
      XXZZ     -34.9515   XYZZ       2.9907   YYZZ      -5.0938
      XZZZ      21.0624   YZZZ       2.3215   ZZZZ     -53.7952
 -----------------------------------------------------------------
 Total job time:  372.87s(wall), 2720.87s(cpu) 
 Mon Jun 10 16:04:56 2024

        *************************************************************
        *                                                           *
        *  Thank you very much for using Q-Chem.  Have a nice day.  *
        *                                                           *
        *************************************************************


