
Running Job 1 of 2 Q_in.in
qchem Q_in.in_16419.0 /scratch/ari.fischer/qChem2083290.hpc-mn1/qchem16419/ 0
/usr/local/qchem-5.4.1/exe/qcprog.exe_s Q_in.in_16419.0 /scratch/ari.fischer/qChem2083290.hpc-mn1/qchem16419/
                  Welcome to Q-Chem
     A Quantum Leap Into The Future Of Chemistry


 Q-Chem 5.4, Q-Chem, Inc., Pleasanton, CA (2021)

 License issued to: Nanyang Technological University (site)

 E. Epifanovsky,  A. T. B. Gilbert,  Xintian Feng,  Joonho Lee,  Yuezhi Mao,  
 N. Mardirossian,  P. Pokhilko,  A. White,  M. Wormit,  M. P. Coons,  
 A. L. Dempwolff,  Zhengting Gan,  D. Hait,  P. R. Horn,  L. D. Jacobson,  
 I. Kaliman,  J. Kussmann,  A. W. Lange,  Ka Un Lao,  D. S. Levine,  Jie Liu,  
 S. C. McKenzie,  A. F. Morrison,  K. Nanda,  F. Plasser,  D. R. Rehn,  
 M. L. Vidal,  Zhi-Qiang You,  Ying Zhu,  B. Alam,  B. Albrecht,  
 A. Aldossary,  E. Alguire,  J. H. Andersen,  D. Barton,  K. Begam,  A. Behn,  
 Y. A. Bernard,  E. J. Berquist,  H. Burton,  A. Carreras,  K. Carter-Fenk,  
 R. Chakraborty,  A. D. Chien,  K. D. Closser,  V. Cofer-Shabica,  
 S. Dasgupta,  Jia Deng,  M. de Wergifosse,  M. Diedenhofen,  Hainam Do,  
 S. Ehlert,  Po-Tung Fang,  S. Fatehi,  Qingguo Feng,  T. Friedhoff,  
 J. Gayvert,  Qinghui Ge,  G. Gidofalvi,  M. Goldey,  J. Gomes,  
 C. Gonzalez-Espinoza,  S. Gulania,  A. Gunina,  M. W. D. Hanson-Heine,  
 P. H. P. Harbach,  A. W. Hauser,  M. F. Herbst,  M. Hernandez Vera,  
 M. Hodecker,  Z. C. Holden,  S. Houck,  Xunkun Huang,  Kerwin Hui,  
 B. C. Huynh,  M. Ivanov,  Hyunjun Ji,  Hanjie Jiang,  B. Kaduk,  S. Kaehler,  
 K. Khistyaev,  Jaehoon Kim,  P. Klunzinger,  Z. Koczor-Benda,  
 Joong Hoon Koh,  D. Kosenkov,  L. Koulias,  T. Kowalczyk,  C. M. Krauter,  
 K. Kue,  A. Kunitsa,  T. Kus,  A. Landau,  K. V. Lawler,  D. Lefrancois,  
 S. Lehtola,  Rain Li,  Yi-Pei Li,  Jiashu Liang,  M. Liebenthal,  
 Hung-Hsuan Lin,  You-Sheng Lin,  Fenglai Liu,  Kuan-Yu Liu,  
 M. Loipersberger,  A. Luenser,  A. Manjanath,  P. Manohar,  E. Mansoor,  
 S. F. Manzer,  Shan-Ping Mao,  A. V. Marenich,  T. Markovich,  S. Mason,  
 S. A. Maurer,  P. F. McLaughlin,  M. F. S. J. Menger,  J.-M. Mewes,  
 S. A. Mewes,  P. Morgante,  J. W. Mullinax,  K. J. Oosterbaan,  G. Paran,  
 Alexander C. Paul,  Suranjan K. Paul,  F. Pavosevic,  Zheng Pei,  S. Prager,  
 E. I. Proynov,  E. Ramos,  B. Rana,  A. E. Rask,  A. Rettig,  R. M. Richard,  
 F. Rob,  E. Rossomme,  T. Scheele,  M. Scheurer,  M. Schneider,  
 N. Sergueev,  S. M. Sharada,  W. Skomorowski,  D. W. Small,  C. J. Stein,  
 Yu-Chuan Su,  E. J. Sundstrom,  Zhen Tao,  J. Thirman,  T. Tsuchimochi,  
 N. M. Tubman,  S. P. Veccham,  O. Vydrov,  J. Wenzel,  J. Witte,  A. Yamada,  
 Kun Yao,  S. Yeganeh,  S. R. Yost,  A. Zech,  Igor Ying Zhang,  Xing Zhang,  
 Yu Zhang,  D. Zuev,  A. Aspuru-Guzik,  A. T. Bell,  N. A. Besley,  
 K. B. Bravaya,  B. R. Brooks,  D. Casanova,  Jeng-Da Chai,  S. Coriani,  
 C. J. Cramer,  A. E. DePrince, III,  R. A. DiStasio Jr.,  A. Dreuw,  
 B. D. Dunietz,  T. R. Furlani,  W. A. Goddard III,  S. Grimme,  
 S. Hammes-Schiffer,  T. Head-Gordon,  W. J. Hehre,  Chao-Ping Hsu,  
 T.-C. Jagau,  Yousung Jung,  A. Klamt,  Jing Kong,  D. S. Lambrecht,  
 WanZhen Liang,  N. J. Mayhall,  C. W. McCurdy,  J. B. Neaton,  
 C. Ochsenfeld,  J. A. Parkhill,  R. Peverati,  V. A. Rassolov,  Yihan Shao,  
 L. V. Slipchenko,  T. Stauch,  R. P. Steele,  J. E. Subotnik,  
 A. J. W. Thom,  A. Tkatchenko,  D. G. Truhlar,  T. Van Voorhis,  
 T. A. Wesolowski,  K. B. Whaley,  H. L. Woodcock III,  P. M. Zimmerman,  
 S. Faraji,  P. M. W. Gill,  M. Head-Gordon,  J. M. Herbert,  A. I. Krylov

 Additional authors for Version 5.4.1: 
 S. Kotaru,  Shaozhi Li,  Xiangyuan Li,  F. Matz,  A. Molle,  Haisheng Ren,  
 Yingli Su,  Hung-Yi Tsai,  C. Utku,  Fang Wang

 Contributors to earlier versions of Q-Chem not listed above: 
 R. D. Adamson,  B. Austin,  R. Baer,  J. Baker,  G. J. O. Beran,  
 K. Brandhorst,  S. T. Brown,  E. F. C. Byrd,  A. K. Chakraborty,  
 G. K. L. Chan,  Chun-Min Chang,  Yunqing Chen,  C.-L. Cheng,  
 Siu Hung Chien,  D. M. Chipman,  D. L. Crittenden,  H. Dachsel,  
 R. J. Doerksen,  A. D. Dutoi,  R. G. Edgar,  J. Fosso-Tande,  
 L. Fusti-Molnar,  D. Ghosh,  A. Ghysels,  A. Golubeva-Zadorozhnaya,  
 J. Gonthier,  M. S. Gordon,  S. R. Gwaltney,  G. Hawkins,  J. E. Herr,  
 A. Heyden,  S. Hirata,  E. G. Hohenstein,  G. Kedziora,  F. J. Keil,  
 C. Kelley,  Jihan Kim,  R. A. King,  R. Z. Khaliullin,  P. P. Korambath,  
 W. Kurlancheek,  A. Laurent,  A. M. Lee,  M. S. Lee,  S. V. Levchenko,  
 Ching Yeh Lin,  D. Liotard,  E. Livshits,  R. C. Lochan,  I. Lotan,  
 L. A. Martinez-Martinez,  P. E. Maslen,  N. Nair,  D. P. O'Neill,  
 D. Neuhauser,  E. Neuscamman,  C. M. Oana,  R. Olivares-Amaya,  R. Olson,  
 T. M. Perrine,  B. Peters,  P. A. Pieniazek,  A. Prociuk,  Y. M. Rhee,  
 J. Ritchie,  M. A. Rohrdanz,  E. Rosta,  N. J. Russ,  H. F. Schaefer III,  
 M. W. Schmidt,  N. E. Schultz,  S. Sharma,  N. Shenvi,  C. D. Sherrill,  
 A. C. Simmonett,  A. Sodt,  T. Stein,  D. Stuck,  K. S. Thanthiriwatte,  
 V. Vanovschi,  L. Vogt,  Tao Wang,  A. Warshel,  M. A. Watson,  
 C. F. Williams,  Q. Wu,  X. Xu,  Jun Yang,  W. Zhang,  Yan Zhao

 Please cite Q-Chem as follows:
 Y. Shao et al., Mol. Phys. 113, 184-215 (2015)
 DOI: 10.1080/00268976.2014.952696

 Q-Chem 5.4.1 for Intel X86 EM64T Linux

 Parts of Q-Chem use Armadillo 9.800.1 (Horizon Scraper).
 http://arma.sourceforge.net/

 Q-Chem begins on Fri May  3 09:14:55 2024  

 Host: 
0

     Scratch files written to /scratch/ari.fischer/qChem2083290.hpc-mn1/qchem16419//
 Aug1521 |scratch|qcdevops|jenkins|workspace|build_RNUM 8249   
 Processing $rem in /usr/local/qchem-5.4.1/config/preferences:
 Processing $rem in /home/ari.fischer/.qchemrc:
 Symmetry turned off for PCM/SM12/SMD calculation


!!********************************************.
!!******************Warning*******************.
!!Desired Analytical derivatives not available.
!!Finite difference job might take a long time.
!!********************************************.
!!********************************************.


 2-order derivative to be evaluated numerically with 1-order analytical derivatives

 Checking the input file for inconsistencies... 	...done.

--------------------------------------------------------------
User input:
--------------------------------------------------------------
$molecule
0 2
H    0.2887567    0.6866748    1.7490557
C   -0.1833941    0.9824095    0.8219490
C   -1.5799260    1.3509465    0.8478773
H   -2.0942043    1.3637886    1.7991431
C   -2.2289085    1.7532639   -0.2933123
H   -3.2703884    2.0415417   -0.2584090
C   -1.5911445    1.5877179   -1.5124570
H   -2.1037007    1.8234803   -2.4362067
C   -0.1018670    1.4216554   -1.6115186
H   -0.0677387    0.1877996   -2.1427200
C    0.5247037    1.0318678   -0.3135422
H    1.5834273    0.8075187   -0.3273561
O    0.6255621    2.3704823   -2.4016896
H    0.4086109    2.5023557   -3.3320084
O   -1.1834328   -1.1698050   -2.3913988
O   -2.1716280   -0.4656772   -2.1794835
$end

$rem
BASIS = 6-311++G(2df,2p)
GUI = 2
JOB_TYPE = Frequency
METHOD = wB97M-V
SCF_ALGORITHM = DIIS_GDM
MAX_SCF_CYCLES = 400
SCF_CONVERGENCE = 6
THRESH = 11
solvent_method = SMD
$end

--------------------------------------------------------------
 ----------------------------------------------------------------
             Standard Nuclear Orientation (Angstroms)
    I     Atom           X                Y                Z
 ----------------------------------------------------------------
    1      H       0.2887567000     0.6866748000     1.7490557000
    2      C      -0.1833941000     0.9824095000     0.8219490000
    3      C      -1.5799260000     1.3509465000     0.8478773000
    4      H      -2.0942043000     1.3637886000     1.7991431000
    5      C      -2.2289085000     1.7532639000    -0.2933123000
    6      H      -3.2703884000     2.0415417000    -0.2584090000
    7      C      -1.5911445000     1.5877179000    -1.5124570000
    8      H      -2.1037007000     1.8234803000    -2.4362067000
    9      C      -0.1018670000     1.4216554000    -1.6115186000
   10      H      -0.0677387000     0.1877996000    -2.1427200000
   11      C       0.5247037000     1.0318678000    -0.3135422000
   12      H       1.5834273000     0.8075187000    -0.3273561000
   13      O       0.6255621000     2.3704823000    -2.4016896000
   14      H       0.4086109000     2.5023557000    -3.3320084000
   15      O      -1.1834328000    -1.1698050000    -2.3913988000
   16      O      -2.1716280000    -0.4656772000    -2.1794835000
 ----------------------------------------------------------------
 Nuclear Repulsion Energy =         433.07071241 hartrees
 There are       34 alpha and       33 beta electrons
 Requested basis set is 6-311++G(2df,2p)
 There are 114 shells and 376 basis functions

 Total QAlloc Memory Limit 288000 MB
 Mega-Array Size       188 MB
 MEM_STATIC part       192 MB
 
 Citation of the SMD model:
 Marenich, A.V.; Cramer, C.J.; Truhlar, D.G.
 J. Phys. Chem. B 2009, 113, 6378-6396.
 iSolventCode=           1
 Solvent: water                                                           
 
 vradii
            1           2           3           4           5           6
    1   1.2000000   1.8500000   1.8500000   1.2000000   1.8500000   1.2000000
            7           8           9          10          11          12
    1   1.8500000   1.2000000   1.8500000   1.2000000   1.8500000   1.2000000
           13          14          15          16
    1   1.5200000   1.2000000   1.5200000   1.5200000
 Changing PCM_VDW_RADII to SMD_RADIUS
 Discretize the solute cavity surface with Lebedev spheres
	Using 110 Lebedev grid points for each H atom
	Using 194 Lebedev grid points for other atoms
	Atomic van der Waals radii will be scaled by 1.20
 Remove points where switching function is < 1.0e-08
 Keep 1261 surface tesserae and discard 1255 interior tesserae
 Molecular Surface Area = 149.758 Angst**2
 A cutoff of  1.0D-11 yielded   5887 shell pairs
 There are     64521 function pairs (     80651 Cartesian)
 Smallest overlap matrix eigenvalue = 2.27E-06

 Q-Chem warning in module stvman/mkSTV.C, line 323:

 Overlap eigenvalue is smaller than square root of threshold
 Use THRESH >= 12 to get rid of this warning

 Guess from superposition of atomic densities
 Warning:  Energy on first SCF cycle will be non-variational
 SAD guess density has 67.000000 electrons

 -----------------------------------------------------------------------
  General SCF calculation program by
  Eric Jon Sundstrom, Paul Horn, Yuezhi Mao, Dmitri Zuev, Alec White,
  David Stuck, Shaama M.S., Shane Yost, Joonho Lee, David Small,
  Daniel Levine, Susi Lehtola, Hugh Burton, Evgeny Epifanovsky,
  Bang C. Huynh
 -----------------------------------------------------------------------
 Exchange:     0.1500 Hartree-Fock + 1.0000 wB97M-V + LR-HF
 Correlation:  1.0000 wB97M-V
 Using SG-2 standard quadrature grid
 Nonlocal Correlation:  VV10 with C = 0.0100 and b = 6.00 and scale = 1.00000
 Grid used for NLC:  SG-1 standard quadrature
 using 16 threads for integral computing
 -------------------------------------------------------
 OpenMP Integral computing Module                
 Release: version 1.0, May 2013, Q-Chem Inc. Pittsburgh 
 -------------------------------------------------------
 
 Citation of the SMD model:
 Marenich, A.V.; Cramer, C.J.; Truhlar, D.G.
 J. Phys. Chem. B 2009, 113, 6378-6396.
 iSolventCode=           1
 Solvent: water                                                           
 
 vradii
            1           2           3           4           5           6
    1   1.2000000   1.8500000   1.8500000   1.2000000   1.8500000   1.2000000
            7           8           9          10          11          12
    1   1.8500000   1.2000000   1.8500000   1.2000000   1.8500000   1.2000000
           13          14          15          16
    1   1.5200000   1.2000000   1.5200000   1.5200000
 -------------------------------------------------------
 OpenMP BLAS3 based DFT computing Module                
 Release: version 1.0, May 2013, Q-Chem Inc. Pittsburgh 
 -------------------------------------------------------
 A unrestricted SCF calculation will be
 performed using DIIS, GDM
 SCF converges when RMS gradient is below 1.0e-06
 ---------------------------------------
  Cycle       Energy         DIIS error
 ---------------------------------------
    1    -460.3796607681      1.26e-02  
    2    -458.2005298925      1.16e-03  Done DIIS. Switching to GDM
 ---------------------------------------
  Cycle       Energy        RMS Gradient
 ---------------------------------------
    1    -458.2005298925      9.01e-02   Descent step
    2    -458.2770470693      1.62e-02   Normal BFGS step
    3    -458.2898729272      2.75e-02   Normal BFGS step
    4    -458.2917338453      1.36e-02   Normal BFGS step
    5    -458.2923075517      1.11e-02   Normal BFGS step
    6    -458.2926248381      8.63e-03   Normal BFGS step
    7    -458.2928544802      9.38e-03   Normal BFGS step
    8    -458.2931221747      9.46e-03   Normal BFGS step
    9    -458.2935460160      8.46e-03   Normal BFGS step
   10    -458.2937997909      3.26e-03   Normal BFGS step
   11    -458.2938816851      1.42e-03   Normal BFGS step
   12    -458.2938997972      6.20e-04   Normal BFGS step
   13    -458.2939035885      2.43e-04   Normal BFGS step
   14    -458.2939042141      1.29e-04   Normal BFGS step
   15    -458.2939043613      5.09e-05   Normal BFGS step
   16    -458.2939043956      2.48e-05   Normal BFGS step
   17    -458.2939044007      1.44e-05   Normal BFGS step
   18    -458.2939044020      4.33e-06   Normal BFGS step
   19    -458.2939044025      1.88e-06   Normal BFGS step
   20    -458.2939044028      1.30e-06   Normal BFGS step
   21    -458.2939044026      3.74e-07  Convergence criterion met
 ---------------------------------------
 SCF time:   CPU 1898.30s  wall 129.00s 
<S^2> =          0.986583722
(3)  G-ENP(liq) elect-nuc-pol free energy of system     -458.293904403 a.u.
(4)  G-CDS(liq) cavity-dispersion-solvent structure 
     free energy                                                2.7768 kcal/mol
(6)  G-S(liq) free energy of system                     -458.289479226 a.u.
 SCF   energy in the final basis set =     -458.2894792260
 Total energy in the final basis set =     -458.2894792260
 
 --------------------------------------------------------------
 
                    Orbital Energies (a.u.)
 --------------------------------------------------------------
 
 Alpha MOs
 -- Occupied --
-19.4272 -19.4230 -19.3525 -10.4327 -10.3842 -10.3673 -10.3630 -10.3515
-10.3513  -1.3594  -1.1603  -0.9860  -0.9194  -0.8859  -0.8658  -0.7438
 -0.7239  -0.6551  -0.6432  -0.6198  -0.6072  -0.6019  -0.5746  -0.5619
 -0.5379  -0.5215  -0.4825  -0.4726  -0.4498  -0.4242  -0.3980  -0.3702
 -0.3532  -0.3310
 -- Virtual --
 -0.0248   0.0267   0.0367   0.0369   0.0563   0.0578   0.0642   0.0713
  0.0824   0.0963   0.1072   0.1114   0.1272   0.1340   0.1435   0.1517
  0.1556   0.1589   0.1600   0.1632   0.1653   0.1734   0.1746   0.1836
  0.1855   0.1947   0.2023   0.2076   0.2153   0.2185   0.2249   0.2306
  0.2402   0.2460   0.2603   0.2653   0.2801   0.2889   0.3017   0.3038
  0.3131   0.3235   0.3310   0.3380   0.3450   0.3488   0.3596   0.3633
  0.3685   0.3767   0.3968   0.4049   0.4076   0.4165   0.4270   0.4283
  0.4379   0.4590   0.4605   0.5195   0.5330   0.5478   0.5596   0.5789
  0.5880   0.5942   0.6055   0.6169   0.6251   0.6338   0.6372   0.6622
  0.6757   0.6954   0.7036   0.7091   0.7119   0.7292   0.7418   0.7458
  0.7482   0.7534   0.7848   0.8009   0.8118   0.8144   0.8296   0.8320
  0.8394   0.8532   0.8686   0.8726   0.8783   0.8950   0.9157   0.9461
  0.9644   1.0070   1.0214   1.0513   1.0635   1.0768   1.0871   1.0979
  1.1041   1.1311   1.1477   1.1635   1.1715   1.1893   1.1933   1.2089
  1.2233   1.2371   1.2397   1.2533   1.2644   1.2751   1.2942   1.3094
  1.3262   1.3460   1.3560   1.3724   1.3760   1.3946   1.4045   1.4086
  1.4105   1.4307   1.4378   1.4475   1.4605   1.4752   1.4921   1.5019
  1.5242   1.5303   1.5566   1.5700   1.5778   1.5990   1.6145   1.6261
  1.6759   1.6908   1.6993   1.7377   1.7565   1.7935   1.8003   1.8118
  1.8450   1.8662   1.9166   1.9491   1.9955   2.0363   2.0416   2.0741
  2.1266   2.1514   2.1864   2.2590   2.3325   2.3551   2.3682   2.4146
  2.4432   2.5782   2.5868   2.6059   2.6564   2.6706   2.6891   2.7183
  2.7524   2.7982   2.8094   2.8251   2.8379   2.8443   2.8550   2.8737
  2.8911   2.8993   2.9090   2.9125   2.9355   2.9474   2.9692   2.9831
  2.9996   3.0343   3.0714   3.0870   3.1055   3.1418   3.1788   3.1797
  3.2161   3.2290   3.2509   3.2774   3.2856   3.3044   3.3166   3.3294
  3.3473   3.3635   3.3740   3.3897   3.4157   3.4249   3.4603   3.4705
  3.4853   3.4950   3.5060   3.5155   3.5274   3.5650   3.6025   3.6170
  3.6291   3.6727   3.7062   3.7355   3.7407   3.7462   3.7638   3.7954
  3.8029   3.8247   3.8754   3.8871   3.8891   3.8992   3.9212   3.9599
  3.9772   4.0028   4.0190   4.0264   4.0394   4.0723   4.1315   4.1600
  4.1723   4.2168   4.2449   4.2646   4.2749   4.3105   4.3355   4.3582
  4.3808   4.4019   4.4207   4.4288   4.4685   4.4946   4.5097   4.5194
  4.5730   4.5881   4.6366   4.6393   4.6537   4.6619   4.6703   4.6928
  4.7291   4.7544   4.7809   4.7839   4.8815   4.9434   4.9696   5.0111
  5.0202   5.0417   5.0623   5.0699   5.0786   5.1396   5.1802   5.1872
  5.2087   5.2274   5.2435   5.2546   5.2750   5.2815   5.2881   5.3160
  5.3415   5.3477   5.4423   5.4774   5.5086   5.5398   5.6499   5.7185
  5.7273   5.7388   5.7646   5.8281   5.8573   5.9235   6.1350   6.1969
  6.3831   6.5655   6.7567   6.7918   6.7985   6.9360   6.9675   7.0119
  7.0644   7.0711   7.0991   7.1851   7.2363   7.3181   7.3688   7.3891
  7.4956   7.7536   7.7644   8.1547   8.1619  24.2244  24.5701  24.6763
 24.8039  25.0934  25.3702  50.5171  50.5463  50.6013
 
 Beta MOs
 -- Occupied --
-19.4058 -19.4025 -19.3529 -10.4319 -10.3871 -10.3702 -10.3647 -10.3504
-10.3500  -1.3199  -1.1611  -0.9883  -0.8927  -0.8717  -0.8550  -0.7463
 -0.7252  -0.6551  -0.6368  -0.5893  -0.5807  -0.5713  -0.5529  -0.5392
 -0.5260  -0.5170  -0.4809  -0.4739  -0.4546  -0.4255  -0.3917  -0.3552
 -0.2796
 -- Virtual --
 -0.0263   0.0080   0.0267   0.0367   0.0371   0.0564   0.0584   0.0652
  0.0669   0.0826   0.0968   0.1086   0.1120   0.1271   0.1337   0.1445
  0.1521   0.1563   0.1591   0.1601   0.1635   0.1647   0.1739   0.1761
  0.1843   0.1870   0.1956   0.2023   0.2076   0.2151   0.2186   0.2253
  0.2318   0.2410   0.2470   0.2610   0.2666   0.2811   0.2903   0.3037
  0.3049   0.3172   0.3258   0.3319   0.3402   0.3463   0.3509   0.3601
  0.3638   0.3689   0.3793   0.3962   0.4056   0.4075   0.4169   0.4269
  0.4289   0.4483   0.4591   0.4665   0.5192   0.5315   0.5475   0.5594
  0.5778   0.5858   0.5928   0.6045   0.6150   0.6238   0.6337   0.6357
  0.6609   0.6750   0.6929   0.7033   0.7076   0.7111   0.7283   0.7396
  0.7456   0.7461   0.7529   0.7842   0.8012   0.8089   0.8137   0.8279
  0.8311   0.8391   0.8525   0.8680   0.8715   0.8779   0.8946   0.9148
  0.9460   0.9649   1.0073   1.0215   1.0529   1.0688   1.0796   1.0895
  1.0997   1.1078   1.1310   1.1571   1.1748   1.1802   1.1931   1.2040
  1.2139   1.2246   1.2411   1.2524   1.2577   1.2755   1.2768   1.2981
  1.3110   1.3301   1.3471   1.3571   1.3711   1.3757   1.3949   1.4055
  1.4097   1.4124   1.4330   1.4373   1.4486   1.4687   1.4752   1.4992
  1.5007   1.5266   1.5316   1.5604   1.5699   1.5777   1.6116   1.6159
  1.6409   1.6777   1.6902   1.7066   1.7385   1.7811   1.7952   1.8045
  1.8155   1.8567   1.8674   1.9204   1.9551   1.9984   2.0365   2.0398
  2.0739   2.1271   2.1590   2.1886   2.2637   2.3521   2.3641   2.3864
  2.4175   2.4550   2.5745   2.5848   2.6020   2.6544   2.6686   2.6965
  2.7161   2.7508   2.7934   2.8056   2.8138   2.8334   2.8411   2.8509
  2.8706   2.8869   2.8935   2.9050   2.9088   2.9262   2.9429   2.9580
  2.9764   2.9932   3.0275   3.0609   3.0826   3.0960   3.1361   3.1732
  3.1777   3.2115   3.2257   3.2459   3.2741   3.2812   3.3014   3.3095
  3.3259   3.3424   3.3593   3.3689   3.3843   3.4099   3.4232   3.4544
  3.4662   3.4838   3.4916   3.5033   3.5127   3.5224   3.5596   3.5947
  3.6080   3.6248   3.6641   3.7017   3.7338   3.7358   3.7419   3.7600
  3.7924   3.8004   3.8194   3.8712   3.8819   3.8864   3.8964   3.9165
  3.9566   3.9723   3.9988   4.0136   4.0207   4.0337   4.0676   4.1272
  4.1566   4.1686   4.2112   4.2392   4.2553   4.2627   4.3023   4.3304
  4.3529   4.3756   4.3980   4.4168   4.4218   4.4640   4.4894   4.5060
  4.5165   4.5692   4.6272   4.6332   4.6382   4.6522   4.6759   4.6957
  4.7068   4.7272   4.7583   4.7793   4.7901   4.8728   4.9381   4.9667
  5.0275   5.0454   5.0613   5.0811   5.1052   5.1348   5.1537   5.1970
  5.2402   5.2439   5.2586   5.2679   5.2761   5.2854   5.3010   5.3252
  5.3330   5.3690   5.3795   5.4352   5.4759   5.5068   5.5380   5.6451
  5.7155   5.7249   5.7784   5.8023   5.8203   5.8562   5.9200   6.1331
  6.1928   6.3796   6.5646   6.8180   6.8281   6.8892   7.0261   7.0485
  7.0839   7.0955   7.1103   7.1425   7.2359   7.2468   7.3184   7.3709
  7.4391   7.5252   7.7525   7.7638   8.1776   8.1923  24.2238  24.5693
 24.6767  24.8015  25.0929  25.3694  50.5332  50.5628  50.6016
 --------------------------------------------------------------
 
          Ground-State Mulliken Net Atomic Charges

     Atom                 Charge (a.u.)    Spin (a.u.)
  --------------------------------------------------------
      1 H                     0.297095      -0.001774
      2 C                    -0.345739       0.057197
      3 C                    -0.186612      -0.195169
      4 H                     0.291549       0.003139
      5 C                    -0.368998       0.087491
      6 H                     0.284730      -0.002804
      7 C                    -0.014053      -0.192432
      8 H                     0.350100       0.007508
      9 C                    -0.429288       0.023027
     10 H                     0.192851      -0.058924
     11 C                    -0.014416      -0.109733
     12 H                     0.311227       0.003242
     13 O                    -0.435472      -0.002856
     14 H                     0.355771      -0.000237
     15 O                    -0.195767       0.674590
     16 O                    -0.092978       0.707735
  --------------------------------------------------------
  Sum of atomic charges =     0.000000
  Sum of spin   charges =     1.000000

 -----------------------------------------------------------------
                    Cartesian Multipole Moments
 -----------------------------------------------------------------
    Charge (ESU x 10^10)
                 0.0000
    Dipole Moment (Debye)
         X      -0.2425      Y       2.8901      Z       1.4924
       Tot       3.2617
    Quadrupole Moments (Debye-Ang)
        XX     -51.9740     XY     -10.1868     YY     -57.5558
        XZ      -3.0132     YZ      -8.5835     ZZ     -45.1798
    Octopole Moments (Debye-Ang^2)
       XXX     129.4850    XXY     -36.1971    XYY      33.9827
       YYY    -170.8576    XXZ      65.8875    XYZ      13.9814
       YYZ      48.0143    XZZ      46.8894    YZZ     -11.9996
       ZZZ     130.4277
    Hexadecapole Moments (Debye-Ang^3)
      XXXX    -653.4683   XXXY      26.2747   XXYY    -223.4803
      XYYY      60.6595   YYYY    -786.6418   XXXZ    -144.8624
      XXYZ      23.7345   XYYZ     -31.2925   YYYZ      78.9465
      XXZZ    -278.5645   XYZZ      -7.5622   YYZZ    -218.2937
      XZZZ    -148.5002   YZZZ     -39.1900   ZZZZ    -733.9406
 -----------------------------------------------------------------
 Calculating analytic gradient of the SCF energy
 Gradient of CDS energy
            1           2           3           4           5           6
    1   0.0000901   0.0003300  -0.0003489  -0.0000968  -0.0003588  -0.0002008
    2  -0.0000564  -0.0001643   0.0000086   0.0000024   0.0001956   0.0000556
    3   0.0001769   0.0003561   0.0004228   0.0001790  -0.0000883   0.0000067
            7           8           9          10          11          12
    1  -0.0000469  -0.0001083   0.0001487  -0.0000300   0.0003826   0.0002104
    2   0.0000884  -0.0000652   0.0002311  -0.0002269  -0.0000537  -0.0000195
    3  -0.0001932  -0.0001622  -0.0002665  -0.0000717  -0.0000238  -0.0000440
           13          14          15          16
    1  -0.0000740   0.0001409  -0.0000682   0.0000299
    2  -0.0001103   0.0002034  -0.0000285  -0.0000601
    3   0.0002476  -0.0004356  -0.0000264  -0.0000776
 Gradient of SCF Energy
            1           2           3           4           5           6
    1   0.0036788   0.0168708  -0.0087686  -0.0051577   0.0119320  -0.0085580
    2  -0.0002210   0.0048259  -0.0095112  -0.0006852   0.0233122   0.0020298
    3   0.0084936  -0.0106327  -0.0065908   0.0087627  -0.0139255   0.0011134
            7           8           9          10          11          12
    1  -0.0231426  -0.0056137   0.0204372   0.0023528  -0.0153721   0.0046995
    2  -0.0157543  -0.0053430   0.0560120  -0.0421415  -0.0234686  -0.0027614
    3   0.0349318  -0.0102436   0.0158968  -0.0156302   0.0195186   0.0004154
           13          14          15          16
    1   0.0000317   0.0077106  -0.0293684   0.0282677
    2   0.0089243   0.0156418   0.0044819  -0.0153416
    3  -0.0091790  -0.0183191   0.0062712  -0.0108827
 Max gradient component =       5.601E-02
 RMS gradient           =       1.699E-02
 Computing fast CPCM-SWIG gradient
 Updating gradient with PCM contributions...
 -- total gradient after adding PCM contribution --
---------------------------------------------------
  Atom         X              Y              Z     
---------------------------------------------------
   1       0.000178       0.001774       0.001050
   2       0.017638       0.003340      -0.007622
   3      -0.011285      -0.007104       0.000552
   4      -0.000330      -0.000872      -0.000070
   5       0.004692       0.020251      -0.012092
   6      -0.000314      -0.000691       0.000563
   7      -0.026332      -0.007565       0.029186
   8      -0.002063      -0.008086      -0.002290
   9       0.020617       0.052038       0.015366
  10       0.001912      -0.041520      -0.014770
  11      -0.009369      -0.022906       0.023176
  12      -0.000364      -0.001150      -0.000184
  13      -0.006832       0.008188      -0.024727
  14       0.012700       0.014066      -0.003251
  15      -0.027622       0.004275       0.006134
  16       0.026773      -0.014039      -0.011022
---------------------------------------------------
 Number of fixed atoms: 0
 Gradient time:  CPU 234.92 s  wall 19.58 s
 ######################################################
 ######################################################
 # Starting finite difference calculation for IDERIV  #
 Finite diff step size:  1.88973e-03 a.u.
 ----------------------------------------------------------------
             Standard Nuclear Orientation (Angstroms)
    I     Atom           X                Y                Z
 ----------------------------------------------------------------
    1      H       0.2897567000     0.6866748000     1.7490557000
    2      C      -0.1833941000     0.9824095000     0.8219490000
    3      C      -1.5799260000     1.3509465000     0.8478773000
    4      H      -2.0942043000     1.3637886000     1.7991431000
    5      C      -2.2289085000     1.7532639000    -0.2933123000
    6      H      -3.2703884000     2.0415417000    -0.2584090000
    7      C      -1.5911445000     1.5877179000    -1.5124570000
    8      H      -2.1037007000     1.8234803000    -2.4362067000
    9      C      -0.1018670000     1.4216554000    -1.6115186000
   10      H      -0.0677387000     0.1877996000    -2.1427200000
   11      C       0.5247037000     1.0318678000    -0.3135422000
   12      H       1.5834273000     0.8075187000    -0.3273561000
   13      O       0.6255621000     2.3704823000    -2.4016896000
   14      H       0.4086109000     2.5023557000    -3.3320084000
   15      O      -1.1834328000    -1.1698050000    -2.3913988000
   16      O      -2.1716280000    -0.4656772000    -2.1794835000
 ----------------------------------------------------------------
 Nuclear Repulsion Energy =         433.06848942 hartrees
 There are       34 alpha and       33 beta electrons
 Discretize the solute cavity surface with Lebedev spheres
	Using 110 Lebedev grid points for each H atom
	Using 194 Lebedev grid points for other atoms
	Atomic van der Waals radii will be scaled by 1.20
 Remove points where switching function is < 1.0e-08
 Keep 1261 surface tesserae and discard 1255 interior tesserae
 Molecular Surface Area = 149.760 Angst**2
 Requested basis set is 6-311++G(2df,2p)
 There are 114 shells and 376 basis functions
 A cutoff of  1.0D-11 yielded   5886 shell pairs
 There are     64506 function pairs (     80633 Cartesian)
 Smallest overlap matrix eigenvalue = 2.27E-06

 Q-Chem warning in module stvman/mkSTV.C, line 323:

 Overlap eigenvalue is smaller than square root of threshold
 Use THRESH >= 12 to get rid of this warning

 Guess MOs from SCF MO coefficient file

 -----------------------------------------------------------------------
  General SCF calculation program by
  Eric Jon Sundstrom, Paul Horn, Yuezhi Mao, Dmitri Zuev, Alec White,
  David Stuck, Shaama M.S., Shane Yost, Joonho Lee, David Small,
  Daniel Levine, Susi Lehtola, Hugh Burton, Evgeny Epifanovsky,
  Bang C. Huynh
 -----------------------------------------------------------------------
 Exchange:     0.1500 Hartree-Fock + 1.0000 wB97M-V + LR-HF
 Correlation:  1.0000 wB97M-V
 Using SG-2 standard quadrature grid
 Nonlocal Correlation:  VV10 with C = 0.0100 and b = 6.00 and scale = 1.00000
 Grid used for NLC:  SG-1 standard quadrature
 
 Citation of the SMD model:
 Marenich, A.V.; Cramer, C.J.; Truhlar, D.G.
 J. Phys. Chem. B 2009, 113, 6378-6396.
 iSolventCode=           1
 Solvent: water                                                           
 
 vradii
            1           2           3           4           5           6
    1   1.2000000   1.8500000   1.8500000   1.2000000   1.8500000   1.2000000
            7           8           9          10          11          12
    1   1.8500000   1.2000000   1.8500000   1.2000000   1.8500000   1.2000000
           13          14          15          16
    1   1.5200000   1.2000000   1.5200000   1.5200000
 -------------------------------------------------------
 OpenMP BLAS3 based DFT computing Module                
 Release: version 1.0, May 2013, Q-Chem Inc. Pittsburgh 
 -------------------------------------------------------
 A unrestricted SCF calculation will be
 performed using Roothaan-Hall, DIIS, GDM
 SCF converges when RMS gradient is below 1.0e-06
 ---------------------------------------
  Cycle       Energy         DIIS error
 ---------------------------------------
    1    -458.2696766600      1.70e-04  Roothaan Step
 ---------------------------------------
  Cycle       Energy         DIIS error
 ---------------------------------------
    1    -458.2896477225      1.94e-04  
    2    -458.2922778707      1.73e-04  Done DIIS. Switching to GDM
 ---------------------------------------
  Cycle       Energy        RMS Gradient
 ---------------------------------------
    1    -458.2922778707      1.30e-02   Normal BFGS step
    2    -458.2921938993      2.26e-02  Line search: overstep
    3    -458.2937243957      4.48e-03   Normal BFGS step
    4    -458.2938334044      3.56e-03   Normal BFGS step
    5    -458.2938763530      1.48e-03   Normal BFGS step
    6    -458.2938874507      1.44e-03   Normal BFGS step
    7    -458.2938925757      1.17e-03   Normal BFGS step
    8    -458.2938966005      6.00e-04   Normal BFGS step
    9    -458.2938996388      7.52e-04   Normal BFGS step
   10    -458.2939019220      7.04e-04   Normal BFGS step
   11    -458.2939033123      3.08e-04   Normal BFGS step
   12    -458.2939037940      1.55e-04   Normal BFGS step
   13    -458.2939039416      1.02e-04   Normal BFGS step
   14    -458.2939040100      5.95e-05   Normal BFGS step
   15    -458.2939040290      2.05e-05   Normal BFGS step
   16    -458.2939040328      1.62e-05   Normal BFGS step
   17    -458.2939040342      1.14e-05   Normal BFGS step
   18    -458.2939040346      7.96e-06   Normal BFGS step
   19    -458.2939040350      5.22e-06   Normal BFGS step
   20    -458.2939040352      2.44e-06   Normal BFGS step
   21    -458.2939040351      9.75e-07  Convergence criterion met
 ---------------------------------------
 SCF time:   CPU 1977.91s  wall 136.00s 
<S^2> =          0.986604305
(3)  G-ENP(liq) elect-nuc-pol free energy of system     -458.293904035 a.u.
(4)  G-CDS(liq) cavity-dispersion-solvent structure 
     free energy                                                2.7769 kcal/mol
(6)  G-S(liq) free energy of system                     -458.289478688 a.u.
 SCF   energy in the final basis set =     -458.2894786879
 Total energy in the final basis set =     -458.2894786879
 
 --------------------------------------------------------------
 
                    Orbital Energies (a.u.)
 --------------------------------------------------------------
 
 Alpha MOs
 -- Occupied --
-19.4272 -19.4230 -19.3525 -10.4327 -10.3842 -10.3674 -10.3630 -10.3515
-10.3513  -1.3594  -1.1603  -0.9860  -0.9194  -0.8859  -0.8658  -0.7438
 -0.7239  -0.6551  -0.6432  -0.6198  -0.6072  -0.6019  -0.5746  -0.5618
 -0.5378  -0.5215  -0.4825  -0.4726  -0.4498  -0.4242  -0.3980  -0.3702
 -0.3532  -0.3310
 -- Virtual --
 -0.0248   0.0267   0.0367   0.0369   0.0563   0.0578   0.0642   0.0713
  0.0824   0.0963   0.1072   0.1114   0.1272   0.1340   0.1435   0.1517
  0.1556   0.1589   0.1600   0.1632   0.1653   0.1734   0.1746   0.1836
  0.1855   0.1947   0.2023   0.2076   0.2153   0.2185   0.2249   0.2306
  0.2402   0.2460   0.2603   0.2653   0.2801   0.2889   0.3017   0.3038
  0.3131   0.3235   0.3310   0.3380   0.3450   0.3488   0.3596   0.3634
  0.3685   0.3767   0.3968   0.4048   0.4076   0.4165   0.4270   0.4283
  0.4379   0.4590   0.4606   0.5195   0.5330   0.5478   0.5596   0.5789
  0.5880   0.5942   0.6055   0.6169   0.6251   0.6337   0.6372   0.6622
  0.6757   0.6954   0.7036   0.7091   0.7119   0.7292   0.7418   0.7458
  0.7482   0.7534   0.7848   0.8009   0.8118   0.8144   0.8296   0.8320
  0.8394   0.8532   0.8686   0.8726   0.8783   0.8950   0.9157   0.9461
  0.9644   1.0070   1.0214   1.0512   1.0635   1.0768   1.0870   1.0979
  1.1041   1.1311   1.1477   1.1634   1.1715   1.1893   1.1933   1.2089
  1.2232   1.2371   1.2397   1.2532   1.2644   1.2751   1.2942   1.3094
  1.3261   1.3460   1.3560   1.3725   1.3760   1.3946   1.4045   1.4086
  1.4104   1.4307   1.4378   1.4475   1.4605   1.4752   1.4921   1.5019
  1.5242   1.5302   1.5566   1.5700   1.5778   1.5989   1.6145   1.6261
  1.6759   1.6908   1.6993   1.7377   1.7565   1.7935   1.8003   1.8118
  1.8450   1.8663   1.9166   1.9491   1.9955   2.0362   2.0417   2.0739
  2.1266   2.1513   2.1864   2.2591   2.3325   2.3551   2.3682   2.4146
  2.4432   2.5783   2.5868   2.6059   2.6564   2.6706   2.6891   2.7183
  2.7524   2.7982   2.8093   2.8251   2.8378   2.8443   2.8550   2.8737
  2.8911   2.8993   2.9089   2.9125   2.9355   2.9473   2.9692   2.9832
  2.9996   3.0343   3.0714   3.0870   3.1054   3.1418   3.1788   3.1797
  3.2161   3.2290   3.2509   3.2774   3.2857   3.3044   3.3166   3.3295
  3.3472   3.3634   3.3739   3.3897   3.4157   3.4249   3.4602   3.4705
  3.4853   3.4950   3.5060   3.5154   3.5274   3.5650   3.6025   3.6170
  3.6289   3.6727   3.7062   3.7355   3.7407   3.7461   3.7638   3.7954
  3.8029   3.8247   3.8754   3.8871   3.8890   3.8991   3.9212   3.9599
  3.9772   4.0029   4.0190   4.0263   4.0394   4.0723   4.1313   4.1600
  4.1721   4.2167   4.2449   4.2645   4.2749   4.3105   4.3354   4.3582
  4.3808   4.4019   4.4206   4.4288   4.4684   4.4944   4.5096   4.5194
  4.5729   4.5881   4.6366   4.6392   4.6537   4.6618   4.6702   4.6927
  4.7290   4.7544   4.7807   4.7838   4.8815   4.9435   4.9696   5.0111
  5.0202   5.0417   5.0623   5.0699   5.0785   5.1394   5.1802   5.1872
  5.2087   5.2274   5.2434   5.2544   5.2749   5.2815   5.2881   5.3160
  5.3415   5.3477   5.4421   5.4773   5.5085   5.5398   5.6498   5.7185
  5.7273   5.7388   5.7646   5.8280   5.8567   5.9233   6.1350   6.1965
  6.3830   6.5655   6.7567   6.7918   6.7985   6.9360   6.9675   7.0119
  7.0644   7.0711   7.0991   7.1851   7.2363   7.3181   7.3688   7.3891
  7.4956   7.7536   7.7644   8.1547   8.1619  24.2242  24.5698  24.6763
 24.8039  25.0933  25.3701  50.5171  50.5463  50.6013
 
 Beta MOs
 -- Occupied --
-19.4058 -19.4025 -19.3529 -10.4319 -10.3871 -10.3702 -10.3647 -10.3504
-10.3500  -1.3199  -1.1611  -0.9883  -0.8927  -0.8717  -0.8550  -0.7463
 -0.7251  -0.6550  -0.6368  -0.5893  -0.5807  -0.5713  -0.5529  -0.5392
 -0.5260  -0.5170  -0.4809  -0.4739  -0.4546  -0.4254  -0.3917  -0.3552
 -0.2796
 -- Virtual --
 -0.0263   0.0080   0.0267   0.0367   0.0371   0.0564   0.0584   0.0652
  0.0669   0.0826   0.0968   0.1086   0.1120   0.1271   0.1337   0.1445
  0.1521   0.1563   0.1591   0.1601   0.1635   0.1647   0.1739   0.1761
  0.1843   0.1870   0.1956   0.2023   0.2076   0.2151   0.2186   0.2253
  0.2318   0.2410   0.2470   0.2610   0.2666   0.2811   0.2903   0.3037
  0.3049   0.3172   0.3258   0.3320   0.3402   0.3463   0.3509   0.3602
  0.3638   0.3689   0.3793   0.3962   0.4056   0.4076   0.4169   0.4269
  0.4289   0.4483   0.4591   0.4665   0.5192   0.5315   0.5475   0.5594
  0.5777   0.5858   0.5928   0.6045   0.6150   0.6238   0.6337   0.6357
  0.6609   0.6750   0.6929   0.7033   0.7076   0.7111   0.7283   0.7396
  0.7456   0.7461   0.7529   0.7842   0.8012   0.8089   0.8137   0.8279
  0.8311   0.8391   0.8525   0.8680   0.8714   0.8779   0.8945   0.9148
  0.9460   0.9649   1.0073   1.0215   1.0528   1.0688   1.0796   1.0895
  1.0997   1.1078   1.1310   1.1570   1.1748   1.1802   1.1931   1.2040
  1.2139   1.2246   1.2410   1.2523   1.2577   1.2755   1.2769   1.2982
  1.3110   1.3301   1.3471   1.3571   1.3711   1.3756   1.3949   1.4055
  1.4097   1.4124   1.4330   1.4373   1.4485   1.4687   1.4752   1.4992
  1.5006   1.5266   1.5315   1.5604   1.5698   1.5776   1.6116   1.6159
  1.6409   1.6778   1.6901   1.7066   1.7384   1.7811   1.7951   1.8044
  1.8155   1.8567   1.8674   1.9204   1.9551   1.9983   2.0365   2.0399
  2.0737   2.1270   2.1590   2.1886   2.2638   2.3521   2.3641   2.3864
  2.4175   2.4550   2.5745   2.5848   2.6020   2.6545   2.6686   2.6965
  2.7160   2.7508   2.7934   2.8055   2.8138   2.8334   2.8411   2.8509
  2.8706   2.8869   2.8935   2.9050   2.9088   2.9262   2.9429   2.9580
  2.9764   2.9932   3.0274   3.0609   3.0826   3.0959   3.1361   3.1732
  3.1777   3.2115   3.2258   3.2459   3.2741   3.2812   3.3014   3.3096
  3.3260   3.3422   3.3592   3.3688   3.3843   3.4099   3.4231   3.4544
  3.4663   3.4838   3.4915   3.5033   3.5127   3.5224   3.5596   3.5947
  3.6080   3.6246   3.6641   3.7017   3.7338   3.7358   3.7418   3.7600
  3.7924   3.8004   3.8194   3.8712   3.8819   3.8864   3.8963   3.9164
  3.9566   3.9723   3.9990   4.0136   4.0206   4.0337   4.0677   4.1270
  4.1565   4.1684   4.2111   4.2391   4.2552   4.2627   4.3023   4.3304
  4.3529   4.3756   4.3979   4.4167   4.4218   4.4639   4.4892   4.5060
  4.5166   4.5691   4.6272   4.6332   4.6382   4.6521   4.6758   4.6956
  4.7068   4.7270   4.7583   4.7791   4.7900   4.8728   4.9381   4.9668
  5.0275   5.0454   5.0612   5.0811   5.1051   5.1347   5.1536   5.1969
  5.2400   5.2439   5.2585   5.2679   5.2761   5.2854   5.3010   5.3251
  5.3330   5.3690   5.3795   5.4350   5.4758   5.5067   5.5380   5.6450
  5.7155   5.7249   5.7784   5.8023   5.8203   5.8556   5.9197   6.1330
  6.1924   6.3795   6.5646   6.8180   6.8280   6.8892   7.0260   7.0485
  7.0839   7.0955   7.1103   7.1425   7.2359   7.2468   7.3184   7.3709
  7.4391   7.5252   7.7525   7.7638   8.1776   8.1922  24.2236  24.5691
 24.6766  24.8015  25.0928  25.3693  50.5332  50.5628  50.6016
 --------------------------------------------------------------
 
          Ground-State Mulliken Net Atomic Charges

     Atom                 Charge (a.u.)    Spin (a.u.)
  --------------------------------------------------------
      1 H                     0.297007      -0.001774
      2 C                    -0.345818       0.057187
      3 C                    -0.186809      -0.195167
      4 H                     0.291558       0.003140
      5 C                    -0.369090       0.087490
      6 H                     0.284731      -0.002804
      7 C                    -0.014050      -0.192446
      8 H                     0.350103       0.007509
      9 C                    -0.429285       0.023027
     10 H                     0.192840      -0.058926
     11 C                    -0.014009      -0.109729
     12 H                     0.311260       0.003242
     13 O                    -0.435479      -0.002856
     14 H                     0.355770      -0.000237
     15 O                    -0.195758       0.674601
     16 O                    -0.092970       0.707745
  --------------------------------------------------------
  Sum of atomic charges =     0.000000
  Sum of spin   charges =     1.000000

 -----------------------------------------------------------------
                    Cartesian Multipole Moments
 -----------------------------------------------------------------
    Charge (ESU x 10^10)
                 0.0000
    Dipole Moment (Debye)
         X      -0.2423      Y       2.8902      Z       1.4919
       Tot       3.2616
    Quadrupole Moments (Debye-Ang)
        XX     -51.9724     XY     -10.1869     YY     -57.5559
        XZ      -3.0113     YZ      -8.5833     ZZ     -45.1812
    Octopole Moments (Debye-Ang^2)
       XXX     129.4791    XXY     -36.1952    XYY      33.9804
       YYY    -170.8580    XXZ      65.8875    XYZ      13.9822
       YYZ      48.0134    XZZ      46.8909    YZZ     -12.0013
       ZZZ     130.4225
    Hexadecapole Moments (Debye-Ang^3)
      XXXX    -653.4576   XXXY      26.2675   XXYY    -223.4762
      XYYY      60.6546   YYYY    -786.6413   XXXZ    -144.8631
      XXYZ      23.7351   XYYZ     -31.2926   YYYZ      78.9461
      XXZZ    -278.5617   XYZZ      -7.5607   YYZZ    -218.2964
      XZZZ    -148.4958   YZZZ     -39.1904   ZZZZ    -733.9538
 -----------------------------------------------------------------
 Calculating analytic gradient of the SCF energy
 Gradient of CDS energy
            1           2           3           4           5           6
    1   0.0000905   0.0003296  -0.0003489  -0.0000968  -0.0003588  -0.0002008
    2  -0.0000566  -0.0001642   0.0000086   0.0000024   0.0001956   0.0000556
    3   0.0001774   0.0003557   0.0004228   0.0001790  -0.0000883   0.0000067
            7           8           9          10          11          12
    1  -0.0000469  -0.0001083   0.0001487  -0.0000300   0.0003826   0.0002104
    2   0.0000884  -0.0000652   0.0002311  -0.0002269  -0.0000537  -0.0000195
    3  -0.0001932  -0.0001622  -0.0002665  -0.0000717  -0.0000238  -0.0000440
           13          14          15          16
    1  -0.0000740   0.0001409  -0.0000682   0.0000299
    2  -0.0001103   0.0002034  -0.0000285  -0.0000601
    3   0.0002476  -0.0004356  -0.0000264  -0.0000776
 Gradient of SCF Energy
            1           2           3           4           5           6
    1   0.0039033   0.0166595  -0.0087920  -0.0051553   0.0119247  -0.0085598
    2  -0.0003040   0.0048997  -0.0094935  -0.0006869   0.0233158   0.0020307
    3   0.0086978  -0.0108291  -0.0066446   0.0087604  -0.0139191   0.0011109
            7           8           9          10          11          12
    1  -0.0231449  -0.0056137   0.0204360   0.0023530  -0.0153554   0.0047020
    2  -0.0157537  -0.0053434   0.0560142  -0.0421416  -0.0234795  -0.0027645
    3   0.0349322  -0.0102442   0.0159027  -0.0156295   0.0195560   0.0004146
           13          14          15          16
    1   0.0000320   0.0077104  -0.0293658   0.0282660
    2   0.0089244   0.0156415   0.0044801  -0.0153393
    3  -0.0091778  -0.0183190   0.0062707  -0.0108821
 Max gradient component =       5.601E-02
 RMS gradient           =       1.699E-02
 Computing fast CPCM-SWIG gradient
 Updating gradient with PCM contributions...
 -- total gradient after adding PCM contribution --
---------------------------------------------------
  Atom         X              Y              Z     
---------------------------------------------------
   1       0.000392       0.001690       0.001262
   2       0.017429       0.003415      -0.007824
   3      -0.011302      -0.007089       0.000502
   4      -0.000328      -0.000874      -0.000069
   5       0.004683       0.020256      -0.012089
   6      -0.000315      -0.000690       0.000561
   7      -0.026333      -0.007566       0.029188
   8      -0.002063      -0.008086      -0.002290
   9       0.020616       0.052040       0.015371
  10       0.001913      -0.041519      -0.014769
  11      -0.009348      -0.022915       0.023208
  12      -0.000363      -0.001153      -0.000185
  13      -0.006832       0.008188      -0.024726
  14       0.012700       0.014066      -0.003251
  15      -0.027619       0.004273       0.006133
  16       0.026771      -0.014036      -0.011022
---------------------------------------------------
 Number of fixed atoms: 0
 Gradient time:  CPU 235.72 s  wall 20.07 s
 ----------------------------------------------------------------
             Standard Nuclear Orientation (Angstroms)
    I     Atom           X                Y                Z
 ----------------------------------------------------------------
    1      H       0.2877567000     0.6866748000     1.7490557000
    2      C      -0.1833941000     0.9824095000     0.8219490000
    3      C      -1.5799260000     1.3509465000     0.8478773000
    4      H      -2.0942043000     1.3637886000     1.7991431000
    5      C      -2.2289085000     1.7532639000    -0.2933123000
    6      H      -3.2703884000     2.0415417000    -0.2584090000
    7      C      -1.5911445000     1.5877179000    -1.5124570000
    8      H      -2.1037007000     1.8234803000    -2.4362067000
    9      C      -0.1018670000     1.4216554000    -1.6115186000
   10      H      -0.0677387000     0.1877996000    -2.1427200000
   11      C       0.5247037000     1.0318678000    -0.3135422000
   12      H       1.5834273000     0.8075187000    -0.3273561000
   13      O       0.6255621000     2.3704823000    -2.4016896000
   14      H       0.4086109000     2.5023557000    -3.3320084000
   15      O      -1.1834328000    -1.1698050000    -2.3913988000
   16      O      -2.1716280000    -0.4656772000    -2.1794835000
 ----------------------------------------------------------------
 Nuclear Repulsion Energy =         433.07293431 hartrees
 There are       34 alpha and       33 beta electrons
 Discretize the solute cavity surface with Lebedev spheres
	Using 110 Lebedev grid points for each H atom
	Using 194 Lebedev grid points for other atoms
	Atomic van der Waals radii will be scaled by 1.20
 Remove points where switching function is < 1.0e-08
 Keep 1261 surface tesserae and discard 1255 interior tesserae
 Molecular Surface Area = 149.755 Angst**2
 Requested basis set is 6-311++G(2df,2p)
 There are 114 shells and 376 basis functions
 A cutoff of  1.0D-11 yielded   5887 shell pairs
 There are     64521 function pairs (     80651 Cartesian)
 Smallest overlap matrix eigenvalue = 2.27E-06

 Q-Chem warning in module stvman/mkSTV.C, line 323:

 Overlap eigenvalue is smaller than square root of threshold
 Use THRESH >= 12 to get rid of this warning

 Guess MOs from SCF MO coefficient file

 -----------------------------------------------------------------------
  General SCF calculation program by
  Eric Jon Sundstrom, Paul Horn, Yuezhi Mao, Dmitri Zuev, Alec White,
  David Stuck, Shaama M.S., Shane Yost, Joonho Lee, David Small,
  Daniel Levine, Susi Lehtola, Hugh Burton, Evgeny Epifanovsky,
  Bang C. Huynh
 -----------------------------------------------------------------------
 Exchange:     0.1500 Hartree-Fock + 1.0000 wB97M-V + LR-HF
 Correlation:  1.0000 wB97M-V
 Using SG-2 standard quadrature grid
 Nonlocal Correlation:  VV10 with C = 0.0100 and b = 6.00 and scale = 1.00000
 Grid used for NLC:  SG-1 standard quadrature
 
 Citation of the SMD model:
 Marenich, A.V.; Cramer, C.J.; Truhlar, D.G.
 J. Phys. Chem. B 2009, 113, 6378-6396.
 iSolventCode=           1
 Solvent: water                                                           
 
 vradii
            1           2           3           4           5           6
    1   1.2000000   1.8500000   1.8500000   1.2000000   1.8500000   1.2000000
            7           8           9          10          11          12
    1   1.8500000   1.2000000   1.8500000   1.2000000   1.8500000   1.2000000
           13          14          15          16
    1   1.5200000   1.2000000   1.5200000   1.5200000
 -------------------------------------------------------
 OpenMP BLAS3 based DFT computing Module                
 Release: version 1.0, May 2013, Q-Chem Inc. Pittsburgh 
 -------------------------------------------------------
 A unrestricted SCF calculation will be
 performed using Roothaan-Hall, DIIS, GDM
 SCF converges when RMS gradient is below 1.0e-06
 ---------------------------------------
  Cycle       Energy         DIIS error
 ---------------------------------------
    1    -458.2696796782      1.70e-04  Roothaan Step
 ---------------------------------------
  Cycle       Energy         DIIS error
 ---------------------------------------
    1    -458.2896459997      1.94e-04  
    2    -458.2922766530      1.74e-04  Done DIIS. Switching to GDM
 ---------------------------------------
  Cycle       Energy        RMS Gradient
 ---------------------------------------
    1    -458.2922766530      1.30e-02   Normal BFGS step
    2    -458.2921927712      2.26e-02  Line search: overstep
    3    -458.2937245001      4.49e-03   Normal BFGS step
    4    -458.2938336150      3.56e-03   Normal BFGS step
    5    -458.2938766096      1.48e-03   Normal BFGS step
    6    -458.2938877343      1.44e-03   Normal BFGS step
    7    -458.2938928683      1.17e-03   Normal BFGS step
    8    -458.2938969091      6.01e-04   Normal BFGS step
    9    -458.2938999586      7.53e-04   Normal BFGS step
   10    -458.2939022491      7.04e-04   Normal BFGS step
   11    -458.2939036430      3.07e-04   Normal BFGS step
   12    -458.2939041246      1.55e-04   Normal BFGS step
   13    -458.2939042727      1.03e-04   Normal BFGS step
   14    -458.2939043412      5.96e-05   Normal BFGS step
   15    -458.2939043603      2.05e-05   Normal BFGS step
   16    -458.2939043640      1.62e-05   Normal BFGS step
   17    -458.2939043654      1.14e-05   Normal BFGS step
   18    -458.2939043659      7.91e-06   Normal BFGS step
   19    -458.2939043662      5.23e-06   Normal BFGS step
   20    -458.2939043664      2.43e-06   Normal BFGS step
   21    -458.2939043664      9.76e-07  Convergence criterion met
 ---------------------------------------
 SCF time:   CPU 1990.09s  wall 136.00s 
<S^2> =          0.986560724
(3)  G-ENP(liq) elect-nuc-pol free energy of system     -458.293904366 a.u.
(4)  G-CDS(liq) cavity-dispersion-solvent structure 
     free energy                                                2.7767 kcal/mol
(6)  G-S(liq) free energy of system                     -458.289479360 a.u.
 SCF   energy in the final basis set =     -458.2894793597
 Total energy in the final basis set =     -458.2894793597
 
 --------------------------------------------------------------
 
                    Orbital Energies (a.u.)
 --------------------------------------------------------------
 
 Alpha MOs
 -- Occupied --
-19.4272 -19.4230 -19.3525 -10.4327 -10.3842 -10.3673 -10.3631 -10.3515
-10.3512  -1.3594  -1.1603  -0.9860  -0.9194  -0.8859  -0.8658  -0.7437
 -0.7240  -0.6551  -0.6432  -0.6198  -0.6072  -0.6019  -0.5746  -0.5619
 -0.5379  -0.5215  -0.4825  -0.4726  -0.4498  -0.4242  -0.3980  -0.3702
 -0.3532  -0.3310
 -- Virtual --
 -0.0248   0.0267   0.0367   0.0369   0.0563   0.0578   0.0642   0.0713
  0.0824   0.0963   0.1072   0.1114   0.1272   0.1340   0.1435   0.1517
  0.1556   0.1589   0.1600   0.1632   0.1653   0.1734   0.1746   0.1836
  0.1855   0.1947   0.2023   0.2076   0.2153   0.2185   0.2249   0.2306
  0.2402   0.2460   0.2603   0.2653   0.2801   0.2889   0.3017   0.3038
  0.3131   0.3235   0.3309   0.3380   0.3450   0.3488   0.3596   0.3633
  0.3685   0.3767   0.3968   0.4049   0.4076   0.4165   0.4270   0.4283
  0.4379   0.4590   0.4605   0.5195   0.5330   0.5478   0.5596   0.5789
  0.5880   0.5942   0.6055   0.6169   0.6251   0.6338   0.6372   0.6622
  0.6757   0.6954   0.7036   0.7091   0.7119   0.7292   0.7418   0.7458
  0.7482   0.7534   0.7848   0.8009   0.8118   0.8144   0.8295   0.8320
  0.8394   0.8532   0.8686   0.8726   0.8783   0.8950   0.9157   0.9461
  0.9644   1.0070   1.0214   1.0514   1.0635   1.0768   1.0871   1.0978
  1.1041   1.1312   1.1477   1.1635   1.1716   1.1893   1.1933   1.2089
  1.2233   1.2371   1.2398   1.2533   1.2644   1.2751   1.2941   1.3095
  1.3262   1.3460   1.3560   1.3724   1.3760   1.3946   1.4044   1.4086
  1.4105   1.4307   1.4379   1.4476   1.4605   1.4752   1.4922   1.5019
  1.5243   1.5303   1.5566   1.5700   1.5778   1.5990   1.6145   1.6261
  1.6759   1.6908   1.6994   1.7378   1.7565   1.7935   1.8003   1.8118
  1.8449   1.8662   1.9165   1.9491   1.9956   2.0363   2.0415   2.0743
  2.1266   2.1514   2.1864   2.2590   2.3325   2.3551   2.3682   2.4146
  2.4432   2.5781   2.5868   2.6059   2.6563   2.6705   2.6890   2.7183
  2.7524   2.7982   2.8094   2.8251   2.8379   2.8443   2.8550   2.8737
  2.8911   2.8993   2.9090   2.9125   2.9355   2.9474   2.9692   2.9831
  2.9996   3.0343   3.0714   3.0870   3.1055   3.1418   3.1788   3.1797
  3.2161   3.2289   3.2508   3.2775   3.2856   3.3044   3.3165   3.3294
  3.3474   3.3636   3.3741   3.3897   3.4157   3.4250   3.4603   3.4704
  3.4853   3.4951   3.5060   3.5156   3.5273   3.5650   3.6025   3.6170
  3.6292   3.6727   3.7062   3.7355   3.7407   3.7463   3.7639   3.7954
  3.8029   3.8247   3.8754   3.8871   3.8891   3.8992   3.9213   3.9600
  3.9772   4.0026   4.0190   4.0264   4.0393   4.0722   4.1318   4.1601
  4.1725   4.2168   4.2449   4.2647   4.2750   4.3104   4.3355   4.3582
  4.3809   4.4019   4.4208   4.4288   4.4687   4.4947   4.5097   4.5193
  4.5730   4.5881   4.6366   4.6394   4.6537   4.6620   4.6703   4.6930
  4.7292   4.7544   4.7810   4.7840   4.8815   4.9434   4.9696   5.0111
  5.0202   5.0418   5.0622   5.0699   5.0787   5.1398   5.1802   5.1873
  5.2088   5.2275   5.2435   5.2548   5.2750   5.2816   5.2881   5.3161
  5.3415   5.3477   5.4424   5.4776   5.5086   5.5398   5.6500   5.7185
  5.7272   5.7388   5.7646   5.8282   5.8578   5.9238   6.1351   6.1973
  6.3832   6.5655   6.7567   6.7918   6.7985   6.9360   6.9676   7.0119
  7.0644   7.0711   7.0990   7.1851   7.2363   7.3181   7.3688   7.3891
  7.4956   7.7536   7.7644   8.1547   8.1619  24.2246  24.5703  24.6763
 24.8039  25.0935  25.3703  50.5171  50.5463  50.6013
 
 Beta MOs
 -- Occupied --
-19.4058 -19.4025 -19.3529 -10.4319 -10.3871 -10.3702 -10.3648 -10.3503
-10.3500  -1.3199  -1.1611  -0.9883  -0.8927  -0.8717  -0.8550  -0.7463
 -0.7252  -0.6551  -0.6368  -0.5893  -0.5807  -0.5713  -0.5529  -0.5392
 -0.5260  -0.5170  -0.4809  -0.4740  -0.4546  -0.4255  -0.3917  -0.3552
 -0.2796
 -- Virtual --
 -0.0263   0.0080   0.0267   0.0367   0.0371   0.0564   0.0585   0.0652
  0.0669   0.0826   0.0968   0.1086   0.1120   0.1271   0.1337   0.1445
  0.1521   0.1563   0.1591   0.1601   0.1635   0.1647   0.1739   0.1761
  0.1843   0.1870   0.1956   0.2023   0.2076   0.2151   0.2186   0.2253
  0.2318   0.2410   0.2470   0.2610   0.2666   0.2811   0.2903   0.3037
  0.3049   0.3172   0.3258   0.3319   0.3402   0.3463   0.3509   0.3601
  0.3638   0.3689   0.3793   0.3962   0.4056   0.4075   0.4169   0.4269
  0.4289   0.4483   0.4591   0.4665   0.5192   0.5315   0.5475   0.5594
  0.5778   0.5858   0.5928   0.6045   0.6150   0.6238   0.6337   0.6357
  0.6609   0.6750   0.6929   0.7033   0.7076   0.7111   0.7283   0.7397
  0.7456   0.7461   0.7529   0.7842   0.8012   0.8089   0.8137   0.8279
  0.8311   0.8391   0.8525   0.8680   0.8715   0.8779   0.8946   0.9148
  0.9460   0.9649   1.0073   1.0215   1.0530   1.0687   1.0796   1.0896
  1.0997   1.1078   1.1310   1.1571   1.1748   1.1802   1.1931   1.2040
  1.2139   1.2247   1.2411   1.2524   1.2577   1.2755   1.2768   1.2980
  1.3111   1.3301   1.3472   1.3572   1.3711   1.3757   1.3949   1.4055
  1.4097   1.4124   1.4330   1.4373   1.4486   1.4688   1.4753   1.4992
  1.5007   1.5266   1.5316   1.5604   1.5699   1.5777   1.6116   1.6159
  1.6409   1.6777   1.6902   1.7066   1.7385   1.7811   1.7952   1.8045
  1.8155   1.8567   1.8674   1.9204   1.9551   1.9984   2.0365   2.0397
  2.0741   2.1271   2.1590   2.1886   2.2637   2.3521   2.3641   2.3864
  2.4175   2.4550   2.5744   2.5848   2.6019   2.6544   2.6685   2.6965
  2.7161   2.7508   2.7934   2.8057   2.8138   2.8334   2.8411   2.8509
  2.8706   2.8869   2.8935   2.9050   2.9088   2.9262   2.9429   2.9580
  2.9763   2.9932   3.0275   3.0609   3.0826   3.0960   3.1360   3.1732
  3.1777   3.2116   3.2257   3.2459   3.2741   3.2811   3.3014   3.3094
  3.3258   3.3425   3.3594   3.3689   3.3843   3.4099   3.4232   3.4544
  3.4662   3.4839   3.4916   3.5033   3.5128   3.5224   3.5596   3.5947
  3.6080   3.6250   3.6642   3.7017   3.7338   3.7358   3.7420   3.7601
  3.7923   3.8004   3.8194   3.8712   3.8819   3.8864   3.8964   3.9166
  3.9567   3.9723   3.9987   4.0136   4.0208   4.0336   4.0675   4.1275
  4.1567   4.1688   4.2112   4.2392   4.2554   4.2627   4.3022   4.3304
  4.3529   4.3757   4.3980   4.4169   4.4218   4.4641   4.4895   4.5060
  4.5164   4.5693   4.6272   4.6332   4.6383   4.6522   4.6761   4.6958
  4.7069   4.7273   4.7584   4.7794   4.7901   4.8728   4.9381   4.9667
  5.0276   5.0454   5.0613   5.0812   5.1053   5.1349   5.1537   5.1970
  5.2405   5.2439   5.2588   5.2679   5.2761   5.2854   5.3011   5.3252
  5.3330   5.3690   5.3796   5.4354   5.4760   5.5068   5.5380   5.6452
  5.7154   5.7249   5.7784   5.8023   5.8204   5.8567   5.9203   6.1332
  6.1932   6.3796   6.5646   6.8180   6.8281   6.8892   7.0261   7.0485
  7.0839   7.0955   7.1103   7.1425   7.2359   7.2468   7.3184   7.3709
  7.4391   7.5252   7.7525   7.7638   8.1776   8.1923  24.2239  24.5696
 24.6767  24.8015  25.0931  25.3695  50.5332  50.5628  50.6016
 --------------------------------------------------------------
 
          Ground-State Mulliken Net Atomic Charges

     Atom                 Charge (a.u.)    Spin (a.u.)
  --------------------------------------------------------
      1 H                     0.297181      -0.001774
      2 C                    -0.345660       0.057206
      3 C                    -0.186411      -0.195177
      4 H                     0.291541       0.003138
      5 C                    -0.368911       0.087494
      6 H                     0.284729      -0.002804
      7 C                    -0.014053      -0.192416
      8 H                     0.350097       0.007508
      9 C                    -0.429291       0.023028
     10 H                     0.192863      -0.058919
     11 C                    -0.014823      -0.109735
     12 H                     0.311194       0.003243
     13 O                    -0.435463      -0.002855
     14 H                     0.355772      -0.000238
     15 O                    -0.195777       0.674578
     16 O                    -0.092987       0.707723
  --------------------------------------------------------
  Sum of atomic charges =     0.000000
  Sum of spin   charges =     1.000000

 -----------------------------------------------------------------
                    Cartesian Multipole Moments
 -----------------------------------------------------------------
    Charge (ESU x 10^10)
                 0.0000
    Dipole Moment (Debye)
         X      -0.2428      Y       2.8900      Z       1.4929
       Tot       3.2619
    Quadrupole Moments (Debye-Ang)
        XX     -51.9756     XY     -10.1867     YY     -57.5557
        XZ      -3.0151     YZ      -8.5837     ZZ     -45.1784
    Octopole Moments (Debye-Ang^2)
       XXX     129.4907    XXY     -36.1988    XYY      33.9849
       YYY    -170.8570    XXZ      65.8877    XYZ      13.9806
       YYZ      48.0153    XZZ      46.8880    YZZ     -11.9977
       ZZZ     130.4329
    Hexadecapole Moments (Debye-Ang^3)
      XXXX    -653.4788   XXXY      26.2816   XXYY    -223.4841
      XYYY      60.6641   YYYY    -786.6418   XXXZ    -144.8618
      XXYZ      23.7338   XYYZ     -31.2925   YYYZ      78.9467
      XXZZ    -278.5675   XYZZ      -7.5638   YYZZ    -218.2910
      XZZZ    -148.5048   YZZZ     -39.1898   ZZZZ    -733.9278
 -----------------------------------------------------------------
 Calculating analytic gradient of the SCF energy
 Gradient of CDS energy
            1           2           3           4           5           6
    1   0.0000897   0.0003305  -0.0003489  -0.0000968  -0.0003588  -0.0002008
    2  -0.0000563  -0.0001645   0.0000086   0.0000024   0.0001956   0.0000556
    3   0.0001765   0.0003566   0.0004228   0.0001790  -0.0000883   0.0000067
            7           8           9          10          11          12
    1  -0.0000469  -0.0001083   0.0001487  -0.0000300   0.0003826   0.0002104
    2   0.0000884  -0.0000652   0.0002311  -0.0002269  -0.0000537  -0.0000195
    3  -0.0001932  -0.0001622  -0.0002665  -0.0000717  -0.0000239  -0.0000440
           13          14          15          16
    1  -0.0000740   0.0001409  -0.0000682   0.0000299
    2  -0.0001103   0.0002034  -0.0000285  -0.0000601
    3   0.0002476  -0.0004356  -0.0000264  -0.0000776
 Gradient of SCF Energy
            1           2           3           4           5           6
    1   0.0034544   0.0170820  -0.0087452  -0.0051601   0.0119392  -0.0085563
    2  -0.0001378   0.0047518  -0.0095290  -0.0006836   0.0233088   0.0020289
    3   0.0082889  -0.0104357  -0.0065370   0.0087651  -0.0139321   0.0011160
            7           8           9          10          11          12
    1  -0.0231404  -0.0056136   0.0204382   0.0023529  -0.0153889   0.0046971
    2  -0.0157550  -0.0053426   0.0560096  -0.0421413  -0.0234577  -0.0027583
    3   0.0349314  -0.0102430   0.0158907  -0.0156308   0.0194814   0.0004162
           13          14          15          16
    1   0.0000315   0.0077108  -0.0293713   0.0282698
    2   0.0089244   0.0156421   0.0044837  -0.0153441
    3  -0.0091802  -0.0183192   0.0062717  -0.0108833
 Max gradient component =       5.601E-02
 RMS gradient           =       1.699E-02
 Computing fast CPCM-SWIG gradient
 Updating gradient with PCM contributions...
 -- total gradient after adding PCM contribution --
---------------------------------------------------
  Atom         X              Y              Z     
---------------------------------------------------
   1      -0.000036       0.001858       0.000838
   2       0.017846       0.003264      -0.007419
   3      -0.011268      -0.007120       0.000601
   4      -0.000332      -0.000869      -0.000070
   5       0.004702       0.020247      -0.012095
   6      -0.000313      -0.000691       0.000565
   7      -0.026331      -0.007565       0.029185
   8      -0.002063      -0.008086      -0.002290
   9       0.020619       0.052035       0.015362
  10       0.001912      -0.041520      -0.014770
  11      -0.009389      -0.022896       0.023144
  12      -0.000365      -0.001147      -0.000182
  13      -0.006833       0.008188      -0.024728
  14       0.012701       0.014067      -0.003251
  15      -0.027625       0.004277       0.006134
  16       0.026775      -0.014041      -0.011023
---------------------------------------------------
 Number of fixed atoms: 0
 Gradient time:  CPU 233.51 s  wall 19.36 s
 ----------------------------------------------------------------
             Standard Nuclear Orientation (Angstroms)
    I     Atom           X                Y                Z
 ----------------------------------------------------------------
    1      H       0.2887567000     0.6876748000     1.7490557000
    2      C      -0.1833941000     0.9824095000     0.8219490000
    3      C      -1.5799260000     1.3509465000     0.8478773000
    4      H      -2.0942043000     1.3637886000     1.7991431000
    5      C      -2.2289085000     1.7532639000    -0.2933123000
    6      H      -3.2703884000     2.0415417000    -0.2584090000
    7      C      -1.5911445000     1.5877179000    -1.5124570000
    8      H      -2.1037007000     1.8234803000    -2.4362067000
    9      C      -0.1018670000     1.4216554000    -1.6115186000
   10      H      -0.0677387000     0.1877996000    -2.1427200000
   11      C       0.5247037000     1.0318678000    -0.3135422000
   12      H       1.5834273000     0.8075187000    -0.3273561000
   13      O       0.6255621000     2.3704823000    -2.4016896000
   14      H       0.4086109000     2.5023557000    -3.3320084000
   15      O      -1.1834328000    -1.1698050000    -2.3913988000
   16      O      -2.1716280000    -0.4656772000    -2.1794835000
 ----------------------------------------------------------------
 Nuclear Repulsion Energy =         433.07197053 hartrees
 There are       34 alpha and       33 beta electrons
 Discretize the solute cavity surface with Lebedev spheres
	Using 110 Lebedev grid points for each H atom
	Using 194 Lebedev grid points for other atoms
	Atomic van der Waals radii will be scaled by 1.20
 Remove points where switching function is < 1.0e-08
 Keep 1261 surface tesserae and discard 1255 interior tesserae
 Molecular Surface Area = 149.756 Angst**2
 Requested basis set is 6-311++G(2df,2p)
 There are 114 shells and 376 basis functions
 A cutoff of  1.0D-11 yielded   5886 shell pairs
 There are     64506 function pairs (     80633 Cartesian)
 Smallest overlap matrix eigenvalue = 2.27E-06

 Q-Chem warning in module stvman/mkSTV.C, line 323:

 Overlap eigenvalue is smaller than square root of threshold
 Use THRESH >= 12 to get rid of this warning

 Guess MOs from SCF MO coefficient file

 -----------------------------------------------------------------------
  General SCF calculation program by
  Eric Jon Sundstrom, Paul Horn, Yuezhi Mao, Dmitri Zuev, Alec White,
  David Stuck, Shaama M.S., Shane Yost, Joonho Lee, David Small,
  Daniel Levine, Susi Lehtola, Hugh Burton, Evgeny Epifanovsky,
  Bang C. Huynh
 -----------------------------------------------------------------------
 Exchange:     0.1500 Hartree-Fock + 1.0000 wB97M-V + LR-HF
 Correlation:  1.0000 wB97M-V
 Using SG-2 standard quadrature grid
 Nonlocal Correlation:  VV10 with C = 0.0100 and b = 6.00 and scale = 1.00000
 Grid used for NLC:  SG-1 standard quadrature
 
 Citation of the SMD model:
 Marenich, A.V.; Cramer, C.J.; Truhlar, D.G.
 J. Phys. Chem. B 2009, 113, 6378-6396.
 iSolventCode=           1
 Solvent: water                                                           
 
 vradii
            1           2           3           4           5           6
    1   1.2000000   1.8500000   1.8500000   1.2000000   1.8500000   1.2000000
            7           8           9          10          11          12
    1   1.8500000   1.2000000   1.8500000   1.2000000   1.8500000   1.2000000
           13          14          15          16
    1   1.5200000   1.2000000   1.5200000   1.5200000
 -------------------------------------------------------
 OpenMP BLAS3 based DFT computing Module                
 Release: version 1.0, May 2013, Q-Chem Inc. Pittsburgh 
 -------------------------------------------------------
 A unrestricted SCF calculation will be
 performed using Roothaan-Hall, DIIS, GDM
 SCF converges when RMS gradient is below 1.0e-06
 ---------------------------------------
  Cycle       Energy         DIIS error
 ---------------------------------------
    1    -458.2696730159      1.70e-04  Roothaan Step
 ---------------------------------------
  Cycle       Energy         DIIS error
 ---------------------------------------
    1    -458.2896435972      1.94e-04  
    2    -458.2922740841      1.73e-04  Done DIIS. Switching to GDM
 ---------------------------------------
  Cycle       Energy        RMS Gradient
 ---------------------------------------
    1    -458.2922740841      1.30e-02   Normal BFGS step
    2    -458.2921901339      2.26e-02  Line search: overstep
    3    -458.2937211459      4.49e-03   Normal BFGS step
    4    -458.2938301897      3.56e-03   Normal BFGS step
    5    -458.2938731503      1.48e-03   Normal BFGS step
    6    -458.2938842557      1.44e-03   Normal BFGS step
    7    -458.2938893827      1.17e-03   Normal BFGS step
    8    -458.2938934109      6.00e-04   Normal BFGS step
    9    -458.2938964517      7.52e-04   Normal BFGS step
   10    -458.2938987364      7.04e-04   Normal BFGS step
   11    -458.2939001277      3.08e-04   Normal BFGS step
   12    -458.2939006095      1.55e-04   Normal BFGS step
   13    -458.2939007573      1.02e-04   Normal BFGS step
   14    -458.2939008258      5.96e-05   Normal BFGS step
   15    -458.2939008448      2.05e-05   Normal BFGS step
   16    -458.2939008486      1.62e-05   Normal BFGS step
   17    -458.2939008500      1.14e-05   Normal BFGS step
   18    -458.2939008505      7.94e-06   Normal BFGS step
   19    -458.2939008508      5.22e-06   Normal BFGS step
   20    -458.2939008510      2.44e-06   Normal BFGS step
   21    -458.2939008510      9.73e-07  Convergence criterion met
 ---------------------------------------
 SCF time:   CPU 1980.80s  wall 134.00s 
<S^2> =          0.986570935
(3)  G-ENP(liq) elect-nuc-pol free energy of system     -458.293900851 a.u.
(4)  G-CDS(liq) cavity-dispersion-solvent structure 
     free energy                                                2.7768 kcal/mol
(6)  G-S(liq) free energy of system                     -458.289475781 a.u.
 SCF   energy in the final basis set =     -458.2894757808
 Total energy in the final basis set =     -458.2894757808
 
 --------------------------------------------------------------
 
                    Orbital Energies (a.u.)
 --------------------------------------------------------------
 
 Alpha MOs
 -- Occupied --
-19.4272 -19.4230 -19.3525 -10.4327 -10.3842 -10.3673 -10.3630 -10.3515
-10.3512  -1.3594  -1.1603  -0.9860  -0.9194  -0.8859  -0.8658  -0.7438
 -0.7239  -0.6551  -0.6432  -0.6198  -0.6072  -0.6019  -0.5746  -0.5619
 -0.5379  -0.5215  -0.4825  -0.4726  -0.4498  -0.4242  -0.3980  -0.3702
 -0.3532  -0.3310
 -- Virtual --
 -0.0248   0.0267   0.0367   0.0369   0.0563   0.0578   0.0642   0.0713
  0.0824   0.0963   0.1072   0.1114   0.1272   0.1340   0.1435   0.1518
  0.1556   0.1589   0.1600   0.1632   0.1653   0.1734   0.1746   0.1836
  0.1855   0.1947   0.2023   0.2076   0.2153   0.2185   0.2249   0.2306
  0.2402   0.2460   0.2603   0.2653   0.2801   0.2889   0.3017   0.3038
  0.3131   0.3235   0.3310   0.3380   0.3450   0.3489   0.3596   0.3634
  0.3685   0.3767   0.3968   0.4048   0.4076   0.4165   0.4270   0.4283
  0.4379   0.4590   0.4606   0.5195   0.5330   0.5478   0.5596   0.5789
  0.5880   0.5942   0.6055   0.6169   0.6251   0.6338   0.6372   0.6622
  0.6757   0.6954   0.7036   0.7091   0.7119   0.7292   0.7418   0.7459
  0.7482   0.7535   0.7848   0.8009   0.8118   0.8145   0.8295   0.8320
  0.8394   0.8532   0.8686   0.8726   0.8782   0.8950   0.9157   0.9461
  0.9644   1.0070   1.0215   1.0512   1.0635   1.0768   1.0870   1.0980
  1.1041   1.1312   1.1478   1.1635   1.1716   1.1893   1.1933   1.2089
  1.2232   1.2371   1.2397   1.2533   1.2644   1.2751   1.2941   1.3094
  1.3262   1.3460   1.3560   1.3724   1.3760   1.3946   1.4044   1.4086
  1.4105   1.4307   1.4379   1.4475   1.4605   1.4752   1.4921   1.5019
  1.5243   1.5303   1.5566   1.5700   1.5779   1.5989   1.6145   1.6261
  1.6759   1.6908   1.6993   1.7377   1.7565   1.7935   1.8003   1.8118
  1.8449   1.8662   1.9166   1.9492   1.9956   2.0363   2.0416   2.0741
  2.1267   2.1514   2.1864   2.2591   2.3325   2.3551   2.3682   2.4146
  2.4432   2.5781   2.5868   2.6058   2.6564   2.6706   2.6891   2.7183
  2.7524   2.7982   2.8094   2.8251   2.8379   2.8443   2.8550   2.8737
  2.8911   2.8993   2.9090   2.9125   2.9355   2.9474   2.9692   2.9831
  2.9996   3.0343   3.0714   3.0870   3.1055   3.1418   3.1788   3.1797
  3.2161   3.2290   3.2509   3.2775   3.2856   3.3045   3.3166   3.3294
  3.3473   3.3635   3.3740   3.3898   3.4157   3.4250   3.4603   3.4704
  3.4853   3.4951   3.5060   3.5155   3.5274   3.5650   3.6025   3.6170
  3.6292   3.6727   3.7063   3.7355   3.7407   3.7463   3.7638   3.7954
  3.8029   3.8246   3.8755   3.8871   3.8891   3.8991   3.9212   3.9600
  3.9772   4.0027   4.0191   4.0264   4.0394   4.0723   4.1317   4.1600
  4.1724   4.2168   4.2449   4.2647   4.2749   4.3104   4.3355   4.3582
  4.3809   4.4018   4.4208   4.4289   4.4686   4.4947   4.5097   4.5194
  4.5730   4.5881   4.6366   4.6394   4.6537   4.6619   4.6703   4.6929
  4.7292   4.7544   4.7809   4.7839   4.8815   4.9435   4.9696   5.0111
  5.0202   5.0418   5.0623   5.0700   5.0786   5.1397   5.1802   5.1873
  5.2088   5.2274   5.2435   5.2546   5.2750   5.2815   5.2881   5.3160
  5.3415   5.3477   5.4423   5.4775   5.5086   5.5398   5.6499   5.7186
  5.7273   5.7388   5.7646   5.8281   5.8575   5.9236   6.1350   6.1971
  6.3832   6.5655   6.7567   6.7918   6.7985   6.9360   6.9676   7.0119
  7.0644   7.0711   7.0991   7.1851   7.2363   7.3181   7.3688   7.3891
  7.4956   7.7536   7.7644   8.1547   8.1619  24.2245  24.5702  24.6764
 24.8039  25.0935  25.3703  50.5171  50.5463  50.6013
 
 Beta MOs
 -- Occupied --
-19.4058 -19.4025 -19.3529 -10.4319 -10.3871 -10.3702 -10.3647 -10.3504
-10.3500  -1.3199  -1.1611  -0.9883  -0.8927  -0.8717  -0.8550  -0.7463
 -0.7252  -0.6551  -0.6368  -0.5893  -0.5807  -0.5713  -0.5529  -0.5392
 -0.5260  -0.5170  -0.4809  -0.4740  -0.4546  -0.4255  -0.3917  -0.3551
 -0.2796
 -- Virtual --
 -0.0263   0.0080   0.0267   0.0367   0.0371   0.0564   0.0584   0.0652
  0.0669   0.0826   0.0968   0.1086   0.1120   0.1271   0.1337   0.1445
  0.1522   0.1563   0.1591   0.1601   0.1635   0.1646   0.1739   0.1761
  0.1843   0.1870   0.1956   0.2023   0.2075   0.2151   0.2186   0.2253
  0.2318   0.2410   0.2470   0.2610   0.2666   0.2811   0.2903   0.3037
  0.3049   0.3172   0.3258   0.3319   0.3402   0.3463   0.3509   0.3601
  0.3638   0.3689   0.3793   0.3962   0.4056   0.4075   0.4169   0.4269
  0.4289   0.4483   0.4591   0.4665   0.5192   0.5315   0.5475   0.5594
  0.5778   0.5857   0.5928   0.6045   0.6150   0.6238   0.6337   0.6357
  0.6609   0.6750   0.6929   0.7033   0.7076   0.7111   0.7283   0.7396
  0.7456   0.7461   0.7529   0.7842   0.8012   0.8089   0.8138   0.8279
  0.8311   0.8391   0.8525   0.8680   0.8715   0.8778   0.8946   0.9148
  0.9460   0.9649   1.0073   1.0216   1.0529   1.0688   1.0796   1.0895
  1.0998   1.1078   1.1310   1.1571   1.1749   1.1802   1.1931   1.2040
  1.2139   1.2246   1.2411   1.2523   1.2577   1.2755   1.2769   1.2981
  1.3110   1.3301   1.3471   1.3572   1.3711   1.3757   1.3949   1.4055
  1.4097   1.4124   1.4330   1.4373   1.4486   1.4688   1.4752   1.4992
  1.5006   1.5266   1.5316   1.5604   1.5699   1.5777   1.6116   1.6159
  1.6409   1.6777   1.6902   1.7066   1.7385   1.7811   1.7953   1.8045
  1.8155   1.8567   1.8674   1.9204   1.9551   1.9984   2.0365   2.0398
  2.0739   2.1271   2.1590   2.1886   2.2638   2.3521   2.3641   2.3864
  2.4175   2.4550   2.5744   2.5848   2.6019   2.6544   2.6686   2.6965
  2.7161   2.7508   2.7935   2.8056   2.8138   2.8334   2.8412   2.8509
  2.8706   2.8869   2.8935   2.9050   2.9088   2.9262   2.9429   2.9580
  2.9764   2.9932   3.0275   3.0609   3.0826   3.0960   3.1360   3.1732
  3.1777   3.2115   3.2257   3.2459   3.2742   3.2811   3.3015   3.3095
  3.3259   3.3424   3.3593   3.3688   3.3844   3.4098   3.4232   3.4544
  3.4662   3.4838   3.4916   3.5033   3.5127   3.5225   3.5596   3.5947
  3.6080   3.6249   3.6641   3.7018   3.7338   3.7359   3.7420   3.7600
  3.7924   3.8004   3.8193   3.8713   3.8819   3.8864   3.8963   3.9165
  3.9567   3.9723   3.9988   4.0136   4.0207   4.0337   4.0676   4.1274
  4.1566   4.1687   4.2112   4.2392   4.2553   4.2627   4.3022   4.3304
  4.3529   4.3757   4.3979   4.4169   4.4219   4.4641   4.4895   4.5060
  4.5165   4.5693   4.6272   4.6332   4.6383   4.6522   4.6760   4.6957
  4.7069   4.7273   4.7584   4.7793   4.7901   4.8728   4.9382   4.9668
  5.0276   5.0455   5.0613   5.0812   5.1052   5.1349   5.1537   5.1970
  5.2403   5.2440   5.2587   5.2679   5.2761   5.2854   5.3010   5.3252
  5.3330   5.3690   5.3796   5.4353   5.4759   5.5068   5.5380   5.6452
  5.7155   5.7250   5.7784   5.8023   5.8204   5.8564   5.9201   6.1331
  6.1931   6.3796   6.5646   6.8180   6.8281   6.8892   7.0261   7.0485
  7.0839   7.0955   7.1103   7.1425   7.2359   7.2468   7.3184   7.3709
  7.4391   7.5252   7.7525   7.7638   8.1776   8.1923  24.2239  24.5695
 24.6767  24.8015  25.0930  25.3695  50.5332  50.5628  50.6016
 --------------------------------------------------------------
 
          Ground-State Mulliken Net Atomic Charges

     Atom                 Charge (a.u.)    Spin (a.u.)
  --------------------------------------------------------
      1 H                     0.297175      -0.001777
      2 C                    -0.346593       0.057164
      3 C                    -0.186011      -0.195126
      4 H                     0.291566       0.003141
      5 C                    -0.369368       0.087455
      6 H                     0.284709      -0.002805
      7 C                    -0.013934      -0.192397
      8 H                     0.350107       0.007508
      9 C                    -0.429444       0.023013
     10 H                     0.192842      -0.058923
     11 C                    -0.013812      -0.109713
     12 H                     0.311239       0.003243
     13 O                    -0.435486      -0.002856
     14 H                     0.355771      -0.000237
     15 O                    -0.195774       0.674584
     16 O                    -0.092987       0.707726
  --------------------------------------------------------
  Sum of atomic charges =     0.000000
  Sum of spin   charges =     1.000000

 -----------------------------------------------------------------
                    Cartesian Multipole Moments
 -----------------------------------------------------------------
    Charge (ESU x 10^10)
                 0.0000
    Dipole Moment (Debye)
         X      -0.2421      Y       2.8911      Z       1.4928
       Tot       3.2627
    Quadrupole Moments (Debye-Ang)
        XX     -51.9742     XY     -10.1860     YY     -57.5545
        XZ      -3.0133     YZ      -8.5816     ZZ     -45.1792
    Octopole Moments (Debye-Ang^2)
       XXX     129.4871    XXY     -36.1977    XYY      33.9844
       YYY    -170.8573    XXZ      65.8887    XYZ      13.9825
       YYZ      48.0173    XZZ      46.8910    YZZ     -11.9951
       ZZZ     130.4314
    Hexadecapole Moments (Debye-Ang^3)
      XXXX    -653.4732   XXXY      26.2759   XXYY    -223.4821
      XYYY      60.6616   YYYY    -786.6435   XXXZ    -144.8636
[...]
  --------------------------------------------------------
      1 H                     0.286548      -0.002410
      2 C                    -0.165184       0.102519
      3 C                    -0.395321      -0.328517
      4 H                     0.281097       0.004700
      5 C                    -0.177252       0.160607
      6 H                     0.292126      -0.004527
      7 C                    -0.274623      -0.332355
      8 H                     0.342763       0.012936
      9 C                    -0.247315       0.012327
     10 H                     0.193407      -0.045572
     11 C                    -0.191954      -0.200871
     12 H                     0.287671       0.003754
     13 O                    -0.419949      -0.008509
     14 H                     0.341045      -0.001149
     15 O                    -0.124434       0.795131
     16 O                    -0.028625       0.831937
  --------------------------------------------------------
  Sum of atomic charges =     0.000000
  Sum of spin   charges =     1.000000

 -----------------------------------------------------------------
                    Cartesian Multipole Moments
 -----------------------------------------------------------------
    Charge (ESU x 10^10)
                -0.0000
    Dipole Moment (Debye)
         X      -0.7505      Y       0.9286      Z       1.1718
       Tot       1.6729
    Quadrupole Moments (Debye-Ang)
        XX     -51.1512     XY      -8.5353     YY     -60.4131
        XZ      -1.2958     YZ      -3.7260     ZZ     -46.1137
    Octopole Moments (Debye-Ang^2)
       XXX     129.9330    XXY     -40.1220    XYY      34.3266
       YYY    -185.8104    XXZ      63.6059    XYZ      13.8679
       YYZ      59.5725    XZZ      45.9950    YZZ     -26.5210
       ZZZ     139.4517
    Hexadecapole Moments (Debye-Ang^3)
      XXXX    -671.1113   XXXY      34.0273   XXYY    -221.1645
      XYYY      59.0612   YYYY    -764.3466   XXXZ    -156.3994
      XXYZ      22.4104   XYYZ     -29.1788   YYYZ     109.9835
      XXZZ    -290.1732   XYZZ     -10.5028   YYZZ    -265.3477
      XZZZ    -164.4388   YZZZ      -5.7180   ZZZZ    -832.7259
 -----------------------------------------------------------------
 Calculating analytic gradient of the SCF energy
 Gradient of CDS energy
            1           2           3           4           5           6
    1   0.0000962   0.0003233  -0.0003471  -0.0000994  -0.0003717  -0.0002021
    2  -0.0000340  -0.0001132  -0.0000104   0.0000017   0.0001038   0.0000496
    3   0.0001796   0.0003804   0.0004041   0.0001780  -0.0000928   0.0000049
            7           8           9          10          11          12
    1  -0.0000163  -0.0000848   0.0001029  -0.0000623   0.0003804   0.0002127
    2   0.0001146  -0.0000028   0.0000660  -0.0000836  -0.0000354   0.0000001
    3  -0.0001689  -0.0001710  -0.0002437  -0.0000307  -0.0000492  -0.0000590
           13          14          15          16
    1  -0.0001000   0.0001692  -0.0000339   0.0000328
    2  -0.0001058   0.0001307  -0.0000273  -0.0000538
    3   0.0002243  -0.0004694  -0.0000023  -0.0000842
 Gradient of SCF Energy
            1           2           3           4           5           6
    1   0.0030702  -0.0028515   0.0043722  -0.0041156   0.0048396  -0.0073798
    2  -0.0011811   0.0002150   0.0000472   0.0000964  -0.0012271   0.0019658
    3   0.0064319  -0.0058530  -0.0059694   0.0075426  -0.0001571   0.0003068
            7           8           9          10          11          12
    1   0.0043736  -0.0034441  -0.0001389   0.0001646  -0.0041526   0.0036944
    2  -0.0045752   0.0030304   0.0032262  -0.0027367   0.0001248  -0.0012736
    3   0.0059342  -0.0078702   0.0017679  -0.0022959  -0.0011812   0.0005978
           13          14          15          16
    1   0.0067556  -0.0050401  -0.0010955   0.0009480
    2   0.0066912  -0.0039953  -0.0003162  -0.0000918
    3   0.0132011  -0.0126783   0.0002531  -0.0000302
 Max gradient component =       1.320E-02
 RMS gradient           =       4.552E-03
 Computing fast CPCM-SWIG gradient
 Updating gradient with PCM contributions...
 -- total gradient after adding PCM contribution --
---------------------------------------------------
  Atom         X              Y              Z     
---------------------------------------------------
   1       0.000013      -0.000007      -0.000005
   2      -0.000007      -0.000013       0.000009
   3       0.000011      -0.000013      -0.000001
   4       0.000010      -0.000016       0.000007
   5       0.000000      -0.000023       0.000009
   6       0.000001      -0.000009       0.000012
   7       0.000001      -0.000031      -0.000020
   8       0.000000       0.000041       0.000021
   9       0.000007      -0.000105      -0.000041
  10      -0.000031       0.000124       0.000083
  11       0.000001      -0.000016      -0.000029
  12       0.000004       0.000005      -0.000011
  13       0.000004       0.000004      -0.000039
  14      -0.000011       0.000036      -0.000005
  15      -0.000032       0.000063       0.000006
  16       0.000029      -0.000039       0.000005
---------------------------------------------------
 Number of fixed atoms: 0
 Gradient time:  CPU 260.04 s  wall 21.55 s
 Geometry Optimization Parameters
   NAtoms,    NIC,     NZ,  NCons,   NDum,   NFix, NCnnct, MaxDiis
       16     107       0       0       0       0       0       0

 Cartesian Hessian Update
 Hessian updated using Powell/Murtagh-Sargent update
  Mixing factors:     0.998948 Powell                      0.001052 Murtagh-Sargent


** GEOMETRY OPTIMIZATION IN DELOCALIZED INTERNAL COORDINATES **
   Searching for a Transition State

   Optimization Cycle:  39

                       Coordinates (Angstroms)
     ATOM                X               Y               Z
      1  H         0.3538277275    0.9036512003    1.8189659341
      2  C        -0.1496079699    1.0818659619    0.8786792805
      3  C        -1.5643248349    1.3223485070    0.8839122512
      4  H        -2.0914377734    1.3313079616    1.8277480351
      5  C        -2.2347331222    1.6077508136   -0.2796354679
      6  H        -3.2848581835    1.8654687650   -0.2541230368
      7  C        -1.5643302426    1.5827134204   -1.5027458846
      8  H        -2.0306143334    1.9919724722   -2.3881131444
      9  C        -0.1131213409    1.2879117928   -1.5838844906
     10  H        -0.0318823544    0.3005081961   -2.0974907068
     11  C         0.5514165556    1.1178727655   -0.2678958732
     12  H         1.6239346942    0.9731628731   -0.2794132593
     13  O         0.6093456464    2.2387886612   -2.3773410720
     14  H         0.3937121047    2.0781577283   -3.3029106983
     15  O        -1.3343969800   -1.0074728977   -2.7826147909
     16  O        -2.2782018933   -0.3999877215   -2.2752141761
   Point Group: c1    Number of degrees of freedom:    42


   Energy is   -458.317826932

 Hessian updated using Powell/Murtagh-Sargent update
  Mixing factors:     0.983264 Powell                      0.016736 Murtagh-Sargent

 42 Hessian modes will be used to form the next step
  Hessian Eigenvalues:
    -0.253429    0.000204    0.002332    0.004165    0.011798    0.013949
     0.016212    0.018897    0.021869    0.027025    0.028857    0.032478
     0.037314    0.055051    0.066613    0.094219    0.102688    0.104934
     0.110786    0.119935    0.121297    0.130697    0.140687    0.163301
     0.180179    0.184688    0.196532    0.226403    0.260897    0.285087
     0.317954    0.349381    0.360163    0.361633    0.362227    0.363003
     0.363940    0.422730    0.486914    0.522825    0.566995    0.591286

 Transition state search - taking P-RFO step
 Searching for Lamda that Maximizes Along the Lowest mode
 Value Taken    Lamda =   0.00000001
 Searching for Lamda that Minimizes Along All other modes
 Value Taken    Lamda =  -0.00000033
 Step Taken.  Stepsize is  0.018403

                             Maximum     Tolerance    Cnvgd?
         Gradient           0.000092      0.000300     YES
         Displacement       0.007057      0.001200      NO
         Energy change      0.000000      0.000001     YES

 Final energy is   -458.317826932416     


 ******************************
 **  OPTIMIZATION CONVERGED  **
 ******************************

                       Coordinates (Angstroms)
     ATOM                X               Y               Z
      1  H         0.3538277275    0.9036512003    1.8189659341
      2  C        -0.1496079699    1.0818659619    0.8786792805
      3  C        -1.5643248349    1.3223485070    0.8839122512
      4  H        -2.0914377734    1.3313079616    1.8277480351
      5  C        -2.2347331222    1.6077508136   -0.2796354679
      6  H        -3.2848581835    1.8654687650   -0.2541230368
      7  C        -1.5643302426    1.5827134204   -1.5027458846
      8  H        -2.0306143334    1.9919724722   -2.3881131444
      9  C        -0.1131213409    1.2879117928   -1.5838844906
     10  H        -0.0318823544    0.3005081961   -2.0974907068
     11  C         0.5514165556    1.1178727655   -0.2678958732
     12  H         1.6239346942    0.9731628731   -0.2794132593
     13  O         0.6093456464    2.2387886612   -2.3773410720
     14  H         0.3937121047    2.0781577283   -3.3029106983
     15  O        -1.3343969800   -1.0074728977   -2.7826147909
     16  O        -2.2782018933   -0.3999877215   -2.2752141761

Z-matrix Print:
$molecule
0 2
O 
O  1 1.231772
H  2 1.968947 1 92.058310
C  3 1.115956 2 134.408519 1 -8.054259 0
O  4 1.433771 3 107.182846 2 -123.291382 0
H  5 0.963836 4 107.949191 3 43.048398 0
C  4 1.483071 3 105.800763 2 -2.400519 0
H  7 1.081105 4 116.902988 3 -81.031153 0
C  7 1.395015 4 121.451846 3 112.363182 0
H  9 1.081588 7 119.442431 4 177.551240 0
C  9 1.372860 7 120.310631 4 -1.726122 0
H  11 1.081089 9 120.007478 7 -179.249337 0
C  11 1.435020 9 120.875089 7 4.206427 0
H  13 1.081363 11 118.908807 9 177.289399 0
C  13 1.344383 11 120.843239 9 -0.630976 0
H  15 1.082298 13 121.481943 11 177.780772 0
$end

 
 --------------------------------------------------------------
 
                    Orbital Energies (a.u.)
 --------------------------------------------------------------
 
 Alpha MOs
 -- Occupied --
-19.4561 -19.4408 -19.3427 -10.4050 -10.3706 -10.3567 -10.3516 -10.3494
-10.3487  -1.3786  -1.1608  -0.9801  -0.9364  -0.8795  -0.8640  -0.7374
 -0.7234  -0.6524  -0.6419  -0.6328  -0.6241  -0.6049  -0.5849  -0.5682
 -0.5316  -0.5233  -0.4809  -0.4659  -0.4470  -0.4277  -0.4071  -0.3856
 -0.3714  -0.3385
 -- Virtual --
 -0.0208   0.0270   0.0367   0.0371   0.0562   0.0565   0.0638   0.0759
  0.0863   0.0979   0.1096   0.1164   0.1281   0.1386   0.1474   0.1525
  0.1565   0.1586   0.1599   0.1623   0.1678   0.1763   0.1779   0.1835
  0.1896   0.2053   0.2139   0.2160   0.2209   0.2237   0.2265   0.2329
  0.2487   0.2634   0.2672   0.2808   0.2886   0.3007   0.3100   0.3130
  0.3211   0.3254   0.3331   0.3415   0.3467   0.3577   0.3622   0.3725
  0.3860   0.3944   0.4046   0.4093   0.4150   0.4230   0.4314   0.4388
  0.4610   0.4686   0.5300   0.5445   0.5566   0.5637   0.5890   0.5935
  0.5976   0.6060   0.6101   0.6201   0.6265   0.6474   0.6616   0.6820
  0.7010   0.7087   0.7136   0.7222   0.7259   0.7335   0.7431   0.7511
  0.7559   0.7754   0.7831   0.8022   0.8070   0.8217   0.8330   0.8357
  0.8484   0.8680   0.8807   0.8873   0.8966   0.9169   0.9745   0.9856
  1.0105   1.0354   1.0478   1.0771   1.0835   1.0959   1.1062   1.1163
  1.1239   1.1392   1.1581   1.1729   1.1789   1.1924   1.2109   1.2247
  1.2361   1.2376   1.2539   1.2729   1.2759   1.2881   1.3106   1.3235
  1.3498   1.3613   1.3844   1.3878   1.3910   1.4022   1.4062   1.4345
  1.4419   1.4522   1.4618   1.4709   1.4830   1.5025   1.5159   1.5344
  1.5377   1.5485   1.5640   1.5745   1.5948   1.6099   1.6289   1.6809
  1.7102   1.7295   1.7540   1.7706   1.7929   1.8084   1.8189   1.8525
  1.8543   1.9382   1.9600   1.9909   2.0370   2.0593   2.0836   2.1006
  2.1043   2.1560   2.2856   2.3155   2.3515   2.3887   2.4134   2.4581
  2.5824   2.5853   2.6303   2.6515   2.6613   2.6970   2.7420   2.7889
  2.8037   2.8080   2.8266   2.8347   2.8503   2.8639   2.8870   2.8879
  2.9058   2.9170   2.9315   2.9529   2.9622   2.9708   2.9966   3.0289
  3.0452   3.0722   3.0867   3.1373   3.1459   3.1750   3.1872   3.2065
  3.2360   3.2605   3.2781   3.2793   3.2997   3.3048   3.3324   3.3489
  3.3646   3.3725   3.3969   3.4235   3.4464   3.4761   3.4875   3.4909
  3.4972   3.5281   3.5384   3.5486   3.5821   3.5955   3.6314   3.6446
  3.6766   3.7417   3.7529   3.7696   3.7883   3.8076   3.8273   3.8328
  3.8408   3.8659   3.8692   3.9011   3.9132   3.9366   3.9853   3.9924
  3.9988   4.0187   4.0367   4.0596   4.1179   4.1506   4.1581   4.1897
  4.2128   4.2614   4.2780   4.3310   4.3452   4.3614   4.3827   4.3847
  4.4070   4.4486   4.4723   4.5027   4.5290   4.5348   4.5530   4.5752
  4.6104   4.6337   4.6400   4.6439   4.6640   4.6824   4.6911   4.7381
  4.7494   4.7807   4.8127   4.9564   4.9795   4.9942   5.0004   5.0190
  5.0397   5.0560   5.0906   5.1297   5.1546   5.1580   5.1875   5.2024
  5.2265   5.2352   5.2655   5.2890   5.3079   5.3190   5.3321   5.3585
  5.4035   5.4943   5.5279   5.5922   5.6728   5.6894   5.7088   5.7248
  5.7306   5.7655   5.8566   5.8738   5.9564   6.0302   6.2056   6.4551
  6.6034   6.7403   6.7623   6.7667   6.8878   6.9359   6.9972   7.0154
  7.0510   7.1225   7.1469   7.3186   7.3341   7.3731   7.4161   7.4606
  7.6573   7.7997   8.1177   8.1335  24.2304  24.6113  24.8012  24.8316
 25.0802  25.3995  50.4875  50.5137  50.6003
 
 Beta MOs
 -- Occupied --
-19.4304 -19.4167 -19.3435 -10.4043 -10.3755 -10.3614 -10.3544 -10.3472
-10.3469  -1.3319  -1.1625  -0.9838  -0.8886  -0.8720  -0.8608  -0.7426
 -0.7256  -0.6424  -0.6385  -0.5944  -0.5891  -0.5717  -0.5551  -0.5395
 -0.5312  -0.5223  -0.4800  -0.4691  -0.4549  -0.4312  -0.4036  -0.3574
 -0.2728
 -- Virtual --
 -0.0247  -0.0022   0.0271   0.0369   0.0372   0.0563   0.0571   0.0646
  0.0680   0.0865   0.0989   0.1110   0.1178   0.1282   0.1376   0.1477
  0.1532   0.1569   0.1585   0.1602   0.1624   0.1674   0.1753   0.1786
  0.1848   0.1900   0.2076   0.2127   0.2176   0.2189   0.2224   0.2267
  0.2345   0.2526   0.2639   0.2688   0.2820   0.2904   0.3040   0.3103
  0.3184   0.3232   0.3253   0.3397   0.3416   0.3455   0.3584   0.3615
  0.3739   0.3864   0.3926   0.4047   0.4095   0.4171   0.4303   0.4332
  0.4414   0.4596   0.4726   0.5293   0.5440   0.5557   0.5610   0.5862
  0.5906   0.5966   0.6028   0.6077   0.6167   0.6237   0.6474   0.6601
  0.6815   0.6988   0.7072   0.7107   0.7208   0.7236   0.7312   0.7414
  0.7500   0.7537   0.7746   0.7825   0.8002   0.8023   0.8215   0.8296
  0.8339   0.8474   0.8653   0.8796   0.8858   0.8955   0.9151   0.9748
  0.9858   1.0099   1.0386   1.0509   1.0784   1.0867   1.0982   1.1134
  1.1171   1.1381   1.1456   1.1652   1.1770   1.1835   1.2079   1.2148
  1.2257   1.2424   1.2535   1.2644   1.2748   1.2821   1.2905   1.3125
  1.3254   1.3508   1.3606   1.3872   1.3897   1.3924   1.4009   1.4053
  1.4322   1.4424   1.4533   1.4629   1.4773   1.4896   1.5031   1.5169
  1.5387   1.5466   1.5516   1.5631   1.5760   1.6014   1.6103   1.6474
  1.6860   1.7086   1.7453   1.7671   1.7704   1.7938   1.8072   1.8216
  1.8529   1.8790   1.9435   1.9592   1.9916   2.0371   2.0558   2.0833
  2.0980   2.1187   2.1579   2.2867   2.3418   2.3710   2.3998   2.4245
  2.4620   2.5735   2.5829   2.6241   2.6525   2.6577   2.7027   2.7372
  2.7827   2.7987   2.8032   2.8070   2.8306   2.8457   2.8575   2.8789
  2.8808   2.8982   2.9092   2.9243   2.9467   2.9499   2.9622   2.9875
  3.0136   3.0358   3.0614   3.0774   3.1184   3.1357   3.1666   3.1840
  3.1990   3.2296   3.2551   3.2694   3.2764   3.2912   3.2991   3.3276
  3.3394   3.3621   3.3640   3.3893   3.4163   3.4420   3.4682   3.4780
  3.4866   3.4930   3.5211   3.5302   3.5411   3.5713   3.5865   3.6153
  3.6314   3.6688   3.7369   3.7446   3.7644   3.7813   3.8038   3.8232
  3.8285   3.8343   3.8546   3.8644   3.8968   3.9071   3.9309   3.9781
  3.9853   3.9930   4.0114   4.0300   4.0519   4.1119   4.1464   4.1524
  4.1843   4.2089   4.2557   4.2713   4.3251   4.3423   4.3509   4.3752
  4.3781   4.3992   4.4397   4.4655   4.4984   4.5249   4.5270   4.5460
  4.6025   4.6190   4.6325   4.6520   4.6551   4.6820   4.6877   4.7014
  4.7386   4.7504   4.7829   4.8072   4.9518   4.9836   5.0143   5.0422
  5.0543   5.0674   5.0921   5.1306   5.1542   5.1765   5.2039   5.2308
  5.2473   5.2491   5.2747   5.2910   5.3097   5.3316   5.3457   5.3646
  5.3661   5.3999   5.4914   5.5243   5.5876   5.6650   5.6826   5.7074
  5.7480   5.7701   5.7833   5.8434   5.8735   5.9485   6.0272   6.1990
  6.4491   6.6013   6.8050   6.8149   6.8709   6.9947   7.0335   7.0754
  7.0904   7.1092   7.1286   7.2223   7.3183   7.3327   7.4061   7.4344
  7.5027   7.6560   7.7971   8.1420   8.1739  24.2293  24.6101  24.8009
 24.8280  25.0794  25.3980  50.5069  50.5334  50.5999
 --------------------------------------------------------------
 
          Ground-State Mulliken Net Atomic Charges

     Atom                 Charge (a.u.)    Spin (a.u.)
  --------------------------------------------------------
      1 H                     0.286548      -0.002410
      2 C                    -0.165184       0.102519
      3 C                    -0.395321      -0.328517
      4 H                     0.281097       0.004700
      5 C                    -0.177252       0.160607
      6 H                     0.292126      -0.004527
      7 C                    -0.274623      -0.332355
      8 H                     0.342763       0.012936
      9 C                    -0.247315       0.012327
     10 H                     0.193407      -0.045572
     11 C                    -0.191954      -0.200871
     12 H                     0.287671       0.003754
     13 O                    -0.419949      -0.008509
     14 H                     0.341045      -0.001149
     15 O                    -0.124434       0.795131
     16 O                    -0.028625       0.831937
  --------------------------------------------------------
  Sum of atomic charges =     0.000000
  Sum of spin   charges =     1.000000

 -----------------------------------------------------------------
                    Cartesian Multipole Moments
 -----------------------------------------------------------------
    Charge (ESU x 10^10)
                -0.0000
    Dipole Moment (Debye)
         X      -0.7505      Y       0.9286      Z       1.1718
       Tot       1.6729
    Quadrupole Moments (Debye-Ang)
        XX     -51.1512     XY      -8.5353     YY     -60.4131
        XZ      -1.2958     YZ      -3.7260     ZZ     -46.1137
    Octopole Moments (Debye-Ang^2)
       XXX     129.9330    XXY     -40.1220    XYY      34.3266
       YYY    -185.8104    XXZ      63.6059    XYZ      13.8679
       YYZ      59.5725    XZZ      45.9950    YZZ     -26.5210
       ZZZ     139.4517
    Hexadecapole Moments (Debye-Ang^3)
      XXXX    -671.1113   XXXY      34.0273   XXYY    -221.1645
      XYYY      59.0612   YYYY    -764.3466   XXXZ    -156.3994
      XXYZ      22.4104   XYYZ     -29.1788   YYYZ     109.9835
      XXZZ    -290.1732   XYZZ     -10.5028   YYZZ    -265.3477
      XZZZ    -164.4388   YZZZ      -5.7180   ZZZZ    -832.7259
 -----------------------------------------------------------------
 Total job time:  6652.04s(wall), 96054.81s(cpu) 
 Fri May  3 15:18:04 2024

        *************************************************************
        *                                                           *
        *  Thank you very much for using Q-Chem.  Have a nice day.  *
        *                                                           *
        *************************************************************


