
Running Job 1 of 1 Q_in.in
qchem Q_in.in_209673.0 /scratch/ari.fischer/qChem2208547.hpc-mn1/qchem209673/ 0
/usr/local/qchem-5.4.1/exe/qcprog.exe_s Q_in.in_209673.0 /scratch/ari.fischer/qChem2208547.hpc-mn1/qchem209673/
                  Welcome to Q-Chem
     A Quantum Leap Into The Future Of Chemistry


 Q-Chem 5.4, Q-Chem, Inc., Pleasanton, CA (2021)

 License issued to: Nanyang Technological University (site)

 E. Epifanovsky,  A. T. B. Gilbert,  Xintian Feng,  Joonho Lee,  Yuezhi Mao,  
 N. Mardirossian,  P. Pokhilko,  A. White,  M. Wormit,  M. P. Coons,  
 A. L. Dempwolff,  Zhengting Gan,  D. Hait,  P. R. Horn,  L. D. Jacobson,  
 I. Kaliman,  J. Kussmann,  A. W. Lange,  Ka Un Lao,  D. S. Levine,  Jie Liu,  
 S. C. McKenzie,  A. F. Morrison,  K. Nanda,  F. Plasser,  D. R. Rehn,  
 M. L. Vidal,  Zhi-Qiang You,  Ying Zhu,  B. Alam,  B. Albrecht,  
 A. Aldossary,  E. Alguire,  J. H. Andersen,  D. Barton,  K. Begam,  A. Behn,  
 Y. A. Bernard,  E. J. Berquist,  H. Burton,  A. Carreras,  K. Carter-Fenk,  
 R. Chakraborty,  A. D. Chien,  K. D. Closser,  V. Cofer-Shabica,  
 S. Dasgupta,  Jia Deng,  M. de Wergifosse,  M. Diedenhofen,  Hainam Do,  
 S. Ehlert,  Po-Tung Fang,  S. Fatehi,  Qingguo Feng,  T. Friedhoff,  
 J. Gayvert,  Qinghui Ge,  G. Gidofalvi,  M. Goldey,  J. Gomes,  
 C. Gonzalez-Espinoza,  S. Gulania,  A. Gunina,  M. W. D. Hanson-Heine,  
 P. H. P. Harbach,  A. W. Hauser,  M. F. Herbst,  M. Hernandez Vera,  
 M. Hodecker,  Z. C. Holden,  S. Houck,  Xunkun Huang,  Kerwin Hui,  
 B. C. Huynh,  M. Ivanov,  Hyunjun Ji,  Hanjie Jiang,  B. Kaduk,  S. Kaehler,  
 K. Khistyaev,  Jaehoon Kim,  P. Klunzinger,  Z. Koczor-Benda,  
 Joong Hoon Koh,  D. Kosenkov,  L. Koulias,  T. Kowalczyk,  C. M. Krauter,  
 K. Kue,  A. Kunitsa,  T. Kus,  A. Landau,  K. V. Lawler,  D. Lefrancois,  
 S. Lehtola,  Rain Li,  Yi-Pei Li,  Jiashu Liang,  M. Liebenthal,  
 Hung-Hsuan Lin,  You-Sheng Lin,  Fenglai Liu,  Kuan-Yu Liu,  
 M. Loipersberger,  A. Luenser,  A. Manjanath,  P. Manohar,  E. Mansoor,  
 S. F. Manzer,  Shan-Ping Mao,  A. V. Marenich,  T. Markovich,  S. Mason,  
 S. A. Maurer,  P. F. McLaughlin,  M. F. S. J. Menger,  J.-M. Mewes,  
 S. A. Mewes,  P. Morgante,  J. W. Mullinax,  K. J. Oosterbaan,  G. Paran,  
 Alexander C. Paul,  Suranjan K. Paul,  F. Pavosevic,  Zheng Pei,  S. Prager,  
 E. I. Proynov,  E. Ramos,  B. Rana,  A. E. Rask,  A. Rettig,  R. M. Richard,  
 F. Rob,  E. Rossomme,  T. Scheele,  M. Scheurer,  M. Schneider,  
 N. Sergueev,  S. M. Sharada,  W. Skomorowski,  D. W. Small,  C. J. Stein,  
 Yu-Chuan Su,  E. J. Sundstrom,  Zhen Tao,  J. Thirman,  T. Tsuchimochi,  
 N. M. Tubman,  S. P. Veccham,  O. Vydrov,  J. Wenzel,  J. Witte,  A. Yamada,  
 Kun Yao,  S. Yeganeh,  S. R. Yost,  A. Zech,  Igor Ying Zhang,  Xing Zhang,  
 Yu Zhang,  D. Zuev,  A. Aspuru-Guzik,  A. T. Bell,  N. A. Besley,  
 K. B. Bravaya,  B. R. Brooks,  D. Casanova,  Jeng-Da Chai,  S. Coriani,  
 C. J. Cramer,  A. E. DePrince, III,  R. A. DiStasio Jr.,  A. Dreuw,  
 B. D. Dunietz,  T. R. Furlani,  W. A. Goddard III,  S. Grimme,  
 S. Hammes-Schiffer,  T. Head-Gordon,  W. J. Hehre,  Chao-Ping Hsu,  
 T.-C. Jagau,  Yousung Jung,  A. Klamt,  Jing Kong,  D. S. Lambrecht,  
 WanZhen Liang,  N. J. Mayhall,  C. W. McCurdy,  J. B. Neaton,  
 C. Ochsenfeld,  J. A. Parkhill,  R. Peverati,  V. A. Rassolov,  Yihan Shao,  
 L. V. Slipchenko,  T. Stauch,  R. P. Steele,  J. E. Subotnik,  
 A. J. W. Thom,  A. Tkatchenko,  D. G. Truhlar,  T. Van Voorhis,  
 T. A. Wesolowski,  K. B. Whaley,  H. L. Woodcock III,  P. M. Zimmerman,  
 S. Faraji,  P. M. W. Gill,  M. Head-Gordon,  J. M. Herbert,  A. I. Krylov

 Additional authors for Version 5.4.1: 
 S. Kotaru,  Shaozhi Li,  Xiangyuan Li,  F. Matz,  A. Molle,  Haisheng Ren,  
 Yingli Su,  Hung-Yi Tsai,  C. Utku,  Fang Wang

 Contributors to earlier versions of Q-Chem not listed above: 
 R. D. Adamson,  B. Austin,  R. Baer,  J. Baker,  G. J. O. Beran,  
 K. Brandhorst,  S. T. Brown,  E. F. C. Byrd,  A. K. Chakraborty,  
 G. K. L. Chan,  Chun-Min Chang,  Yunqing Chen,  C.-L. Cheng,  
 Siu Hung Chien,  D. M. Chipman,  D. L. Crittenden,  H. Dachsel,  
 R. J. Doerksen,  A. D. Dutoi,  R. G. Edgar,  J. Fosso-Tande,  
 L. Fusti-Molnar,  D. Ghosh,  A. Ghysels,  A. Golubeva-Zadorozhnaya,  
 J. Gonthier,  M. S. Gordon,  S. R. Gwaltney,  G. Hawkins,  J. E. Herr,  
 A. Heyden,  S. Hirata,  E. G. Hohenstein,  G. Kedziora,  F. J. Keil,  
 C. Kelley,  Jihan Kim,  R. A. King,  R. Z. Khaliullin,  P. P. Korambath,  
 W. Kurlancheek,  A. Laurent,  A. M. Lee,  M. S. Lee,  S. V. Levchenko,  
 Ching Yeh Lin,  D. Liotard,  E. Livshits,  R. C. Lochan,  I. Lotan,  
 L. A. Martinez-Martinez,  P. E. Maslen,  N. Nair,  D. P. O'Neill,  
 D. Neuhauser,  E. Neuscamman,  C. M. Oana,  R. Olivares-Amaya,  R. Olson,  
 T. M. Perrine,  B. Peters,  P. A. Pieniazek,  A. Prociuk,  Y. M. Rhee,  
 J. Ritchie,  M. A. Rohrdanz,  E. Rosta,  N. J. Russ,  H. F. Schaefer III,  
 M. W. Schmidt,  N. E. Schultz,  S. Sharma,  N. Shenvi,  C. D. Sherrill,  
 A. C. Simmonett,  A. Sodt,  T. Stein,  D. Stuck,  K. S. Thanthiriwatte,  
 V. Vanovschi,  L. Vogt,  Tao Wang,  A. Warshel,  M. A. Watson,  
 C. F. Williams,  Q. Wu,  X. Xu,  Jun Yang,  W. Zhang,  Yan Zhao

 Please cite Q-Chem as follows:
 Y. Shao et al., Mol. Phys. 113, 184-215 (2015)
 DOI: 10.1080/00268976.2014.952696

 Q-Chem 5.4.1 for Intel X86 EM64T Linux

 Parts of Q-Chem use Armadillo 9.800.1 (Horizon Scraper).
 http://arma.sourceforge.net/

 Q-Chem begins on Wed Jul  3 16:51:58 2024  

 Host: 
0

     Scratch files written to /scratch/ari.fischer/qChem2208547.hpc-mn1/qchem209673//
 Aug1521 |scratch|qcdevops|jenkins|workspace|build_RNUM 8249   
 Processing $rem in /usr/local/qchem-5.4.1/config/preferences:
 Processing $rem in /home/ari.fischer/.qchemrc:
 Symmetry turned off for PCM/SM12/SMD calculation


!!********************************************.
!!******************Warning*******************.
!!Desired Analytical derivatives not available.
!!Finite difference job might take a long time.
!!********************************************.
!!********************************************.


 2-order derivative to be evaluated numerically with 1-order analytical derivatives

 Checking the input file for inconsistencies... 	...done.

--------------------------------------------------------------
User input:
--------------------------------------------------------------
$molecule
0 2
C         2.3511776409    0.0289440262   -0.6945353336
O         1.1092619660   -0.5350181823   -0.7988777250
C         2.6799824766    0.3034764829    0.7818966638
O         1.9107701922   -0.0504312223    1.6426012912
C         3.9628745399    1.0279991632    1.0657731743
C         3.7951547523    2.5282739688    0.8399585310
O         2.8791174992    2.9692998722    1.8415757093
O         2.1956096385    4.1318074613    1.3743381791
C         5.1348406484    3.2495951546    0.9675595709
O         5.8963330706    2.8582081230   -0.1509005260
O         4.9846129021    4.6464247776    1.0319744338
H         2.5079357364    0.9033142434   -1.3241656053
H         0.8067275421   -0.4663214119   -1.7131342178
H         4.7530072531    0.6693912781    0.4084559076
H         4.2478733531    0.8434419318    2.1008351934
H         3.3698703044    2.7403255974   -0.1439104822
H         1.3864524473    3.7504403306    1.0012457914
H         5.6337511546    2.9667306199    1.8952457371
H         6.8164578918    3.0950577540    0.0123610228
H         4.4150526876    4.9303125955    0.3055430796
O         3.3443645053   -0.9713116182   -1.1427842274
O         4.2552564978   -0.4578796460   -1.9184239683
$end

$rem
BASIS = 6-311++G(2df,2p)
GUI = 2
JOB_TYPE = Frequency
METHOD = wB97M-V
SOLVENT_METHOD = SMD
SCF_ALGORITHM = DIIS_GDM
MAX_SCF_CYCLES = 400
SCF_CONVERGENCE = 7
THRESH = 12
$end
--------------------------------------------------------------
 ----------------------------------------------------------------
             Standard Nuclear Orientation (Angstroms)
    I     Atom           X                Y                Z
 ----------------------------------------------------------------
    1      C       2.3511776409     0.0289440262    -0.6945353336
    2      O       1.1092619660    -0.5350181823    -0.7988777250
    3      C       2.6799824766     0.3034764829     0.7818966638
    4      O       1.9107701922    -0.0504312223     1.6426012912
    5      C       3.9628745399     1.0279991632     1.0657731743
    6      C       3.7951547523     2.5282739688     0.8399585310
    7      O       2.8791174992     2.9692998722     1.8415757093
    8      O       2.1956096385     4.1318074613     1.3743381791
    9      C       5.1348406484     3.2495951546     0.9675595709
   10      O       5.8963330706     2.8582081230    -0.1509005260
   11      O       4.9846129021     4.6464247776     1.0319744338
   12      H       2.5079357364     0.9033142434    -1.3241656053
   13      H       0.8067275421    -0.4663214119    -1.7131342178
   14      H       4.7530072531     0.6693912781     0.4084559076
   15      H       4.2478733531     0.8434419318     2.1008351934
   16      H       3.3698703044     2.7403255974    -0.1439104822
   17      H       1.3864524473     3.7504403306     1.0012457914
   18      H       5.6337511546     2.9667306199     1.8952457371
   19      H       6.8164578918     3.0950577540     0.0123610228
   20      H       4.4150526876     4.9303125955     0.3055430796
   21      O       3.3443645053    -0.9713116182    -1.1427842274
   22      O       4.2552564978    -0.4578796460    -1.9184239683
 ----------------------------------------------------------------
 Nuclear Repulsion Energy =         891.52184550 hartrees
 There are       52 alpha and       51 beta electrons
 Requested basis set is 6-311++G(2df,2p)
 There are 158 shells and 532 basis functions

 Total QAlloc Memory Limit 288000 MB
 Mega-Array Size       188 MB
 MEM_STATIC part       192 MB
 
 Citation of the SMD model:
 Marenich, A.V.; Cramer, C.J.; Truhlar, D.G.
 J. Phys. Chem. B 2009, 113, 6378-6396.
 iSolventCode=           1
 Solvent: water                                                           
 
 vradii
            1           2           3           4           5           6
    1   1.8500000   1.5200000   1.8500000   1.5200000   1.8500000   1.8500000
            7           8           9          10          11          12
    1   1.5200000   1.5200000   1.8500000   1.5200000   1.5200000   1.2000000
           13          14          15          16          17          18
    1   1.2000000   1.2000000   1.2000000   1.2000000   1.2000000   1.2000000
           19          20          21          22
    1   1.2000000   1.2000000   1.5200000   1.5200000
 Changing PCM_VDW_RADII to SMD_RADIUS
 Discretize the solute cavity surface with Lebedev spheres
	Using 110 Lebedev grid points for each H atom
	Using 194 Lebedev grid points for other atoms
	Atomic van der Waals radii will be scaled by 1.20
 Remove points where switching function is < 1.0e-08
 Keep 1800 surface tesserae and discard 1712 interior tesserae
 Molecular Surface Area = 200.721 Angst**2
 A cutoff of  1.0D-12 yielded  10326 shell pairs
 There are    113958 function pairs (    141299 Cartesian)
 Smallest overlap matrix eigenvalue = 6.07E-06
 Guess from superposition of atomic densities
 Warning:  Energy on first SCF cycle will be non-variational
 SAD guess density has 103.000000 electrons

 -----------------------------------------------------------------------
  General SCF calculation program by
  Eric Jon Sundstrom, Paul Horn, Yuezhi Mao, Dmitri Zuev, Alec White,
  David Stuck, Shaama M.S., Shane Yost, Joonho Lee, David Small,
  Daniel Levine, Susi Lehtola, Hugh Burton, Evgeny Epifanovsky,
  Bang C. Huynh
 -----------------------------------------------------------------------
 Exchange:     0.1500 Hartree-Fock + 1.0000 wB97M-V + LR-HF
 Correlation:  1.0000 wB97M-V
 Using SG-2 standard quadrature grid
 Nonlocal Correlation:  VV10 with C = 0.0100 and b = 6.00 and scale = 1.00000
 Grid used for NLC:  SG-1 standard quadrature
 using 16 threads for integral computing
 -------------------------------------------------------
 OpenMP Integral computing Module                
 Release: version 1.0, May 2013, Q-Chem Inc. Pittsburgh 
 -------------------------------------------------------
 
 Citation of the SMD model:
 Marenich, A.V.; Cramer, C.J.; Truhlar, D.G.
 J. Phys. Chem. B 2009, 113, 6378-6396.
 iSolventCode=           1
 Solvent: water                                                           
 
 vradii
            1           2           3           4           5           6
    1   1.8500000   1.5200000   1.8500000   1.5200000   1.8500000   1.8500000
            7           8           9          10          11          12
    1   1.5200000   1.5200000   1.8500000   1.5200000   1.5200000   1.2000000
           13          14          15          16          17          18
    1   1.2000000   1.2000000   1.2000000   1.2000000   1.2000000   1.2000000
           19          20          21          22
    1   1.2000000   1.2000000   1.5200000   1.5200000
 -------------------------------------------------------
 OpenMP BLAS3 based DFT computing Module                
 Release: version 1.0, May 2013, Q-Chem Inc. Pittsburgh 
 -------------------------------------------------------
 A unrestricted SCF calculation will be
 performed using DIIS, GDM
 SCF converges when RMS gradient is below 1.0e-07
 ---------------------------------------
  Cycle       Energy         DIIS error
 ---------------------------------------
    1    -800.1100913796      1.07e-02  
    2    -797.3243212138      1.49e-03  Done DIIS. Switching to GDM
 ---------------------------------------
  Cycle       Energy        RMS Gradient
 ---------------------------------------
    1    -797.3243212138      1.21e-01   Descent step
    2    -797.5308830579      4.52e-02   Normal BFGS step
    3    -797.5747869758      3.71e-02   Normal BFGS step
    4    -797.5787242183      1.50e-02   Normal BFGS step
    5    -797.5812181958      8.86e-03   Normal BFGS step
    6    -797.5814663849      3.79e-03   Normal BFGS step
    7    -797.5816052757      4.00e-03   Normal BFGS step
    8    -797.5816394117      9.16e-04   Normal BFGS step
    9    -797.5816492717      7.85e-04   Normal BFGS step
   10    -797.5816521738      6.19e-04   Normal BFGS step
   11    -797.5816533235      4.76e-04   Normal BFGS step
   12    -797.5816544673      3.63e-04   Normal BFGS step
   13    -797.5816552423      2.12e-04   Normal BFGS step
   14    -797.5816555538      5.19e-05   Normal BFGS step
   15    -797.5816556142      2.52e-05   Normal BFGS step
   16    -797.5816556284      1.05e-05   Normal BFGS step
   17    -797.5816556302      5.18e-06   Normal BFGS step
   18    -797.5816556308      2.35e-06   Normal BFGS step
   19    -797.5816556309      1.03e-06   Normal BFGS step
   20    -797.5816556309      5.46e-07   Normal BFGS step
   21    -797.5816556310      2.71e-07   Normal BFGS step
   22    -797.5816556310      1.02e-07   Normal BFGS step
   23    -797.5816556310      4.73e-08  Convergence criterion met
 ---------------------------------------
 SCF time:   CPU 4941.41s  wall 346.00s 
<S^2> =          0.754064189
(3)  G-ENP(liq) elect-nuc-pol free energy of system     -797.581655631 a.u.
(4)  G-CDS(liq) cavity-dispersion-solvent structure 
     free energy                                                4.6765 kcal/mol
(6)  G-S(liq) free energy of system                     -797.574203175 a.u.
 SCF   energy in the final basis set =     -797.5742031752
 Total energy in the final basis set =     -797.5742031752
 
 --------------------------------------------------------------
 
                    Orbital Energies (a.u.)
 --------------------------------------------------------------
 
 Alpha MOs
 -- Occupied --
-19.4702 -19.4254 -19.4061 -19.3971 -19.3718 -19.3572 -19.3475 -19.3458
-10.4719 -10.4620 -10.4478 -10.4129 -10.3583  -1.3529  -1.2734  -1.2208
 -1.2031  -1.1943  -1.1366  -1.0578  -1.0144  -0.9201  -0.8504  -0.8130
 -0.7435  -0.7014  -0.6890  -0.6838  -0.6609  -0.6464  -0.6399  -0.6239
 -0.6001  -0.5880  -0.5790  -0.5712  -0.5638  -0.5512  -0.5366  -0.5243
 -0.5035  -0.4925  -0.4631  -0.4606  -0.4581  -0.4350  -0.4217  -0.4184
 -0.4081  -0.4039  -0.3928  -0.3735
 -- Virtual --
  0.0267   0.0284   0.0360   0.0412   0.0468   0.0595   0.0638   0.0664
  0.0764   0.0920   0.0953   0.1011   0.1065   0.1143   0.1267   0.1297
  0.1366   0.1432   0.1516   0.1535   0.1545   0.1619   0.1668   0.1675
  0.1744   0.1772   0.1857   0.1905   0.1994   0.2028   0.2114   0.2199
  0.2289   0.2395   0.2439   0.2541   0.2628   0.2649   0.2660   0.2734
  0.2760   0.2835   0.2919   0.2969   0.2988   0.3049   0.3085   0.3195
  0.3232   0.3284   0.3299   0.3362   0.3401   0.3451   0.3480   0.3500
  0.3558   0.3650   0.3726   0.3742   0.3764   0.3798   0.3850   0.3884
  0.3936   0.3988   0.4072   0.4088   0.4173   0.4234   0.4303   0.4360
  0.4421   0.4471   0.4553   0.4657   0.4729   0.4795   0.4905   0.4933
  0.4969   0.5039   0.5536   0.5688   0.5791   0.5968   0.6123   0.6259
  0.6290   0.6418   0.6480   0.6567   0.6646   0.6731   0.6766   0.6869
  0.7043   0.7106   0.7191   0.7224   0.7395   0.7445   0.7548   0.7674
  0.7738   0.7774   0.7862   0.8218   0.8286   0.8398   0.8729   0.8759
  0.8786   0.9031   0.9294   0.9419   0.9506   0.9599   0.9782   0.9917
  1.0047   1.0172   1.0364   1.0379   1.0484   1.0764   1.0864   1.0951
  1.0987   1.1177   1.1233   1.1400   1.1454   1.1543   1.1578   1.1713
  1.1742   1.1806   1.1844   1.1896   1.2005   1.2055   1.2156   1.2201
  1.2231   1.2416   1.2474   1.2543   1.2604   1.2634   1.2668   1.2757
  1.2889   1.3073   1.3148   1.3190   1.3304   1.3414   1.3490   1.3580
  1.3699   1.3797   1.3829   1.3890   1.4142   1.4387   1.4461   1.4636
  1.4669   1.4861   1.4960   1.5030   1.5174   1.5355   1.5359   1.5450
  1.5595   1.5731   1.5977   1.6068   1.6144   1.6293   1.6397   1.6471
  1.6589   1.6767   1.6792   1.6911   1.7094   1.7246   1.7335   1.7412
  1.7558   1.7640   1.7841   1.8056   1.8308   1.8479   1.8593   1.8864
  1.8879   1.9034   1.9133   1.9351   1.9597   1.9783   2.0006   2.0141
  2.0434   2.0578   2.0751   2.1243   2.1275   2.1643   2.1696   2.2367
  2.2454   2.2758   2.2876   2.3010   2.3181   2.3298   2.3402   2.3902
  2.4066   2.4162   2.4277   2.4448   2.4583   2.4844   2.5032   2.5329
  2.5557   2.6192   2.6598   2.6778   2.6875   2.7182   2.7494   2.7713
  2.7829   2.7993   2.8348   2.8437   2.8788   2.9071   2.9251   2.9598
  2.9687   2.9792   2.9861   3.0074   3.0329   3.0834   3.0964   3.1269
  3.1475   3.1568   3.1789   3.2170   3.2458   3.2606   3.2877   3.3008
  3.3277   3.3771   3.3856   3.4044   3.4144   3.4274   3.4452   3.4562
  3.4638   3.4920   3.4980   3.5366   3.5496   3.5623   3.5791   3.5987
  3.6128   3.6272   3.6630   3.6784   3.6804   3.7156   3.7280   3.7409
  3.7602   3.7634   3.7807   3.7994   3.8182   3.8219   3.8357   3.8434
  3.8564   3.8744   3.8787   3.8809   3.9021   3.9261   3.9481   3.9718
  3.9759   4.0055   4.0135   4.0486   4.0577   4.0776   4.1216   4.1394
  4.1702   4.1918   4.1963   4.2164   4.2317   4.2439   4.2720   4.2788
  4.2902   4.3107   4.3455   4.3694   4.3921   4.4094   4.4184   4.4253
  4.4759   4.4921   4.5218   4.5265   4.5692   4.5902   4.6159   4.6323
  4.6618   4.6883   4.7004   4.7116   4.7406   4.7849   4.8170   4.8332
  4.8358   4.8850   4.9228   4.9844   5.0047   5.0369   5.0723   5.0814
  5.0879   5.1022   5.1593   5.1705   5.1839   5.1975   5.2036   5.2106
  5.2197   5.2324   5.2356   5.2550   5.2732   5.2749   5.2830   5.2886
  5.3135   5.3192   5.3341   5.3395   5.3598   5.3627   5.3691   5.4082
  5.4198   5.4264   5.4494   5.4753   5.4900   5.4957   5.5049   5.5150
  5.5427   5.5547   5.5729   5.6102   5.6189   5.6218   5.6330   5.6405
  5.6505   5.6736   5.6775   5.6892   5.7189   5.7650   5.7886   5.8091
  5.8180   5.8389   5.8561   5.9050   5.9828   6.0280   6.0879   6.1091
  6.1231   6.1487   6.2565   6.3593   6.4249   6.4871   6.5422   6.5923
  6.6402   6.7423   6.7637   6.7822   6.8374   6.8539   6.8653   6.9587
  6.9747   7.0123   7.0152   7.0416   7.0671   7.0746   7.1074   7.1181
  7.1460   7.1618   7.2142   7.2182   7.2623   7.2690   7.2854   7.3121
  7.3201   7.3329   7.3389   7.3579   7.3675   7.3959   7.4013   7.4206
  7.4365   7.4708   7.5019   7.5417   7.5788   7.6145   7.6564   7.6699
  7.7040   7.7626   7.7972   7.8163   7.8517   7.8675   7.9022   7.9723
  8.0332   8.1153   8.1771  24.6188  24.7097  24.7826  24.8415  25.0222
 50.4336  50.5042  50.5333  50.5808  50.6105  50.6285  50.6332  50.7598
 
 Beta MOs
 -- Occupied --
-19.4600 -19.4064 -19.4061 -19.3971 -19.3716 -19.3570 -19.3475 -19.3458
-10.4723 -10.4619 -10.4478 -10.4129 -10.3583  -1.3272  -1.2734  -1.2194
 -1.2031  -1.1933  -1.1366  -1.0578  -0.9830  -0.9180  -0.8455  -0.8092
 -0.7433  -0.6949  -0.6877  -0.6821  -0.6475  -0.6442  -0.6265  -0.6206
 -0.5899  -0.5777  -0.5706  -0.5646  -0.5509  -0.5364  -0.5285  -0.5233
 -0.5012  -0.4906  -0.4628  -0.4582  -0.4534  -0.4349  -0.4188  -0.4102
 -0.4016  -0.3875  -0.3749
 -- Virtual --
 -0.0386   0.0268   0.0314   0.0378   0.0417   0.0474   0.0597   0.0640
  0.0666   0.0766   0.0923   0.0960   0.1021   0.1067   0.1148   0.1268
  0.1305   0.1368   0.1433   0.1519   0.1538   0.1551   0.1626   0.1670
  0.1678   0.1748   0.1806   0.1870   0.1917   0.1994   0.2038   0.2125
  0.2209   0.2321   0.2405   0.2453   0.2557   0.2645   0.2659   0.2685
  0.2745   0.2763   0.2857   0.2928   0.2978   0.2997   0.3063   0.3091
  0.3206   0.3239   0.3286   0.3306   0.3383   0.3409   0.3456   0.3487
  0.3506   0.3573   0.3659   0.3729   0.3748   0.3769   0.3809   0.3856
  0.3898   0.3949   0.3990   0.4075   0.4103   0.4176   0.4238   0.4304
  0.4364   0.4430   0.4473   0.4559   0.4664   0.4731   0.4804   0.4914
  0.4939   0.4973   0.5044   0.5540   0.5688   0.5793   0.5970   0.6124
  0.6262   0.6292   0.6420   0.6483   0.6572   0.6648   0.6737   0.6767
  0.6875   0.7047   0.7111   0.7195   0.7229   0.7396   0.7448   0.7550
  0.7676   0.7741   0.7778   0.7864   0.8225   0.8286   0.8409   0.8736
  0.8770   0.8787   0.9042   0.9298   0.9440   0.9520   0.9601   0.9786
  0.9919   1.0054   1.0184   1.0375   1.0398   1.0499   1.0775   1.0875
  1.0953   1.1008   1.1242   1.1249   1.1418   1.1498   1.1551   1.1585
  1.1729   1.1817   1.1831   1.1884   1.1967   1.2028   1.2077   1.2163
  1.2218   1.2285   1.2432   1.2489   1.2582   1.2631   1.2661   1.2738
  1.2780   1.2910   1.3093   1.3163   1.3214   1.3315   1.3432   1.3526
  1.3592   1.3715   1.3808   1.3857   1.3910   1.4173   1.4394   1.4475
  1.4646   1.4692   1.4902   1.4968   1.5039   1.5191   1.5359   1.5392
  1.5465   1.5611   1.5756   1.5993   1.6102   1.6165   1.6326   1.6440
  1.6512   1.6641   1.6809   1.6891   1.6972   1.7164   1.7270   1.7397
  1.7483   1.7624   1.7682   1.7866   1.8084   1.8333   1.8501   1.8630
  1.8883   1.8900   1.9043   1.9170   1.9374   1.9605   1.9788   2.0022
  2.0149   2.0453   2.0584   2.0780   2.1272   2.1313   2.1690   2.1702
  2.2389   2.2506   2.2787   2.2916   2.3105   2.3253   2.3333   2.3408
  2.3938   2.4071   2.4174   2.4311   2.4460   2.4597   2.4851   2.5046
  2.5338   2.5574   2.6198   2.6671   2.6793   2.6881   2.7190   2.7495
  2.7714   2.7833   2.7997   2.8351   2.8442   2.8790   2.9072   2.9253
  2.9602   2.9690   2.9794   2.9866   3.0075   3.0333   3.0834   3.0966
  3.1270   3.1476   3.1570   3.1791   3.2175   3.2461   3.2609   3.2878
  3.3014   3.3278   3.3772   3.3859   3.4048   3.4147   3.4279   3.4453
  3.4563   3.4638   3.4919   3.4981   3.5367   3.5498   3.5627   3.5792
  3.5988   3.6130   3.6273   3.6630   3.6785   3.6805   3.7159   3.7287
  3.7411   3.7604   3.7638   3.7808   3.7996   3.8187   3.8219   3.8359
  3.8435   3.8567   3.8744   3.8791   3.8811   3.9022   3.9262   3.9481
  3.9719   3.9761   4.0055   4.0137   4.0489   4.0577   4.0776   4.1217
  4.1395   4.1704   4.1919   4.1964   4.2166   4.2322   4.2442   4.2721
  4.2794   4.2906   4.3109   4.3458   4.3701   4.3922   4.4099   4.4186
  4.4263   4.4793   4.4926   4.5219   4.5274   4.5834   4.5941   4.6178
  4.6342   4.6672   4.6951   4.7047   4.7272   4.7411   4.7850   4.8225
  4.8356   4.8533   4.8943   4.9236   4.9963   5.0062   5.0410   5.0755
  5.1308   5.1365   5.1717   5.1771   5.1862   5.1948   5.1988   5.2110
  5.2260   5.2311   5.2384   5.2645   5.2671   5.2758   5.2801   5.2891
  5.2956   5.3220   5.3228   5.3353   5.3440   5.3632   5.3710   5.3799
  5.4116   5.4223   5.4275   5.4629   5.4784   5.4909   5.4998   5.5076
  5.5155   5.5428   5.5553   5.5765   5.6115   5.6190   5.6228   5.6332
  5.6429   5.6554   5.6764   5.6859   5.6917   5.7191   5.7664   5.7970
  5.8104   5.8274   5.8399   5.8599   5.9052   5.9881   6.0280   6.0879
  6.1098   6.1231   6.1487   6.2566   6.3708   6.4292   6.5311   6.5422
  6.6032   6.6403   6.7476   6.7649   6.7904   6.8547   6.9167   6.9448
  6.9771   7.0058   7.0148   7.0245   7.0418   7.0728   7.0752   7.1182
  7.1434   7.1610   7.1665   7.2188   7.2444   7.2627   7.2695   7.2863
  7.3153   7.3207   7.3353   7.3423   7.3646   7.3850   7.4013   7.4165
  7.4248   7.4503   7.4736   7.5253   7.5417   7.5798   7.6147   7.6571
  7.6715   7.7041   7.7689   7.7974   7.8169   7.8530   7.8728   7.9023
  7.9724   8.0474   8.1339   8.1773  24.6188  24.7095  24.7825  24.8415
 25.0223  50.4464  50.5047  50.5418  50.5812  50.6107  50.6286  50.6333
 50.7601
 --------------------------------------------------------------
 
          Ground-State Mulliken Net Atomic Charges

     Atom                 Charge (a.u.)    Spin (a.u.)
  --------------------------------------------------------
      1 C                    -0.178784      -0.000613
      2 O                    -0.395404       0.007214
      3 C                     0.431658       0.003885
      4 O                    -0.405148       0.006607
      5 C                    -0.575357       0.003031
      6 C                    -0.044192      -0.005583
      7 O                    -0.098816      -0.000107
      8 O                    -0.313756      -0.000057
      9 C                    -0.315612      -0.000723
     10 O                    -0.403795       0.000292
     11 O                    -0.451718       0.000012
     12 H                     0.332266       0.000449
     13 H                     0.340819      -0.000987
     14 H                     0.228232      -0.001079
     15 H                     0.296076       0.001316
     16 H                     0.335240       0.001056
     17 H                     0.359265       0.000001
     18 H                     0.295622      -0.000102
     19 H                     0.343312       0.000032
     20 H                     0.346567      -0.000041
     21 O                     0.079063       0.305456
     22 O                    -0.205538       0.679942
  --------------------------------------------------------
  Sum of atomic charges =    -0.000000
  Sum of spin   charges =     1.000000

 -----------------------------------------------------------------
                    Cartesian Multipole Moments
 -----------------------------------------------------------------
    Charge (ESU x 10^10)
                -0.0000
    Dipole Moment (Debye)
         X       0.1998      Y       1.7005      Z      -4.9026
       Tot       5.1930
    Quadrupole Moments (Debye-Ang)
        XX     -65.1106     XY       1.2209     YY     -88.0764
        XZ       0.9186     YZ     -13.4971     ZZ     -84.5311
    Octopole Moments (Debye-Ang^2)
       XXX    -654.1747    XXY     -91.0879    XYY    -326.6081
       YYY    -427.9189    XXZ      21.8374    XYZ     -45.2393
       YYZ     -94.6436    XZZ    -295.8993    YZZ    -148.7488
       ZZZ    -111.9086
    Hexadecapole Moments (Debye-Ang^3)
      XXXX   -5099.0945   XXXY   -1132.3441   XXYY   -1748.4461
      XYYY   -1891.2940   YYYY   -3200.8940   XXXZ      64.5207
      XXYZ    -271.0941   XYYZ    -336.9892   YYYZ    -772.8066
      XXZZ   -1294.6335   XYZZ    -587.2386   YYZZ    -731.7565
      XZZZ    -304.5126   YZZZ    -480.1089   ZZZZ    -772.1634
 -----------------------------------------------------------------
 Calculating analytic gradient of the SCF energy
 Gradient of CDS energy
            1           2           3           4           5           6
    1  -0.0047923   0.0045493  -0.0011223   0.0008517   0.0002638   0.0000155
    2  -0.0018663   0.0018306  -0.0006280   0.0003480  -0.0001219   0.0000382
    3  -0.0006526   0.0004111   0.0014070  -0.0008913   0.0000242   0.0000763
            7           8           9          10          11          12
    1   0.0001026   0.0002703   0.0009690  -0.0012736   0.0001302   0.0002878
    2   0.0001169  -0.0001407   0.0021085   0.0005687  -0.0027033   0.0000414
    3  -0.0000409   0.0001680  -0.0011221   0.0015028  -0.0000916  -0.0000174
           13          14          15          16          17          18
    1  -0.0003732   0.0000299   0.0000135   0.0000033  -0.0004871  -0.0000408
    2  -0.0000852   0.0000178   0.0000814   0.0000155   0.0000648  -0.0000742
    3  -0.0002824  -0.0001409   0.0001914  -0.0000811  -0.0001171   0.0001674
           19          20          21          22
    1   0.0004618   0.0000005   0.0001068   0.0000334
    2  -0.0000578   0.0004309   0.0000565  -0.0000419
    3  -0.0002261  -0.0002548  -0.0000355   0.0000057
 Gradient of SCF Energy
            1           2           3           4           5           6
    1   0.0044973   0.0029550   0.0061068  -0.0047068  -0.0191623   0.0098359
    2  -0.0189035  -0.0054849   0.0071347  -0.0030310   0.0050374  -0.0059106
    3   0.0101368   0.0256841  -0.0063226   0.0042647  -0.0028494   0.0228073
            7           8           9          10          11          12
    1   0.0007262   0.0141034  -0.0048296  -0.0119118   0.0044995  -0.0010550
    2  -0.0014051   0.0091135   0.0040347  -0.0036129   0.0019271   0.0172794
    3   0.0027758   0.0108227  -0.0115981  -0.0054042   0.0122401  -0.0113804
           13          14          15          16          17          18
    1  -0.0055757   0.0063771   0.0037749  -0.0072639  -0.0132165   0.0052918
    2   0.0039885  -0.0034073  -0.0003113   0.0039587  -0.0078380  -0.0048294
    3  -0.0218955  -0.0053239   0.0058781  -0.0164618  -0.0114324   0.0058935
           19          20          21          22
    1   0.0137218  -0.0057472  -0.0017147   0.0032937
    2   0.0022204   0.0003284  -0.0003060   0.0000171
    3   0.0038600  -0.0107354   0.0020499  -0.0030094
 Max gradient component =       2.568E-02
 RMS gradient           =       9.221E-03
 Computing fast CPCM-SWIG gradient
 Updating gradient with PCM contributions...
 -- total gradient after adding PCM contribution --
---------------------------------------------------
  Atom         X              Y              Z     
---------------------------------------------------
   1      -0.000078       0.000080      -0.000035
   2       0.000009       0.000020      -0.000011
   3      -0.000004      -0.000034       0.000006
   4      -0.000007      -0.000003      -0.000018
   5      -0.000017       0.000023      -0.000011
   6       0.000035      -0.000014      -0.000010
   7      -0.000052      -0.000008       0.000026
   8       0.000014      -0.000002       0.000000
   9      -0.000027      -0.000007      -0.000010
  10       0.000015       0.000017       0.000006
  11       0.000025      -0.000011       0.000018
  12       0.000016      -0.000014      -0.000008
  13      -0.000004       0.000016      -0.000011
  14      -0.000009      -0.000011      -0.000000
  15      -0.000006      -0.000004       0.000005
  16      -0.000004       0.000008      -0.000004
  17       0.000006      -0.000007      -0.000008
  18       0.000006       0.000007       0.000002
  19       0.000016      -0.000026       0.000012
  20       0.000007      -0.000009       0.000007
  21       0.000047      -0.000028       0.000065
  22       0.000013       0.000006      -0.000022
---------------------------------------------------
 Number of fixed atoms: 0
 Gradient time:  CPU 589.43 s  wall 50.56 s
 ######################################################
 ######################################################
 # Starting finite difference calculation for IDERIV  #
 Finite diff step size:  1.88973e-03 a.u.
 ----------------------------------------------------------------
             Standard Nuclear Orientation (Angstroms)
    I     Atom           X                Y                Z
 ----------------------------------------------------------------
    1      C       2.3521776409     0.0289440262    -0.6945353336
    2      O       1.1092619660    -0.5350181823    -0.7988777250
    3      C       2.6799824766     0.3034764829     0.7818966638
    4      O       1.9107701922    -0.0504312223     1.6426012912
    5      C       3.9628745399     1.0279991632     1.0657731743
    6      C       3.7951547523     2.5282739688     0.8399585310
    7      O       2.8791174992     2.9692998722     1.8415757093
    8      O       2.1956096385     4.1318074613     1.3743381791
    9      C       5.1348406484     3.2495951546     0.9675595709
   10      O       5.8963330706     2.8582081230    -0.1509005260
   11      O       4.9846129021     4.6464247776     1.0319744338
   12      H       2.5079357364     0.9033142434    -1.3241656053
   13      H       0.8067275421    -0.4663214119    -1.7131342178
   14      H       4.7530072531     0.6693912781     0.4084559076
   15      H       4.2478733531     0.8434419318     2.1008351934
   16      H       3.3698703044     2.7403255974    -0.1439104822
   17      H       1.3864524473     3.7504403306     1.0012457914
   18      H       5.6337511546     2.9667306199     1.8952457371
   19      H       6.8164578918     3.0950577540     0.0123610228
   20      H       4.4150526876     4.9303125955     0.3055430796
   21      O       3.3443645053    -0.9713116182    -1.1427842274
   22      O       4.2552564978    -0.4578796460    -1.9184239683
 ----------------------------------------------------------------
 Nuclear Repulsion Energy =         891.52724150 hartrees
 There are       52 alpha and       51 beta electrons
 Discretize the solute cavity surface with Lebedev spheres
	Using 110 Lebedev grid points for each H atom
	Using 194 Lebedev grid points for other atoms
	Atomic van der Waals radii will be scaled by 1.20
 Remove points where switching function is < 1.0e-08
 Keep 1800 surface tesserae and discard 1712 interior tesserae
 Molecular Surface Area = 200.719 Angst**2
 Requested basis set is 6-311++G(2df,2p)
 There are 158 shells and 532 basis functions
 A cutoff of  1.0D-12 yielded  10326 shell pairs
 There are    113958 function pairs (    141299 Cartesian)
 Smallest overlap matrix eigenvalue = 6.07E-06
 Guess MOs from SCF MO coefficient file

 -----------------------------------------------------------------------
  General SCF calculation program by
  Eric Jon Sundstrom, Paul Horn, Yuezhi Mao, Dmitri Zuev, Alec White,
  David Stuck, Shaama M.S., Shane Yost, Joonho Lee, David Small,
  Daniel Levine, Susi Lehtola, Hugh Burton, Evgeny Epifanovsky,
  Bang C. Huynh
 -----------------------------------------------------------------------
 Exchange:     0.1500 Hartree-Fock + 1.0000 wB97M-V + LR-HF
 Correlation:  1.0000 wB97M-V
 Using SG-2 standard quadrature grid
 Nonlocal Correlation:  VV10 with C = 0.0100 and b = 6.00 and scale = 1.00000
 Grid used for NLC:  SG-1 standard quadrature
 
 Citation of the SMD model:
 Marenich, A.V.; Cramer, C.J.; Truhlar, D.G.
 J. Phys. Chem. B 2009, 113, 6378-6396.
 iSolventCode=           1
 Solvent: water                                                           
 
 vradii
            1           2           3           4           5           6
    1   1.8500000   1.5200000   1.8500000   1.5200000   1.8500000   1.8500000
            7           8           9          10          11          12
    1   1.5200000   1.5200000   1.8500000   1.5200000   1.5200000   1.2000000
           13          14          15          16          17          18
    1   1.2000000   1.2000000   1.2000000   1.2000000   1.2000000   1.2000000
           19          20          21          22
    1   1.2000000   1.2000000   1.5200000   1.5200000
 -------------------------------------------------------
 OpenMP BLAS3 based DFT computing Module                
 Release: version 1.0, May 2013, Q-Chem Inc. Pittsburgh 
 -------------------------------------------------------
 A unrestricted SCF calculation will be
 performed using Roothaan-Hall, DIIS, GDM
 SCF converges when RMS gradient is below 1.0e-07
 ---------------------------------------
  Cycle       Energy         DIIS error
 ---------------------------------------
    1    -797.5109964830      2.41e-04  Roothaan Step
 ---------------------------------------
  Cycle       Energy         DIIS error
 ---------------------------------------
    1    -797.5652353097      2.91e-04  
    2    -797.5732811443      2.94e-04  Done DIIS. Switching to GDM
 ---------------------------------------
  Cycle       Energy        RMS Gradient
 ---------------------------------------
    1    -797.5732811443      2.49e-02   Normal BFGS step
    2    -797.5690239731      3.84e-02  Line search: overstep
    3    -797.5812439769      3.04e-03   Normal BFGS step
    4    -797.5815701923      1.34e-03   Normal BFGS step
    5    -797.5816277293      1.78e-03   Normal BFGS step
    6    -797.5816441849      5.26e-04   Normal BFGS step
    7    -797.5816449653      5.06e-04   Normal BFGS step
    8    -797.5816458410      6.92e-05   Normal BFGS step
    9    -797.5816458867      5.76e-05   Normal BFGS step
   10    -797.5816459111      4.86e-05   Normal BFGS step
   11    -797.5816459234      3.64e-05   Normal BFGS step
   12    -797.5816459285      2.53e-05   Normal BFGS step
   13    -797.5816459324      1.88e-05   Normal BFGS step
   14    -797.5816459347      1.61e-05   Normal BFGS step
   15    -797.5816459360      6.05e-06   Normal BFGS step
   16    -797.5816459364      1.55e-06   Normal BFGS step
   17    -797.5816459365      9.61e-07   Normal BFGS step
   18    -797.5816459365      4.35e-07   Normal BFGS step
   19    -797.5816459365      2.80e-07   Normal BFGS step
   20    -797.5816459365      7.76e-08  Convergence criterion met
 ---------------------------------------
 SCF time:   CPU 4648.94s  wall 325.00s 
<S^2> =          0.754062315
(3)  G-ENP(liq) elect-nuc-pol free energy of system     -797.581645936 a.u.
(4)  G-CDS(liq) cavity-dispersion-solvent structure 
     free energy                                                4.6708 kcal/mol
(6)  G-S(liq) free energy of system                     -797.574202561 a.u.
 SCF   energy in the final basis set =     -797.5742025615
 Total energy in the final basis set =     -797.5742025615
 
 --------------------------------------------------------------
 
                    Orbital Energies (a.u.)
 --------------------------------------------------------------
 
 Alpha MOs
 -- Occupied --
-19.4703 -19.4255 -19.4061 -19.3971 -19.3717 -19.3573 -19.3475 -19.3458
-10.4719 -10.4620 -10.4478 -10.4129 -10.3582  -1.3530  -1.2734  -1.2207
 -1.2031  -1.1941  -1.1366  -1.0578  -1.0145  -0.9202  -0.8504  -0.8130
 -0.7435  -0.7015  -0.6889  -0.6837  -0.6610  -0.6464  -0.6400  -0.6239
 -0.6001  -0.5880  -0.5790  -0.5712  -0.5638  -0.5511  -0.5365  -0.5242
 -0.5035  -0.4925  -0.4631  -0.4605  -0.4581  -0.4350  -0.4218  -0.4184
 -0.4082  -0.4040  -0.3928  -0.3735
 -- Virtual --
  0.0267   0.0284   0.0360   0.0412   0.0468   0.0595   0.0638   0.0664
  0.0764   0.0920   0.0953   0.1011   0.1065   0.1143   0.1267   0.1297
  0.1366   0.1432   0.1516   0.1535   0.1545   0.1619   0.1668   0.1675
  0.1745   0.1772   0.1857   0.1905   0.1994   0.2028   0.2113   0.2199
  0.2287   0.2395   0.2439   0.2542   0.2628   0.2649   0.2660   0.2734
  0.2760   0.2835   0.2919   0.2969   0.2988   0.3049   0.3086   0.3195
  0.3232   0.3284   0.3298   0.3362   0.3401   0.3451   0.3480   0.3500
  0.3558   0.3650   0.3727   0.3742   0.3764   0.3798   0.3850   0.3884
  0.3936   0.3987   0.4072   0.4088   0.4173   0.4233   0.4303   0.4360
  0.4421   0.4471   0.4554   0.4657   0.4729   0.4795   0.4905   0.4933
  0.4968   0.5039   0.5535   0.5688   0.5792   0.5968   0.6123   0.6259
  0.6290   0.6418   0.6480   0.6567   0.6645   0.6730   0.6765   0.6869
  0.7043   0.7106   0.7191   0.7223   0.7395   0.7445   0.7548   0.7674
  0.7738   0.7774   0.7862   0.8219   0.8286   0.8398   0.8730   0.8759
  0.8786   0.9031   0.9294   0.9419   0.9505   0.9599   0.9783   0.9917
  1.0047   1.0172   1.0364   1.0379   1.0484   1.0765   1.0864   1.0951
  1.0987   1.1177   1.1234   1.1401   1.1453   1.1543   1.1578   1.1713
  1.1742   1.1806   1.1844   1.1896   1.2004   1.2055   1.2156   1.2201
  1.2231   1.2416   1.2474   1.2543   1.2604   1.2633   1.2668   1.2757
  1.2889   1.3073   1.3148   1.3190   1.3304   1.3414   1.3490   1.3579
  1.3699   1.3797   1.3829   1.3890   1.4143   1.4387   1.4461   1.4636
  1.4670   1.4861   1.4959   1.5030   1.5174   1.5354   1.5358   1.5450
  1.5595   1.5731   1.5977   1.6067   1.6144   1.6293   1.6397   1.6471
  1.6590   1.6767   1.6792   1.6911   1.7095   1.7247   1.7335   1.7413
  1.7558   1.7640   1.7842   1.8056   1.8308   1.8480   1.8593   1.8864
  1.8879   1.9034   1.9134   1.9350   1.9596   1.9783   2.0007   2.0141
  2.0434   2.0578   2.0750   2.1242   2.1275   2.1642   2.1696   2.2367
  2.2455   2.2759   2.2876   2.3010   2.3180   2.3298   2.3402   2.3901
  2.4066   2.4162   2.4277   2.4447   2.4582   2.4844   2.5033   2.5329
  2.5556   2.6191   2.6598   2.6779   2.6875   2.7182   2.7494   2.7713
  2.7827   2.7993   2.8348   2.8437   2.8788   2.9072   2.9251   2.9599
  2.9688   2.9791   2.9861   3.0075   3.0329   3.0834   3.0964   3.1268
  3.1475   3.1569   3.1788   3.2169   3.2457   3.2606   3.2877   3.3009
  3.3277   3.3770   3.3859   3.4044   3.4144   3.4274   3.4452   3.4562
  3.4637   3.4917   3.4979   3.5366   3.5495   3.5622   3.5790   3.5989
  3.6129   3.6273   3.6630   3.6784   3.6805   3.7158   3.7280   3.7410
  3.7602   3.7636   3.7807   3.7995   3.8183   3.8220   3.8357   3.8433
  3.8563   3.8744   3.8788   3.8809   3.9021   3.9260   3.9481   3.9717
  3.9761   4.0057   4.0137   4.0487   4.0577   4.0775   4.1216   4.1394
  4.1703   4.1918   4.1962   4.2165   4.2318   4.2439   4.2720   4.2790
  4.2903   4.3107   4.3455   4.3694   4.3921   4.4094   4.4184   4.4254
  4.4758   4.4921   4.5217   4.5265   4.5692   4.5902   4.6159   4.6324
  4.6617   4.6885   4.7004   4.7115   4.7406   4.7849   4.8171   4.8332
  4.8359   4.8850   4.9229   4.9845   5.0047   5.0371   5.0724   5.0813
  5.0879   5.1021   5.1592   5.1705   5.1840   5.1976   5.2036   5.2106
  5.2196   5.2324   5.2356   5.2549   5.2732   5.2749   5.2830   5.2886
  5.3135   5.3193   5.3341   5.3395   5.3599   5.3627   5.3692   5.4083
  5.4200   5.4265   5.4496   5.4753   5.4900   5.4957   5.5049   5.5150
  5.5427   5.5546   5.5727   5.6100   5.6189   5.6216   5.6330   5.6406
  5.6505   5.6736   5.6776   5.6892   5.7189   5.7651   5.7886   5.8091
  5.8180   5.8389   5.8559   5.9049   5.9815   6.0280   6.0878   6.1079
  6.1231   6.1486   6.2565   6.3602   6.4251   6.4871   6.5422   6.5923
  6.6402   6.7409   6.7635   6.7822   6.8373   6.8539   6.8653   6.9587
  6.9747   7.0123   7.0151   7.0416   7.0671   7.0746   7.1073   7.1181
  7.1462   7.1618   7.2143   7.2182   7.2623   7.2690   7.2854   7.3119
  7.3201   7.3329   7.3389   7.3579   7.3675   7.3960   7.4013   7.4206
  7.4365   7.4708   7.5018   7.5417   7.5789   7.6145   7.6563   7.6697
  7.7040   7.7626   7.7972   7.8162   7.8517   7.8675   7.9022   7.9723
  8.0332   8.1153   8.1771  24.6188  24.7091  24.7826  24.8415  25.0223
 50.4336  50.5042  50.5333  50.5808  50.6103  50.6285  50.6332  50.7597
 
 Beta MOs
 -- Occupied --
-19.4601 -19.4064 -19.4061 -19.3971 -19.3715 -19.3571 -19.3475 -19.3458
-10.4723 -10.4619 -10.4478 -10.4129 -10.3582  -1.3273  -1.2734  -1.2193
 -1.2031  -1.1931  -1.1366  -1.0578  -0.9832  -0.9180  -0.8455  -0.8091
 -0.7433  -0.6949  -0.6877  -0.6821  -0.6476  -0.6442  -0.6264  -0.6206
 -0.5900  -0.5778  -0.5706  -0.5646  -0.5508  -0.5364  -0.5285  -0.5233
 -0.5012  -0.4906  -0.4628  -0.4582  -0.4533  -0.4349  -0.4188  -0.4102
 -0.4016  -0.3876  -0.3749
 -- Virtual --
 -0.0387   0.0268   0.0314   0.0378   0.0417   0.0474   0.0597   0.0640
  0.0666   0.0766   0.0923   0.0960   0.1021   0.1067   0.1148   0.1268
  0.1305   0.1368   0.1433   0.1519   0.1538   0.1551   0.1626   0.1670
  0.1678   0.1748   0.1806   0.1870   0.1917   0.1994   0.2038   0.2125
  0.2209   0.2320   0.2404   0.2453   0.2557   0.2645   0.2659   0.2684
  0.2745   0.2763   0.2857   0.2928   0.2978   0.2997   0.3063   0.3091
  0.3207   0.3239   0.3287   0.3305   0.3383   0.3409   0.3456   0.3487
  0.3506   0.3573   0.3659   0.3729   0.3748   0.3769   0.3809   0.3856
  0.3897   0.3948   0.3990   0.4075   0.4103   0.4176   0.4238   0.4304
  0.4364   0.4430   0.4473   0.4559   0.4664   0.4731   0.4804   0.4914
  0.4938   0.4973   0.5044   0.5539   0.5688   0.5793   0.5970   0.6124
  0.6262   0.6292   0.6421   0.6483   0.6572   0.6648   0.6737   0.6767
  0.6875   0.7047   0.7111   0.7195   0.7228   0.7396   0.7448   0.7550
  0.7677   0.7741   0.7778   0.7864   0.8225   0.8286   0.8409   0.8736
  0.8770   0.8787   0.9042   0.9298   0.9440   0.9519   0.9601   0.9786
  0.9919   1.0054   1.0184   1.0375   1.0398   1.0499   1.0775   1.0876
  1.0953   1.1008   1.1241   1.1250   1.1418   1.1497   1.1551   1.1585
  1.1729   1.1818   1.1831   1.1883   1.1967   1.2028   1.2077   1.2163
  1.2218   1.2285   1.2433   1.2489   1.2582   1.2630   1.2661   1.2738
  1.2780   1.2910   1.3094   1.3163   1.3214   1.3314   1.3432   1.3525
  1.3592   1.3715   1.3808   1.3857   1.3910   1.4173   1.4395   1.4475
  1.4646   1.4692   1.4901   1.4968   1.5039   1.5191   1.5359   1.5392
  1.5465   1.5611   1.5756   1.5993   1.6101   1.6165   1.6327   1.6441
  1.6513   1.6641   1.6809   1.6891   1.6972   1.7164   1.7271   1.7396
  1.7484   1.7624   1.7682   1.7866   1.8084   1.8333   1.8501   1.8630
  1.8884   1.8900   1.9043   1.9170   1.9372   1.9605   1.9788   2.0023
  2.0149   2.0452   2.0584   2.0779   2.1272   2.1312   2.1689   2.1702
  2.2389   2.2506   2.2788   2.2917   2.3105   2.3253   2.3333   2.3408
  2.3938   2.4070   2.4174   2.4311   2.4459   2.4596   2.4851   2.5046
  2.5338   2.5572   2.6197   2.6671   2.6793   2.6881   2.7190   2.7495
  2.7714   2.7832   2.7997   2.8351   2.8442   2.8789   2.9073   2.9253
  2.9603   2.9691   2.9793   2.9866   3.0075   3.0333   3.0834   3.0966
  3.1269   3.1476   3.1570   3.1789   3.2175   3.2460   3.2609   3.2878
  3.3014   3.3278   3.3771   3.3861   3.4048   3.4148   3.4278   3.4453
  3.4563   3.4638   3.4916   3.4980   3.5367   3.5498   3.5627   3.5792
  3.5990   3.6131   3.6274   3.6630   3.6785   3.6805   3.7161   3.7287
  3.7411   3.7604   3.7639   3.7808   3.7997   3.8188   3.8219   3.8359
  3.8435   3.8566   3.8744   3.8792   3.8811   3.9022   3.9261   3.9481
  3.9719   3.9762   4.0057   4.0138   4.0490   4.0577   4.0776   4.1217
  4.1396   4.1706   4.1920   4.1964   4.2167   4.2324   4.2442   4.2721
  4.2795   4.2906   4.3109   4.3458   4.3701   4.3922   4.4099   4.4186
  4.4264   4.4792   4.4926   4.5218   4.5275   4.5834   4.5941   4.6178
  4.6343   4.6671   4.6953   4.7047   4.7271   4.7411   4.7850   4.8225
  4.8356   4.8535   4.8943   4.9237   4.9964   5.0062   5.0411   5.0756
  5.1308   5.1365   5.1717   5.1771   5.1863   5.1947   5.1988   5.2110
  5.2260   5.2312   5.2383   5.2645   5.2671   5.2758   5.2802   5.2891
  5.2956   5.3221   5.3229   5.3353   5.3440   5.3632   5.3711   5.3800
  5.4116   5.4224   5.4276   5.4630   5.4784   5.4909   5.4998   5.5077
  5.5155   5.5428   5.5552   5.5765   5.6113   5.6190   5.6226   5.6332
  5.6429   5.6555   5.6764   5.6859   5.6918   5.7191   5.7664   5.7969
  5.8103   5.8275   5.8399   5.8598   5.9051   5.9869   6.0280   6.0879
  6.1086   6.1231   6.1487   6.2566   6.3717   6.4294   6.5310   6.5422
  6.6032   6.6403   6.7463   6.7646   6.7903   6.8547   6.9167   6.9448
  6.9771   7.0058   7.0148   7.0245   7.0418   7.0728   7.0752   7.1182
  7.1433   7.1611   7.1666   7.2189   7.2445   7.2627   7.2695   7.2863
  7.3151   7.3207   7.3353   7.3423   7.3646   7.3849   7.4013   7.4165
  7.4248   7.4502   7.4736   7.5252   7.5417   7.5799   7.6147   7.6571
  7.6713   7.7041   7.7688   7.7974   7.8168   7.8530   7.8728   7.9023
  7.9724   8.0474   8.1339   8.1773  24.6188  24.7089  24.7825  24.8415
 25.0224  50.4464  50.5047  50.5419  50.5812  50.6104  50.6285  50.6332
 50.7600
 --------------------------------------------------------------
 
          Ground-State Mulliken Net Atomic Charges

     Atom                 Charge (a.u.)    Spin (a.u.)
  --------------------------------------------------------
      1 C                    -0.179411      -0.000603
      2 O                    -0.395814       0.007246
      3 C                     0.431848       0.003894
      4 O                    -0.405117       0.006607
      5 C                    -0.575309       0.003027
      6 C                    -0.044074      -0.005571
      7 O                    -0.098837      -0.000107
      8 O                    -0.313750      -0.000057
      9 C                    -0.315616      -0.000725
     10 O                    -0.403790       0.000292
     11 O                    -0.451718       0.000012
     12 H                     0.332480       0.000452
     13 H                     0.340758      -0.000987
     14 H                     0.228280      -0.001077
     15 H                     0.296028       0.001317
     16 H                     0.335241       0.001053
     17 H                     0.359266       0.000001
     18 H                     0.295622      -0.000102
     19 H                     0.343313       0.000032
     20 H                     0.346567      -0.000041
     21 O                     0.079327       0.305229
     22 O                    -0.205293       0.680106
  --------------------------------------------------------
  Sum of atomic charges =    -0.000000
  Sum of spin   charges =     1.000000

 -----------------------------------------------------------------
                    Cartesian Multipole Moments
 -----------------------------------------------------------------
    Charge (ESU x 10^10)
                -0.0000
    Dipole Moment (Debye)
         X       0.2084      Y       1.7008      Z      -4.9033
       Tot       5.1941
    Quadrupole Moments (Debye-Ang)
        XX     -65.0712     XY       1.2166     YY     -88.0755
        XZ       0.9060     YZ     -13.4981     ZZ     -84.5265
    Octopole Moments (Debye-Ang^2)
       XXX    -654.0251    XXY     -91.1112    XYY    -326.6033
       YYY    -427.9181    XXZ      21.7781    XYZ     -45.2371
       YYZ     -94.6456    XZZ    -295.8765    YZZ    -148.7486
       ZZZ    -111.9151
    Hexadecapole Moments (Debye-Ang^3)
      XXXX   -5098.5403   XXXY   -1132.4491   XXYY   -1748.4285
      XYYY   -1891.3057   YYYY   -3200.8862   XXXZ      64.2723
      XXYZ    -271.0777   XYYZ    -336.9999   YYYZ    -772.8066
      XXZZ   -1294.5425   XYZZ    -587.2472   YYZZ    -731.7511
      XZZZ    -304.5588   YZZZ    -480.1133   ZZZZ    -772.1255
 -----------------------------------------------------------------
 Calculating analytic gradient of the SCF energy
 Gradient of CDS energy
            1           2           3           4           5           6
    1  -0.0048182   0.0045784  -0.0011227   0.0008510   0.0002638   0.0000155
    2  -0.0018766   0.0018418  -0.0006280   0.0003476  -0.0001219   0.0000382
    3  -0.0006539   0.0004133   0.0014067  -0.0008918   0.0000243   0.0000763
            7           8           9          10          11          12
    1   0.0001026   0.0002703   0.0009690  -0.0012736   0.0001302   0.0002876
    2   0.0001169  -0.0001407   0.0021085   0.0005687  -0.0027033   0.0000415
    3  -0.0000409   0.0001680  -0.0011221   0.0015028  -0.0000916  -0.0000177
           13          14          15          16          17          18
    1  -0.0003745   0.0000299   0.0000135   0.0000033  -0.0004871  -0.0000408
    2  -0.0000855   0.0000178   0.0000814   0.0000155   0.0000648  -0.0000742
    3  -0.0002823  -0.0001409   0.0001914  -0.0000811  -0.0001171   0.0001674
           19          20          21          22
    1   0.0004618   0.0000005   0.0001063   0.0000334
    2  -0.0000578   0.0004309   0.0000561  -0.0000419
    3  -0.0002261  -0.0002548  -0.0000356   0.0000057
 Gradient of SCF Energy
            1           2           3           4           5           6
    1   0.0053307   0.0025581   0.0059578  -0.0046996  -0.0191788   0.0098370
    2  -0.0186582  -0.0056320   0.0071090  -0.0030373   0.0050360  -0.0059214
    3   0.0101878   0.0256184  -0.0064016   0.0043211  -0.0028853   0.0228076
            7           8           9          10          11          12
    1   0.0007260   0.0141011  -0.0048311  -0.0119155   0.0044998  -0.0011689
    2  -0.0014050   0.0091123   0.0040363  -0.0036101   0.0019263   0.0172274
    3   0.0027756   0.0108221  -0.0116002  -0.0054018   0.0122415  -0.0113687
           13          14          15          16          17          18
    1  -0.0056080   0.0063837   0.0037707  -0.0072635  -0.0132137   0.0052938
    2   0.0039716  -0.0034101  -0.0003166   0.0039586  -0.0078363  -0.0048306
    3  -0.0218750  -0.0053321   0.0058810  -0.0164658  -0.0114316   0.0058959
           19          20          21          22
    1   0.0137254  -0.0057478  -0.0017835   0.0032265
    2   0.0022198   0.0003284  -0.0003069   0.0000386
    3   0.0038595  -0.0107369   0.0020541  -0.0029658
 Max gradient component =       2.562E-02
 RMS gradient           =       9.216E-03
 Computing fast CPCM-SWIG gradient
 Updating gradient with PCM contributions...
 -- total gradient after adding PCM contribution --
---------------------------------------------------
  Atom         X              Y              Z     
---------------------------------------------------
   1       0.000727       0.000332       0.000004
   2      -0.000368      -0.000120      -0.000060
   3      -0.000160      -0.000062      -0.000076
   4       0.000002      -0.000011       0.000044
   5      -0.000016       0.000008      -0.000053
   6       0.000033      -0.000015      -0.000012
   7      -0.000053      -0.000007       0.000027
   8       0.000014      -0.000001       0.000000
   9      -0.000027      -0.000007      -0.000009
  10       0.000015       0.000017       0.000006
  11       0.000025      -0.000011       0.000019
  12      -0.000079      -0.000074       0.000014
  13      -0.000053      -0.000003      -0.000010
  14      -0.000010      -0.000009       0.000000
  15      -0.000011      -0.000009       0.000004
  16      -0.000004       0.000007      -0.000004
  17       0.000006      -0.000007      -0.000008
  18       0.000006       0.000007       0.000002
  19       0.000016      -0.000026       0.000012
  20       0.000007      -0.000009       0.000007
  21      -0.000015      -0.000022       0.000069
  22      -0.000054       0.000023       0.000025
---------------------------------------------------
 Number of fixed atoms: 0
 Gradient time:  CPU 590.01 s  wall 50.12 s
 ----------------------------------------------------------------
             Standard Nuclear Orientation (Angstroms)
    I     Atom           X                Y                Z
 ----------------------------------------------------------------
    1      C       2.3501776409     0.0289440262    -0.6945353336
    2      O       1.1092619660    -0.5350181823    -0.7988777250
    3      C       2.6799824766     0.3034764829     0.7818966638
    4      O       1.9107701922    -0.0504312223     1.6426012912
    5      C       3.9628745399     1.0279991632     1.0657731743
    6      C       3.7951547523     2.5282739688     0.8399585310
    7      O       2.8791174992     2.9692998722     1.8415757093
    8      O       2.1956096385     4.1318074613     1.3743381791
    9      C       5.1348406484     3.2495951546     0.9675595709
   10      O       5.8963330706     2.8582081230    -0.1509005260
   11      O       4.9846129021     4.6464247776     1.0319744338
   12      H       2.5079357364     0.9033142434    -1.3241656053
   13      H       0.8067275421    -0.4663214119    -1.7131342178
   14      H       4.7530072531     0.6693912781     0.4084559076
   15      H       4.2478733531     0.8434419318     2.1008351934
   16      H       3.3698703044     2.7403255974    -0.1439104822
   17      H       1.3864524473     3.7504403306     1.0012457914
   18      H       5.6337511546     2.9667306199     1.8952457371
   19      H       6.8164578918     3.0950577540     0.0123610228
   20      H       4.4150526876     4.9303125955     0.3055430796
   21      O       3.3443645053    -0.9713116182    -1.1427842274
   22      O       4.2552564978    -0.4578796460    -1.9184239683
 ----------------------------------------------------------------
 Nuclear Repulsion Energy =         891.51646047 hartrees
 There are       52 alpha and       51 beta electrons
 Discretize the solute cavity surface with Lebedev spheres
	Using 110 Lebedev grid points for each H atom
	Using 194 Lebedev grid points for other atoms
	Atomic van der Waals radii will be scaled by 1.20
 Remove points where switching function is < 1.0e-08
 Keep 1800 surface tesserae and discard 1712 interior tesserae
 Molecular Surface Area = 200.722 Angst**2
 Requested basis set is 6-311++G(2df,2p)
 There are 158 shells and 532 basis functions
 A cutoff of  1.0D-12 yielded  10326 shell pairs
 There are    113958 function pairs (    141299 Cartesian)
 Smallest overlap matrix eigenvalue = 6.07E-06
 Guess MOs from SCF MO coefficient file

 -----------------------------------------------------------------------
  General SCF calculation program by
  Eric Jon Sundstrom, Paul Horn, Yuezhi Mao, Dmitri Zuev, Alec White,
  David Stuck, Shaama M.S., Shane Yost, Joonho Lee, David Small,
  Daniel Levine, Susi Lehtola, Hugh Burton, Evgeny Epifanovsky,
  Bang C. Huynh
 -----------------------------------------------------------------------
 Exchange:     0.1500 Hartree-Fock + 1.0000 wB97M-V + LR-HF
 Correlation:  1.0000 wB97M-V
 Using SG-2 standard quadrature grid
 Nonlocal Correlation:  VV10 with C = 0.0100 and b = 6.00 and scale = 1.00000
 Grid used for NLC:  SG-1 standard quadrature
 
 Citation of the SMD model:
 Marenich, A.V.; Cramer, C.J.; Truhlar, D.G.
 J. Phys. Chem. B 2009, 113, 6378-6396.
 iSolventCode=           1
 Solvent: water                                                           
 
 vradii
            1           2           3           4           5           6
    1   1.8500000   1.5200000   1.8500000   1.5200000   1.8500000   1.8500000
            7           8           9          10          11          12
    1   1.5200000   1.5200000   1.8500000   1.5200000   1.5200000   1.2000000
           13          14          15          16          17          18
    1   1.2000000   1.2000000   1.2000000   1.2000000   1.2000000   1.2000000
           19          20          21          22
    1   1.2000000   1.2000000   1.5200000   1.5200000
 -------------------------------------------------------
 OpenMP BLAS3 based DFT computing Module                
 Release: version 1.0, May 2013, Q-Chem Inc. Pittsburgh 
 -------------------------------------------------------
 A unrestricted SCF calculation will be
 performed using Roothaan-Hall, DIIS, GDM
 SCF converges when RMS gradient is below 1.0e-07
 ---------------------------------------
  Cycle       Energy         DIIS error
 ---------------------------------------
    1    -797.5110319602      2.41e-04  Roothaan Step
 ---------------------------------------
  Cycle       Energy         DIIS error
 ---------------------------------------
    1    -797.5652722627      2.90e-04  
    2    -797.5733330643      2.93e-04  Done DIIS. Switching to GDM
 ---------------------------------------
  Cycle       Energy        RMS Gradient
 ---------------------------------------
    1    -797.5733330643      2.49e-02   Normal BFGS step
    2    -797.5691044533      3.84e-02  Line search: overstep
    3    -797.5812619190      3.05e-03   Normal BFGS step
    4    -797.5815883251      1.28e-03   Normal BFGS step
    5    -797.5816456131      1.78e-03   Normal BFGS step
    6    -797.5816620294      5.14e-04   Normal BFGS step
    7    -797.5816628042      5.18e-04   Normal BFGS step
    8    -797.5816636777      7.42e-05   Normal BFGS step
    9    -797.5816637206      5.39e-05   Normal BFGS step
   10    -797.5816637415      3.02e-05   Normal BFGS step
   11    -797.5816637490      2.22e-05   Normal BFGS step
   12    -797.5816637511      1.66e-05   Normal BFGS step
   13    -797.5816637524      1.19e-05   Normal BFGS step
   14    -797.5816637532      8.71e-06   Normal BFGS step
   15    -797.5816637539      4.48e-06   Normal BFGS step
   16    -797.5816637542      1.47e-06   Normal BFGS step
   17    -797.5816637542      9.29e-07   Normal BFGS step
   18    -797.5816637543      4.67e-07   Normal BFGS step
   19    -797.5816637543      2.82e-07   Normal BFGS step
   20    -797.5816637543      7.90e-08  Convergence criterion met
 ---------------------------------------
 SCF time:   CPU 4631.99s  wall 324.00s 
<S^2> =          0.754066074
(3)  G-ENP(liq) elect-nuc-pol free energy of system     -797.581663754 a.u.
(4)  G-CDS(liq) cavity-dispersion-solvent structure 
     free energy                                                4.6822 kcal/mol
(6)  G-S(liq) free energy of system                     -797.574202267 a.u.
 SCF   energy in the final basis set =     -797.5742022674
 Total energy in the final basis set =     -797.5742022674
 
 --------------------------------------------------------------
 
                    Orbital Energies (a.u.)
 --------------------------------------------------------------
 
 Alpha MOs
 -- Occupied --
-19.4701 -19.4253 -19.4061 -19.3971 -19.3719 -19.3572 -19.3475 -19.3458
-10.4719 -10.4620 -10.4478 -10.4129 -10.3583  -1.3527  -1.2734  -1.2210
 -1.2031  -1.1945  -1.1366  -1.0578  -1.0142  -0.9201  -0.8504  -0.8130
 -0.7435  -0.7014  -0.6890  -0.6838  -0.6608  -0.6464  -0.6399  -0.6239
 -0.6001  -0.5880  -0.5790  -0.5712  -0.5638  -0.5512  -0.5366  -0.5243
 -0.5035  -0.4926  -0.4631  -0.4607  -0.4582  -0.4350  -0.4216  -0.4184
 -0.4081  -0.4038  -0.3928  -0.3735
 -- Virtual --
  0.0267   0.0284   0.0360   0.0412   0.0468   0.0595   0.0638   0.0664
  0.0764   0.0920   0.0953   0.1011   0.1065   0.1143   0.1267   0.1297
  0.1366   0.1432   0.1516   0.1535   0.1545   0.1619   0.1668   0.1675
  0.1744   0.1772   0.1857   0.1904   0.1994   0.2028   0.2114   0.2198
  0.2290   0.2395   0.2438   0.2541   0.2628   0.2649   0.2660   0.2734
  0.2760   0.2835   0.2919   0.2969   0.2988   0.3049   0.3085   0.3195
  0.3232   0.3284   0.3299   0.3362   0.3401   0.3451   0.3480   0.3500
  0.3558   0.3650   0.3726   0.3742   0.3764   0.3797   0.3851   0.3884
  0.3936   0.3988   0.4072   0.4088   0.4173   0.4234   0.4303   0.4360
  0.4421   0.4471   0.4553   0.4657   0.4729   0.4795   0.4906   0.4934
  0.4969   0.5038   0.5537   0.5688   0.5791   0.5968   0.6123   0.6259
  0.6290   0.6418   0.6480   0.6567   0.6646   0.6731   0.6766   0.6870
  0.7043   0.7106   0.7191   0.7224   0.7395   0.7446   0.7548   0.7674
  0.7738   0.7774   0.7862   0.8218   0.8286   0.8398   0.8729   0.8759
  0.8785   0.9031   0.9293   0.9418   0.9506   0.9598   0.9782   0.9917
  1.0047   1.0172   1.0364   1.0380   1.0484   1.0764   1.0863   1.0951
  1.0987   1.1177   1.1233   1.1400   1.1454   1.1544   1.1579   1.1713
  1.1742   1.1806   1.1844   1.1896   1.2005   1.2055   1.2156   1.2201
  1.2231   1.2416   1.2473   1.2543   1.2604   1.2634   1.2668   1.2757
  1.2888   1.3073   1.3148   1.3190   1.3304   1.3414   1.3491   1.3580
  1.3699   1.3797   1.3829   1.3890   1.4142   1.4387   1.4461   1.4636
  1.4669   1.4862   1.4960   1.5030   1.5174   1.5355   1.5359   1.5450
  1.5595   1.5731   1.5977   1.6069   1.6144   1.6292   1.6396   1.6470
  1.6589   1.6767   1.6792   1.6911   1.7094   1.7245   1.7335   1.7412
  1.7558   1.7639   1.7841   1.8056   1.8307   1.8478   1.8593   1.8863
  1.8879   1.9034   1.9133   1.9353   1.9597   1.9783   2.0006   2.0142
  2.0435   2.0579   2.0751   2.1243   2.1275   2.1643   2.1696   2.2367
  2.2454   2.2757   2.2875   2.3010   2.3181   2.3298   2.3402   2.3903
  2.4067   2.4162   2.4277   2.4449   2.4584   2.4844   2.5032   2.5329
  2.5559   2.6193   2.6598   2.6777   2.6876   2.7182   2.7493   2.7712
  2.7830   2.7994   2.8349   2.8437   2.8789   2.9071   2.9251   2.9597
  2.9686   2.9792   2.9861   3.0074   3.0329   3.0833   3.0964   3.1270
  3.1475   3.1568   3.1791   3.2171   3.2458   3.2606   3.2877   3.3008
  3.3277   3.3772   3.3854   3.4044   3.4143   3.4275   3.4451   3.4561
  3.4639   3.4922   3.4982   3.5367   3.5496   3.5623   3.5791   3.5986
  3.6127   3.6272   3.6630   3.6784   3.6804   3.7153   3.7279   3.7409
  3.7602   3.7633   3.7806   3.7994   3.8180   3.8219   3.8357   3.8434
  3.8565   3.8744   3.8787   3.8809   3.9021   3.9261   3.9481   3.9718
  3.9758   4.0054   4.0134   4.0486   4.0577   4.0776   4.1216   4.1393
  4.1700   4.1918   4.1963   4.2164   4.2315   4.2438   4.2719   4.2787
  4.2902   4.3107   4.3454   4.3694   4.3921   4.4094   4.4183   4.4253
  4.4760   4.4921   4.5218   4.5265   4.5693   4.5902   4.6159   4.6322
  4.6619   4.6881   4.7004   4.7116   4.7406   4.7849   4.8169   4.8331
  4.8357   4.8850   4.9228   4.9843   5.0047   5.0368   5.0723   5.0814
  5.0879   5.1023   5.1593   5.1704   5.1839   5.1975   5.2036   5.2106
  5.2197   5.2324   5.2356   5.2551   5.2732   5.2748   5.2829   5.2886
  5.3135   5.3192   5.3341   5.3395   5.3597   5.3626   5.3691   5.4081
  5.4197   5.4264   5.4493   5.4753   5.4900   5.4956   5.5049   5.5150
  5.5427   5.5548   5.5730   5.6104   5.6189   5.6219   5.6330   5.6404
  5.6505   5.6736   5.6775   5.6892   5.7189   5.7650   5.7886   5.8092
  5.8180   5.8389   5.8563   5.9050   5.9840   6.0280   6.0880   6.1104
  6.1231   6.1487   6.2565   6.3584   6.4248   6.4872   6.5422   6.5923
  6.6402   6.7437   6.7639   6.7821   6.8374   6.8539   6.8653   6.9588
  6.9747   7.0124   7.0152   7.0416   7.0671   7.0746   7.1075   7.1181
  7.1459   7.1618   7.2140   7.2182   7.2623   7.2690   7.2854   7.3122
  7.3201   7.3330   7.3389   7.3580   7.3676   7.3959   7.4012   7.4206
  7.4365   7.4708   7.5020   7.5417   7.5787   7.6145   7.6565   7.6701
  7.7040   7.7626   7.7972   7.8164   7.8517   7.8675   7.9022   7.9723
  8.0332   8.1153   8.1771  24.6189  24.7103  24.7826  24.8415  25.0221
 50.4337  50.5042  50.5332  50.5808  50.6108  50.6286  50.6333  50.7599
 
 Beta MOs
 -- Occupied --
-19.4599 -19.4063 -19.4061 -19.3971 -19.3717 -19.3570 -19.3475 -19.3458
-10.4723 -10.4619 -10.4478 -10.4129 -10.3583  -1.3270  -1.2734  -1.2196
 -1.2031  -1.1935  -1.1366  -1.0578  -0.9828  -0.9180  -0.8455  -0.8092
 -0.7433  -0.6948  -0.6878  -0.6822  -0.6475  -0.6442  -0.6265  -0.6206
 -0.5899  -0.5777  -0.5706  -0.5646  -0.5509  -0.5364  -0.5284  -0.5233
 -0.5012  -0.4907  -0.4628  -0.4582  -0.4535  -0.4349  -0.4188  -0.4102
 -0.4016  -0.3874  -0.3749
 -- Virtual --
 -0.0386   0.0268   0.0315   0.0378   0.0417   0.0474   0.0597   0.0640
  0.0666   0.0766   0.0923   0.0960   0.1021   0.1067   0.1148   0.1268
  0.1305   0.1368   0.1433   0.1518   0.1538   0.1551   0.1626   0.1670
  0.1678   0.1748   0.1806   0.1870   0.1917   0.1994   0.2038   0.2125
  0.2209   0.2323   0.2405   0.2452   0.2557   0.2645   0.2659   0.2685
  0.2744   0.2762   0.2857   0.2928   0.2978   0.2997   0.3063   0.3091
  0.3206   0.3239   0.3286   0.3306   0.3383   0.3409   0.3456   0.3486
  0.3506   0.3573   0.3659   0.3729   0.3748   0.3769   0.3809   0.3856
  0.3898   0.3949   0.3990   0.4075   0.4103   0.4176   0.4238   0.4304
  0.4364   0.4430   0.4474   0.4559   0.4664   0.4731   0.4804   0.4914
  0.4939   0.4974   0.5044   0.5541   0.5688   0.5793   0.5970   0.6124
  0.6262   0.6292   0.6420   0.6483   0.6572   0.6648   0.6738   0.6767
  0.6875   0.7047   0.7111   0.7195   0.7229   0.7396   0.7449   0.7550
  0.7676   0.7742   0.7778   0.7864   0.8224   0.8286   0.8409   0.8736
  0.8770   0.8787   0.9042   0.9298   0.9440   0.9520   0.9601   0.9786
  0.9919   1.0055   1.0183   1.0374   1.0398   1.0499   1.0774   1.0874
  1.0953   1.1008   1.1242   1.1249   1.1418   1.1498   1.1551   1.1585
  1.1728   1.1817   1.1832   1.1884   1.1967   1.2028   1.2077   1.2163
  1.2218   1.2285   1.2432   1.2489   1.2582   1.2631   1.2662   1.2739
  1.2781   1.2910   1.3093   1.3163   1.3214   1.3315   1.3432   1.3527
  1.3592   1.3715   1.3808   1.3857   1.3910   1.4172   1.4394   1.4475
  1.4647   1.4691   1.4902   1.4968   1.5039   1.5190   1.5359   1.5393
  1.5465   1.5611   1.5756   1.5994   1.6102   1.6165   1.6326   1.6440
  1.6512   1.6641   1.6809   1.6891   1.6971   1.7164   1.7270   1.7397
  1.7483   1.7624   1.7683   1.7865   1.8084   1.8333   1.8500   1.8629
  1.8883   1.8900   1.9044   1.9170   1.9375   1.9605   1.9788   2.0022
  2.0150   2.0453   2.0585   2.0781   2.1272   2.1314   2.1690   2.1702
  2.2389   2.2505   2.2786   2.2915   2.3104   2.3253   2.3334   2.3407
  2.3939   2.4071   2.4174   2.4310   2.4461   2.4598   2.4851   2.5046
  2.5339   2.5575   2.6199   2.6671   2.6792   2.6882   2.7189   2.7495
  2.7714   2.7834   2.7998   2.8352   2.8442   2.8790   2.9072   2.9253
  2.9602   2.9689   2.9794   2.9866   3.0074   3.0333   3.0833   3.0966
  3.1271   3.1476   3.1570   3.1793   3.2176   3.2461   3.2609   3.2877
  3.3013   3.3278   3.3773   3.3857   3.4048   3.4147   3.4280   3.4452
  3.4562   3.4639   3.4921   3.4982   3.5367   3.5499   3.5628   3.5793
  3.5987   3.6129   3.6273   3.6631   3.6785   3.6804   3.7156   3.7286
  3.7411   3.7604   3.7636   3.7807   3.7996   3.8186   3.8219   3.8359
  3.8436   3.8568   3.8744   3.8791   3.8812   3.9021   3.9262   3.9482
  3.9719   3.9759   4.0054   4.0136   4.0488   4.0577   4.0777   4.1217
  4.1395   4.1703   4.1919   4.1965   4.2166   4.2321   4.2441   4.2720
  4.2792   4.2906   4.3109   4.3457   4.3700   4.3922   4.4099   4.4186
  4.4263   4.4795   4.4926   4.5220   4.5274   4.5834   4.5942   4.6178
  4.6341   4.6672   4.6949   4.7047   4.7272   4.7410   4.7850   4.8224
  4.8356   4.8531   4.8943   4.9236   4.9962   5.0062   5.0409   5.0755
  5.1308   5.1365   5.1717   5.1771   5.1862   5.1948   5.1987   5.2110
  5.2260   5.2310   5.2386   5.2645   5.2671   5.2758   5.2801   5.2891
  5.2956   5.3220   5.3228   5.3353   5.3439   5.3631   5.3709   5.3798
  5.4115   5.4222   5.4275   5.4628   5.4784   5.4909   5.4997   5.5076
  5.5155   5.5428   5.5554   5.5766   5.6117   5.6190   5.6230   5.6332
  5.6429   5.6554   5.6765   5.6859   5.6917   5.7191   5.7664   5.7970
  5.8104   5.8273   5.8399   5.8600   5.9052   5.9894   6.0280   6.0880
  6.1111   6.1232   6.1487   6.2566   6.3700   6.4290   6.5311   6.5422
  6.6032   6.6403   6.7488   6.7652   6.7905   6.8547   6.9167   6.9448
  6.9770   7.0058   7.0148   7.0246   7.0418   7.0728   7.0752   7.1182
  7.1434   7.1610   7.1664   7.2188   7.2443   7.2627   7.2695   7.2863
  7.3154   7.3207   7.3353   7.3423   7.3646   7.3851   7.4013   7.4164
  7.4248   7.4503   7.4736   7.5253   7.5417   7.5797   7.6147   7.6572
  7.6717   7.7041   7.7689   7.7974   7.8170   7.8530   7.8728   7.9023
  7.9724   8.0474   8.1339   8.1773  24.6189  24.7101  24.7826  24.8415
 25.0222  50.4464  50.5047  50.5418  50.5812  50.6110  50.6286  50.6333
 50.7601
 --------------------------------------------------------------
 
          Ground-State Mulliken Net Atomic Charges

     Atom                 Charge (a.u.)    Spin (a.u.)
  --------------------------------------------------------
      1 C                    -0.178160      -0.000623
      2 O                    -0.394993       0.007182
      3 C                     0.431468       0.003876
      4 O                    -0.405178       0.006607
      5 C                    -0.575405       0.003036
      6 C                    -0.044310      -0.005596
      7 O                    -0.098795      -0.000107
      8 O                    -0.313762      -0.000057
      9 C                    -0.315609      -0.000721
     10 O                    -0.403800       0.000292
     11 O                    -0.451718       0.000012
     12 H                     0.332052       0.000446
     13 H                     0.340881      -0.000988
     14 H                     0.228184      -0.001081
     15 H                     0.296123       0.001314
     16 H                     0.335240       0.001058
     17 H                     0.359265       0.000001
     18 H                     0.295622      -0.000102
     19 H                     0.343312       0.000032
     20 H                     0.346567      -0.000041
     21 O                     0.078799       0.305683
     22 O                    -0.205784       0.679777
  --------------------------------------------------------
  Sum of atomic charges =    -0.000000
  Sum of spin   charges =     1.000000

 -----------------------------------------------------------------
                    Cartesian Multipole Moments
 -----------------------------------------------------------------
    Charge (ESU x 10^10)
                -0.0000
    Dipole Moment (Debye)
         X       0.1912      Y       1.7003      Z      -4.9018
       Tot       5.1919
    Quadrupole Moments (Debye-Ang)
        XX     -65.1501     XY       1.2252     YY     -88.0772
        XZ       0.9313     YZ     -13.4962     ZZ     -84.5357
    Octopole Moments (Debye-Ang^2)
       XXX    -654.3246    XXY     -91.0644    XYY    -326.6129
       YYY    -427.9197    XXZ      21.8968    XYZ     -45.2415
       YYZ     -94.6417    XZZ    -295.9222    YZZ    -148.7492
       ZZZ    -111.9022
    Hexadecapole Moments (Debye-Ang^3)
      XXXX   -5099.6501   XXXY   -1132.2389   XXYY   -1748.4637
      XYYY   -1891.2822   YYYY   -3200.9020   XXXZ      64.7696
      XXYZ    -271.1106   XYYZ    -336.9785   YYYZ    -772.8066
      XXZZ   -1294.7248   XYZZ    -587.2301   YYZZ    -731.7620
      XZZZ    -304.4664   YZZZ    -480.1045   ZZZZ    -772.2013
 -----------------------------------------------------------------
 Calculating analytic gradient of the SCF energy
 Gradient of CDS energy
            1           2           3           4           5           6
    1  -0.0047655   0.0045191  -0.0011218   0.0008524   0.0002637   0.0000155
    2  -0.0018555   0.0018190  -0.0006281   0.0003483  -0.0001219   0.0000382
    3  -0.0006512   0.0004087   0.0014072  -0.0008908   0.0000242   0.0000763
            7           8           9          10          11          12
    1   0.0001026   0.0002703   0.0009690  -0.0012736   0.0001302   0.0002881
    2   0.0001169  -0.0001407   0.0021085   0.0005687  -0.0027033   0.0000413
    3  -0.0000409   0.0001680  -0.0011221   0.0015028  -0.0000916  -0.0000171
           13          14          15          16          17          18
    1  -0.0003718   0.0000299   0.0000135   0.0000034  -0.0004871  -0.0000408
    2  -0.0000850   0.0000178   0.0000814   0.0000155   0.0000648  -0.0000742
    3  -0.0002825  -0.0001409   0.0001914  -0.0000811  -0.0001171   0.0001674
           19          20          21          22
    1   0.0004618   0.0000005   0.0001073   0.0000334
    2  -0.0000578   0.0004309   0.0000569  -0.0000419
    3  -0.0002261  -0.0002548  -0.0000355   0.0000057
 Gradient of SCF Energy
            1           2           3           4           5           6
    1   0.0036628   0.0033537   0.0062558  -0.0047139  -0.0191458   0.0098349
    2  -0.0191507  -0.0053368   0.0071603  -0.0030248   0.0050388  -0.0058998
    3   0.0100852   0.0257501  -0.0062436   0.0042082  -0.0028135   0.0228069
            7           8           9          10          11          12
    1   0.0007264   0.0141056  -0.0048281  -0.0119081   0.0044992  -0.0009409
    2  -0.0014051   0.0091146   0.0040331  -0.0036156   0.0019279   0.0173316
    3   0.0027761   0.0108232  -0.0115960  -0.0054066   0.0122386  -0.0113921
           13          14          15          16          17          18
    1  -0.0055432   0.0063706   0.0037792  -0.0072643  -0.0132194   0.0052899
    2   0.0040055  -0.0034045  -0.0003060   0.0039588  -0.0078397  -0.0048282
    3  -0.0219159  -0.0053156   0.0058752  -0.0164577  -0.0114332   0.0058911
           19          20          21          22
    1   0.0137182  -0.0057465  -0.0016467   0.0033606
    2   0.0022210   0.0003283  -0.0003044  -0.0000043
    3   0.0038606  -0.0107339   0.0020460  -0.0030529
 Max gradient component =       2.575E-02
 RMS gradient           =       9.227E-03
 Computing fast CPCM-SWIG gradient
 Updating gradient with PCM contributions...
 -- total gradient after adding PCM contribution --
---------------------------------------------------
  Atom         X              Y              Z     
---------------------------------------------------
   1      -0.000883      -0.000174      -0.000075
   2       0.000387       0.000161       0.000038
   3       0.000151      -0.000007       0.000089
   4      -0.000016       0.000005      -0.000080
   5      -0.000018       0.000037       0.000030
   6       0.000038      -0.000013      -0.000008
   7      -0.000052      -0.000009       0.000026
   8       0.000014      -0.000002      -0.000000
   9      -0.000027      -0.000006      -0.000010
  10       0.000015       0.000017       0.000006
  11       0.000025      -0.000011       0.000018
  12       0.000111       0.000045      -0.000030
  13       0.000046       0.000036      -0.000012
  14      -0.000008      -0.000012      -0.000001
  15      -0.000001      -0.000000       0.000007
  16      -0.000004       0.000009      -0.000005
  17       0.000006      -0.000007      -0.000008
  18       0.000006       0.000007       0.000002
  19       0.000016      -0.000026       0.000012
  20       0.000007      -0.000009       0.000007
  21       0.000108      -0.000033       0.000062
  22       0.000080      -0.000011      -0.000067
---------------------------------------------------
 Number of fixed atoms: 0
 Gradient time:  CPU 594.57 s  wall 50.90 s
 ----------------------------------------------------------------
             Standard Nuclear Orientation (Angstroms)
    I     Atom           X                Y                Z
 ----------------------------------------------------------------
    1      C       2.3511776409     0.0299440262    -0.6945353336
    2      O       1.1092619660    -0.5350181823    -0.7988777250
    3      C       2.6799824766     0.3034764829     0.7818966638
    4      O       1.9107701922    -0.0504312223     1.6426012912
    5      C       3.9628745399     1.0279991632     1.0657731743
    6      C       3.7951547523     2.5282739688     0.8399585310
    7      O       2.8791174992     2.9692998722     1.8415757093
    8      O       2.1956096385     4.1318074613     1.3743381791
    9      C       5.1348406484     3.2495951546     0.9675595709
   10      O       5.8963330706     2.8582081230    -0.1509005260
   11      O       4.9846129021     4.6464247776     1.0319744338
   12      H       2.5079357364     0.9033142434    -1.3241656053
   13      H       0.8067275421    -0.4663214119    -1.7131342178
   14      H       4.7530072531     0.6693912781     0.4084559076
   15      H       4.2478733531     0.8434419318     2.1008351934
   16      H       3.3698703044     2.7403255974    -0.1439104822
   17      H       1.3864524473     3.7504403306     1.0012457914
[...]
 H         -0.227 -0.249 -0.443   -0.181 -0.139 -0.246   -0.181  0.103  0.020
 H          0.461  0.265 -0.118    0.399  0.226 -0.098    0.385  0.218 -0.098
 H          0.092  0.171  0.011    0.078  0.242 -0.030   -0.123 -0.323  0.034
 H         -0.210 -0.284 -0.020    0.116  0.193  0.034    0.358  0.426 -0.006
 H          0.006 -0.237 -0.091    0.290  0.320 -0.062   -0.316 -0.017  0.228
 H         -0.002  0.006  0.002    0.010 -0.023  0.003   -0.016  0.031 -0.004
 H          0.087 -0.147 -0.121   -0.172  0.225  0.220   -0.135 -0.160 -0.019
 H         -0.077  0.079  0.197    0.078 -0.066 -0.161    0.026 -0.040 -0.107
 H         -0.024 -0.225 -0.067    0.041  0.391  0.114   -0.024 -0.200 -0.056
 O         -0.007  0.007 -0.001   -0.006  0.003  0.001    0.093  0.030 -0.069
 O          0.003  0.001 -0.003    0.004  0.001 -0.004   -0.086 -0.044  0.073
 TransDip   0.326  0.018 -0.096    0.039  0.300  0.060    0.097 -0.158 -0.129

 Mode:                40                     41                     42
 Frequency:      1274.81                1296.21                1322.50
 Force Cnst:      4.3430                 2.4316                 1.2954
 Red. Mass:       4.5357                 2.4564                 1.2571
 IR Active:          YES                    YES                    YES
 IR Intens:       46.021                205.089                 24.952
 Raman Active:       YES                    YES                    YES
               X      Y      Z        X      Y      Z        X      Y      Z
 C          0.001 -0.047  0.006    0.020  0.024 -0.004   -0.056  0.007  0.070
 O         -0.005  0.020 -0.024   -0.012 -0.009  0.009    0.002 -0.014 -0.005
 C          0.067  0.068  0.085   -0.027 -0.035 -0.037   -0.000 -0.011 -0.007
 O         -0.020 -0.015 -0.003    0.004  0.006  0.006    0.009  0.006 -0.011
 C         -0.003 -0.016 -0.017    0.027  0.059 -0.004   -0.032 -0.046  0.001
 C         -0.047  0.009 -0.068   -0.055  0.005 -0.027    0.040 -0.000  0.014
 O          0.000 -0.006  0.035    0.017 -0.001 -0.001   -0.003  0.003 -0.006
 O          0.002  0.003 -0.005   -0.001  0.003 -0.000   -0.001 -0.003  0.001
 C         -0.008  0.006  0.058   -0.057  0.230  0.132   -0.012  0.054 -0.013
 O          0.011 -0.010 -0.034    0.033 -0.043 -0.101   -0.000 -0.005 -0.005
 O         -0.004 -0.021 -0.011    0.029 -0.136  0.019    0.009 -0.019  0.010
 H          0.015 -0.042  0.010   -0.013  0.068  0.048    0.720 -0.428 -0.337
 H         -0.305 -0.169  0.065    0.075  0.043 -0.018   -0.085 -0.031  0.023
 H          0.108  0.253 -0.028   -0.129 -0.342  0.028    0.029  0.142 -0.026
 H         -0.340 -0.419  0.002    0.036 -0.070 -0.030    0.088  0.256  0.021
 H          0.283 -0.000 -0.219   -0.179 -0.404 -0.063   -0.087  0.013  0.073
 H          0.016 -0.033  0.004    0.007 -0.019  0.005   -0.013  0.029 -0.004
 H          0.171  0.201  0.019    0.237  0.505  0.057   -0.104 -0.023  0.013
 H         -0.027  0.043  0.116   -0.074  0.108  0.331   -0.009  0.008  0.027
 H          0.027  0.205  0.059    0.009 -0.288 -0.023   -0.014 -0.175 -0.036
 O          0.230  0.138 -0.195   -0.006 -0.013  0.009   -0.005  0.053 -0.020
 O         -0.218 -0.127  0.187    0.006  0.006 -0.006    0.000 -0.010  0.002
 TransDip  -0.123  0.022  0.178   -0.220  0.319  0.245   -0.135  0.002  0.085

 Mode:                43                     44                     45
 Frequency:      1333.63                1359.11                1391.32
 Force Cnst:      1.7069                 1.3574                 1.6530
 Red. Mass:       1.6288                 1.2472                 1.4493
 IR Active:          YES                    YES                    YES
 IR Intens:       56.536                  5.616                 20.085
 Raman Active:       YES                    YES                    YES
               X      Y      Z        X      Y      Z        X      Y      Z
 C          0.023 -0.025 -0.024    0.008 -0.000  0.003   -0.020 -0.006 -0.016
 O          0.009  0.018 -0.015   -0.001  0.001 -0.003    0.002 -0.002  0.009
 C          0.037  0.058  0.057   -0.007  0.007 -0.005    0.004 -0.005  0.004
 O         -0.001 -0.007 -0.010    0.008  0.002 -0.005   -0.005 -0.001  0.003
 C         -0.066 -0.114 -0.014   -0.009 -0.059 -0.023    0.023  0.065  0.019
 C          0.079 -0.029  0.001   -0.061  0.072  0.050   -0.047 -0.103  0.011
 O         -0.007  0.007 -0.008   -0.003 -0.008  0.026    0.011  0.001 -0.006
 O         -0.002 -0.007  0.002    0.007  0.012 -0.002   -0.003  0.005  0.001
 C         -0.022  0.122 -0.032   -0.023  0.028 -0.044   -0.088  0.078 -0.054
 O         -0.003 -0.011 -0.007    0.008  0.007  0.027    0.020  0.005  0.036
 O          0.021 -0.039  0.023    0.006 -0.009  0.008    0.026 -0.011  0.024
 H         -0.432  0.189  0.162   -0.040  0.042  0.050    0.077 -0.019 -0.015
 H         -0.120 -0.079  0.024   -0.033 -0.020  0.007    0.095  0.053 -0.020
 H          0.147  0.514 -0.096   -0.036 -0.044 -0.058   -0.020 -0.110  0.063
 H         -0.080  0.295  0.061    0.037  0.373  0.039   -0.003 -0.295 -0.036
 H         -0.156  0.184  0.149    0.612 -0.432 -0.358    0.356  0.607 -0.023
 H         -0.034  0.078 -0.016    0.085 -0.203  0.057    0.005 -0.013  0.000
 H         -0.187 -0.041  0.005    0.017 -0.109 -0.113    0.155 -0.082 -0.249
 H         -0.024  0.022  0.070    0.054 -0.056 -0.166    0.093 -0.100 -0.267
 H         -0.030 -0.381 -0.078   -0.011 -0.150 -0.037   -0.025 -0.387 -0.095
 O          0.005 -0.022  0.005    0.001 -0.003  0.000   -0.000  0.004 -0.000
 O         -0.003  0.002  0.001   -0.001  0.000  0.001    0.000 -0.001  0.000
 TransDip   0.067  0.224  0.058   -0.014  0.021 -0.072   -0.075 -0.092 -0.081

 Mode:                46                     47                     48
 Frequency:      1416.27                1437.48                1452.60
 Force Cnst:      1.3338                 1.6040                 1.5822
 Red. Mass:       1.1287                 1.3175                 1.2727
 IR Active:          YES                    YES                    YES
 IR Intens:      105.883                 56.504                 25.056
 Raman Active:       YES                    YES                    YES
               X      Y      Z        X      Y      Z        X      Y      Z
 C          0.001  0.001  0.000   -0.010 -0.004 -0.013    0.075  0.025  0.099
 O         -0.000 -0.000 -0.000    0.000 -0.002  0.005    0.000  0.016 -0.039
 C         -0.002 -0.001 -0.003    0.001  0.003  0.000   -0.027 -0.013 -0.023
 O          0.001  0.000 -0.000   -0.001 -0.001  0.001    0.007  0.004 -0.002
 C          0.002 -0.005 -0.002    0.011  0.012  0.002   -0.058  0.009 -0.015
 C         -0.019  0.022  0.013   -0.040 -0.011  0.014   -0.004  0.008  0.002
 O          0.056 -0.010  0.025    0.004 -0.003  0.006    0.002 -0.002  0.001
 O         -0.024 -0.051 -0.010   -0.002 -0.003 -0.001   -0.000 -0.001 -0.000
 C         -0.015 -0.002  0.004    0.076 -0.063 -0.107   -0.011 -0.009 -0.008
 O          0.006  0.001  0.003   -0.031  0.008 -0.003    0.002  0.002  0.002
 O         -0.001  0.001 -0.002    0.017  0.014  0.040    0.004  0.003  0.005
 H         -0.002  0.005  0.006    0.045  0.022  0.034   -0.359 -0.193 -0.288
 H         -0.002 -0.001  0.000    0.049  0.027 -0.010   -0.342 -0.191  0.070
 H         -0.019 -0.019 -0.018   -0.010 -0.042  0.007    0.297 -0.058  0.436
 H         -0.008  0.044  0.010   -0.008 -0.037 -0.002    0.471 -0.143 -0.183
 H          0.123 -0.091 -0.068    0.196  0.088 -0.073    0.041  0.004 -0.022
 H         -0.366  0.871 -0.243   -0.024  0.057 -0.017   -0.004  0.010 -0.003
 H          0.052 -0.038 -0.045   -0.400  0.679  0.384    0.011  0.079  0.005
 H          0.019 -0.017 -0.052   -0.070  0.052  0.176    0.009 -0.011 -0.026
 H          0.005  0.009 -0.003   -0.041 -0.310 -0.047   -0.005 -0.051 -0.011
 O          0.000 -0.000  0.000    0.001  0.001  0.000   -0.005 -0.002 -0.005
 O         -0.000  0.000  0.000   -0.000 -0.000  0.000    0.001  0.000 -0.002
 TransDip  -0.187  0.249 -0.109    0.080 -0.190 -0.124    0.051 -0.145  0.045

 Mode:                49                     50                     51
 Frequency:      1467.65                1475.47                1797.78
 Force Cnst:      1.8046                 2.2110                22.4716
 Red. Mass:       1.4219                 1.7238                11.8008
 IR Active:          YES                    YES                    YES
 IR Intens:       67.160                 44.969                466.771
 Raman Active:       YES                    YES                    YES
               X      Y      Z        X      Y      Z        X      Y      Z
 C         -0.064 -0.029 -0.083    0.043  0.017  0.059    0.010  0.011 -0.040
 O          0.002 -0.010  0.029   -0.001  0.008 -0.019    0.006  0.002  0.014
 C          0.027  0.045  0.045   -0.026 -0.028 -0.037   -0.513 -0.239  0.543
 O         -0.000 -0.004 -0.008    0.001  0.002  0.006    0.329  0.151 -0.364
 C         -0.074 -0.008 -0.033    0.055  0.033  0.019    0.056  0.018 -0.022
 C         -0.036 -0.014  0.009   -0.076 -0.072  0.028   -0.004  0.018 -0.004
 O          0.006 -0.001  0.002    0.011  0.001 -0.005    0.002 -0.001  0.001
 O         -0.000 -0.001 -0.000   -0.002  0.000  0.001    0.001 -0.002 -0.001
 C          0.076  0.063  0.006    0.148  0.113 -0.008    0.008 -0.002 -0.001
 O         -0.015 -0.008 -0.009   -0.031 -0.013 -0.013   -0.002 -0.000  0.001
 O         -0.013 -0.021 -0.015   -0.021 -0.036 -0.023   -0.002 -0.003 -0.001
 H          0.272  0.170  0.259   -0.190 -0.124 -0.183   -0.057 -0.027 -0.098
 H          0.257  0.143 -0.053   -0.171 -0.095  0.036    0.096  0.063 -0.008
 H          0.325 -0.012  0.440   -0.191 -0.098 -0.199    0.119  0.143  0.010
 H          0.402 -0.142 -0.182   -0.177  0.048  0.086   -0.182 -0.131  0.042
 H          0.108 -0.039 -0.061    0.225  0.217 -0.046    0.004  0.005 -0.019
 H         -0.008  0.021 -0.007   -0.008  0.021 -0.009    0.000  0.002  0.001
 H         -0.184 -0.280  0.050   -0.394 -0.489  0.118   -0.004 -0.002  0.007
 H         -0.060  0.061  0.165   -0.113  0.112  0.308   -0.004  0.001  0.007
 H          0.011  0.146  0.037    0.016  0.229  0.059    0.004  0.013  0.002
 O          0.004 -0.000  0.002   -0.003  0.001 -0.002    0.005 -0.005 -0.006
 O         -0.001 -0.001  0.000    0.001  0.000 -0.000   -0.003 -0.001  0.003
 TransDip   0.132  0.197  0.112   -0.029  0.210  0.033   -0.453 -0.239  0.465

 Mode:                52                     53                     54
 Frequency:      3073.07                3092.82                3095.85
 Force Cnst:      6.0331                 6.0604                 6.0557
 Red. Mass:       1.0843                 1.0753                 1.0724
 IR Active:          YES                    YES                    YES
 IR Intens:        3.042                 17.691                 45.117
 Raman Active:       YES                    YES                    YES
               X      Y      Z        X      Y      Z        X      Y      Z
 C         -0.000 -0.003  0.002    0.000 -0.001  0.000   -0.000 -0.002  0.002
 O          0.000  0.000 -0.000    0.000  0.000  0.000   -0.000  0.000 -0.000
 C         -0.001 -0.000  0.000   -0.001 -0.000  0.000    0.001  0.000 -0.000
 O          0.000  0.000 -0.000    0.000 -0.000 -0.000    0.000  0.000  0.000
 C          0.007 -0.004  0.010    0.036 -0.018  0.024   -0.041  0.020 -0.022
 C         -0.033  0.016 -0.070   -0.003  0.002 -0.009   -0.010  0.005 -0.022
 O          0.000 -0.000 -0.001   -0.000  0.000  0.000   -0.000 -0.000 -0.000
 O          0.000 -0.000  0.000    0.000 -0.000  0.000    0.000 -0.000  0.000
 C          0.012 -0.005  0.020   -0.030  0.016 -0.052   -0.025  0.014 -0.044
 O         -0.000 -0.000  0.000    0.001  0.000  0.000    0.000 -0.000  0.000
 O         -0.000 -0.000 -0.000    0.001  0.000  0.001    0.001  0.000  0.001
 H          0.006  0.034 -0.028    0.001  0.006 -0.005    0.004  0.025 -0.019
 H         -0.000  0.000  0.000    0.000  0.000  0.000   -0.000 -0.000 -0.000
 H         -0.036  0.019  0.033   -0.281  0.128  0.241    0.331 -0.149 -0.284
 H         -0.038  0.019 -0.141   -0.140  0.089 -0.520    0.145 -0.097  0.542
 H          0.374 -0.179  0.843    0.050 -0.019  0.106    0.122 -0.056  0.266
 H          0.006 -0.002  0.001    0.001 -0.000  0.000    0.002 -0.001  0.001
 H         -0.134  0.076 -0.245    0.341 -0.189  0.614    0.286 -0.156  0.512
 H         -0.001  0.001  0.003   -0.001 -0.004 -0.003   -0.002 -0.004 -0.002
 H          0.004 -0.004  0.006   -0.008 -0.002 -0.011   -0.007 -0.003 -0.009
 O         -0.000 -0.000  0.000   -0.000 -0.000 -0.000    0.000  0.000  0.000
 O          0.000  0.000 -0.000   -0.000 -0.000 -0.000    0.000  0.000  0.000
 TransDip   0.015 -0.012 -0.052   -0.039  0.037 -0.123   -0.035  0.062 -0.203

 Mode:                55                     56                     57
 Frequency:      3127.58                3153.45                3754.19
 Force Cnst:      6.2644                 6.4713                 8.8730
 Red. Mass:       1.0870                 1.1045                 1.0685
 IR Active:          YES                    YES                    YES
 IR Intens:        6.972                  2.316                117.518
 Raman Active:       YES                    YES                    YES
               X      Y      Z        X      Y      Z        X      Y      Z
 C         -0.012 -0.067  0.051   -0.001 -0.001  0.001    0.000  0.000  0.000
 O          0.000  0.001 -0.001    0.000  0.000 -0.000    0.000 -0.000  0.000
 C         -0.000  0.000 -0.000   -0.001 -0.001  0.001    0.000  0.000 -0.000
 O          0.000 -0.000 -0.001    0.000  0.001 -0.001   -0.000 -0.000  0.000
 C          0.002 -0.001 -0.001   -0.034  0.014  0.086    0.000 -0.000 -0.000
 C          0.002 -0.001  0.004    0.001 -0.001  0.005   -0.000 -0.000  0.001
 O          0.000  0.000  0.000    0.000 -0.000 -0.000    0.001 -0.001  0.000
 O         -0.000 -0.000 -0.000    0.000 -0.000 -0.000   -0.053 -0.025 -0.024
 C          0.001 -0.000  0.001    0.000 -0.000  0.001   -0.000 -0.000 -0.000
 O         -0.000  0.000 -0.000   -0.000 -0.000  0.000   -0.000 -0.000 -0.000
 O         -0.000 -0.000 -0.000    0.000 -0.000 -0.000   -0.000  0.000 -0.000
 H          0.136  0.793 -0.585    0.002  0.014 -0.011   -0.000 -0.000  0.000
 H         -0.004 -0.000  0.006    0.000  0.000  0.000   -0.000  0.000 -0.001
 H         -0.017  0.008  0.015    0.579 -0.264 -0.480    0.000 -0.001 -0.000
 H          0.002  0.000  0.003   -0.160  0.104 -0.562   -0.000  0.000 -0.000
 H         -0.022  0.009 -0.047   -0.022  0.014 -0.050   -0.003  0.002 -0.003
 H         -0.000  0.000 -0.000   -0.001  0.000 -0.000    0.830  0.403  0.380
 H         -0.006  0.003 -0.010   -0.007  0.003 -0.012    0.000 -0.000  0.000
 H          0.000  0.000 -0.000   -0.000 -0.001 -0.000    0.001  0.000  0.000
 H          0.000  0.000  0.000    0.000  0.000  0.000    0.002 -0.002  0.003
 O         -0.000 -0.001  0.000    0.000  0.000  0.000    0.000 -0.000 -0.000
 O          0.000  0.000 -0.000    0.000  0.000  0.000    0.000 -0.000  0.000
 TransDip  -0.044 -0.065 -0.031    0.033 -0.007  0.036    0.325  0.041  0.116

 Mode:                58                     59                     60
 Frequency:      3796.28                3808.60                3821.88
 Force Cnst:      9.0526                 9.1140                 9.1799
 Red. Mass:       1.0661                 1.0664                 1.0667
 IR Active:          YES                    YES                    YES
 IR Intens:      115.572                205.563                142.040
 Raman Active:       YES                    YES                    YES
               X      Y      Z        X      Y      Z        X      Y      Z
 C         -0.000  0.000  0.000   -0.000  0.001 -0.001   -0.000 -0.000  0.000
 O          0.000 -0.000  0.000   -0.021  0.004 -0.059    0.000 -0.000  0.000
 C          0.000  0.000  0.000    0.000  0.000  0.000   -0.000 -0.000 -0.000
 O         -0.000 -0.000  0.000   -0.000 -0.000  0.000    0.000  0.000 -0.000
 C         -0.000 -0.000  0.000   -0.000  0.000  0.000    0.000  0.000  0.000
 C          0.000 -0.000  0.000    0.000 -0.000  0.000    0.000 -0.000 -0.000
 O         -0.000  0.000 -0.000   -0.000  0.000  0.000    0.000 -0.000 -0.000
 O          0.000  0.000  0.000   -0.000 -0.000 -0.000    0.000  0.000  0.000
 C         -0.002  0.000 -0.002   -0.000 -0.000  0.000   -0.001 -0.000 -0.001
 O         -0.002 -0.001 -0.000   -0.000 -0.000 -0.000   -0.060 -0.014 -0.009
 O         -0.037  0.020 -0.046   -0.000  0.000 -0.000    0.001 -0.001  0.001
 H         -0.000 -0.000 -0.000    0.004 -0.002  0.005   -0.000  0.000 -0.000
 H         -0.001  0.000 -0.002    0.326 -0.068  0.941   -0.001  0.000 -0.002
 H          0.000  0.000 -0.000   -0.000 -0.000 -0.000    0.000 -0.000 -0.000
 H         -0.000 -0.000 -0.000    0.000  0.000  0.001   -0.000  0.000 -0.000
 H          0.000  0.002 -0.002   -0.000 -0.000  0.000    0.001  0.000  0.001
 H         -0.004 -0.002 -0.001    0.001  0.000  0.000   -0.001 -0.001 -0.000
 H          0.008 -0.005  0.013    0.000 -0.000  0.000    0.005 -0.001 -0.000
 H          0.033  0.009  0.005    0.002  0.000  0.000    0.955  0.238  0.160
 H          0.588 -0.307  0.745    0.002 -0.001  0.002   -0.021  0.011 -0.025
 O          0.000 -0.000  0.000    0.000 -0.000 -0.000   -0.000  0.000  0.000
 O          0.000 -0.000  0.000    0.000 -0.000 -0.000   -0.000 -0.000 -0.000
 TransDip   0.202 -0.182  0.211    0.265  0.014  0.375    0.378  0.053 -0.014

 STANDARD THERMODYNAMIC QUANTITIES AT   298.15 K  AND     1.00 ATM

   This Molecule has  0 Imaginary Frequencies
   Zero point vibrational energy:      101.421 kcal/mol

   Atom    1 Element C  Has Mass   12.00000
   Atom    2 Element O  Has Mass   15.99491
   Atom    3 Element C  Has Mass   12.00000
   Atom    4 Element O  Has Mass   15.99491
   Atom    5 Element C  Has Mass   12.00000
   Atom    6 Element C  Has Mass   12.00000
   Atom    7 Element O  Has Mass   15.99491
   Atom    8 Element O  Has Mass   15.99491
   Atom    9 Element C  Has Mass   12.00000
   Atom   10 Element O  Has Mass   15.99491
   Atom   11 Element O  Has Mass   15.99491
   Atom   12 Element H  Has Mass    1.00783
   Atom   13 Element H  Has Mass    1.00783
   Atom   14 Element H  Has Mass    1.00783
   Atom   15 Element H  Has Mass    1.00783
   Atom   16 Element H  Has Mass    1.00783
   Atom   17 Element H  Has Mass    1.00783
   Atom   18 Element H  Has Mass    1.00783
   Atom   19 Element H  Has Mass    1.00783
   Atom   20 Element H  Has Mass    1.00783
   Atom   21 Element O  Has Mass   15.99491
   Atom   22 Element O  Has Mass   15.99491
   Molecular Mass:   197.029750 amu
   Principal axes and moments of inertia in amu*Bohr^2:
                             1           2           3
    Eigenvalues --     1620.27273  3648.39393  4614.39636
          X               0.36932     0.82865     0.42064
          Y               0.86231    -0.13682    -0.48755
          Z               0.34646    -0.54278     0.76508
   Rotational Symmetry Number is   1
   The Molecule is an Asymmetric Top
   Translational Enthalpy:        0.889 kcal/mol
   Rotational Enthalpy:           0.889 kcal/mol
   Vibrational Enthalpy:        108.940 kcal/mol
   gas constant (RT):             0.592 kcal/mol
   Translational Entropy:        41.739  cal/mol.K
   Rotational Entropy:           31.678  cal/mol.K
   Vibrational Entropy:          53.706  cal/mol.K

   Total Enthalpy:              111.310 kcal/mol
   Total Entropy:               127.124  cal/mol.K
 Total job time:  49862.77s(wall), 696488.51s(cpu) 
 Thu Jul  4 06:43:01 2024

        *************************************************************
        *                                                           *
        *  Thank you very much for using Q-Chem.  Have a nice day.  *
        *                                                           *
        *************************************************************


