
Running Job 1 of 1 Q_in.in
qchem Q_in.in_173087.0 /scratch/ari.fischer/qChem2201973.hpc-mn1/qchem173087/ 0
/usr/local/qchem-5.4.1/exe/qcprog.exe_s Q_in.in_173087.0 /scratch/ari.fischer/qChem2201973.hpc-mn1/qchem173087/
                  Welcome to Q-Chem
     A Quantum Leap Into The Future Of Chemistry


 Q-Chem 5.4, Q-Chem, Inc., Pleasanton, CA (2021)

 License issued to: Nanyang Technological University (site)

 E. Epifanovsky,  A. T. B. Gilbert,  Xintian Feng,  Joonho Lee,  Yuezhi Mao,  
 N. Mardirossian,  P. Pokhilko,  A. White,  M. Wormit,  M. P. Coons,  
 A. L. Dempwolff,  Zhengting Gan,  D. Hait,  P. R. Horn,  L. D. Jacobson,  
 I. Kaliman,  J. Kussmann,  A. W. Lange,  Ka Un Lao,  D. S. Levine,  Jie Liu,  
 S. C. McKenzie,  A. F. Morrison,  K. Nanda,  F. Plasser,  D. R. Rehn,  
 M. L. Vidal,  Zhi-Qiang You,  Ying Zhu,  B. Alam,  B. Albrecht,  
 A. Aldossary,  E. Alguire,  J. H. Andersen,  D. Barton,  K. Begam,  A. Behn,  
 Y. A. Bernard,  E. J. Berquist,  H. Burton,  A. Carreras,  K. Carter-Fenk,  
 R. Chakraborty,  A. D. Chien,  K. D. Closser,  V. Cofer-Shabica,  
 S. Dasgupta,  Jia Deng,  M. de Wergifosse,  M. Diedenhofen,  Hainam Do,  
 S. Ehlert,  Po-Tung Fang,  S. Fatehi,  Qingguo Feng,  T. Friedhoff,  
 J. Gayvert,  Qinghui Ge,  G. Gidofalvi,  M. Goldey,  J. Gomes,  
 C. Gonzalez-Espinoza,  S. Gulania,  A. Gunina,  M. W. D. Hanson-Heine,  
 P. H. P. Harbach,  A. W. Hauser,  M. F. Herbst,  M. Hernandez Vera,  
 M. Hodecker,  Z. C. Holden,  S. Houck,  Xunkun Huang,  Kerwin Hui,  
 B. C. Huynh,  M. Ivanov,  Hyunjun Ji,  Hanjie Jiang,  B. Kaduk,  S. Kaehler,  
 K. Khistyaev,  Jaehoon Kim,  P. Klunzinger,  Z. Koczor-Benda,  
 Joong Hoon Koh,  D. Kosenkov,  L. Koulias,  T. Kowalczyk,  C. M. Krauter,  
 K. Kue,  A. Kunitsa,  T. Kus,  A. Landau,  K. V. Lawler,  D. Lefrancois,  
 S. Lehtola,  Rain Li,  Yi-Pei Li,  Jiashu Liang,  M. Liebenthal,  
 Hung-Hsuan Lin,  You-Sheng Lin,  Fenglai Liu,  Kuan-Yu Liu,  
 M. Loipersberger,  A. Luenser,  A. Manjanath,  P. Manohar,  E. Mansoor,  
 S. F. Manzer,  Shan-Ping Mao,  A. V. Marenich,  T. Markovich,  S. Mason,  
 S. A. Maurer,  P. F. McLaughlin,  M. F. S. J. Menger,  J.-M. Mewes,  
 S. A. Mewes,  P. Morgante,  J. W. Mullinax,  K. J. Oosterbaan,  G. Paran,  
 Alexander C. Paul,  Suranjan K. Paul,  F. Pavosevic,  Zheng Pei,  S. Prager,  
 E. I. Proynov,  E. Ramos,  B. Rana,  A. E. Rask,  A. Rettig,  R. M. Richard,  
 F. Rob,  E. Rossomme,  T. Scheele,  M. Scheurer,  M. Schneider,  
 N. Sergueev,  S. M. Sharada,  W. Skomorowski,  D. W. Small,  C. J. Stein,  
 Yu-Chuan Su,  E. J. Sundstrom,  Zhen Tao,  J. Thirman,  T. Tsuchimochi,  
 N. M. Tubman,  S. P. Veccham,  O. Vydrov,  J. Wenzel,  J. Witte,  A. Yamada,  
 Kun Yao,  S. Yeganeh,  S. R. Yost,  A. Zech,  Igor Ying Zhang,  Xing Zhang,  
 Yu Zhang,  D. Zuev,  A. Aspuru-Guzik,  A. T. Bell,  N. A. Besley,  
 K. B. Bravaya,  B. R. Brooks,  D. Casanova,  Jeng-Da Chai,  S. Coriani,  
 C. J. Cramer,  A. E. DePrince, III,  R. A. DiStasio Jr.,  A. Dreuw,  
 B. D. Dunietz,  T. R. Furlani,  W. A. Goddard III,  S. Grimme,  
 S. Hammes-Schiffer,  T. Head-Gordon,  W. J. Hehre,  Chao-Ping Hsu,  
 T.-C. Jagau,  Yousung Jung,  A. Klamt,  Jing Kong,  D. S. Lambrecht,  
 WanZhen Liang,  N. J. Mayhall,  C. W. McCurdy,  J. B. Neaton,  
 C. Ochsenfeld,  J. A. Parkhill,  R. Peverati,  V. A. Rassolov,  Yihan Shao,  
 L. V. Slipchenko,  T. Stauch,  R. P. Steele,  J. E. Subotnik,  
 A. J. W. Thom,  A. Tkatchenko,  D. G. Truhlar,  T. Van Voorhis,  
 T. A. Wesolowski,  K. B. Whaley,  H. L. Woodcock III,  P. M. Zimmerman,  
 S. Faraji,  P. M. W. Gill,  M. Head-Gordon,  J. M. Herbert,  A. I. Krylov

 Additional authors for Version 5.4.1: 
 S. Kotaru,  Shaozhi Li,  Xiangyuan Li,  F. Matz,  A. Molle,  Haisheng Ren,  
 Yingli Su,  Hung-Yi Tsai,  C. Utku,  Fang Wang

 Contributors to earlier versions of Q-Chem not listed above: 
 R. D. Adamson,  B. Austin,  R. Baer,  J. Baker,  G. J. O. Beran,  
 K. Brandhorst,  S. T. Brown,  E. F. C. Byrd,  A. K. Chakraborty,  
 G. K. L. Chan,  Chun-Min Chang,  Yunqing Chen,  C.-L. Cheng,  
 Siu Hung Chien,  D. M. Chipman,  D. L. Crittenden,  H. Dachsel,  
 R. J. Doerksen,  A. D. Dutoi,  R. G. Edgar,  J. Fosso-Tande,  
 L. Fusti-Molnar,  D. Ghosh,  A. Ghysels,  A. Golubeva-Zadorozhnaya,  
 J. Gonthier,  M. S. Gordon,  S. R. Gwaltney,  G. Hawkins,  J. E. Herr,  
 A. Heyden,  S. Hirata,  E. G. Hohenstein,  G. Kedziora,  F. J. Keil,  
 C. Kelley,  Jihan Kim,  R. A. King,  R. Z. Khaliullin,  P. P. Korambath,  
 W. Kurlancheek,  A. Laurent,  A. M. Lee,  M. S. Lee,  S. V. Levchenko,  
 Ching Yeh Lin,  D. Liotard,  E. Livshits,  R. C. Lochan,  I. Lotan,  
 L. A. Martinez-Martinez,  P. E. Maslen,  N. Nair,  D. P. O'Neill,  
 D. Neuhauser,  E. Neuscamman,  C. M. Oana,  R. Olivares-Amaya,  R. Olson,  
 T. M. Perrine,  B. Peters,  P. A. Pieniazek,  A. Prociuk,  Y. M. Rhee,  
 J. Ritchie,  M. A. Rohrdanz,  E. Rosta,  N. J. Russ,  H. F. Schaefer III,  
 M. W. Schmidt,  N. E. Schultz,  S. Sharma,  N. Shenvi,  C. D. Sherrill,  
 A. C. Simmonett,  A. Sodt,  T. Stein,  D. Stuck,  K. S. Thanthiriwatte,  
 V. Vanovschi,  L. Vogt,  Tao Wang,  A. Warshel,  M. A. Watson,  
 C. F. Williams,  Q. Wu,  X. Xu,  Jun Yang,  W. Zhang,  Yan Zhao

 Please cite Q-Chem as follows:
 Y. Shao et al., Mol. Phys. 113, 184-215 (2015)
 DOI: 10.1080/00268976.2014.952696

 Q-Chem 5.4.1 for Intel X86 EM64T Linux

 Parts of Q-Chem use Armadillo 9.800.1 (Horizon Scraper).
 http://arma.sourceforge.net/

 Q-Chem begins on Mon Jul  1 20:08:54 2024  

 Host: 
0

     Scratch files written to /scratch/ari.fischer/qChem2201973.hpc-mn1/qchem173087//
 Aug1521 |scratch|qcdevops|jenkins|workspace|build_RNUM 8249   
 Processing $rem in /usr/local/qchem-5.4.1/config/preferences:
 Processing $rem in /home/ari.fischer/.qchemrc:
 Symmetry turned off for PCM/SM12/SMD calculation

 Checking the input file for inconsistencies... 	...done.

--------------------------------------------------------------
User input:
--------------------------------------------------------------
$molecule
0 2
C         2.3360807405    0.0075060465   -0.7159605035
O         1.0684301971   -0.5091359388   -0.7942549514
C         2.6698142781    0.3204900862    0.7518154533
O         1.8811662033    0.0220350281    1.6245553179
C         3.9760886646    1.0208892161    1.0169970486
C         3.8016883311    2.5312374944    0.8387227465
O         2.8842082865    2.9361991445    1.8571700471
O         2.2301426592    4.1396757844    1.4290449237
C         5.1346537165    3.2661529261    0.9845419213
O         5.9071254050    2.8836522637   -0.1307430581
O         4.9699531206    4.6610397698    1.0625600277
H         2.5370477254    0.8509782600   -1.3824887742
H         0.7936545232   -0.4959184626   -1.7275302644
H         4.7511784376    0.6803349704    0.3254852171
H         4.2869111103    0.8066107793    2.0441503569
H         3.3689162054    2.7666286392   -0.1420180079
H         1.4144191852    3.7754971999    1.0348569618
H         5.6224130486    2.9817133609    1.9236985352
H         6.8099611126    3.2087964891    0.0223442155
H         4.4197563184    4.9309966553    0.3067554220
O         3.2861206742   -1.0539673640   -1.1269330302
O         4.2867547566   -0.5693310487   -1.8201374050
$end

$rem
BASIS = 6-311++G(2df,2p)
GUI = 2
JOB_TYPE = Optimization
METHOD = wB97M-V
SCF_ALGORITHM = DIIS_GDM
MAX_SCF_CYCLES = 400
GEOM_OPT_MAX_CYCLES = 150
SCF_CONVERGENCE = 7
THRESH = 12
Solvent_method = SMD
$end
--------------------------------------------------------------
 ----------------------------------------------------------------
             Standard Nuclear Orientation (Angstroms)
    I     Atom           X                Y                Z
 ----------------------------------------------------------------
    1      C       2.3360807405     0.0075060465    -0.7159605035
    2      O       1.0684301971    -0.5091359388    -0.7942549514
    3      C       2.6698142781     0.3204900862     0.7518154533
    4      O       1.8811662033     0.0220350281     1.6245553179
    5      C       3.9760886646     1.0208892161     1.0169970486
    6      C       3.8016883311     2.5312374944     0.8387227465
    7      O       2.8842082865     2.9361991445     1.8571700471
    8      O       2.2301426592     4.1396757844     1.4290449237
    9      C       5.1346537165     3.2661529261     0.9845419213
   10      O       5.9071254050     2.8836522637    -0.1307430581
   11      O       4.9699531206     4.6610397698     1.0625600277
   12      H       2.5370477254     0.8509782600    -1.3824887742
   13      H       0.7936545232    -0.4959184626    -1.7275302644
   14      H       4.7511784376     0.6803349704     0.3254852171
   15      H       4.2869111103     0.8066107793     2.0441503569
   16      H       3.3689162054     2.7666286392    -0.1420180079
   17      H       1.4144191852     3.7754971999     1.0348569618
   18      H       5.6224130486     2.9817133609     1.9236985352
   19      H       6.8099611126     3.2087964891     0.0223442155
   20      H       4.4197563184     4.9309966553     0.3067554220
   21      O       3.2861206742    -1.0539673640    -1.1269330302
   22      O       4.2867547566    -0.5693310487    -1.8201374050
 ----------------------------------------------------------------
 Nuclear Repulsion Energy =         889.91725460 hartrees
 There are       52 alpha and       51 beta electrons
 Requested basis set is 6-311++G(2df,2p)
 There are 158 shells and 532 basis functions

 Total QAlloc Memory Limit 288000 MB
 Mega-Array Size       188 MB
 MEM_STATIC part       192 MB
 
 Citation of the SMD model:
 Marenich, A.V.; Cramer, C.J.; Truhlar, D.G.
 J. Phys. Chem. B 2009, 113, 6378-6396.
 iSolventCode=           1
 Solvent: water                                                           
 
 vradii
            1           2           3           4           5           6
    1   1.8500000   1.5200000   1.8500000   1.5200000   1.8500000   1.8500000
            7           8           9          10          11          12
    1   1.5200000   1.5200000   1.8500000   1.5200000   1.5200000   1.2000000
           13          14          15          16          17          18
    1   1.2000000   1.2000000   1.2000000   1.2000000   1.2000000   1.2000000
           19          20          21          22
    1   1.2000000   1.2000000   1.5200000   1.5200000
 Changing PCM_VDW_RADII to SMD_RADIUS
 Discretize the solute cavity surface with Lebedev spheres
	Using 110 Lebedev grid points for each H atom
	Using 194 Lebedev grid points for other atoms
	Atomic van der Waals radii will be scaled by 1.20
 Remove points where switching function is < 1.0e-08
 Keep 1796 surface tesserae and discard 1716 interior tesserae
 Molecular Surface Area = 200.720 Angst**2
 A cutoff of  1.0D-12 yielded  10298 shell pairs
 There are    113671 function pairs (    140973 Cartesian)
 Smallest overlap matrix eigenvalue = 5.89E-06

 Scale SEOQF with 1.000000e-02/1.000000e-01/1.000000e-01

 Standard Electronic Orientation quadrupole field applied
 Nucleus-field energy     =     0.0000000342 hartrees
 Guess from superposition of atomic densities
 Warning:  Energy on first SCF cycle will be non-variational
 SAD guess density has 103.000000 electrons

 -----------------------------------------------------------------------
  General SCF calculation program by
  Eric Jon Sundstrom, Paul Horn, Yuezhi Mao, Dmitri Zuev, Alec White,
  David Stuck, Shaama M.S., Shane Yost, Joonho Lee, David Small,
  Daniel Levine, Susi Lehtola, Hugh Burton, Evgeny Epifanovsky,
  Bang C. Huynh
 -----------------------------------------------------------------------
 Exchange:     0.1500 Hartree-Fock + 1.0000 wB97M-V + LR-HF
 Correlation:  1.0000 wB97M-V
 Using SG-2 standard quadrature grid
 Nonlocal Correlation:  VV10 with C = 0.0100 and b = 6.00 and scale = 1.00000
 Grid used for NLC:  SG-1 standard quadrature
 
 Citation of the SMD model:
 Marenich, A.V.; Cramer, C.J.; Truhlar, D.G.
 J. Phys. Chem. B 2009, 113, 6378-6396.
 iSolventCode=           1
 Solvent: water                                                           
 
 vradii
            1           2           3           4           5           6
    1   1.8500000   1.5200000   1.8500000   1.5200000   1.8500000   1.8500000
            7           8           9          10          11          12
    1   1.5200000   1.5200000   1.8500000   1.5200000   1.5200000   1.2000000
           13          14          15          16          17          18
    1   1.2000000   1.2000000   1.2000000   1.2000000   1.2000000   1.2000000
           19          20          21          22
    1   1.2000000   1.2000000   1.5200000   1.5200000
 using 16 threads for integral computing
 -------------------------------------------------------
 OpenMP Integral computing Module                
 Release: version 1.0, May 2013, Q-Chem Inc. Pittsburgh 
 -------------------------------------------------------
 -------------------------------------------------------
 OpenMP BLAS3 based DFT computing Module                
 Release: version 1.0, May 2013, Q-Chem Inc. Pittsburgh 
 -------------------------------------------------------
 A unrestricted SCF calculation will be
 performed using DIIS, GDM
 SCF converges when RMS gradient is below 1.0e-07
 ---------------------------------------
  Cycle       Energy         DIIS error
 ---------------------------------------
    1    -800.0066484293      1.06e-02  
    2    -797.3212208167      1.49e-03  Done DIIS. Switching to GDM
 ---------------------------------------
  Cycle       Energy        RMS Gradient
 ---------------------------------------
    1    -797.3212208167      1.17e-01   Descent step
    2    -797.5290265207      4.84e-02   Normal BFGS step
    3    -797.5733920835      3.68e-02   Normal BFGS step
    4    -797.5775521473      1.43e-02   Normal BFGS step
    5    -797.5802013942      8.37e-03   Normal BFGS step
    6    -797.5804808949      3.91e-03   Normal BFGS step
    7    -797.5806409146      4.06e-03   Normal BFGS step
    8    -797.5806803085      1.01e-03   Normal BFGS step
    9    -797.5806919944      8.25e-04   Normal BFGS step
   10    -797.5806955744      6.85e-04   Normal BFGS step
   11    -797.5806969412      5.51e-04   Normal BFGS step
   12    -797.5806983616      3.76e-04   Normal BFGS step
   13    -797.5806993302      2.24e-04   Normal BFGS step
   14    -797.5806997148      4.94e-05   Normal BFGS step
   15    -797.5806997913      2.40e-05   Normal BFGS step
   16    -797.5806998070      9.89e-06   Normal BFGS step
   17    -797.5806998093      4.95e-06   Normal BFGS step
   18    -797.5806998100      2.30e-06   Normal BFGS step
   19    -797.5806998101      9.53e-07   Normal BFGS step
   20    -797.5806998102      5.50e-07   Normal BFGS step
   21    -797.5806998102      2.65e-07   Normal BFGS step
   22    -797.5806998102      1.09e-07   Normal BFGS step
   23    -797.5806998102      4.81e-08  Convergence criterion met
 ---------------------------------------
 SCF time:   CPU 4915.61s  wall 342.00s 
<S^2> =          0.754099323
(3)  G-ENP(liq) elect-nuc-pol free energy of system     -797.580699810 a.u.
(4)  G-CDS(liq) cavity-dispersion-solvent structure 
     free energy                                                4.6362 kcal/mol
(6)  G-S(liq) free energy of system                     -797.573311496 a.u.
 SCF   energy in the final basis set =     -797.5733114957
 Total energy in the final basis set =     -797.5733114957
 
 --------------------------------------------------------------
 
                    Orbital Energies (a.u.)
 --------------------------------------------------------------
 
 Alpha MOs
 -- Occupied --
-19.4707 -19.4268 -19.4062 -19.3975 -19.3730 -19.3576 -19.3488 -19.3472
-10.4733 -10.4635 -10.4484 -10.4138 -10.3603  -1.3484  -1.2699  -1.2185
 -1.2026  -1.1918  -1.1357  -1.0564  -1.0138  -0.9188  -0.8501  -0.8113
 -0.7411  -0.7012  -0.6850  -0.6812  -0.6596  -0.6440  -0.6376  -0.6227
 -0.5968  -0.5873  -0.5768  -0.5698  -0.5624  -0.5490  -0.5398  -0.5224
 -0.5042  -0.4936  -0.4627  -0.4595  -0.4588  -0.4343  -0.4228  -0.4193
 -0.4082  -0.4061  -0.3935  -0.3731
 -- Virtual --
  0.0265   0.0273   0.0353   0.0409   0.0463   0.0586   0.0640   0.0662
  0.0759   0.0911   0.0956   0.1004   0.1066   0.1131   0.1265   0.1289
  0.1367   0.1430   0.1519   0.1528   0.1547   0.1612   0.1663   0.1666
  0.1749   0.1760   0.1846   0.1909   0.1987   0.2031   0.2111   0.2181
  0.2284   0.2404   0.2428   0.2523   0.2605   0.2629   0.2633   0.2740
  0.2752   0.2838   0.2919   0.2942   0.3010   0.3022   0.3099   0.3155
  0.3231   0.3286   0.3325   0.3328   0.3385   0.3445   0.3452   0.3504
  0.3542   0.3642   0.3722   0.3742   0.3761   0.3780   0.3827   0.3880
  0.3928   0.3978   0.4033   0.4082   0.4168   0.4252   0.4308   0.4344
  0.4410   0.4493   0.4542   0.4635   0.4711   0.4802   0.4886   0.4931
  0.4970   0.5015   0.5512   0.5681   0.5740   0.5933   0.6079   0.6253
  0.6287   0.6381   0.6481   0.6571   0.6646   0.6719   0.6784   0.6843
  0.7033   0.7077   0.7188   0.7257   0.7363   0.7458   0.7539   0.7653
  0.7714   0.7746   0.7844   0.8154   0.8224   0.8381   0.8713   0.8740
  0.8784   0.9061   0.9233   0.9382   0.9529   0.9621   0.9843   0.9906
  1.0040   1.0093   1.0394   1.0417   1.0510   1.0717   1.0864   1.0941
  1.0964   1.1177   1.1209   1.1413   1.1472   1.1527   1.1577   1.1691
  1.1738   1.1812   1.1838   1.1875   1.2017   1.2061   1.2183   1.2206
  1.2251   1.2362   1.2442   1.2548   1.2582   1.2650   1.2704   1.2745
  1.2899   1.3076   1.3107   1.3156   1.3268   1.3390   1.3446   1.3540
  1.3694   1.3787   1.3842   1.3917   1.4127   1.4389   1.4455   1.4623
  1.4674   1.4810   1.4971   1.5045   1.5173   1.5313   1.5317   1.5408
  1.5529   1.5651   1.5899   1.5955   1.6130   1.6287   1.6327   1.6423
  1.6623   1.6680   1.6802   1.6901   1.7013   1.7238   1.7391   1.7438
  1.7552   1.7645   1.7800   1.8099   1.8310   1.8491   1.8619   1.8856
  1.8925   1.9035   1.9106   1.9294   1.9675   1.9740   1.9967   2.0071
  2.0444   2.0548   2.0761   2.1165   2.1206   2.1595   2.1613   2.2306
  2.2407   2.2746   2.2799   2.2918   2.3029   2.3270   2.3386   2.3923
  2.4110   2.4158   2.4290   2.4405   2.4612   2.4779   2.5070   2.5395
  2.5584   2.6139   2.6610   2.6777   2.6950   2.7232   2.7542   2.7645
  2.7823   2.8009   2.8328   2.8439   2.8731   2.9027   2.9242   2.9603
  2.9717   2.9767   2.9832   3.0070   3.0276   3.0868   3.0887   3.1198
  3.1406   3.1588   3.1746   3.2168   3.2342   3.2568   3.2832   3.3017
  3.3237   3.3748   3.3793   3.4039   3.4078   3.4273   3.4435   3.4504
  3.4624   3.4848   3.4912   3.5335   3.5410   3.5608   3.5746   3.5989
  3.6148   3.6194   3.6635   3.6720   3.6806   3.7136   3.7250   3.7414
  3.7562   3.7646   3.7768   3.7968   3.8071   3.8181   3.8274   3.8375
  3.8571   3.8633   3.8715   3.8808   3.9027   3.9250   3.9492   3.9601
  3.9713   4.0015   4.0130   4.0393   4.0447   4.0653   4.1110   4.1443
  4.1608   4.1859   4.1908   4.2110   4.2171   4.2352   4.2656   4.2682
  4.2857   4.2959   4.3385   4.3543   4.3814   4.4031   4.4042   4.4153
  4.4667   4.4905   4.5139   4.5228   4.5635   4.5753   4.6031   4.6236
  4.6540   4.6753   4.7002   4.7102   4.7310   4.7774   4.8120   4.8329
  4.8408   4.8696   4.9115   4.9794   5.0069   5.0331   5.0726   5.0828
  5.0890   5.1082   5.1654   5.1672   5.1813   5.1934   5.1969   5.2100
  5.2176   5.2215   5.2298   5.2525   5.2699   5.2721   5.2798   5.2918
  5.3105   5.3213   5.3319   5.3387   5.3567   5.3602   5.3674   5.3998
  5.4142   5.4207   5.4427   5.4709   5.4893   5.4937   5.5033   5.5145
  5.5412   5.5490   5.5752   5.6035   5.6057   5.6132   5.6177   5.6306
  5.6411   5.6627   5.6647   5.6822   5.7124   5.7461   5.7786   5.7963
  5.8083   5.8228   5.8392   5.8877   5.9726   6.0001   6.0562   6.0875
  6.1064   6.1517   6.2293   6.3434   6.3994   6.4552   6.5337   6.5611
  6.6310   6.7267   6.7569   6.7579   6.8271   6.8388   6.8662   6.9514
  6.9747   7.0105   7.0144   7.0369   7.0661   7.0765   7.0964   7.1098
  7.1345   7.1524   7.1989   7.2163   7.2438   7.2459   7.2720   7.2871
  7.2941   7.3276   7.3341   7.3604   7.3686   7.3921   7.3994   7.4154
  7.4313   7.4633   7.4888   7.5379   7.5719   7.6020   7.6505   7.6626
  7.6951   7.7652   7.7903   7.8162   7.8469   7.8584   7.9001   7.9612
  8.0262   8.0962   8.1844  24.6029  24.6937  24.7629  24.8262  24.9995
 50.4235  50.5029  50.5280  50.5754  50.6058  50.6246  50.6319  50.7506
 
 Beta MOs
 -- Occupied --
-19.4607 -19.4077 -19.4062 -19.3975 -19.3729 -19.3574 -19.3488 -19.3472
-10.4736 -10.4634 -10.4484 -10.4138 -10.3603  -1.3228  -1.2699  -1.2171
 -1.2026  -1.1909  -1.1357  -1.0564  -0.9817  -0.9168  -0.8454  -0.8078
 -0.7408  -0.6943  -0.6840  -0.6796  -0.6462  -0.6420  -0.6237  -0.6196
 -0.5882  -0.5763  -0.5690  -0.5630  -0.5487  -0.5397  -0.5270  -0.5205
 -0.5017  -0.4917  -0.4624  -0.4590  -0.4521  -0.4342  -0.4199  -0.4097
 -0.4022  -0.3888  -0.3748
 -- Virtual --
 -0.0411   0.0267   0.0308   0.0366   0.0414   0.0467   0.0588   0.0642
  0.0664   0.0762   0.0914   0.0963   0.1013   0.1068   0.1136   0.1266
  0.1298   0.1369   0.1431   0.1522   0.1532   0.1554   0.1618   0.1664
  0.1671   0.1754   0.1796   0.1860   0.1925   0.1988   0.2043   0.2125
  0.2194   0.2316   0.2408   0.2444   0.2540   0.2628   0.2633   0.2655
  0.2751   0.2756   0.2853   0.2932   0.2951   0.3018   0.3039   0.3106
  0.3166   0.3238   0.3288   0.3336   0.3344   0.3388   0.3452   0.3459
  0.3506   0.3557   0.3651   0.3725   0.3749   0.3763   0.3796   0.3829
  0.3896   0.3940   0.3982   0.4036   0.4092   0.4173   0.4259   0.4310
  0.4350   0.4416   0.4494   0.4546   0.4643   0.4718   0.4807   0.4899
  0.4933   0.4973   0.5019   0.5517   0.5681   0.5742   0.5935   0.6079
  0.6257   0.6289   0.6383   0.6485   0.6576   0.6649   0.6726   0.6785
  0.6847   0.7036   0.7081   0.7191   0.7263   0.7364   0.7461   0.7542
  0.7654   0.7717   0.7748   0.7845   0.8164   0.8224   0.8391   0.8717
  0.8744   0.8793   0.9068   0.9235   0.9404   0.9544   0.9624   0.9849
  0.9909   1.0044   1.0108   1.0409   1.0432   1.0518   1.0728   1.0881
  1.0960   1.0973   1.1202   1.1263   1.1429   1.1508   1.1536   1.1586
  1.1747   1.1783   1.1832   1.1889   1.1942   1.2032   1.2089   1.2189
  1.2213   1.2311   1.2384   1.2454   1.2589   1.2598   1.2695   1.2745
  1.2786   1.2920   1.3103   1.3119   1.3187   1.3280   1.3410   1.3469
  1.3562   1.3708   1.3810   1.3849   1.3936   1.4157   1.4400   1.4466
  1.4643   1.4686   1.4860   1.4977   1.5053   1.5185   1.5325   1.5349
  1.5412   1.5543   1.5675   1.5916   1.6003   1.6135   1.6323   1.6378
  1.6465   1.6678   1.6742   1.6875   1.6942   1.7105   1.7253   1.7422
  1.7522   1.7584   1.7732   1.7830   1.8119   1.8336   1.8516   1.8675
  1.8870   1.8937   1.9041   1.9157   1.9310   1.9688   1.9745   1.9980
  2.0078   2.0466   2.0553   2.0790   2.1206   2.1236   2.1611   2.1651
  2.2340   2.2454   2.2767   2.2858   2.2995   2.3100   2.3278   2.3396
  2.3966   2.4111   2.4163   2.4348   2.4417   2.4625   2.4784   2.5084
  2.5411   2.5592   2.6145   2.6672   2.6787   2.6962   2.7245   2.7544
  2.7651   2.7828   2.8013   2.8334   2.8441   2.8732   2.9029   2.9244
  2.9605   2.9722   2.9771   2.9836   3.0070   3.0279   3.0869   3.0889
  3.1200   3.1407   3.1589   3.1747   3.2175   3.2345   3.2571   3.2832
  3.3022   3.3239   3.3750   3.3797   3.4042   3.4081   3.4276   3.4436
  3.4505   3.4624   3.4848   3.4912   3.5337   3.5411   3.5612   3.5747
  3.5990   3.6150   3.6195   3.6636   3.6721   3.6807   3.7136   3.7259
  3.7416   3.7565   3.7648   3.7769   3.7970   3.8078   3.8181   3.8276
  3.8376   3.8575   3.8634   3.8721   3.8809   3.9028   3.9250   3.9493
  3.9602   3.9715   4.0015   4.0132   4.0396   4.0448   4.0654   4.1113
  4.1444   4.1611   4.1860   4.1910   4.2112   4.2179   4.2354   4.2661
  4.2682   4.2861   4.2962   4.3387   4.3550   4.3815   4.4035   4.4049
  4.4160   4.4690   4.4913   4.5142   4.5235   4.5710   4.5868   4.6044
  4.6287   4.6587   4.6818   4.7038   4.7238   4.7329   4.7775   4.8174
  4.8353   4.8570   4.8802   4.9122   4.9935   5.0077   5.0359   5.0772
  5.1320   5.1383   5.1677   5.1762   5.1846   5.1951   5.2018   5.2102
  5.2221   5.2238   5.2358   5.2573   5.2624   5.2720   5.2770   5.2929
  5.2951   5.3174   5.3249   5.3328   5.3430   5.3650   5.3681   5.3735
  5.4036   5.4176   5.4216   5.4541   5.4739   5.4902   5.5012   5.5042
  5.5149   5.5415   5.5499   5.5785   5.6037   5.6068   5.6140   5.6182
  5.6327   5.6476   5.6637   5.6753   5.6829   5.7125   5.7480   5.7871
  5.8000   5.8136   5.8238   5.8441   5.8879   5.9777   6.0002   6.0562
  6.0881   6.1064   6.1517   6.2293   6.3541   6.4056   6.4970   6.5337
  6.5717   6.6311   6.7306   6.7579   6.7651   6.8274   6.9207   6.9459
  6.9769   7.0009   7.0146   7.0200   7.0372   7.0708   7.0769   7.1099
  7.1336   7.1501   7.1556   7.2011   7.2401   7.2459   7.2470   7.2737
  7.2920   7.2964   7.3284   7.3371   7.3627   7.3859   7.4002   7.4141
  7.4226   7.4450   7.4654   7.5126   7.5379   7.5730   7.6025   7.6510
  7.6645   7.6952   7.7714   7.7904   7.8169   7.8493   7.8631   7.9001
  7.9613   8.0399   8.1147   8.1844  24.6029  24.6934  24.7629  24.8262
 24.9996  50.4361  50.5038  50.5363  50.5757  50.6059  50.6246  50.6319
 50.7509
 --------------------------------------------------------------
 
          Ground-State Mulliken Net Atomic Charges

     Atom                 Charge (a.u.)    Spin (a.u.)
  --------------------------------------------------------
      1 C                    -0.205844      -0.000592
      2 O                    -0.395182       0.005616
      3 C                     0.443622       0.005708
      4 O                    -0.404951       0.007313
      5 C                    -0.536710       0.000751
      6 C                    -0.073287      -0.004831
      7 O                    -0.101128      -0.000121
      8 O                    -0.314420      -0.000076
      9 C                    -0.314374      -0.000285
     10 O                    -0.405705       0.000152
     11 O                    -0.446986      -0.000014
     12 H                     0.334456       0.001596
     13 H                     0.341910      -0.001108
     14 H                     0.225056      -0.000565
     15 H                     0.302453       0.001494
     16 H                     0.337008       0.000757
     17 H                     0.360382      -0.000007
     18 H                     0.292816      -0.000057
     19 H                     0.344750       0.000001
     20 H                     0.346381      -0.000023
     21 O                     0.072835       0.302786
     22 O                    -0.203083       0.681507
  --------------------------------------------------------
  Sum of atomic charges =    -0.000000
  Sum of spin   charges =     1.000000

 -----------------------------------------------------------------
                    Cartesian Multipole Moments
 -----------------------------------------------------------------
    Charge (ESU x 10^10)
                -0.0000
    Dipole Moment (Debye)
         X       0.3439      Y       1.7881      Z      -5.3544
       Tot       5.6556
    Quadrupole Moments (Debye-Ang)
        XX     -65.1137     XY       2.8578     YY     -86.4970
        XZ      -0.7509     YZ     -14.3074     ZZ     -84.1636
    Octopole Moments (Debye-Ang^2)
       XXX    -657.3854    XXY     -79.5863    XYY    -317.3411
       YYY    -418.6806    XXZ      14.3233    XYZ     -48.8947
       YYZ     -97.1269    XZZ    -294.1478    YZZ    -150.3486
       ZZZ    -117.1901
    Hexadecapole Moments (Debye-Ang^3)
      XXXX   -5144.8386   XXXY   -1060.2252   XXYY   -1690.6498
      XYYY   -1843.4515   YYYY   -3190.5135   XXXZ      24.0935
      XXYZ    -290.7920   XYYZ    -348.9087   YYYZ    -795.7813
      XXZZ   -1286.4471   XYZZ    -591.6188   YYZZ    -739.3814
      XZZZ    -326.2330   YZZZ    -498.5791   ZZZZ    -760.9299
 -----------------------------------------------------------------
 Calculating analytic gradient of the SCF energy
 Gradient of CDS energy
            1           2           3           4           5           6
    1  -0.0049675   0.0047267  -0.0011885   0.0009027   0.0002722   0.0000173
    2  -0.0017327   0.0016987  -0.0005570   0.0002964  -0.0001277   0.0000374
    3  -0.0005957   0.0003368   0.0014599  -0.0009447   0.0000018   0.0000805
            7           8           9          10          11          12
    1   0.0001144   0.0002693   0.0008927  -0.0011791   0.0001364   0.0002934
    2   0.0001140  -0.0001453   0.0020272   0.0004894  -0.0025855   0.0000444
    3  -0.0000360   0.0001655  -0.0009309   0.0013022  -0.0001018  -0.0000108
           13          14          15          16          17          18
    1  -0.0003748   0.0000280   0.0000166   0.0000057  -0.0004842  -0.0000757
    2  -0.0000950   0.0000199   0.0000730   0.0000219   0.0000759  -0.0000592
    3  -0.0002817  -0.0001329   0.0002003  -0.0000839  -0.0001159   0.0001969
           19          20          21          22
    1   0.0004604   0.0000008   0.0001129   0.0000202
    2  -0.0000264   0.0004259   0.0000428  -0.0000381
    3  -0.0002334  -0.0002581  -0.0000232   0.0000050
 Gradient of SCF Energy
            1           2           3           4           5           6
    1   0.0036684   0.0004291   0.0082904  -0.0115728  -0.0176708   0.0113618
    2  -0.0186344  -0.0049881   0.0073979  -0.0047467   0.0054779  -0.0057380
    3   0.0100548   0.0356158  -0.0119969   0.0112609  -0.0045673   0.0233148
            7           8           9          10          11          12
    1  -0.0005723   0.0196446  -0.0038428  -0.0184001   0.0074953   0.0015283
    2  -0.0057336   0.0159859   0.0074951  -0.0104243   0.0025915   0.0186752
    3   0.0057971   0.0121382  -0.0151256  -0.0088283   0.0215993  -0.0142516
           13          14          15          16          17          18
    1  -0.0051297   0.0083553   0.0045790  -0.0082558  -0.0178288   0.0055685
    2   0.0031042  -0.0038947  -0.0010494   0.0046430  -0.0110054  -0.0046225
    3  -0.0290584  -0.0075463   0.0084144  -0.0188811  -0.0141818   0.0086898
           19          20          21          22
    1   0.0190713  -0.0092118  -0.0061170   0.0086099
    2   0.0067901   0.0000601  -0.0048663   0.0034828
    3   0.0057936  -0.0172101   0.0052026  -0.0062340
 Max gradient component =       3.562E-02
 RMS gradient           =       1.200E-02
 Computing fast CPCM-SWIG gradient
 Updating gradient with PCM contributions...
 -- total gradient after adding PCM contribution --
---------------------------------------------------
  Atom         X              Y              Z     
---------------------------------------------------
   1       0.000486       0.000256      -0.001013
   2      -0.001580      -0.001242       0.009357
   3       0.002957       0.000609      -0.005830
   4      -0.007223      -0.002261       0.007160
   5      -0.000272       0.000400      -0.001817
   6       0.001435       0.000111       0.000696
   7      -0.001026      -0.003946       0.003035
   8       0.005854       0.007493       0.001211
   9       0.000860       0.003662      -0.003968
  10      -0.007147      -0.005118      -0.003664
  11       0.003419       0.000538       0.008398
  12       0.001324       0.002001      -0.002313
  13      -0.000515       0.000449      -0.006782
  14       0.002812      -0.000812      -0.002221
  15       0.000773      -0.000602       0.002987
  16      -0.000917       0.000688      -0.002535
  17      -0.005035      -0.003974      -0.002528
  18       0.000623      -0.000115       0.003122
  19       0.005804       0.003122       0.002414
  20      -0.003612      -0.000245      -0.005781
  21      -0.004507      -0.004904       0.003615
  22       0.005484       0.003889      -0.003543
---------------------------------------------------
 Number of fixed atoms: 0
 Gradient time:  CPU 561.85 s  wall 48.20 s
 Geometry Optimization Parameters
   NAtoms,    NIC,     NZ,  NCons,   NDum,   NFix, NCnnct, MaxDiis
       22     144       0       0       0       0       0       0


** GEOMETRY OPTIMIZATION IN DELOCALIZED INTERNAL COORDINATES **
   Searching for a Minimum

   Optimization Cycle:   1

                       Coordinates (Angstroms)
     ATOM                X               Y               Z
      1  C         2.3360807405    0.0075060465   -0.7159605035
      2  O         1.0684301971   -0.5091359388   -0.7942549514
      3  C         2.6698142781    0.3204900862    0.7518154533
      4  O         1.8811662033    0.0220350281    1.6245553179
      5  C         3.9760886646    1.0208892161    1.0169970486
      6  C         3.8016883311    2.5312374944    0.8387227465
      7  O         2.8842082865    2.9361991445    1.8571700471
      8  O         2.2301426592    4.1396757844    1.4290449237
      9  C         5.1346537165    3.2661529261    0.9845419213
     10  O         5.9071254050    2.8836522637   -0.1307430581
     11  O         4.9699531206    4.6610397698    1.0625600277
     12  H         2.5370477254    0.8509782600   -1.3824887742
     13  H         0.7936545232   -0.4959184626   -1.7275302644
     14  H         4.7511784376    0.6803349704    0.3254852171
     15  H         4.2869111103    0.8066107793    2.0441503569
     16  H         3.3689162054    2.7666286392   -0.1420180079
     17  H         1.4144191852    3.7754971999    1.0348569618
     18  H         5.6224130486    2.9817133609    1.9236985352
     19  H         6.8099611126    3.2087964891    0.0223442155
     20  H         4.4197563184    4.9309966553    0.3067554220
     21  O         3.2861206742   -1.0539673640   -1.1269330302
     22  O         4.2867547566   -0.5693310487   -1.8201374050
   Point Group: c1    Number of degrees of freedom:    60


   Energy is   -797.573311496


 Attempting to generate delocalized internal coordinates
 Initial Hessian constructed with Jon Baker's OPTIMIZE code

 60 Hessian modes will be used to form the next step
  Hessian Eigenvalues:
     0.004227    0.004467    0.004715    0.005104    0.005329    0.006419
     0.008420    0.011765    0.014380    0.014754    0.019465    0.044539
     0.046106    0.051325    0.056859    0.057812    0.062184    0.065114
     0.073445    0.081735    0.089254    0.092786    0.093861    0.125247
     0.160000    0.160000    0.160000    0.160000    0.163082    0.184694
     0.185113    0.194979    0.200396    0.207741    0.219890    0.249934
     0.250000    0.250000    0.250000    0.287474    0.293497    0.295063
     0.317832    0.339577    0.341482    0.342699    0.343164    0.343930
     0.344536    0.402683    0.410850    0.440711    0.445213    0.507608
     0.520845    0.527578    0.527738    0.530242    0.644333    0.982967

 Minimum search - taking simple RFO step
 Searching for Lamda that Minimizes Along All modes
 Value Taken    Lamda =  -0.00164882
 Step Taken.  Stepsize is  0.194006

                             Maximum     Tolerance    Cnvgd?
         Gradient           0.007501      0.000300      NO
         Displacement       0.072985      0.001200      NO
         Energy change     *********      0.000001      NO


 New Cartesian Coordinates Obtained by Inverse Iteration

 Displacement from previous Coordinates is:  0.417376
 ----------------------------------------------------------------
             Standard Nuclear Orientation (Angstroms)
    I     Atom           X                Y                Z
 ----------------------------------------------------------------
    1      C       2.3579593513     0.0297459432    -0.7084553523
    2      O       1.0904345252    -0.4755516403    -0.8183780011
    3      C       2.6800848088     0.3224452787     0.7653463198
    4      O       1.8922015007     0.0072693752     1.6250462149
    5      C       3.9705647857     1.0316166305     1.0504516662
    6      C       3.7956835360     2.5346916688     0.8457385478
    7      O       2.8844861869     2.9585576391     1.8599060851
    8      O       2.1657181561     4.1085431580     1.4025122136
    9      C       5.1372090253     3.2545758347     0.9697607440
   10      O       5.9000661286     2.8531684950    -0.1442824099
   11      O       4.9981152271     4.6529233584     1.0214683207
   12      H       2.5656191211     0.8812419689    -1.3544103252
   13      H       0.8174203587    -0.4433761362    -1.7447765811
   14      H       4.7513042243     0.6873480977     0.3761510792
   15      H       4.2675224364     0.8296351781     2.0790725028
   16      H       3.3603521361     2.7497082045    -0.1337398202
   17      H       1.3330908463     3.7157332514     1.0981652978
   18      H       5.6322718855     2.9748696577     1.9011359853
   19      H       6.8070279456     3.1549560671    -0.0120729909
   20      H       4.4468563366     4.9381569425     0.2804938837
   21      O       3.2994232208    -1.0331991856    -1.1279025169
   22      O       4.2830729568    -0.5709784875    -1.8485986635
 ----------------------------------------------------------------
 Nuclear Repulsion Energy =         890.64260003 hartrees
 There are       52 alpha and       51 beta electrons
 Discretize the solute cavity surface with Lebedev spheres
	Using 110 Lebedev grid points for each H atom
	Using 194 Lebedev grid points for other atoms
	Atomic van der Waals radii will be scaled by 1.20
 Remove points where switching function is < 1.0e-08
 Keep 1802 surface tesserae and discard 1710 interior tesserae
 Molecular Surface Area = 201.263 Angst**2
 Applying Cartesian multipole field
    Component          Value
    ---------          -----
     (2,0,0)        1.00000E-12
     (0,2,0)        2.00000E-11
     (0,0,2)       -3.00000E-11
 Nucleus-field energy     =     0.0000000338 hartrees
 Requested basis set is 6-311++G(2df,2p)
 There are 158 shells and 532 basis functions
 A cutoff of  1.0D-12 yielded  10311 shell pairs
 There are    113793 function pairs (    141096 Cartesian)
 Smallest overlap matrix eigenvalue = 6.01E-06
 Guess MOs from SCF MO coefficient file

 -----------------------------------------------------------------------
  General SCF calculation program by
  Eric Jon Sundstrom, Paul Horn, Yuezhi Mao, Dmitri Zuev, Alec White,
  David Stuck, Shaama M.S., Shane Yost, Joonho Lee, David Small,
  Daniel Levine, Susi Lehtola, Hugh Burton, Evgeny Epifanovsky,
  Bang C. Huynh
 -----------------------------------------------------------------------
 Exchange:     0.1500 Hartree-Fock + 1.0000 wB97M-V + LR-HF
 Correlation:  1.0000 wB97M-V
 Using SG-2 standard quadrature grid
 Nonlocal Correlation:  VV10 with C = 0.0100 and b = 6.00 and scale = 1.00000
 Grid used for NLC:  SG-1 standard quadrature
 
 Citation of the SMD model:
 Marenich, A.V.; Cramer, C.J.; Truhlar, D.G.
 J. Phys. Chem. B 2009, 113, 6378-6396.
 iSolventCode=           1
 Solvent: water                                                           
 
 vradii
            1           2           3           4           5           6
    1   1.8500000   1.5200000   1.8500000   1.5200000   1.8500000   1.8500000
            7           8           9          10          11          12
    1   1.5200000   1.5200000   1.8500000   1.5200000   1.5200000   1.2000000
           13          14          15          16          17          18
    1   1.2000000   1.2000000   1.2000000   1.2000000   1.2000000   1.2000000
           19          20          21          22
    1   1.2000000   1.2000000   1.5200000   1.5200000
 -------------------------------------------------------
 OpenMP BLAS3 based DFT computing Module                
 Release: version 1.0, May 2013, Q-Chem Inc. Pittsburgh 
 -------------------------------------------------------
 A unrestricted SCF calculation will be
 performed using Roothaan-Hall, DIIS, GDM
 SCF converges when RMS gradient is below 1.0e-07
 ---------------------------------------
  Cycle       Energy         DIIS error
 ---------------------------------------
    1    -797.5068467174      2.86e-04  Roothaan Step
 ---------------------------------------
  Cycle       Energy         DIIS error
 ---------------------------------------
    1    -797.5647980858      2.91e-04  
    2    -797.5730045447      2.94e-04  Done DIIS. Switching to GDM
 ---------------------------------------
  Cycle       Energy        RMS Gradient
 ---------------------------------------
    1    -797.5730045447      2.46e-02   Normal BFGS step
    2    -797.5687045273      3.82e-02  Line search: overstep
    3    -797.5810422062      3.08e-03   Normal BFGS step
    4    -797.5814018670      1.20e-03   Normal BFGS step
    5    -797.5814635602      1.94e-03   Normal BFGS step
    6    -797.5814824665      5.48e-04   Normal BFGS step
    7    -797.5814835044      5.58e-04   Normal BFGS step
    8    -797.5814845908      1.07e-04   Normal BFGS step
    9    -797.5814846857      8.98e-05   Normal BFGS step
   10    -797.5814847385      7.12e-05   Normal BFGS step
   11    -797.5814847595      5.36e-05   Normal BFGS step
   12    -797.5814847705      3.90e-05   Normal BFGS step
   13    -797.5814847825      2.04e-05   Normal BFGS step
   14    -797.5814847865      1.81e-05   Normal BFGS step
   15    -797.5814847884      8.23e-06   Normal BFGS step
   16    -797.5814847889      3.07e-06   Normal BFGS step
   17    -797.5814847890      1.46e-06   Normal BFGS step
   18    -797.5814847890      6.54e-07   Normal BFGS step
   19    -797.5814847890      2.35e-07   Normal BFGS step
   20    -797.5814847890      8.28e-08  Convergence criterion met
 ---------------------------------------
 SCF time:   CPU 4650.42s  wall 322.00s 
<S^2> =          0.754074285
(3)  G-ENP(liq) elect-nuc-pol free energy of system     -797.581484789 a.u.
(4)  G-CDS(liq) cavity-dispersion-solvent structure 
     free energy                                                4.6787 kcal/mol
(6)  G-S(liq) free energy of system                     -797.574028751 a.u.
 SCF   energy in the final basis set =     -797.5740287505
 Total energy in the final basis set =     -797.5740287505
 
 --------------------------------------------------------------
 
                    Orbital Energies (a.u.)
 --------------------------------------------------------------
 
 Alpha MOs
 -- Occupied --
-19.4704 -19.4256 -19.4063 -19.3973 -19.3718 -19.3570 -19.3475 -19.3465
-10.4722 -10.4620 -10.4483 -10.4134 -10.3581  -1.3515  -1.2713  -1.2204
 -1.2036  -1.1940  -1.1362  -1.0583  -1.0137  -0.9207  -0.8510  -0.8129
 -0.7427  -0.7014  -0.6879  -0.6832  -0.6609  -0.6454  -0.6402  -0.6236
 -0.5991  -0.5877  -0.5787  -0.5723  -0.5615  -0.5515  -0.5385  -0.5235
 -0.5041  -0.4934  -0.4632  -0.4596  -0.4587  -0.4344  -0.4228  -0.4185
 -0.4072  -0.4044  -0.3935  -0.3730
 -- Virtual --
  0.0267   0.0284   0.0358   0.0412   0.0462   0.0592   0.0632   0.0664
  0.0766   0.0914   0.0950   0.1005   0.1073   0.1140   0.1266   0.1295
  0.1363   0.1434   0.1516   0.1531   0.1549   0.1617   0.1665   0.1672
  0.1751   0.1768   0.1860   0.1910   0.1988   0.2026   0.2101   0.2189
  0.2300   0.2407   0.2448   0.2529   0.2619   0.2636   0.2652   0.2740
  0.2761   0.2836   0.2917   0.2953   0.2999   0.3034   0.3099   0.3170
  0.3231   0.3298   0.3324   0.3353   0.3399   0.3448   0.3470   0.3504
  0.3553   0.3654   0.3729   0.3733   0.3764   0.3786   0.3844   0.3889
  0.3935   0.3985   0.4067   0.4097   0.4164   0.4245   0.4296   0.4339
  0.4403   0.4485   0.4538   0.4649   0.4716   0.4822   0.4890   0.4922
  0.4981   0.5037   0.5537   0.5693   0.5788   0.5928   0.6113   0.6264
  0.6312   0.6404   0.6468   0.6569   0.6646   0.6724   0.6778   0.6852
  0.7056   0.7107   0.7211   0.7235   0.7379   0.7469   0.7575   0.7649
  0.7740   0.7765   0.7872   0.8189   0.8279   0.8404   0.8722   0.8765
  0.8837   0.9014   0.9266   0.9391   0.9475   0.9562   0.9792   0.9936
  1.0040   1.0140   1.0381   1.0444   1.0524   1.0729   1.0887   1.0935
  1.0983   1.1180   1.1234   1.1412   1.1458   1.1537   1.1577   1.1714
  1.1720   1.1816   1.1843   1.1865   1.2002   1.2052   1.2121   1.2191
  1.2256   1.2394   1.2447   1.2545   1.2610   1.2643   1.2686   1.2763
  1.2876   1.3073   1.3134   1.3157   1.3262   1.3382   1.3472   1.3563
  1.3682   1.3786   1.3802   1.3901   1.4154   1.4398   1.4452   1.4675
  1.4698   1.4881   1.4995   1.5023   1.5183   1.5345   1.5369   1.5415
  1.5573   1.5720   1.5942   1.6019   1.6165   1.6323   1.6406   1.6442
  1.6583   1.6727   1.6805   1.6915   1.7064   1.7267   1.7363   1.7426
  1.7577   1.7627   1.7821   1.8080   1.8341   1.8465   1.8626   1.8849
  1.8944   1.9036   1.9141   1.9324   1.9656   1.9762   1.9969   2.0142
  2.0453   2.0549   2.0749   2.1217   2.1235   2.1579   2.1686   2.2303
  2.2382   2.2759   2.2832   2.2970   2.3091   2.3314   2.3354   2.3917
  2.4058   2.4108   2.4282   2.4474   2.4632   2.4823   2.5056   2.5417
  2.5591   2.6178   2.6608   2.6750   2.6873   2.7218   2.7473   2.7705
  2.7816   2.8007   2.8360   2.8387   2.8726   2.9061   2.9247   2.9597
  2.9706   2.9777   2.9844   3.0085   3.0339   3.0819   3.0898   3.1244
  3.1484   3.1538   3.1809   3.2191   3.2374   3.2597   3.2848   3.3011
  3.3265   3.3730   3.3846   3.4039   3.4123   3.4262   3.4465   3.4560
  3.4659   3.4893   3.4950   3.5346   3.5467   3.5645   3.5796   3.6003
  3.6151   3.6268   3.6624   3.6758   3.6795   3.7164   3.7249   3.7421
  3.7577   3.7669   3.7787   3.8043   3.8149   3.8218   3.8335   3.8404
  3.8569   3.8687   3.8780   3.8814   3.9002   3.9294   3.9453   3.9655
  3.9702   4.0044   4.0114   4.0485   4.0557   4.0743   4.1219   4.1427
  4.1686   4.1907   4.1972   4.2191   4.2299   4.2461   4.2705   4.2788
  4.2865   4.3082   4.3475   4.3675   4.3975   4.4105   4.4186   4.4223
  4.4785   4.4965   4.5222   4.5302   4.5677   4.5874   4.6097   4.6340
  4.6615   4.6854   4.7017   4.7128   4.7403   4.7861   4.8146   4.8320
  4.8396   4.8819   4.9189   4.9838   5.0093   5.0328   5.0725   5.0816
  5.0876   5.1032   5.1622   5.1705   5.1835   5.1965   5.1993   5.2109
  5.2177   5.2257   5.2334   5.2540   5.2676   5.2748   5.2818   5.2934
  5.3133   5.3192   5.3294   5.3384   5.3596   5.3626   5.3684   5.4011
  5.4169   5.4224   5.4471   5.4786   5.4902   5.4959   5.5074   5.5187
  5.5420   5.5582   5.5797   5.6156   5.6174   5.6210   5.6299   5.6410
  5.6486   5.6704   5.6747   5.6885   5.7121   5.7590   5.7897   5.8099
  5.8178   5.8326   5.8535   5.9019   5.9748   6.0233   6.0778   6.1046
  6.1188   6.1419   6.2477   6.3537   6.4209   6.4800   6.5390   6.5838
  6.6385   6.7414   6.7643   6.7781   6.8376   6.8417   6.8658   6.9557
  6.9760   7.0129   7.0162   7.0399   7.0687   7.0762   7.1020   7.1142
  7.1423   7.1547   7.2126   7.2232   7.2593   7.2673   7.2877   7.3097
  7.3157   7.3294   7.3346   7.3584   7.3667   7.3957   7.3985   7.4162
  7.4344   7.4699   7.4961   7.5388   7.5789   7.6145   7.6577   7.6695
  7.7033   7.7634   7.7944   7.8184   7.8525   7.8654   7.9008   7.9651
  8.0318   8.1095   8.1745  24.6184  24.7089  24.7825  24.8386  25.0206
 50.4303  50.5022  50.5314  50.5780  50.6091  50.6285  50.6330  50.7590
 
 Beta MOs
 -- Occupied --
-19.4602 -19.4066 -19.4063 -19.3973 -19.3717 -19.3568 -19.3475 -19.3465
-10.4726 -10.4618 -10.4483 -10.4134 -10.3580  -1.3258  -1.2713  -1.2190
 -1.2036  -1.1930  -1.1362  -1.0583  -0.9821  -0.9187  -0.8462  -0.8092
 -0.7425  -0.6944  -0.6868  -0.6817  -0.6476  -0.6437  -0.6268  -0.6198
 -0.5896  -0.5771  -0.5717  -0.5622  -0.5512  -0.5384  -0.5282  -0.5224
 -0.5015  -0.4915  -0.4628  -0.4589  -0.4522  -0.4344  -0.4198  -0.4096
 -0.4013  -0.3880  -0.3748
 -- Virtual --
 -0.0391   0.0267   0.0315   0.0376   0.0416   0.0467   0.0594   0.0634
  0.0666   0.0768   0.0917   0.0957   0.1014   0.1075   0.1145   0.1267
  0.1304   0.1365   0.1436   0.1519   0.1536   0.1554   0.1623   0.1667
  0.1677   0.1754   0.1802   0.1874   0.1924   0.1989   0.2037   0.2114
  0.2200   0.2330   0.2416   0.2464   0.2546   0.2640   0.2647   0.2669
  0.2751   0.2764   0.2854   0.2926   0.2964   0.3009   0.3049   0.3105
  0.3182   0.3239   0.3300   0.3334   0.3369   0.3408   0.3453   0.3478
  0.3507   0.3568   0.3663   0.3734   0.3739   0.3766   0.3800   0.3848
  0.3905   0.3947   0.3988   0.4072   0.4105   0.4168   0.4251   0.4299
  0.4345   0.4410   0.4486   0.4543   0.4655   0.4723   0.4828   0.4899
  0.4929   0.4985   0.5040   0.5541   0.5693   0.5790   0.5929   0.6114
  0.6267   0.6315   0.6406   0.6472   0.6575   0.6648   0.6730   0.6780
  0.6856   0.7059   0.7112   0.7213   0.7242   0.7380   0.7472   0.7578
  0.7650   0.7742   0.7770   0.7874   0.8197   0.8279   0.8415   0.8726
  0.8773   0.8841   0.9022   0.9269   0.9416   0.9481   0.9569   0.9799
  0.9938   1.0047   1.0153   1.0398   1.0459   1.0536   1.0740   1.0902
  1.0938   1.1003   1.1235   1.1266   1.1428   1.1493   1.1546   1.1584
  1.1734   1.1797   1.1842   1.1881   1.1959   1.2024   1.2072   1.2126
  1.2200   1.2302   1.2416   1.2454   1.2589   1.2622   1.2690   1.2762
  1.2777   1.2895   1.3093   1.3149   1.3186   1.3273   1.3398   1.3501
  1.3582   1.3697   1.3796   1.3824   1.3924   1.4183   1.4407   1.4464
  1.4688   1.4721   1.4918   1.5004   1.5031   1.5197   1.5372   1.5385
  1.5418   1.5593   1.5746   1.5959   1.6059   1.6171   1.6357   1.6452
  1.6492   1.6663   1.6779   1.6866   1.6984   1.7135   1.7285   1.7433
  1.7486   1.7617   1.7693   1.7846   1.8109   1.8358   1.8477   1.8685
  1.8862   1.8959   1.9044   1.9190   1.9342   1.9668   1.9765   1.9985
  2.0150   2.0472   2.0553   2.0780   2.1237   2.1282   2.1619   2.1700
  2.2315   2.2438   2.2777   2.2879   2.3058   2.3180   2.3328   2.3363
  2.3956   2.4059   2.4120   2.4329   2.4487   2.4644   2.4830   2.5070
  2.5430   2.5603   2.6184   2.6670   2.6768   2.6883   2.7228   2.7475
  2.7707   2.7821   2.8011   2.8362   2.8392   2.8728   2.9063   2.9250
  2.9600   2.9710   2.9781   2.9847   3.0085   3.0342   3.0820   3.0900
  3.1245   3.1485   3.1540   3.1811   3.2196   3.2376   3.2599   3.2849
  3.3016   3.3267   3.3732   3.3849   3.4042   3.4126   3.4267   3.4466
  3.4562   3.4659   3.4892   3.4951   3.5347   3.5469   3.5650   3.5797
  3.6004   3.6153   3.6269   3.6625   3.6758   3.6796   3.7166   3.7257
  3.7424   3.7579   3.7672   3.7788   3.8046   3.8153   3.8219   3.8336
  3.8405   3.8572   3.8688   3.8785   3.8816   3.9003   3.9295   3.9453
  3.9657   3.9703   4.0044   4.0116   4.0488   4.0557   4.0743   4.1221
  4.1428   4.1689   4.1907   4.1974   4.2193   4.2306   4.2463   4.2706
  4.2794   4.2867   4.3085   4.3477   4.3682   4.3976   4.4110   4.4190
  4.4233   4.4813   4.4976   4.5224   4.5312   4.5803   4.5938   4.6111
  4.6382   4.6656   4.6927   4.7064   4.7264   4.7407   4.7861   4.8217
  4.8327   4.8569   4.8915   4.9196   4.9965   5.0105   5.0362   5.0766
  5.1305   5.1367   5.1713   5.1765   5.1861   5.1970   5.1981   5.2113
  5.2229   5.2263   5.2358   5.2603   5.2651   5.2754   5.2760   5.2938
  5.2957   5.3197   5.3245   5.3301   5.3440   5.3661   5.3705   5.3756
  5.4030   5.4204   5.4243   5.4598   5.4817   5.4912   5.5009   5.5094
  5.5194   5.5421   5.5591   5.5833   5.6166   5.6175   5.6223   5.6303
  5.6428   5.6546   5.6731   5.6828   5.6906   5.7122   5.7606   5.7984
  5.8126   5.8229   5.8358   5.8575   5.9021   5.9799   6.0233   6.0779
  6.1052   6.1188   6.1419   6.2478   6.3649   6.4261   6.5229   6.5390
  6.5946   6.6386   6.7475   6.7653   6.7853   6.8420   6.9176   6.9455
  6.9780   7.0036   7.0164   7.0242   7.0401   7.0735   7.0767   7.1142
  7.1389   7.1540   7.1628   7.2178   7.2494   7.2596   7.2677   7.2892
  7.3136   7.3160   7.3305   7.3384   7.3608   7.3857   7.3995   7.4138
  7.4241   7.4494   7.4718   7.5191   7.5388   7.5799   7.6148   7.6585
  7.6713   7.7034   7.7695   7.7946   7.8191   7.8544   7.8700   7.9009
  7.9652   8.0457   8.1281   8.1746  24.6184  24.7087  24.7825  24.8386
 25.0207  50.4430  50.5028  50.5400  50.5784  50.6093  50.6285  50.6331
 50.7593
 --------------------------------------------------------------
 
          Ground-State Mulliken Net Atomic Charges

     Atom                 Charge (a.u.)    Spin (a.u.)
  --------------------------------------------------------
      1 C                    -0.192614      -0.000834
      2 O                    -0.393714       0.006563
      3 C                     0.436665       0.005039
      4 O                    -0.404112       0.006983
      5 C                    -0.556705       0.001228
      6 C                    -0.033513      -0.004926
      7 O                    -0.098456      -0.000104
      8 O                    -0.314969      -0.000066
      9 C                    -0.341769      -0.000509
     10 O                    -0.404058       0.000197
     11 O                    -0.452978      -0.000006
     12 H                     0.336992       0.001134
     13 H                     0.340539      -0.001074
     14 H                     0.227884      -0.000618
     15 H                     0.299855       0.001377
     16 H                     0.333253       0.000813
     17 H                     0.359407      -0.000006
     18 H                     0.295952      -0.000070
     19 H                     0.344031       0.000012
     20 H                     0.347417      -0.000029
     21 O                     0.075901       0.305149
     22 O                    -0.205007       0.679748
  --------------------------------------------------------
  Sum of atomic charges =    -0.000000
  Sum of spin   charges =     1.000000

 -----------------------------------------------------------------
                    Cartesian Multipole Moments
 -----------------------------------------------------------------
    Charge (ESU x 10^10)
                -0.0000
    Dipole Moment (Debye)
         X       0.3084      Y       1.7876      Z      -4.9991
       Tot       5.3181
    Quadrupole Moments (Debye-Ang)
        XX     -64.9148     XY       2.5355     YY     -87.1925
        XZ      -0.1964     YZ     -13.7640     ZZ     -83.6980
    Octopole Moments (Debye-Ang^2)
       XXX    -655.9169    XXY     -81.2377    XYY    -319.7471
       YYY    -422.2399    XXZ      15.6603    XYZ     -48.4464
       YYZ     -94.3245    XZZ    -293.5407    YZZ    -147.8357
       ZZZ    -114.2367
    Hexadecapole Moments (Debye-Ang^3)
      XXXX   -5138.1607   XXXY   -1070.2202   XXYY   -1701.2701
      XYYY   -1846.0833   YYYY   -3181.8844   XXXZ      28.1660
      XXYZ    -291.5059   XYYZ    -344.0309   YYYZ    -780.4046
      XXZZ   -1286.4154   XYZZ    -583.9531   YYZZ    -728.4832
      XZZZ    -313.5456   YZZZ    -488.3651   ZZZZ    -761.5917
 -----------------------------------------------------------------
 Calculating analytic gradient of the SCF energy
 Gradient of CDS energy
            1           2           3           4           5           6
    1  -0.0049029   0.0046604  -0.0011495   0.0008665   0.0002678   0.0000177
    2  -0.0016674   0.0016294  -0.0005654   0.0002990  -0.0001266   0.0000398
    3  -0.0006977   0.0004427   0.0013978  -0.0008873   0.0000106   0.0000805
            7           8           9          10          11          12
    1   0.0001115   0.0002783   0.0009768  -0.0012615   0.0001117   0.0002895
    2   0.0001182  -0.0001301   0.0021332   0.0005639  -0.0027405   0.0000401
    3  -0.0000430   0.0001549  -0.0011251   0.0014876  -0.0000675  -0.0000016
           13          14          15          16          17          18
    1  -0.0003705   0.0000288   0.0000155  -0.0000038  -0.0004903  -0.0000425
    2  -0.0000835   0.0000213   0.0000770   0.0000199   0.0000507  -0.0000797
    3  -0.0002879  -0.0001323   0.0001953  -0.0000851  -0.0000996   0.0001722
           19          20          21          22
    1   0.0004590   0.0000010   0.0001115   0.0000251
    2  -0.0000393   0.0004329   0.0000460  -0.0000388
    3  -0.0002366  -0.0002554  -0.0000295   0.0000070
 Gradient of SCF Energy
            1           2           3           4           5           6
    1   0.0036478   0.0017594   0.0068459  -0.0050341  -0.0176587   0.0100967
    2  -0.0177877  -0.0044883   0.0066567  -0.0023652   0.0062144  -0.0055599
    3   0.0113702   0.0260346  -0.0076203   0.0048573  -0.0019494   0.0221425
            7           8           9          10          11          12
    1   0.0008996   0.0122973  -0.0047219  -0.0117610   0.0058571  -0.0001126
    2  -0.0038678   0.0104536   0.0033274  -0.0049819   0.0015760   0.0168164
    3   0.0037909   0.0084068  -0.0109861  -0.0044822   0.0128421  -0.0114354
           13          14          15          16          17          18
    1  -0.0048667   0.0053541   0.0040453  -0.0072960  -0.0140426   0.0051876
    2   0.0027903  -0.0027269  -0.0006317   0.0028697  -0.0069376  -0.0049602
    3  -0.0227882  -0.0051983   0.0058712  -0.0165916  -0.0098072   0.0058244
           19          20          21          22
    1   0.0141298  -0.0059806  -0.0034592   0.0048127
    2   0.0037656   0.0010544  -0.0019054   0.0006880
    3   0.0029174  -0.0115932   0.0023702  -0.0039759
 Max gradient component =       2.603E-02
 RMS gradient           =       9.160E-03
 Computing fast CPCM-SWIG gradient
 Updating gradient with PCM contributions...
 -- total gradient after adding PCM contribution --
---------------------------------------------------
  Atom         X              Y              Z     
---------------------------------------------------
   1       0.000492       0.001005       0.000856
   2      -0.000349      -0.000176       0.000230
   3       0.000902      -0.000120      -0.001167
   4      -0.000409       0.000446       0.000619
   5       0.000305       0.000506       0.000480
   6       0.000883       0.000257       0.000389
   7       0.000118      -0.002108       0.000918
   8      -0.001514       0.001313      -0.000551
   9      -0.000290      -0.000390       0.000038
  10      -0.000306      -0.000119       0.000273
  11       0.001543      -0.000168      -0.000098
  12      -0.000171       0.000027       0.000080
  13      -0.000131      -0.000219      -0.000760
  14      -0.000443       0.000493       0.000135
  15       0.000222      -0.000180       0.000143
  16      -0.000308      -0.000644      -0.000495
  17      -0.000825       0.000385       0.000034
  18       0.000138      -0.000335       0.000062
  19       0.000662       0.000450      -0.000169
  20      -0.000342       0.000425      -0.000447
  21      -0.001734      -0.001809       0.000566
  22       0.001557       0.000963      -0.001139
---------------------------------------------------
 Number of fixed atoms: 0
 Gradient time:  CPU 610.57 s  wall 50.97 s
 Geometry Optimization Parameters
   NAtoms,    NIC,     NZ,  NCons,   NDum,   NFix, NCnnct, MaxDiis
       22     144       0       0       0       0       0       0

 Cartesian Hessian Update
 Hessian updated using BFGS update


** GEOMETRY OPTIMIZATION IN DELOCALIZED INTERNAL COORDINATES **
   Searching for a Minimum

   Optimization Cycle:   2

                       Coordinates (Angstroms)
     ATOM                X               Y               Z
      1  C         2.3579593513    0.0297459432   -0.7084553523
      2  O         1.0904345252   -0.4755516403   -0.8183780011
      3  C         2.6800848088    0.3224452787    0.7653463198
      4  O         1.8922015007    0.0072693752    1.6250462149
      5  C         3.9705647857    1.0316166305    1.0504516662
      6  C         3.7956835360    2.5346916688    0.8457385478
      7  O         2.8844861869    2.9585576391    1.8599060851
      8  O         2.1657181561    4.1085431580    1.4025122136
      9  C         5.1372090253    3.2545758347    0.9697607440
     10  O         5.9000661286    2.8531684950   -0.1442824099
     11  O         4.9981152271    4.6529233584    1.0214683207
     12  H         2.5656191211    0.8812419689   -1.3544103252
     13  H         0.8174203587   -0.4433761362   -1.7447765811
     14  H         4.7513042243    0.6873480977    0.3761510792
     15  H         4.2675224364    0.8296351781    2.0790725028
     16  H         3.3603521361    2.7497082045   -0.1337398202
     17  H         1.3330908463    3.7157332514    1.0981652978
     18  H         5.6322718855    2.9748696577    1.9011359853
     19  H         6.8070279456    3.1549560671   -0.0120729909
     20  H         4.4468563366    4.9381569425    0.2804938837
     21  O         3.2994232208   -1.0331991856   -1.1279025169
     22  O         4.2830729568   -0.5709784875   -1.8485986635
   Point Group: c1    Number of degrees of freedom:    60


   Energy is   -797.574028751

 Hessian updated using BFGS update

 57 Hessian modes will be used to form the next step
  Hessian Eigenvalues:
     0.004235    0.004518    0.004837    0.005118    0.005320    0.006460
     0.008365    0.012921    0.014317    0.014756    0.019401    0.044696
     0.046452    0.051390    0.056833    0.058174    0.062187    0.065154
     0.074707    0.081747    0.089137    0.093030    0.094100    0.125070
     0.153787    0.160378    0.168566    0.184698    0.190928    0.199180
     0.203210    0.208588    0.219773    0.246588    0.249938    0.264610
     0.287229    0.292457    0.297134    0.317096    0.332101    0.340489
     0.342054    0.343120    0.343939    0.347187    0.396078    0.410186
     0.440718    0.445143    0.495550    0.510663    0.522962    0.527657
     0.529452    0.630886    0.970993

 Minimum search - taking simple RFO step
 Searching for Lamda that Minimizes Along All modes
 Value Taken    Lamda =  -0.00036028
 Step Taken.  Stepsize is  0.162049

                             Maximum     Tolerance    Cnvgd?
         Gradient           0.004464      0.000300      NO
         Displacement       0.059604      0.001200      NO
         Energy change     -0.000717      0.000001      NO


 New Cartesian Coordinates Obtained by Inverse Iteration

 Displacement from previous Coordinates is:  0.326795
 ----------------------------------------------------------------
             Standard Nuclear Orientation (Angstroms)
    I     Atom           X                Y                Z
 ----------------------------------------------------------------
    1      C       2.3547579280     0.0221015518    -0.7087847444
    2      O       1.0998983724    -0.5104084062    -0.8222404860
    3      C       2.6659622772     0.3221546098     0.7653139293
    4      O       1.8911505125    -0.0233098742     1.6231635274
    5      C       3.9554906135     1.0295260652     1.0529285537
    6      C       3.7885921614     2.5346377343     0.8523177314
    7      O       2.8961670658     2.9694667129     1.8754430646
    8      O       2.2101092436     4.1397224079     1.4319868630
    9      C       5.1307556508     3.2499712511     0.9688570401
   10      O       5.8805522430     2.8625473571    -0.1586234330
   11      O       4.9837952625     4.6465046392     1.0381472959
   12      H       2.5453327123     0.8773027491    -1.3534894950
   13      H       0.8240735567    -0.4795046442    -1.7456539906
   14      H       4.7353150981     0.6818507909     0.3800275754
   15      H       4.2501773980     0.8249392369     2.0802525754
   16      H       3.3473506197     2.7613391502    -0.1201355740
   17      H       1.4175069494     3.7615064678     1.0256150450
   18      H       5.6362542188     2.9619820341     1.8905782817
   19      H       6.7898316075     3.1523680548    -0.0310826535
   20      H       4.4220337348     4.9385224112     0.3104240030
   21      O       3.3225043015    -1.0179780000    -1.1209177248
   22      O       4.2888731724    -0.5431609999    -1.8514951849
 ----------------------------------------------------------------
 Nuclear Repulsion Energy =         891.39106720 hartrees
 There are       52 alpha and       51 beta electrons
 Discretize the solute cavity surface with Lebedev spheres
	Using 110 Lebedev grid points for each H atom
	Using 194 Lebedev grid points for other atoms
	Atomic van der Waals radii will be scaled by 1.20
 Remove points where switching function is < 1.0e-08
 Keep 1808 surface tesserae and discard 1704 interior tesserae
 Molecular Surface Area = 200.603 Angst**2
 Applying Cartesian multipole field
    Component          Value
    ---------          -----
     (2,0,0)        1.00000E-12
     (0,2,0)        2.00000E-11
     (0,0,2)       -3.00000E-11
 Nucleus-field energy     =     0.0000000339 hartrees
 Requested basis set is 6-311++G(2df,2p)
 There are 158 shells and 532 basis functions
 A cutoff of  1.0D-12 yielded  10316 shell pairs
 There are    113805 function pairs (    141092 Cartesian)
 Smallest overlap matrix eigenvalue = 5.84E-06
 Guess MOs from SCF MO coefficient file

 -----------------------------------------------------------------------
  General SCF calculation program by
  Eric Jon Sundstrom, Paul Horn, Yuezhi Mao, Dmitri Zuev, Alec White,
  David Stuck, Shaama M.S., Shane Yost, Joonho Lee, David Small,
  Daniel Levine, Susi Lehtola, Hugh Burton, Evgeny Epifanovsky,
  Bang C. Huynh
 -----------------------------------------------------------------------
 Exchange:     0.1500 Hartree-Fock + 1.0000 wB97M-V + LR-HF
 Correlation:  1.0000 wB97M-V
 Using SG-2 standard quadrature grid
 Nonlocal Correlation:  VV10 with C = 0.0100 and b = 6.00 and scale = 1.00000
 Grid used for NLC:  SG-1 standard quadrature
 
 Citation of the SMD model:
 Marenich, A.V.; Cramer, C.J.; Truhlar, D.G.
 J. Phys. Chem. B 2009, 113, 6378-6396.
 iSolventCode=           1
 Solvent: water                                                           
 
 vradii
            1           2           3           4           5           6
    1   1.8500000   1.5200000   1.8500000   1.5200000   1.8500000   1.8500000
            7           8           9          10          11          12
    1   1.5200000   1.5200000   1.8500000   1.5200000   1.5200000   1.2000000
           13          14          15          16          17          18
    1   1.2000000   1.2000000   1.2000000   1.2000000   1.2000000   1.2000000
           19          20          21          22
    1   1.2000000   1.2000000   1.5200000   1.5200000
 -------------------------------------------------------
 OpenMP BLAS3 based DFT computing Module                
 Release: version 1.0, May 2013, Q-Chem Inc. Pittsburgh 
 -------------------------------------------------------
 A unrestricted SCF calculation will be
 performed using Roothaan-Hall, DIIS, GDM
 SCF converges when RMS gradient is below 1.0e-07
 ---------------------------------------
  Cycle       Energy         DIIS error
 ---------------------------------------
    1    -797.5069548271      2.84e-04  Roothaan Step
 ---------------------------------------
  Cycle       Energy         DIIS error
 ---------------------------------------
    1    -797.5646508971      2.93e-04  
    2    -797.5731691294      2.93e-04  Done DIIS. Switching to GDM
 ---------------------------------------
  Cycle       Energy        RMS Gradient
 ---------------------------------------
    1    -797.5731691294      2.53e-02   Normal BFGS step
    2    -797.5690999747      4.05e-02  Line search: overstep
    3    -797.5810847724      3.14e-03   Normal BFGS step
    4    -797.5814283904      1.22e-03   Normal BFGS step
    5    -797.5814890255      1.68e-03   Normal BFGS step
    6    -797.5815065530      6.42e-04   Normal BFGS step
    7    -797.5815079891      5.61e-04   Normal BFGS step
    8    -797.5815094156      5.06e-04   Normal BFGS step
    9    -797.5815102430      4.06e-04   Normal BFGS step
   10    -797.5815112041      2.28e-04   Normal BFGS step
   11    -797.5815115604      1.17e-04   Normal BFGS step
   12    -797.5815116650      5.06e-05   Normal BFGS step
   13    -797.5815116888      1.25e-05   Normal BFGS step
   14    -797.5815116970      8.95e-06   Normal BFGS step
   15    -797.5815116988      7.28e-06   Normal BFGS step
   16    -797.5815116993      4.99e-06   Normal BFGS step
   17    -797.5815116994      2.19e-06   Normal BFGS step
   18    -797.5815116994      4.40e-07   Normal BFGS step
   19    -797.5815116994      2.53e-07   Normal BFGS step
   20    -797.5815116994      4.74e-08  Convergence criterion met
 ---------------------------------------
 SCF time:   CPU 4642.41s  wall 321.00s 
<S^2> =          0.754061139
(3)  G-ENP(liq) elect-nuc-pol free energy of system     -797.581511699 a.u.
(4)  G-CDS(liq) cavity-dispersion-solvent structure 
     free energy                                                4.6681 kcal/mol
(6)  G-S(liq) free energy of system                     -797.574072658 a.u.
 SCF   energy in the final basis set =     -797.5740726580
 Total energy in the final basis set =     -797.5740726580
 
 --------------------------------------------------------------
 
                    Orbital Energies (a.u.)
 --------------------------------------------------------------
 
 Alpha MOs
 -- Occupied --
-19.4706 -19.4255 -19.4061 -19.3970 -19.3716 -19.3570 -19.3472 -19.3455
-10.4718 -10.4617 -10.4476 -10.4126 -10.3579  -1.3535  -1.2740  -1.2212
 -1.2035  -1.1947  -1.1364  -1.0581  -1.0141  -0.9208  -0.8512  -0.8134
 -0.7440  -0.7018  -0.6888  -0.6843  -0.6616  -0.6460  -0.6402  -0.6243
 -0.5998  -0.5883  -0.5791  -0.5708  -0.5649  -0.5504  -0.5380  -0.5241
 -0.5048  -0.4931  -0.4635  -0.4598  -0.4581  -0.4344  -0.4213  -0.4194
 -0.4082  -0.4041  -0.3928  -0.3727
 -- Virtual --
  0.0267   0.0287   0.0360   0.0411   0.0466   0.0593   0.0641   0.0664
  0.0761   0.0920   0.0951   0.1011   0.1072   0.1140   0.1269   0.1300
  0.1363   0.1435   0.1514   0.1537   0.1545   0.1617   0.1665   0.1672
  0.1751   0.1776   0.1855   0.1915   0.1988   0.2034   0.2109   0.2198
  0.2298   0.2407   0.2441   0.2536   0.2621   0.2641   0.2651   0.2736
  0.2771   0.2844   0.2922   0.2952   0.2997   0.3043   0.3093   0.3189
  0.3240   0.3289   0.3323   0.3361   0.3405   0.3448   0.3474   0.3500
  0.3561   0.3648   0.3728   0.3751   0.3767   0.3792   0.3847   0.3887
  0.3940   0.3989   0.4067   0.4099   0.4175   0.4245   0.4306   0.4352
  0.4422   0.4474   0.4549   0.4648   0.4720   0.4807   0.4900   0.4951
  0.4975   0.5041   0.5537   0.5688   0.5784   0.5960   0.6099   0.6282
  0.6306   0.6424   0.6482   0.6579   0.6668   0.6730   0.6793   0.6851
  0.7054   0.7089   0.7201   0.7235   0.7389   0.7462   0.7582   0.7676
  0.7727   0.7769   0.7872   0.8202   0.8271   0.8396   0.8748   0.8757
  0.8789   0.9043   0.9274   0.9407   0.9539   0.9586   0.9837   0.9916
  1.0017   1.0122   1.0385   1.0429   1.0494   1.0760   1.0862   1.0951
  1.0986   1.1177   1.1258   1.1411   1.1459   1.1522   1.1576   1.1715
  1.1732   1.1809   1.1844   1.1886   1.2006   1.2071   1.2151   1.2218
  1.2257   1.2386   1.2455   1.2552   1.2606   1.2638   1.2665   1.2767
  1.2882   1.3059   1.3151   1.3170   1.3282   1.3401   1.3484   1.3567
  1.3688   1.3825   1.3836   1.3906   1.4135   1.4407   1.4475   1.4624
  1.4649   1.4852   1.4998   1.5043   1.5192   1.5354   1.5402   1.5416
  1.5595   1.5738   1.5967   1.6013   1.6176   1.6332   1.6415   1.6456
  1.6595   1.6747   1.6810   1.6939   1.7061   1.7277   1.7356   1.7417
  1.7549   1.7642   1.7876   1.8099   1.8319   1.8501   1.8625   1.8891
  1.8925   1.9038   1.9152   1.9356   1.9628   1.9758   1.9998   2.0152
  2.0435   2.0573   2.0764   2.1214   2.1295   2.1609   2.1719   2.2334
  2.2424   2.2751   2.2886   2.3003   2.3139   2.3328   2.3379   2.3928
  2.4067   2.4150   2.4305   2.4478   2.4628   2.4834   2.5041   2.5393
  2.5583   2.6190   2.6606   2.6800   2.6890   2.7202   2.7516   2.7743
  2.7821   2.8040   2.8369   2.8448   2.8764   2.9078   2.9243   2.9585
  2.9734   2.9783   2.9845   3.0096   3.0335   3.0867   3.0925   3.1263
  3.1508   3.1577   3.1789   3.2157   3.2411   3.2597   3.2854   3.3002
  3.3293   3.3780   3.3861   3.4035   3.4152   3.4276   3.4462   3.4562
  3.4676   3.4914   3.4975   3.5354   3.5486   3.5641   3.5823   3.6023
  3.6131   3.6247   3.6620   3.6765   3.6818   3.7152   3.7239   3.7417
  3.7595   3.7646   3.7821   3.7978   3.8175   3.8244   3.8347   3.8430
  3.8562   3.8712   3.8777   3.8824   3.9036   3.9276   3.9549   3.9727
  3.9821   4.0080   4.0173   4.0495   4.0537   4.0766   4.1231   4.1449
  4.1713   4.1928   4.1991   4.2201   4.2338   4.2448   4.2768   4.2805
  4.2953   4.3134   4.3485   4.3716   4.4003   4.4127   4.4205   4.4248
  4.4785   4.4990   4.5244   4.5321   4.5699   4.5890   4.6157   4.6340
  4.6633   4.6855   4.7023   4.7139   4.7420   4.7824   4.8157   4.8381
  4.8409   4.8871   4.9242   4.9860   5.0036   5.0370   5.0716   5.0810
  5.0870   5.1043   5.1616   5.1703   5.1838   5.1981   5.2001   5.2109
  5.2181   5.2282   5.2360   5.2550   5.2701   5.2767   5.2838   5.2913
  5.3141   5.3191   5.3325   5.3379   5.3602   5.3618   5.3691   5.4094
  5.4228   5.4342   5.4503   5.4773   5.4927   5.4991   5.5073   5.5123
  5.5453   5.5531   5.5788   5.6158   5.6220   5.6263   5.6343   5.6415
  5.6517   5.6761   5.6791   5.6950   5.7181   5.7696   5.7921   5.8104
  5.8201   5.8435   5.8576   5.9048   5.9804   6.0293   6.0882   6.1105
  6.1266   6.1462   6.2575   6.3584   6.4272   6.4911   6.5421   6.5944
  6.6446   6.7446   6.7662   6.7856   6.8385   6.8547   6.8667   6.9582
  6.9760   7.0130   7.0148   7.0412   7.0690   7.0777   7.1047   7.1149
  7.1458   7.1670   7.2153   7.2222   7.2660   7.2735   7.2910   7.3150
  7.3242   7.3352   7.3402   7.3613   7.3706   7.3983   7.4043   7.4220
  7.4356   7.4704   7.4992   7.5420   7.5804   7.6151   7.6598   7.6717
  7.7069   7.7623   7.7982   7.8177   7.8538   7.8677   7.9024   7.9729
  8.0360   8.1161   8.1785  24.6247  24.7136  24.7861  24.8466  25.0259
 50.4333  50.5055  50.5333  50.5817  50.6113  50.6308  50.6354  50.7604
 
 Beta MOs
 -- Occupied --
-19.4604 -19.4065 -19.4061 -19.3970 -19.3714 -19.3568 -19.3472 -19.3455
-10.4721 -10.4615 -10.4476 -10.4127 -10.3579  -1.3278  -1.2740  -1.2198
 -1.2035  -1.1937  -1.1364  -1.0581  -0.9828  -0.9187  -0.8463  -0.8096
 -0.7437  -0.6948  -0.6878  -0.6826  -0.6478  -0.6442  -0.6271  -0.6204
 -0.5903  -0.5778  -0.5701  -0.5654  -0.5502  -0.5378  -0.5291  -0.5229
 -0.5023  -0.4912  -0.4632  -0.4581  -0.4526  -0.4344  -0.4197  -0.4095
 -0.4022  -0.3874  -0.3743
 -- Virtual --
 -0.0388   0.0268   0.0317   0.0379   0.0415   0.0472   0.0595   0.0643
  0.0666   0.0763   0.0924   0.0957   0.1021   0.1074   0.1144   0.1270
  0.1309   0.1364   0.1436   0.1518   0.1541   0.1550   0.1623   0.1667
  0.1676   0.1753   0.1808   0.1867   0.1932   0.1989   0.2045   0.2122
  0.2208   0.2329   0.2414   0.2458   0.2549   0.2643   0.2648   0.2675
  0.2747   0.2773   0.2863   0.2934   0.2961   0.3006   0.3060   0.3099
  0.3199   0.3247   0.3291   0.3332   0.3380   0.3414   0.3454   0.3481
  0.3503   0.3578   0.3657   0.3732   0.3758   0.3769   0.3803   0.3851
  0.3903   0.3953   0.3992   0.4070   0.4111   0.4178   0.4252   0.4307
  0.4358   0.4430   0.4475   0.4554   0.4656   0.4724   0.4814   0.4911
  0.4955   0.4980   0.5045   0.5542   0.5688   0.5786   0.5962   0.6100
  0.6286   0.6308   0.6426   0.6486   0.6583   0.6672   0.6737   0.6795
  0.6856   0.7057   0.7093   0.7203   0.7242   0.7390   0.7464   0.7584
  0.7678   0.7732   0.7771   0.7874   0.8209   0.8271   0.8407   0.8751
  0.8763   0.8794   0.9053   0.9276   0.9430   0.9552   0.9590   0.9841
  0.9918   1.0024   1.0134   1.0398   1.0447   1.0504   1.0770   1.0874
  1.0972   1.0992   1.1239   1.1281   1.1427   1.1502   1.1536   1.1581
  1.1735   1.1803   1.1837   1.1892   1.1951   1.2026   1.2092   1.2156
  1.2224   1.2305   1.2412   1.2473   1.2594   1.2621   1.2669   1.2760
  1.2773   1.2904   1.3082   1.3169   1.3194   1.3293   1.3416   1.3517
  1.3582   1.3704   1.3835   1.3861   1.3926   1.4165   1.4417   1.4486
  1.4630   1.4676   1.4892   1.5006   1.5050   1.5206   1.5381   1.5413
  1.5430   1.5611   1.5764   1.5980   1.6053   1.6185   1.6368   1.6467
  1.6516   1.6639   1.6804   1.6893   1.7000   1.7125   1.7296   1.7429
  1.7473   1.7605   1.7695   1.7902   1.8131   1.8342   1.8522   1.8669
  1.8905   1.8946   1.9051   1.9190   1.9374   1.9640   1.9763   2.0010
  2.0161   2.0457   2.0578   2.0792   2.1263   2.1314   2.1656   2.1727
  2.2343   2.2487   2.2775   2.2931   2.3090   2.3223   2.3343   2.3387
  2.3969   2.4073   2.4156   2.4350   2.4492   2.4640   2.4842   2.5054
  2.5405   2.5595   2.6197   2.6680   2.6806   2.6899   2.7212   2.7518
  2.7745   2.7827   2.8044   2.8374   2.8452   2.8765   2.9080   2.9246
  2.9589   2.9737   2.9786   2.9850   3.0096   3.0338   3.0867   3.0926
  3.1264   3.1509   3.1578   3.1790   3.2162   3.2414   3.2600   3.2854
  3.3007   3.3294   3.3782   3.3864   3.4037   3.4156   3.4281   3.4463
  3.4563   3.4676   3.4913   3.4976   3.5354   3.5487   3.5646   3.5824
  3.6024   3.6133   3.6248   3.6621   3.6766   3.6819   3.7155   3.7246
  3.7419   3.7598   3.7649   3.7822   3.7981   3.8179   3.8245   3.8348
  3.8432   3.8565   3.8713   3.8781   3.8825   3.9036   3.9278   3.9550
  3.9728   3.9822   4.0080   4.0174   4.0498   4.0537   4.0767   4.1233
  4.1450   4.1716   4.1928   4.1993   4.2204   4.2345   4.2451   4.2768
  4.2811   4.2956   4.3136   4.3487   4.3723   4.4004   4.4132   4.4207
  4.4260   4.4812   4.5000   4.5246   4.5329   4.5826   4.5951   4.6174
  4.6374   4.6681   4.6926   4.7076   4.7275   4.7423   4.7825   4.8235
  4.8398   4.8566   4.8968   4.9250   4.9972   5.0060   5.0407   5.0753
  5.1301   5.1363   5.1717   5.1765   5.1859   5.1966   5.1993   5.2111
  5.2247   5.2280   5.2369   5.2622   5.2670   5.2757   5.2794   5.2924
  5.2968   5.3216   5.3236   5.3331   5.3435   5.3656   5.3707   5.3772
  5.4132   5.4252   5.4354   5.4637   5.4800   5.4932   5.5028   5.5098
  5.5136   5.5454   5.5539   5.5825   5.6165   5.6221   5.6278   5.6345
  5.6438   5.6578   5.6783   5.6880   5.6964   5.7182   5.7710   5.8006
  5.8121   5.8286   5.8449   5.8615   5.9050   5.9856   6.0294   6.0882
  6.1112   6.1266   6.1463   6.2575   6.3699   6.4319   6.5347   6.5421
  6.6052   6.6447   6.7508   6.7675   6.7931   6.8554   6.9176   6.9460
  6.9782   7.0050   7.0145   7.0255   7.0414   7.0740   7.0783   7.1149
  7.1413   7.1641   7.1687   7.2211   7.2479   7.2662   7.2741   7.2922
  7.3182   7.3248   7.3371   7.3438   7.3679   7.3872   7.4041   7.4181
  7.4277   7.4500   7.4721   7.5227   7.5420   7.5812   7.6154   7.6607
  7.6734   7.7070   7.7684   7.7984   7.8184   7.8554   7.8725   7.9025
  7.9730   8.0502   8.1347   8.1786  24.6247  24.7134  24.7861  24.8466
 25.0260  50.4460  50.5062  50.5419  50.5820  50.6115  50.6308  50.6354
 50.7607
 --------------------------------------------------------------
 
          Ground-State Mulliken Net Atomic Charges

     Atom                 Charge (a.u.)    Spin (a.u.)
  --------------------------------------------------------
      1 C                    -0.200026      -0.000922
      2 O                    -0.394655       0.006791
      3 C                     0.451793       0.004867
      4 O                    -0.405578       0.007099
      5 C                    -0.553876       0.001864
      6 C                    -0.074556      -0.005191
      7 O                    -0.097562      -0.000109
      8 O                    -0.314953      -0.000064
      9 C                    -0.307607      -0.000576
     10 O                    -0.404741       0.000223
     11 O                    -0.452877       0.000003
     12 H                     0.333973       0.000985
     13 H                     0.340081      -0.001060
     14 H                     0.227431      -0.000732
     15 H                     0.300394       0.001382
     16 H                     0.336170       0.000856
     17 H                     0.359165      -0.000005
     18 H                     0.296818      -0.000086
     19 H                     0.343171       0.000020
     20 H                     0.346550      -0.000034
     21 O                     0.076443       0.305719
[...]
   1      -0.000078       0.000080      -0.000035
   2       0.000009       0.000020      -0.000011
   3      -0.000004      -0.000034       0.000006
   4      -0.000007      -0.000003      -0.000018
   5      -0.000017       0.000023      -0.000011
   6       0.000035      -0.000014      -0.000010
   7      -0.000052      -0.000008       0.000026
   8       0.000014      -0.000002       0.000000
   9      -0.000027      -0.000007      -0.000010
  10       0.000015       0.000017       0.000006
  11       0.000025      -0.000011       0.000018
  12       0.000016      -0.000014      -0.000008
  13      -0.000004       0.000016      -0.000011
  14      -0.000009      -0.000011      -0.000000
  15      -0.000006      -0.000004       0.000005
  16      -0.000004       0.000008      -0.000004
  17       0.000006      -0.000007      -0.000008
  18       0.000006       0.000007       0.000002
  19       0.000016      -0.000026       0.000012
  20       0.000007      -0.000009       0.000007
  21       0.000047      -0.000028       0.000066
  22       0.000013       0.000006      -0.000022
---------------------------------------------------
 Number of fixed atoms: 0
 Gradient time:  CPU 620.17 s  wall 51.51 s
 Geometry Optimization Parameters
   NAtoms,    NIC,     NZ,  NCons,   NDum,   NFix, NCnnct, MaxDiis
       22     144       0       0       0       0       0       0

 Cartesian Hessian Update
 Hessian updated using BFGS update


** GEOMETRY OPTIMIZATION IN DELOCALIZED INTERNAL COORDINATES **
   Searching for a Minimum

   Optimization Cycle:  10

                       Coordinates (Angstroms)
     ATOM                X               Y               Z
      1  C         2.3511776409    0.0289440262   -0.6945353336
      2  O         1.1092619660   -0.5350181823   -0.7988777250
      3  C         2.6799824766    0.3034764829    0.7818966638
      4  O         1.9107701922   -0.0504312223    1.6426012912
      5  C         3.9628745399    1.0279991632    1.0657731743
      6  C         3.7951547523    2.5282739688    0.8399585310
      7  O         2.8791174992    2.9692998722    1.8415757093
      8  O         2.1956096385    4.1318074613    1.3743381791
      9  C         5.1348406484    3.2495951546    0.9675595709
     10  O         5.8963330706    2.8582081230   -0.1509005260
     11  O         4.9846129021    4.6464247776    1.0319744338
     12  H         2.5079357364    0.9033142434   -1.3241656053
     13  H         0.8067275421   -0.4663214119   -1.7131342178
     14  H         4.7530072531    0.6693912781    0.4084559076
     15  H         4.2478733531    0.8434419318    2.1008351934
     16  H         3.3698703044    2.7403255974   -0.1439104822
     17  H         1.3864524473    3.7504403306    1.0012457914
     18  H         5.6337511546    2.9667306199    1.8952457371
     19  H         6.8164578918    3.0950577540    0.0123610228
     20  H         4.4150526876    4.9303125955    0.3055430796
     21  O         3.3443645053   -0.9713116182   -1.1427842274
     22  O         4.2552564978   -0.4578796460   -1.9184239683
   Point Group: c1    Number of degrees of freedom:    60


   Energy is   -797.574203175

 Hessian updated using BFGS update

 60 Hessian modes will be used to form the next step
  Hessian Eigenvalues:
     0.000956    0.003282    0.004809    0.005259    0.006113    0.008523
     0.010056    0.014204    0.015065    0.018706    0.031128    0.045006
     0.046744    0.051386    0.056782    0.059808    0.062877    0.065197
     0.077779    0.082239    0.089487    0.095125    0.096083    0.122268
     0.158095    0.160828    0.161397    0.167292    0.176261    0.182366
     0.191052    0.199265    0.208813    0.216172    0.229802    0.244320
     0.249365    0.253239    0.280194    0.293104    0.302119    0.316807
     0.324528    0.338537    0.340891    0.342474    0.343566    0.344303
     0.351062    0.396480    0.416456    0.442353    0.459473    0.506478
     0.523545    0.524887    0.528180    0.529913    0.624569    0.981689

 Minimum search - taking simple RFO step
 Searching for Lamda that Minimizes Along All modes
 Value Taken    Lamda =  -0.00000134
 Step Taken.  Stepsize is  0.029432

                             Maximum     Tolerance    Cnvgd?
         Gradient           0.000090      0.000300     YES
         Displacement       0.013603      0.001200      NO
         Energy change     -0.000001      0.000001     YES

 Final energy is   -797.574203174553     


 ******************************
 **  OPTIMIZATION CONVERGED  **
 ******************************

                       Coordinates (Angstroms)
     ATOM                X               Y               Z
      1  C         2.3511776409    0.0289440262   -0.6945353336
      2  O         1.1092619660   -0.5350181823   -0.7988777250
      3  C         2.6799824766    0.3034764829    0.7818966638
      4  O         1.9107701922   -0.0504312223    1.6426012912
      5  C         3.9628745399    1.0279991632    1.0657731743
      6  C         3.7951547523    2.5282739688    0.8399585310
      7  O         2.8791174992    2.9692998722    1.8415757093
      8  O         2.1956096385    4.1318074613    1.3743381791
      9  C         5.1348406484    3.2495951546    0.9675595709
     10  O         5.8963330706    2.8582081230   -0.1509005260
     11  O         4.9846129021    4.6464247776    1.0319744338
     12  H         2.5079357364    0.9033142434   -1.3241656053
     13  H         0.8067275421   -0.4663214119   -1.7131342178
     14  H         4.7530072531    0.6693912781    0.4084559076
     15  H         4.2478733531    0.8434419318    2.1008351934
     16  H         3.3698703044    2.7403255974   -0.1439104822
     17  H         1.3864524473    3.7504403306    1.0012457914
     18  H         5.6337511546    2.9667306199    1.8952457371
     19  H         6.8164578918    3.0950577540    0.0123610228
     20  H         4.4150526876    4.9303125955    0.3055430796
     21  O         3.3443645053   -0.9713116182   -1.1427842274
     22  O         4.2552564978   -0.4578796460   -1.9184239683

Z-matrix Print:
$molecule
0 2
O 
C  1 1.427188
H  2 1.092626 1 108.793327
O  1 1.427206 2 109.228473 3 -33.501115 0
H  4 0.969213 1 101.849649 2 94.747068 0
C  2 1.526416 1 105.689602 3 -119.865377 0
H  6 1.088566 2 108.313371 1 -172.661063 0
H  6 1.089330 2 109.623400 1 -53.657980 0
C  6 1.500444 2 110.650514 1 66.296392 0
O  9 1.207373 6 123.462458 2 -99.519286 0
C  2 1.526874 1 111.009602 3 119.903154 0
H  11 1.090654 2 110.482505 1 66.504182 0
O  11 1.406361 2 112.291475 1 -50.996020 0
H  13 0.965761 11 108.693524 2 -50.030444 0
O  11 1.408548 2 106.064356 1 -173.292465 0
H  15 0.964044 11 108.255359 2 -164.873425 0
C  9 1.537313 6 116.795351 2 79.721272 0
H  17 1.088821 9 112.406017 6 -45.996724 0
O  17 1.367953 9 109.941136 6 -175.059336 0
H  19 0.965459 17 109.110010 9 163.605198 0
O  17 1.479141 9 105.556822 6 68.788047 0
O  21 1.301904 17 112.560206 9 -106.267794 0
$end

 
 --------------------------------------------------------------
 
                    Orbital Energies (a.u.)
 --------------------------------------------------------------
 
 Alpha MOs
 -- Occupied --
-19.4702 -19.4254 -19.4061 -19.3971 -19.3718 -19.3572 -19.3475 -19.3458
-10.4719 -10.4620 -10.4478 -10.4129 -10.3583  -1.3529  -1.2734  -1.2208
 -1.2031  -1.1943  -1.1366  -1.0578  -1.0144  -0.9201  -0.8504  -0.8130
 -0.7435  -0.7014  -0.6890  -0.6838  -0.6609  -0.6464  -0.6399  -0.6239
 -0.6001  -0.5880  -0.5790  -0.5712  -0.5638  -0.5512  -0.5366  -0.5243
 -0.5035  -0.4925  -0.4631  -0.4606  -0.4581  -0.4350  -0.4217  -0.4184
 -0.4081  -0.4039  -0.3928  -0.3735
 -- Virtual --
  0.0267   0.0284   0.0360   0.0412   0.0468   0.0595   0.0638   0.0664
  0.0764   0.0920   0.0953   0.1011   0.1065   0.1143   0.1267   0.1297
  0.1366   0.1432   0.1516   0.1535   0.1545   0.1619   0.1668   0.1675
  0.1744   0.1772   0.1857   0.1905   0.1994   0.2028   0.2114   0.2199
  0.2289   0.2395   0.2439   0.2541   0.2628   0.2649   0.2660   0.2734
  0.2760   0.2835   0.2919   0.2969   0.2988   0.3049   0.3085   0.3195
  0.3232   0.3284   0.3299   0.3362   0.3401   0.3451   0.3480   0.3500
  0.3558   0.3650   0.3726   0.3742   0.3764   0.3798   0.3850   0.3884
  0.3936   0.3988   0.4072   0.4088   0.4173   0.4234   0.4303   0.4360
  0.4421   0.4471   0.4553   0.4657   0.4729   0.4795   0.4905   0.4933
  0.4969   0.5039   0.5536   0.5688   0.5791   0.5968   0.6123   0.6259
  0.6290   0.6418   0.6480   0.6567   0.6646   0.6731   0.6766   0.6869
  0.7043   0.7106   0.7191   0.7224   0.7395   0.7445   0.7548   0.7674
  0.7738   0.7774   0.7862   0.8218   0.8286   0.8398   0.8729   0.8759
  0.8786   0.9031   0.9294   0.9419   0.9506   0.9599   0.9782   0.9917
  1.0047   1.0172   1.0364   1.0379   1.0484   1.0764   1.0864   1.0951
  1.0987   1.1177   1.1233   1.1400   1.1454   1.1543   1.1578   1.1713
  1.1742   1.1806   1.1844   1.1896   1.2005   1.2055   1.2156   1.2201
  1.2231   1.2416   1.2474   1.2543   1.2604   1.2634   1.2668   1.2757
  1.2889   1.3073   1.3148   1.3190   1.3304   1.3414   1.3490   1.3580
  1.3699   1.3797   1.3829   1.3890   1.4142   1.4387   1.4461   1.4636
  1.4669   1.4861   1.4960   1.5030   1.5174   1.5355   1.5359   1.5450
  1.5595   1.5731   1.5977   1.6068   1.6144   1.6293   1.6397   1.6471
  1.6589   1.6767   1.6792   1.6911   1.7094   1.7246   1.7335   1.7412
  1.7558   1.7640   1.7841   1.8056   1.8308   1.8479   1.8593   1.8864
  1.8879   1.9034   1.9133   1.9351   1.9597   1.9783   2.0006   2.0141
  2.0434   2.0578   2.0751   2.1243   2.1275   2.1643   2.1696   2.2367
  2.2454   2.2758   2.2876   2.3010   2.3181   2.3298   2.3402   2.3902
  2.4066   2.4162   2.4277   2.4448   2.4583   2.4844   2.5032   2.5329
  2.5557   2.6192   2.6598   2.6778   2.6875   2.7182   2.7494   2.7713
  2.7829   2.7993   2.8348   2.8437   2.8788   2.9071   2.9251   2.9598
  2.9687   2.9792   2.9861   3.0074   3.0329   3.0834   3.0964   3.1269
  3.1475   3.1568   3.1789   3.2170   3.2458   3.2606   3.2877   3.3008
  3.3277   3.3771   3.3856   3.4044   3.4144   3.4274   3.4452   3.4562
  3.4638   3.4920   3.4980   3.5366   3.5496   3.5623   3.5791   3.5987
  3.6128   3.6272   3.6630   3.6784   3.6804   3.7156   3.7280   3.7409
  3.7602   3.7634   3.7807   3.7994   3.8182   3.8219   3.8357   3.8434
  3.8564   3.8744   3.8787   3.8809   3.9021   3.9261   3.9481   3.9718
  3.9759   4.0055   4.0135   4.0486   4.0577   4.0776   4.1216   4.1394
  4.1702   4.1918   4.1963   4.2164   4.2317   4.2439   4.2720   4.2788
  4.2902   4.3107   4.3455   4.3694   4.3921   4.4094   4.4184   4.4253
  4.4759   4.4921   4.5218   4.5265   4.5692   4.5902   4.6159   4.6323
  4.6618   4.6883   4.7004   4.7116   4.7406   4.7849   4.8170   4.8332
  4.8358   4.8850   4.9228   4.9844   5.0047   5.0369   5.0723   5.0814
  5.0879   5.1022   5.1593   5.1705   5.1839   5.1975   5.2036   5.2106
  5.2197   5.2324   5.2356   5.2550   5.2732   5.2749   5.2830   5.2886
  5.3135   5.3192   5.3341   5.3395   5.3598   5.3627   5.3691   5.4082
  5.4198   5.4264   5.4494   5.4753   5.4900   5.4957   5.5049   5.5150
  5.5427   5.5547   5.5729   5.6102   5.6189   5.6218   5.6330   5.6405
  5.6505   5.6736   5.6775   5.6892   5.7189   5.7650   5.7886   5.8091
  5.8180   5.8389   5.8561   5.9050   5.9828   6.0280   6.0879   6.1091
  6.1231   6.1487   6.2565   6.3593   6.4249   6.4871   6.5422   6.5923
  6.6402   6.7423   6.7637   6.7822   6.8374   6.8539   6.8653   6.9587
  6.9747   7.0123   7.0152   7.0416   7.0671   7.0746   7.1074   7.1181
  7.1460   7.1618   7.2142   7.2182   7.2623   7.2690   7.2854   7.3121
  7.3201   7.3329   7.3389   7.3579   7.3675   7.3959   7.4013   7.4206
  7.4365   7.4708   7.5019   7.5417   7.5788   7.6145   7.6564   7.6699
  7.7040   7.7626   7.7972   7.8163   7.8517   7.8675   7.9022   7.9723
  8.0332   8.1153   8.1771  24.6188  24.7097  24.7826  24.8415  25.0222
 50.4336  50.5042  50.5333  50.5808  50.6105  50.6285  50.6332  50.7598
 
 Beta MOs
 -- Occupied --
-19.4600 -19.4064 -19.4061 -19.3971 -19.3716 -19.3570 -19.3475 -19.3458
-10.4723 -10.4619 -10.4478 -10.4129 -10.3583  -1.3272  -1.2734  -1.2194
 -1.2031  -1.1933  -1.1366  -1.0578  -0.9830  -0.9180  -0.8455  -0.8092
 -0.7433  -0.6949  -0.6877  -0.6821  -0.6475  -0.6442  -0.6265  -0.6206
 -0.5899  -0.5777  -0.5706  -0.5646  -0.5509  -0.5364  -0.5285  -0.5233
 -0.5012  -0.4906  -0.4628  -0.4582  -0.4534  -0.4349  -0.4188  -0.4102
 -0.4016  -0.3875  -0.3749
 -- Virtual --
 -0.0386   0.0268   0.0314   0.0378   0.0417   0.0474   0.0597   0.0640
  0.0666   0.0766   0.0923   0.0960   0.1021   0.1067   0.1148   0.1268
  0.1305   0.1368   0.1433   0.1519   0.1538   0.1551   0.1626   0.1670
  0.1678   0.1748   0.1806   0.1870   0.1917   0.1994   0.2038   0.2125
  0.2209   0.2321   0.2405   0.2453   0.2557   0.2645   0.2659   0.2685
  0.2745   0.2763   0.2857   0.2928   0.2978   0.2997   0.3063   0.3091
  0.3206   0.3239   0.3286   0.3306   0.3383   0.3409   0.3456   0.3487
  0.3506   0.3573   0.3659   0.3729   0.3748   0.3769   0.3809   0.3856
  0.3898   0.3949   0.3990   0.4075   0.4103   0.4176   0.4238   0.4304
  0.4364   0.4430   0.4473   0.4559   0.4664   0.4731   0.4804   0.4914
  0.4939   0.4973   0.5044   0.5540   0.5688   0.5793   0.5970   0.6124
  0.6262   0.6292   0.6420   0.6483   0.6572   0.6648   0.6737   0.6767
  0.6875   0.7047   0.7111   0.7195   0.7229   0.7396   0.7448   0.7550
  0.7676   0.7741   0.7778   0.7864   0.8225   0.8286   0.8409   0.8736
  0.8770   0.8787   0.9042   0.9298   0.9440   0.9520   0.9601   0.9786
  0.9919   1.0054   1.0184   1.0375   1.0398   1.0499   1.0775   1.0875
  1.0953   1.1008   1.1242   1.1249   1.1418   1.1498   1.1551   1.1585
  1.1729   1.1817   1.1831   1.1884   1.1967   1.2028   1.2077   1.2163
  1.2218   1.2285   1.2432   1.2489   1.2582   1.2631   1.2661   1.2738
  1.2780   1.2910   1.3093   1.3163   1.3214   1.3315   1.3432   1.3526
  1.3592   1.3715   1.3808   1.3857   1.3910   1.4173   1.4394   1.4475
  1.4646   1.4692   1.4902   1.4968   1.5039   1.5191   1.5359   1.5392
  1.5465   1.5611   1.5756   1.5993   1.6102   1.6165   1.6326   1.6440
  1.6512   1.6641   1.6809   1.6891   1.6972   1.7164   1.7270   1.7397
  1.7483   1.7624   1.7682   1.7866   1.8084   1.8333   1.8501   1.8630
  1.8883   1.8900   1.9043   1.9170   1.9374   1.9605   1.9788   2.0022
  2.0149   2.0453   2.0584   2.0780   2.1272   2.1313   2.1690   2.1702
  2.2389   2.2506   2.2787   2.2916   2.3105   2.3253   2.3333   2.3408
  2.3938   2.4071   2.4174   2.4311   2.4460   2.4597   2.4851   2.5046
  2.5338   2.5574   2.6198   2.6671   2.6793   2.6881   2.7190   2.7495
  2.7714   2.7833   2.7997   2.8351   2.8442   2.8790   2.9072   2.9253
  2.9602   2.9690   2.9794   2.9866   3.0075   3.0333   3.0834   3.0966
  3.1270   3.1476   3.1570   3.1791   3.2175   3.2461   3.2609   3.2878
  3.3014   3.3278   3.3772   3.3859   3.4048   3.4147   3.4279   3.4453
  3.4563   3.4638   3.4919   3.4981   3.5367   3.5498   3.5627   3.5792
  3.5988   3.6130   3.6273   3.6630   3.6785   3.6805   3.7159   3.7287
  3.7411   3.7604   3.7638   3.7808   3.7996   3.8187   3.8219   3.8359
  3.8435   3.8567   3.8744   3.8791   3.8811   3.9022   3.9262   3.9481
  3.9719   3.9761   4.0055   4.0137   4.0489   4.0577   4.0776   4.1217
  4.1395   4.1704   4.1919   4.1964   4.2166   4.2322   4.2442   4.2721
  4.2794   4.2906   4.3109   4.3458   4.3701   4.3922   4.4099   4.4186
  4.4263   4.4793   4.4926   4.5219   4.5274   4.5834   4.5941   4.6178
  4.6342   4.6672   4.6951   4.7047   4.7272   4.7411   4.7850   4.8225
  4.8356   4.8533   4.8943   4.9236   4.9963   5.0062   5.0410   5.0755
  5.1308   5.1365   5.1717   5.1771   5.1862   5.1948   5.1988   5.2110
  5.2260   5.2311   5.2384   5.2645   5.2671   5.2758   5.2801   5.2891
  5.2956   5.3220   5.3228   5.3353   5.3440   5.3632   5.3710   5.3799
  5.4116   5.4223   5.4275   5.4629   5.4784   5.4909   5.4998   5.5076
  5.5155   5.5428   5.5553   5.5765   5.6115   5.6190   5.6228   5.6332
  5.6429   5.6554   5.6764   5.6859   5.6917   5.7191   5.7664   5.7970
  5.8104   5.8274   5.8399   5.8599   5.9052   5.9881   6.0280   6.0879
  6.1098   6.1231   6.1487   6.2566   6.3708   6.4292   6.5311   6.5422
  6.6032   6.6403   6.7476   6.7649   6.7904   6.8547   6.9167   6.9448
  6.9771   7.0058   7.0148   7.0245   7.0418   7.0728   7.0752   7.1182
  7.1434   7.1610   7.1665   7.2188   7.2444   7.2627   7.2695   7.2863
  7.3153   7.3207   7.3353   7.3423   7.3646   7.3850   7.4013   7.4165
  7.4248   7.4503   7.4736   7.5253   7.5417   7.5798   7.6147   7.6571
  7.6715   7.7041   7.7689   7.7974   7.8169   7.8530   7.8728   7.9023
  7.9724   8.0474   8.1339   8.1773  24.6188  24.7095  24.7825  24.8415
 25.0223  50.4464  50.5047  50.5418  50.5812  50.6107  50.6286  50.6333
 50.7601
 --------------------------------------------------------------
 
          Ground-State Mulliken Net Atomic Charges

     Atom                 Charge (a.u.)    Spin (a.u.)
  --------------------------------------------------------
      1 C                    -0.178784      -0.000613
      2 O                    -0.395404       0.007214
      3 C                     0.431658       0.003885
      4 O                    -0.405148       0.006607
      5 C                    -0.575357       0.003031
      6 C                    -0.044192      -0.005583
      7 O                    -0.098816      -0.000107
      8 O                    -0.313756      -0.000057
      9 C                    -0.315612      -0.000723
     10 O                    -0.403795       0.000292
     11 O                    -0.451718       0.000012
     12 H                     0.332266       0.000449
     13 H                     0.340819      -0.000987
     14 H                     0.228232      -0.001079
     15 H                     0.296076       0.001316
     16 H                     0.335240       0.001056
     17 H                     0.359265       0.000001
     18 H                     0.295622      -0.000102
     19 H                     0.343312       0.000032
     20 H                     0.346567      -0.000041
     21 O                     0.079063       0.305456
     22 O                    -0.205538       0.679942
  --------------------------------------------------------
  Sum of atomic charges =    -0.000000
  Sum of spin   charges =     1.000000

 -----------------------------------------------------------------
                    Cartesian Multipole Moments
 -----------------------------------------------------------------
    Charge (ESU x 10^10)
                -0.0000
    Dipole Moment (Debye)
         X       0.1998      Y       1.7005      Z      -4.9026
       Tot       5.1930
    Quadrupole Moments (Debye-Ang)
        XX     -65.1106     XY       1.2209     YY     -88.0764
        XZ       0.9186     YZ     -13.4971     ZZ     -84.5311
    Octopole Moments (Debye-Ang^2)
       XXX    -654.1747    XXY     -91.0879    XYY    -326.6081
       YYY    -427.9189    XXZ      21.8374    XYZ     -45.2393
       YYZ     -94.6436    XZZ    -295.8993    YZZ    -148.7489
       ZZZ    -111.9087
    Hexadecapole Moments (Debye-Ang^3)
      XXXX   -5099.0946   XXXY   -1132.3441   XXYY   -1748.4461
      XYYY   -1891.2940   YYYY   -3200.8941   XXXZ      64.5207
      XXYZ    -271.0941   XYYZ    -336.9892   YYYZ    -772.8066
      XXZZ   -1294.6335   XYZZ    -587.2386   YYZZ    -731.7565
      XZZZ    -304.5126   YZZZ    -480.1089   ZZZZ    -772.1634
 -----------------------------------------------------------------
 Total job time:  3754.87s(wall), 52737.79s(cpu) 
 Mon Jul  1 21:11:29 2024

        *************************************************************
        *                                                           *
        *  Thank you very much for using Q-Chem.  Have a nice day.  *
        *                                                           *
        *************************************************************


