
Running Job 1 of 1 Q_in.in
qchem Q_in.in_408025.0 /scratch/ari.fischer/qChem2158225.hpc-mn1/qchem408025/ 0
/usr/local/qchem-5.4.1/exe/qcprog.exe_s Q_in.in_408025.0 /scratch/ari.fischer/qChem2158225.hpc-mn1/qchem408025/
                  Welcome to Q-Chem
     A Quantum Leap Into The Future Of Chemistry


 Q-Chem 5.4, Q-Chem, Inc., Pleasanton, CA (2021)

 License issued to: Nanyang Technological University (site)

 E. Epifanovsky,  A. T. B. Gilbert,  Xintian Feng,  Joonho Lee,  Yuezhi Mao,  
 N. Mardirossian,  P. Pokhilko,  A. White,  M. Wormit,  M. P. Coons,  
 A. L. Dempwolff,  Zhengting Gan,  D. Hait,  P. R. Horn,  L. D. Jacobson,  
 I. Kaliman,  J. Kussmann,  A. W. Lange,  Ka Un Lao,  D. S. Levine,  Jie Liu,  
 S. C. McKenzie,  A. F. Morrison,  K. Nanda,  F. Plasser,  D. R. Rehn,  
 M. L. Vidal,  Zhi-Qiang You,  Ying Zhu,  B. Alam,  B. Albrecht,  
 A. Aldossary,  E. Alguire,  J. H. Andersen,  D. Barton,  K. Begam,  A. Behn,  
 Y. A. Bernard,  E. J. Berquist,  H. Burton,  A. Carreras,  K. Carter-Fenk,  
 Romit Chakraborty,  A. D. Chien,  K. D. Closser,  V. Cofer-Shabica,  
 S. Dasgupta,  Jia Deng,  M. de Wergifosse,  M. Diedenhofen,  Hainam Do,  
 S. Ehlert,  Po-Tung Fang,  S. Fatehi,  Qingguo Feng,  T. Friedhoff,  
 J. Gayvert,  Qinghui Ge,  G. Gidofalvi,  M. Goldey,  J. Gomes,  
 C. Gonzalez-Espinoza,  S. Gulania,  A. Gunina,  M. W. D. Hanson-Heine,  
 P. H. P. Harbach,  A. W. Hauser,  M. F. Herbst,  M. Hernandez Vera,  
 M. Hodecker,  Z. C. Holden,  S. Houck,  Xunkun Huang,  Kerwin Hui,  
 B. C. Huynh,  M. Ivanov,  Hyunjun Ji,  Hanjie Jiang,  B. Kaduk,  S. Kaehler,  
 K. Khistyaev,  Jaehoon Kim,  P. Klunzinger,  Z. Koczor-Benda,  
 Joong Hoon Koh,  D. Kosenkov,  L. Koulias,  T. Kowalczyk,  C. M. Krauter,  
 K. Kue,  A. Kunitsa,  T. Kus,  A. Landau,  K. V. Lawler,  D. Lefrancois,  
 S. Lehtola,  Rain Li,  Yi-Pei Li,  Jiashu Liang,  M. Liebenthal,  
 Hung-Hsuan Lin,  You-Sheng Lin,  Fenglai Liu,  Kuan-Yu Liu,  
 M. Loipersberger,  A. Luenser,  A. Manjanath,  P. Manohar,  E. Mansoor,  
 S. F. Manzer,  Shan-Ping Mao,  A. V. Marenich,  T. Markovich,  S. Mason,  
 S. A. Maurer,  P. F. McLaughlin,  M. F. S. J. Menger,  J.-M. Mewes,  
 S. A. Mewes,  P. Morgante,  J. W. Mullinax,  K. J. Oosterbaan,  G. Paran,  
 Alexander C. Paul,  Suranjan K. Paul,  F. Pavosevic,  Zheng Pei,  S. Prager,  
 E. I. Proynov,  E. Ramos,  B. Rana,  A. E. Rask,  A. Rettig,  R. M. Richard,  
 F. Rob,  E. Rossomme,  T. Scheele,  M. Scheurer,  M. Schneider,  
 N. Sergueev,  S. M. Sharada,  W. Skomorowski,  D. W. Small,  C. J. Stein,  
 Yu-Chuan Su,  E. J. Sundstrom,  Zhen Tao,  J. Thirman,  T. Tsuchimochi,  
 N. M. Tubman,  S. P. Veccham,  O. Vydrov,  J. Wenzel,  J. Witte,  A. Yamada,  
 Kun Yao,  S. Yeganeh,  S. R. Yost,  A. Zech,  Igor Ying Zhang,  Xing Zhang,  
 Yu Zhang,  D. Zuev,  A. Aspuru-Guzik,  A. T. Bell,  N. A. Besley,  
 K. B. Bravaya,  B. R. Brooks,  D. Casanova,  Jeng-Da Chai,  S. Coriani,  
 C. J. Cramer,  A. E. DePrince, III,  R. A. DiStasio Jr.,  A. Dreuw,  
 B. D. Dunietz,  T. R. Furlani,  W. A. Goddard III,  S. Grimme,  
 S. Hammes-Schiffer,  T. Head-Gordon,  W. J. Hehre,  Chao-Ping Hsu,  
 T.-C. Jagau,  Yousung Jung,  A. Klamt,  Jing Kong,  D. S. Lambrecht,  
 WanZhen Liang,  N. J. Mayhall,  C. W. McCurdy,  J. B. Neaton,  T. Neudecker,  
 C. Ochsenfeld,  J. A. Parkhill,  R. Peverati,  V. A. Rassolov,  Yihan Shao,  
 L. V. Slipchenko,  R. P. Steele,  J. E. Subotnik,  A. J. W. Thom,  
 A. Tkatchenko,  D. G. Truhlar,  T. Van Voorhis,  T. A. Wesolowski,  
 K. B. Whaley,  H. L. Woodcock III,  P. M. Zimmerman,  S. Faraji,  
 P. M. W. Gill,  M. Head-Gordon,  J. M. Herbert,  A. I. Krylov

 Additional authors since Version 5.4.0: 
 Chandrima Chakravarty,  L. Cunha,  R. Kang,  Yongbin Kim,  S. Kotaru,  
 Shaozhi Li,  Xiangyuan Li,  F. Matz,  A. Molle,  V. Parravicini,  
 Haisheng Ren,  Hengyuan Shen,  Yingli Su,  Hung-Yi Tsai,  C. Utku,  
 Fang Wang,  Jeff Yang,  F. Zeller

 Contributors to earlier versions of Q-Chem not listed above: 
 R. D. Adamson,  B. Austin,  R. Baer,  J. Baker,  G. J. O. Beran,  
 K. Brandhorst,  S. T. Brown,  E. F. C. Byrd,  Arup K. Chakraborty,  
 G. K. L. Chan,  Chun-Min Chang,  Yunqing Chen,  C.-L. Cheng,  
 Siu Hung Chien,  D. M. Chipman,  D. L. Crittenden,  H. Dachsel,  
 R. J. Doerksen,  A. D. Dutoi,  R. G. Edgar,  J. Fosso-Tande,  
 L. Fusti-Molnar,  D. Ghosh,  A. Ghysels,  A. Golubeva-Zadorozhnaya,  
 J. Gonthier,  M. S. Gordon,  S. R. Gwaltney,  G. Hawkins,  J. E. Herr,  
 A. Heyden,  S. Hirata,  E. G. Hohenstein,  G. Kedziora,  F. J. Keil,  
 C. Kelley,  Jihan Kim,  R. A. King,  R. Z. Khaliullin,  P. P. Korambath,  
 W. Kurlancheek,  A. Laurent,  A. M. Lee,  M. S. Lee,  S. V. Levchenko,  
 Ching Yeh Lin,  D. Liotard,  E. Livshits,  R. C. Lochan,  I. Lotan,  
 L. A. Martinez-Martinez,  P. E. Maslen,  N. Nair,  D. P. O'Neill,  
 D. Neuhauser,  E. Neuscamman,  C. M. Oana,  R. Olivares-Amaya,  R. Olson,  
 T. M. Perrine,  B. Peters,  P. A. Pieniazek,  A. Prociuk,  Y. M. Rhee,  
 J. Ritchie,  M. A. Rohrdanz,  E. Rosta,  N. J. Russ,  H. F. Schaefer III,  
 M. W. Schmidt,  N. E. Schultz,  S. Sharma,  N. Shenvi,  C. D. Sherrill,  
 A. C. Simmonett,  A. Sodt,  T. Stein,  D. Stuck,  K. S. Thanthiriwatte,  
 V. Vanovschi,  L. Vogt,  Tao Wang,  A. Warshel,  M. A. Watson,  
 C. F. Williams,  Q. Wu,  X. Xu,  Jun Yang,  W. Zhang,  Yan Zhao

   Please cite Q-Chem as follows:
  "Software for the frontiers of quantum chemistry:
   An overview of developments in the Q-Chem 5 package"
   J. Chem. Phys. 155, 084801 (2021)
   https://doi.org/10.1063/5.0055522 (open access)

 Q-Chem 5.4.2 for Intel X86 EM64T Linux

 Parts of Q-Chem use Armadillo 9.900.5 (Nocturnal Misbehaviour).
 http://arma.sourceforge.net/

 Q-Chem begins on Wed Jun  5 12:18:44 2024  

 Host: 
0

     Scratch files written to /scratch/ari.fischer/qChem2158225.hpc-mn1/qchem408025//
 Dec1321 |scratch|qcdevops|jenkins|workspace|build_RNUM 8249   
 Processing $rem in /usr/local/qchem-5.4.1/config/preferences:
 Processing $rem in /home/ari.fischer/.qchemrc:
 Symmetry turned off for PCM/SM12/SMD calculation


!!********************************************.
!!******************Warning*******************.
!!Desired Analytical derivatives not available.
!!Finite difference job might take a long time.
!!********************************************.
!!********************************************.


 2-order derivative to be evaluated numerically with 1-order analytical derivatives

 Checking the input file for inconsistencies... 	...done.

--------------------------------------------------------------
User input:
--------------------------------------------------------------
$molecule
0 2
C        -0.0112338406   -0.2044571578    0.7943742310
C        -0.8709735290   -0.9833205214    1.7745707659
C        -1.4369571481   -2.2370319746    1.0856013841
C        -2.0180241893   -1.9197745827   -0.2687287740
C        -1.8740873604   -0.7144528704   -0.8014294379
C        -1.1526321212    0.3755764296   -0.0469267503
C        -0.7125435276    1.5399599338   -0.9180948532
H         0.5063594358    0.6107965497    1.3039443737
H        -0.3817733902   -1.2311748197    2.7129706341
H        -2.2377737209   -2.6211108190    1.7495963791
H        -2.5432232216   -2.7154892667   -0.7806317156
H        -2.2902891792   -0.4716493781   -1.7721848746
H        -1.5569794046    1.9509285293   -1.4719372775
O         0.3163577727    1.1021630864   -1.8015854543
H        -0.2870042880    2.3170427906   -0.2868202758
H        -0.0882818083    0.6407612684   -2.5447374248
O         0.8881125400   -1.0441033409    0.1120683293
H         1.1597752464   -0.5683319492   -0.6858020709
O        -1.9370901837   -0.0775912384    2.0694278129
O        -1.9914976436    0.9046110604    0.9865002998
O        -0.5408477387   -3.2811057300    1.0637294989
$end

$rem
BASIS = 6-311++G(2df,2p)
GUI = 2
JOB_TYPE = Frequency
METHOD = wB97M-V
SOLVENT_METHOD = SMD
SCF_ALGORITHM = DIIS_GDM
MAX_SCF_CYCLES = 400
SCF_CONVERGENCE = 7
THRESH = 12
$end
--------------------------------------------------------------
 ----------------------------------------------------------------
             Standard Nuclear Orientation (Angstroms)
    I     Atom           X                Y                Z
 ----------------------------------------------------------------
    1      C      -0.0112338406    -0.2044571578     0.7943742310
    2      C      -0.8709735290    -0.9833205214     1.7745707659
    3      C      -1.4369571481    -2.2370319746     1.0856013841
    4      C      -2.0180241893    -1.9197745827    -0.2687287740
    5      C      -1.8740873604    -0.7144528704    -0.8014294379
    6      C      -1.1526321212     0.3755764296    -0.0469267503
    7      C      -0.7125435276     1.5399599338    -0.9180948532
    8      H       0.5063594358     0.6107965497     1.3039443737
    9      H      -0.3817733902    -1.2311748197     2.7129706341
   10      H      -2.2377737209    -2.6211108190     1.7495963791
   11      H      -2.5432232216    -2.7154892667    -0.7806317156
   12      H      -2.2902891792    -0.4716493781    -1.7721848746
   13      H      -1.5569794046     1.9509285293    -1.4719372775
   14      O       0.3163577727     1.1021630864    -1.8015854543
   15      H      -0.2870042880     2.3170427906    -0.2868202758
   16      H      -0.0882818083     0.6407612684    -2.5447374248
   17      O       0.8881125400    -1.0441033409     0.1120683293
   18      H       1.1597752464    -0.5683319492    -0.6858020709
   19      O      -1.9370901837    -0.0775912384     2.0694278129
   20      O      -1.9914976436     0.9046110604     0.9865002998
   21      O      -0.5408477387    -3.2811057300     1.0637294989
 ----------------------------------------------------------------
 Nuclear Repulsion Energy =         794.16458166 hartrees
 There are       46 alpha and       45 beta electrons
 Requested basis set is 6-311++G(2df,2p)
 There are 150 shells and 498 basis functions

 Total QAlloc Memory Limit 288000 MB
 Mega-Array Size       188 MB
 MEM_STATIC part       192 MB
 
 Citation of the SMD model:
 Marenich, A.V.; Cramer, C.J.; Truhlar, D.G.
 J. Phys. Chem. B 2009, 113, 6378-6396.
 iSolventCode=           1
 Solvent: water                                                           
 
 vradii
            1           2           3           4           5           6
    1   1.8500000   1.8500000   1.8500000   1.8500000   1.8500000   1.8500000
            7           8           9          10          11          12
    1   1.8500000   1.2000000   1.2000000   1.2000000   1.2000000   1.2000000
           13          14          15          16          17          18
    1   1.2000000   1.5200000   1.2000000   1.2000000   1.5200000   1.2000000
           19          20          21
    1   1.5200000   1.5200000   1.5200000
 Changing PCM_VDW_RADII to SMD_RADIUS
 Discretize the solute cavity surface with Lebedev spheres
	Using 110 Lebedev grid points for each H atom
	Using 194 Lebedev grid points for other atoms
	Atomic van der Waals radii will be scaled by 1.20
 Remove points where switching function is < 1.0e-08
 Keep 1510 surface tesserae and discard 1808 interior tesserae
 Molecular Surface Area = 169.074 Angst**2
 A cutoff of  1.0D-12 yielded  10189 shell pairs
 There are    113322 function pairs (    141956 Cartesian)
 Smallest overlap matrix eigenvalue = 2.17E-06
 Guess from superposition of atomic densities
 Warning:  Energy on first SCF cycle will be non-variational
 SAD guess density has 91.000000 electrons

 -----------------------------------------------------------------------
  General SCF calculation program by
  Eric Jon Sundstrom, Paul Horn, Yuezhi Mao, Dmitri Zuev, Alec White,
  David Stuck, Shaama M.S., Shane Yost, Joonho Lee, David Small,
  Daniel Levine, Susi Lehtola, Hugh Burton, Evgeny Epifanovsky,
  Bang C. Huynh
 -----------------------------------------------------------------------
 Exchange:     0.1500 Hartree-Fock + 1.0000 wB97M-V + LR-HF
 Correlation:  1.0000 wB97M-V
 Using SG-2 standard quadrature grid
 Nonlocal Correlation:  VV10 with C = 0.0100 and b = 6.00 and scale = 1.00000
 Grid used for NLC:  SG-1 standard quadrature
 using 16 threads for integral computing
 -------------------------------------------------------
 OpenMP Integral computing Module                
 Release: version 1.0, May 2013, Q-Chem Inc. Pittsburgh 
 -------------------------------------------------------
 
 Citation of the SMD model:
 Marenich, A.V.; Cramer, C.J.; Truhlar, D.G.
 J. Phys. Chem. B 2009, 113, 6378-6396.
 iSolventCode=           1
 Solvent: water                                                           
 
 vradii
            1           2           3           4           5           6
    1   1.8500000   1.8500000   1.8500000   1.8500000   1.8500000   1.8500000
            7           8           9          10          11          12
    1   1.8500000   1.2000000   1.2000000   1.2000000   1.2000000   1.2000000
           13          14          15          16          17          18
    1   1.2000000   1.5200000   1.2000000   1.2000000   1.5200000   1.2000000
           19          20          21
    1   1.5200000   1.5200000   1.5200000
 -------------------------------------------------------
 OpenMP BLAS3 based DFT computing Module                
 Release: version 1.0, May 2013, Q-Chem Inc. Pittsburgh 
 -------------------------------------------------------
 A unrestricted SCF calculation will be
 performed using DIIS, GDM
 SCF converges when RMS gradient is below 1.0e-07
 ---------------------------------------
  Cycle       Energy         DIIS error
 ---------------------------------------
    1    -651.3095535969      1.13e-02  
    2    -647.7971025013      1.57e-03  Done DIIS. Switching to GDM
 ---------------------------------------
  Cycle       Energy        RMS Gradient
 ---------------------------------------
    1    -647.7971025013      4.52e-01   Descent step
    2    -648.0243793536      9.65e-02   Dog-leg BFGS step
    3    -648.0685343644      8.04e-02   Normal BFGS step
    4    -648.0874266887      4.77e-02   Normal BFGS step
    5    -648.1023916805      2.08e-02   Normal BFGS step
    6    -648.1081684339      1.98e-02   Normal BFGS step
    7    -648.1105598097      1.21e-02   Normal BFGS step
    8    -648.1113771913      9.87e-03   Normal BFGS step
    9    -648.1118453982      8.00e-03   Normal BFGS step
   10    -648.1123105125      7.01e-03   Normal BFGS step
   11    -648.1131587692      9.48e-03   Normal BFGS step
   12    -648.1140769142      9.65e-03   Normal BFGS step
   13    -648.1149624343      7.64e-03   Normal BFGS step
   14    -648.1153975052      1.80e-03   Normal BFGS step
   15    -648.1154471631      8.20e-04   Normal BFGS step
   16    -648.1154592424      4.90e-04   Normal BFGS step
   17    -648.1154620960      2.41e-04   Normal BFGS step
   18    -648.1154628312      1.31e-04   Normal BFGS step
   19    -648.1154630263      6.72e-05   Normal BFGS step
   20    -648.1154630705      2.45e-05   Normal BFGS step
   21    -648.1154630802      1.33e-05   Normal BFGS step
   22    -648.1154630824      6.72e-06   Normal BFGS step
   23    -648.1154630829      3.75e-06   Normal BFGS step
   24    -648.1154630831      2.40e-06   Normal BFGS step
   25    -648.1154630831      9.25e-07   Normal BFGS step
   26    -648.1154630831      4.56e-07   Normal BFGS step
   27    -648.1154630832      1.65e-07   Normal BFGS step
   28    -648.1154630831      7.97e-08  Convergence criterion met
 ---------------------------------------
 SCF time:   CPU 6602.09s  wall 788.00s 
<S^2> =          0.754195478
(3)  G-ENP(liq) elect-nuc-pol free energy of system     -648.115463083 a.u.
(4)  G-CDS(liq) cavity-dispersion-solvent structure 
     free energy                                                2.9206 kcal/mol
(6)  G-S(liq) free energy of system                     -648.110808754 a.u.
 SCF   energy in the final basis set =     -648.1108087542
 Total energy in the final basis set =     -648.1108087542
 
 --------------------------------------------------------------
 
                    Orbital Energies (a.u.)
 --------------------------------------------------------------
 
 Alpha MOs
 -- Occupied --
-19.4080 -19.4071 -19.3938 -19.3494 -19.3487 -10.4159 -10.4129 -10.4119
-10.4085 -10.3958 -10.3551 -10.3510  -1.2788  -1.1808  -1.1716  -1.1625
 -1.0750  -0.9661  -0.8897  -0.8511  -0.8066  -0.7519  -0.7204  -0.6901
 -0.6640  -0.6427  -0.6146  -0.6088  -0.5868  -0.5749  -0.5657  -0.5524
 -0.5403  -0.5351  -0.5293  -0.5024  -0.4967  -0.4741  -0.4644  -0.4431
 -0.4385  -0.4132  -0.3967  -0.3858  -0.3696  -0.3640
 -- Virtual --
  0.0250   0.0340   0.0362   0.0431   0.0536   0.0548   0.0568   0.0724
  0.0743   0.0849   0.0891   0.0893   0.1078   0.1191   0.1250   0.1304
  0.1321   0.1386   0.1455   0.1510   0.1553   0.1554   0.1598   0.1656
  0.1689   0.1702   0.1755   0.1853   0.1899   0.1968   0.2011   0.2058
  0.2129   0.2156   0.2192   0.2248   0.2357   0.2443   0.2509   0.2665
  0.2735   0.2773   0.2821   0.2889   0.2957   0.3061   0.3124   0.3172
  0.3187   0.3200   0.3371   0.3390   0.3425   0.3458   0.3529   0.3567
  0.3676   0.3708   0.3745   0.3754   0.3819   0.3853   0.3938   0.3977
  0.4027   0.4109   0.4157   0.4218   0.4234   0.4324   0.4483   0.4497
  0.4584   0.4730   0.4801   0.4867   0.5111   0.5151   0.5213   0.5270
  0.5477   0.5656   0.5907   0.6025   0.6137   0.6205   0.6256   0.6303
  0.6529   0.6572   0.6610   0.6678   0.6811   0.6833   0.6917   0.6933
  0.7018   0.7171   0.7245   0.7258   0.7368   0.7441   0.7531   0.7647
  0.7717   0.7835   0.7956   0.8058   0.8137   0.8378   0.8612   0.8671
  0.8787   0.8885   0.9050   0.9118   0.9390   0.9532   0.9642   0.9902
  1.0067   1.0217   1.0421   1.0505   1.0651   1.0725   1.0794   1.0963
  1.1148   1.1237   1.1359   1.1483   1.1586   1.1627   1.1652   1.1809
  1.1971   1.2060   1.2087   1.2150   1.2238   1.2388   1.2549   1.2636
  1.2688   1.2759   1.2790   1.2838   1.2998   1.3122   1.3173   1.3210
  1.3334   1.3470   1.3595   1.3675   1.3720   1.3803   1.3955   1.4038
  1.4180   1.4230   1.4340   1.4447   1.4563   1.4661   1.4807   1.4855
  1.4992   1.5112   1.5140   1.5299   1.5427   1.5584   1.5773   1.5781
  1.5904   1.5968   1.6081   1.6205   1.6399   1.6662   1.6762   1.6874
  1.7053   1.7137   1.7484   1.7622   1.7749   1.7858   1.7952   1.8336
  1.8463   1.8722   1.8905   1.9061   1.9165   1.9393   1.9641   1.9855
  2.0028   2.0320   2.0446   2.0571   2.0855   2.1052   2.1295   2.1538
  2.1841   2.1968   2.2287   2.2563   2.2810   2.3241   2.3409   2.3629
  2.3974   2.4264   2.4326   2.4719   2.4881   2.5130   2.5402   2.6568
  2.6737   2.6971   2.7229   2.7451   2.7625   2.7938   2.8071   2.8366
  2.8488   2.8560   2.8790   2.8894   2.8981   2.9085   2.9295   2.9370
  2.9515   2.9710   2.9843   2.9961   3.0271   3.0339   3.0479   3.0587
  3.1029   3.1219   3.1384   3.1419   3.1632   3.1933   3.2100   3.2305
  3.2441   3.2643   3.2779   3.3118   3.3153   3.3413   3.3520   3.3627
  3.3897   3.3980   3.4205   3.4563   3.4617   3.4699   3.4838   3.4971
  3.5305   3.5370   3.5664   3.5709   3.5924   3.5963   3.6289   3.6405
  3.6458   3.6464   3.6667   3.6846   3.6964   3.7203   3.7303   3.7381
  3.7583   3.7643   3.7752   3.7933   3.8111   3.8297   3.8511   3.8560
  3.8600   3.8798   3.8931   3.9001   3.9162   3.9263   3.9375   3.9490
  3.9626   3.9700   3.9990   4.0026   4.0300   4.0478   4.0599   4.0910
  4.1063   4.1123   4.1429   4.1742   4.1942   4.1965   4.2185   4.2416
  4.2756   4.2915   4.3046   4.3185   4.3429   4.3513   4.3684   4.3893
  4.3993   4.4084   4.4192   4.4209   4.4483   4.4736   4.4817   4.5027
  4.5171   4.5274   4.5453   4.5786   4.5980   4.6305   4.6478   4.6512
  4.6858   4.6998   4.7240   4.7319   4.7591   4.7851   4.8162   4.8330
  4.8948   4.9679   4.9868   5.0459   5.0928   5.1072   5.1307   5.1454
  5.2130   5.2219   5.2674   5.2837   5.2956   5.2991   5.3140   5.3160
  5.3283   5.3383   5.3589   5.3800   5.3910   5.4027   5.4173   5.4419
  5.4541   5.4722   5.4886   5.5099   5.5277   5.5450   5.5553   5.5824
  5.5961   5.6231   5.6337   5.6503   5.6790   5.7011   5.7350   5.7515
  5.7647   5.7795   5.8063   5.8314   5.8993   5.9114   5.9466   5.9788
  6.0034   6.0336   6.0494   6.0764   6.0925   6.1505   6.2809   6.6131
  6.6442   6.6846   6.7332   6.7626   6.8067   6.9060   6.9547   7.0452
  7.1121   7.1472   7.2935   7.3126   7.3362   7.3550   7.3642   7.3841
  7.3890   7.4109   7.4394   7.4539   7.4730   7.5062   7.5631   7.6464
  7.6585   7.7184   7.7280   7.7956   7.8601   7.9185   7.9798   8.2675
 24.3990  24.7018  24.7850  24.8038  24.8570  24.8851  25.2591  50.5454
 50.6078  50.6222  50.6822  50.6938
 
 Beta MOs
 -- Occupied --
-19.4080 -19.4071 -19.3713 -19.3494 -19.3483 -10.4159 -10.4132 -10.4113
-10.4084 -10.3958 -10.3547 -10.3510  -1.2787  -1.1774  -1.1639  -1.1252
 -1.0741  -0.9623  -0.8886  -0.8475  -0.7991  -0.7513  -0.7171  -0.6884
 -0.6578  -0.6387  -0.6121  -0.5988  -0.5828  -0.5644  -0.5589  -0.5378
 -0.5348  -0.5301  -0.5271  -0.4996  -0.4814  -0.4687  -0.4572  -0.4380
 -0.4135  -0.3967  -0.3819  -0.3676  -0.3630
 -- Virtual --
 -0.0610   0.0252   0.0342   0.0363   0.0434   0.0539   0.0549   0.0569
  0.0729   0.0745   0.0857   0.0892   0.0896   0.1089   0.1194   0.1256
  0.1306   0.1323   0.1397   0.1472   0.1515   0.1554   0.1561   0.1600
  0.1661   0.1693   0.1706   0.1755   0.1852   0.1901   0.1970   0.2014
  0.2061   0.2132   0.2159   0.2198   0.2250   0.2371   0.2446   0.2512
  0.2670   0.2748   0.2779   0.2827   0.2893   0.2972   0.3085   0.3128
  0.3183   0.3193   0.3228   0.3382   0.3396   0.3429   0.3505   0.3543
  0.3584   0.3680   0.3715   0.3749   0.3776   0.3825   0.3869   0.3944
  0.3988   0.4035   0.4128   0.4177   0.4221   0.4247   0.4333   0.4490
  0.4513   0.4607   0.4745   0.4807   0.4873   0.5122   0.5166   0.5223
  0.5274   0.5485   0.5664   0.5910   0.6032   0.6144   0.6230   0.6285
  0.6309   0.6535   0.6591   0.6616   0.6687   0.6827   0.6843   0.6940
  0.6970   0.7026   0.7181   0.7249   0.7267   0.7380   0.7447   0.7541
  0.7650   0.7720   0.7848   0.7962   0.8067   0.8144   0.8389   0.8618
  0.8677   0.8790   0.8889   0.9065   0.9123   0.9395   0.9538   0.9644
  0.9925   1.0083   1.0227   1.0424   1.0510   1.0662   1.0731   1.0803
  1.0971   1.1157   1.1244   1.1370   1.1506   1.1605   1.1635   1.1677
  1.1841   1.2004   1.2085   1.2120   1.2174   1.2338   1.2446   1.2580
  1.2658   1.2714   1.2766   1.2813   1.2859   1.3037   1.3172   1.3191
  1.3225   1.3357   1.3511   1.3602   1.3684   1.3745   1.3808   1.3971
  1.4045   1.4200   1.4268   1.4347   1.4469   1.4613   1.4669   1.4827
  1.4884   1.5003   1.5138   1.5181   1.5325   1.5439   1.5616   1.5790
  1.5817   1.5911   1.5985   1.6093   1.6297   1.6405   1.6671   1.6776
  1.6921   1.7077   1.7175   1.7514   1.7661   1.7765   1.7881   1.7977
  1.8428   1.8530   1.8859   1.8938   1.9112   1.9221   1.9473   1.9691
  1.9889   2.0044   2.0338   2.0468   2.0647   2.0865   2.1120   2.1297
  2.1574   2.1849   2.1985   2.2324   2.2599   2.2828   2.3262   2.3457
  2.3681   2.3981   2.4330   2.4347   2.4738   2.4936   2.5178   2.5411
  2.6575   2.6828   2.6983   2.7234   2.7457   2.7634   2.7956   2.8080
  2.8375   2.8503   2.8590   2.8795   2.8904   2.8986   2.9093   2.9301
  2.9385   2.9544   2.9741   2.9865   2.9972   3.0276   3.0345   3.0487
  3.0601   3.1039   3.1235   3.1393   3.1425   3.1646   3.1946   3.2104
  3.2315   3.2445   3.2649   3.2787   3.3124   3.3162   3.3433   3.3541
  3.3629   3.3905   3.3997   3.4216   3.4571   3.4628   3.4712   3.4861
  3.4982   3.5317   3.5392   3.5671   3.5720   3.5938   3.5981   3.6316
  3.6410   3.6464   3.6468   3.6676   3.6859   3.6989   3.7217   3.7307
  3.7392   3.7596   3.7656   3.7765   3.7947   3.8121   3.8302   3.8525
  3.8577   3.8622   3.8806   3.8937   3.9014   3.9174   3.9278   3.9391
  3.9498   3.9645   3.9719   4.0003   4.0033   4.0332   4.0504   4.0616
  4.0926   4.1074   4.1131   4.1448   4.1747   4.1958   4.1982   4.2222
  4.2430   4.2773   4.2943   4.3054   4.3202   4.3451   4.3539   4.3705
  4.3936   4.4007   4.4099   4.4219   4.4266   4.4493   4.4754   4.4846
  4.5037   4.5183   4.5315   4.5523   4.5804   4.6021   4.6314   4.6495
  4.6538   4.6874   4.7002   4.7245   4.7339   4.7605   4.7874   4.8189
  4.8351   4.8970   4.9712   4.9901   5.0481   5.1071   5.1176   5.1879
  5.1994   5.2249   5.2686   5.2823   5.2897   5.3024   5.3107   5.3175
  5.3323   5.3400   5.3490   5.3659   5.4012   5.4104   5.4183   5.4292
  5.4433   5.4569   5.4927   5.5014   5.5132   5.5291   5.5481   5.5752
  5.5912   5.5990   5.6254   5.6350   5.6538   5.6800   5.7013   5.7363
  5.7524   5.7671   5.7817   5.8090   5.8323   5.9021   5.9131   5.9769
  5.9881   6.0076   6.0377   6.0503   6.0823   6.0995   6.1572   6.2813
  6.6133   6.6461   6.6849   6.7460   6.7636   6.8205   7.0097   7.0450
  7.0586   7.1134   7.1499   7.2948   7.3128   7.3368   7.3581   7.3813
  7.4084   7.4136   7.4349   7.4482   7.4696   7.4851   7.5091   7.5635
  7.6467   7.6586   7.7234   7.7692   7.7964   7.8613   7.9191   7.9799
  8.2675  24.3991  24.7021  24.7850  24.8036  24.8571  24.8853  25.2593
 50.5605  50.6081  50.6222  50.6824  50.6942
 --------------------------------------------------------------
 
          Ground-State Mulliken Net Atomic Charges

     Atom                 Charge (a.u.)    Spin (a.u.)
  --------------------------------------------------------
      1 C                    -0.154900       0.010799
      2 C                    -0.062040      -0.001353
      3 C                    -0.475070       0.042437
      4 C                    -0.080768      -0.011207
      5 C                    -0.412557       0.008085
      6 C                     0.125359      -0.008393
      7 C                    -0.393129       0.001591
      8 H                     0.323741       0.003103
      9 H                     0.289743      -0.001664
     10 H                     0.291001       0.092278
     11 H                     0.303867      -0.001249
     12 H                     0.312982       0.002417
     13 H                     0.252473       0.000059
     14 O                    -0.378604       0.000060
     15 H                     0.243468      -0.000006
     16 H                     0.328291       0.000025
     17 O                    -0.403814       0.005589
     18 H                     0.342809       0.000689
     19 O                    -0.112180       0.001140
     20 O                    -0.132388      -0.000502
     21 O                    -0.208282       0.856100
  --------------------------------------------------------
  Sum of atomic charges =     0.000000
  Sum of spin   charges =     1.000000

 -----------------------------------------------------------------
                    Cartesian Multipole Moments
 -----------------------------------------------------------------
    Charge (ESU x 10^10)
                 0.0000
    Dipole Moment (Debye)
         X      -1.4536      Y       1.7675      Z      -3.3912
       Tot       4.0911
    Quadrupole Moments (Debye-Ang)
        XX     -73.2676     XY       8.0168     YY     -79.0837
        XZ       7.8476     YZ      -1.4152     ZZ     -62.4902
    Octopole Moments (Debye-Ang^2)
       XXX     205.3867    XXY      16.7169    XYY      43.3179
       YYY     148.9608    XXZ     -38.0119    XYZ      17.5966
       YYZ     -24.2162    XZZ      61.3669    YZZ      24.5393
       ZZZ     -78.7887
    Hexadecapole Moments (Debye-Ang^3)
      XXXX    -879.0991   XXXY     -85.9620   XXYY    -267.7020
      XYYY     -88.7522   YYYY   -1183.2319   XXXZ     147.0799
      XXYZ      38.3893   XYYZ      30.9515   YYYZ     199.8214
      XXZZ    -257.2971   XYZZ     -29.0543   YYZZ    -287.8374
      XZZZ     148.5649   YZZZ     144.2305   ZZZZ    -613.9519
 -----------------------------------------------------------------
 Calculating analytic gradient of the SCF energy
 Gradient of CDS energy
            1           2           3           4           5           6
    1   0.0015525  -0.0000674   0.0048859  -0.0001893  -0.0002249   0.0000532
    2  -0.0012886   0.0001005  -0.0056730  -0.0002507   0.0001191   0.0000668
    3  -0.0009907   0.0001824   0.0000451  -0.0001572  -0.0001493   0.0001550
            7           8           9          10          11          12
    1   0.0001164  -0.0000354   0.0000744  -0.0001612  -0.0000977  -0.0000499
    2   0.0009940   0.0002088  -0.0000716  -0.0000570  -0.0001502   0.0000827
    3  -0.0003485   0.0000943   0.0001819   0.0001501  -0.0000937  -0.0001153
           13          14          15          16          17          18
    1  -0.0002479  -0.0001700   0.0001362   0.0001746  -0.0015642   0.0004064
    2  -0.0002528  -0.0001463  -0.0001228  -0.0000224   0.0011905  -0.0001125
    3  -0.0000508   0.0002874   0.0002763  -0.0004883   0.0011054  -0.0002157
           19          20          21
    1  -0.0000217   0.0000448  -0.0046148
    2   0.0000551  -0.0000908   0.0054211
    3  -0.0000873   0.0000780   0.0001407
 Gradient of SCF Energy
            1           2           3           4           5           6
    1   0.0013073  -0.0049506   0.0099124   0.0023412   0.0030013  -0.0047507
    2  -0.0052325   0.0044883  -0.0033637   0.0055801  -0.0000068   0.0024635
    3  -0.0049863  -0.0019476  -0.0061546   0.0082790   0.0070508   0.0015228
            7           8           9          10          11          12
    1   0.0088132   0.0034040   0.0019288  -0.0051018  -0.0041510  -0.0046008
    2  -0.0168354   0.0054414  -0.0008829  -0.0027823  -0.0045742   0.0035522
    3   0.0025026   0.0025523   0.0047935   0.0037396  -0.0035497  -0.0135009
           13          14          15          16          17          18
    1  -0.0088751   0.0085420   0.0023360  -0.0093800   0.0006126   0.0007800
    2   0.0035007   0.0150178   0.0061324  -0.0102669  -0.0090026   0.0047885
    3  -0.0073860   0.0142724   0.0049956  -0.0136796   0.0061221  -0.0066553
           19          20          21
    1  -0.0026540  -0.0008572   0.0023422
    2   0.0022568   0.0008508  -0.0011251
    3   0.0010768   0.0015195  -0.0005669
 Max gradient component =       1.684E-02
 RMS gradient           =       6.311E-03
 Computing fast CPCM-SWIG gradient
 Updating gradient with PCM contributions...
 -- total gradient after adding PCM contribution --
---------------------------------------------------
  Atom         X              Y              Z     
---------------------------------------------------
   1      -0.000013       0.000006      -0.000040
   2      -0.000012      -0.000052       0.000007
   3       0.000040       0.000024      -0.000022
   4      -0.000006      -0.000001       0.000009
   5      -0.000008      -0.000009      -0.000006
   6       0.000056       0.000018       0.000000
   7       0.000040      -0.000024      -0.000048
   8       0.000008      -0.000004       0.000024
   9      -0.000000      -0.000009       0.000007
  10      -0.000028      -0.000006       0.000017
  11       0.000003      -0.000003      -0.000015
  12      -0.000001       0.000004      -0.000010
  13      -0.000007       0.000017      -0.000001
  14      -0.000014       0.000035       0.000048
  15       0.000006       0.000008       0.000014
  16      -0.000008      -0.000024      -0.000033
  17       0.000006      -0.000017       0.000073
  18      -0.000014       0.000015      -0.000041
  19       0.000001       0.000044      -0.000045
  20      -0.000020      -0.000035       0.000064
  21      -0.000028       0.000012      -0.000003
---------------------------------------------------
 Number of fixed atoms: 0
 Gradient time:  CPU 680.83 s  wall 51.20 s
 ######################################################
 ######################################################
 # Starting finite difference calculation for IDERIV  #
 Finite diff step size:  1.88973e-03 a.u.
 ----------------------------------------------------------------
             Standard Nuclear Orientation (Angstroms)
    I     Atom           X                Y                Z
 ----------------------------------------------------------------
    1      C      -0.0102338406    -0.2044571578     0.7943742310
    2      C      -0.8709735290    -0.9833205214     1.7745707659
    3      C      -1.4369571481    -2.2370319746     1.0856013841
    4      C      -2.0180241893    -1.9197745827    -0.2687287740
    5      C      -1.8740873604    -0.7144528704    -0.8014294379
    6      C      -1.1526321212     0.3755764296    -0.0469267503
    7      C      -0.7125435276     1.5399599338    -0.9180948532
    8      H       0.5063594358     0.6107965497     1.3039443737
    9      H      -0.3817733902    -1.2311748197     2.7129706341
   10      H      -2.2377737209    -2.6211108190     1.7495963791
   11      H      -2.5432232216    -2.7154892667    -0.7806317156
   12      H      -2.2902891792    -0.4716493781    -1.7721848746
   13      H      -1.5569794046     1.9509285293    -1.4719372775
   14      O       0.3163577727     1.1021630864    -1.8015854543
   15      H      -0.2870042880     2.3170427906    -0.2868202758
   16      H      -0.0882818083     0.6407612684    -2.5447374248
   17      O       0.8881125400    -1.0441033409     0.1120683293
   18      H       1.1597752464    -0.5683319492    -0.6858020709
   19      O      -1.9370901837    -0.0775912384     2.0694278129
   20      O      -1.9914976436     0.9046110604     0.9865002998
   21      O      -0.5408477387    -3.2811057300     1.0637294989
 ----------------------------------------------------------------
 Nuclear Repulsion Energy =         794.14831051 hartrees
 There are       46 alpha and       45 beta electrons
 Discretize the solute cavity surface with Lebedev spheres
	Using 110 Lebedev grid points for each H atom
	Using 194 Lebedev grid points for other atoms
	Atomic van der Waals radii will be scaled by 1.20
 Remove points where switching function is < 1.0e-08
 Keep 1510 surface tesserae and discard 1808 interior tesserae
 Molecular Surface Area = 169.074 Angst**2
 Requested basis set is 6-311++G(2df,2p)
 There are 150 shells and 498 basis functions
 A cutoff of  1.0D-12 yielded  10189 shell pairs
 There are    113322 function pairs (    141956 Cartesian)
 Smallest overlap matrix eigenvalue = 2.17E-06
 Guess MOs from SCF MO coefficient file

 -----------------------------------------------------------------------
  General SCF calculation program by
  Eric Jon Sundstrom, Paul Horn, Yuezhi Mao, Dmitri Zuev, Alec White,
  David Stuck, Shaama M.S., Shane Yost, Joonho Lee, David Small,
  Daniel Levine, Susi Lehtola, Hugh Burton, Evgeny Epifanovsky,
  Bang C. Huynh
 -----------------------------------------------------------------------
 Exchange:     0.1500 Hartree-Fock + 1.0000 wB97M-V + LR-HF
 Correlation:  1.0000 wB97M-V
 Using SG-2 standard quadrature grid
 Nonlocal Correlation:  VV10 with C = 0.0100 and b = 6.00 and scale = 1.00000
 Grid used for NLC:  SG-1 standard quadrature
 
 Citation of the SMD model:
 Marenich, A.V.; Cramer, C.J.; Truhlar, D.G.
 J. Phys. Chem. B 2009, 113, 6378-6396.
 iSolventCode=           1
 Solvent: water                                                           
 
 vradii
            1           2           3           4           5           6
    1   1.8500000   1.8500000   1.8500000   1.8500000   1.8500000   1.8500000
            7           8           9          10          11          12
    1   1.8500000   1.2000000   1.2000000   1.2000000   1.2000000   1.2000000
           13          14          15          16          17          18
    1   1.2000000   1.5200000   1.2000000   1.2000000   1.5200000   1.2000000
           19          20          21
    1   1.5200000   1.5200000   1.5200000
 -------------------------------------------------------
 OpenMP BLAS3 based DFT computing Module                
 Release: version 1.0, May 2013, Q-Chem Inc. Pittsburgh 
 -------------------------------------------------------
 A unrestricted SCF calculation will be
 performed using Roothaan-Hall, DIIS, GDM
 SCF converges when RMS gradient is below 1.0e-07
 ---------------------------------------
  Cycle       Energy         DIIS error
 ---------------------------------------
    1    -648.0750878906      1.78e-04  Roothaan Step
 ---------------------------------------
  Cycle       Energy         DIIS error
 ---------------------------------------
    1    -648.1081529534      1.96e-04  
    2    -648.1133317079      1.51e-04  Done DIIS. Switching to GDM
 ---------------------------------------
  Cycle       Energy        RMS Gradient
 ---------------------------------------
    1    -648.1133317079      4.34e-03   Normal BFGS step
    2    -648.1136019360      6.82e-03   Normal BFGS step
    3    -648.1154365325      9.79e-04   Normal BFGS step
    4    -648.1154566353      6.18e-04   Normal BFGS step
    5    -648.1154642250      2.62e-04   Normal BFGS step
    6    -648.1154647849      1.39e-04   Normal BFGS step
    7    -648.1154650021      6.02e-05   Normal BFGS step
    8    -648.1154650491      1.65e-05   Normal BFGS step
    9    -648.1154650584      7.86e-06   Normal BFGS step
   10    -648.1154650603      5.55e-06   Normal BFGS step
   11    -648.1154650606      2.16e-06   Normal BFGS step
   12    -648.1154650606      9.38e-07   Normal BFGS step
   13    -648.1154650606      4.11e-07   Normal BFGS step
   14    -648.1154650606      2.14e-07   Normal BFGS step
   15    -648.1154650607      1.26e-07   Normal BFGS step
   16    -648.1154650606      6.08e-08  Convergence criterion met
 ---------------------------------------
 SCF time:   CPU 2801.47s  wall 193.00s 
<S^2> =          0.754195617
(3)  G-ENP(liq) elect-nuc-pol free energy of system     -648.115465061 a.u.
(4)  G-CDS(liq) cavity-dispersion-solvent structure 
     free energy                                                2.9225 kcal/mol
(6)  G-S(liq) free energy of system                     -648.110807720 a.u.
 SCF   energy in the final basis set =     -648.1108077203
 Total energy in the final basis set =     -648.1108077203
 
 --------------------------------------------------------------
 
                    Orbital Energies (a.u.)
 --------------------------------------------------------------
 
 Alpha MOs
 -- Occupied --
-19.4079 -19.4071 -19.3938 -19.3494 -19.3487 -10.4159 -10.4129 -10.4119
-10.4085 -10.3958 -10.3551 -10.3510  -1.2787  -1.1810  -1.1716  -1.1626
 -1.0750  -0.9661  -0.8897  -0.8510  -0.8066  -0.7519  -0.7203  -0.6901
 -0.6640  -0.6427  -0.6146  -0.6088  -0.5868  -0.5749  -0.5658  -0.5524
 -0.5403  -0.5351  -0.5293  -0.5024  -0.4967  -0.4741  -0.4643  -0.4431
 -0.4384  -0.4132  -0.3967  -0.3858  -0.3695  -0.3640
 -- Virtual --
  0.0250   0.0340   0.0362   0.0431   0.0536   0.0548   0.0568   0.0724
  0.0743   0.0849   0.0891   0.0893   0.1078   0.1191   0.1250   0.1304
  0.1321   0.1386   0.1455   0.1510   0.1553   0.1554   0.1598   0.1656
  0.1689   0.1702   0.1755   0.1853   0.1899   0.1968   0.2011   0.2059
  0.2129   0.2155   0.2192   0.2248   0.2357   0.2443   0.2509   0.2665
  0.2735   0.2773   0.2821   0.2889   0.2958   0.3061   0.3124   0.3172
  0.3188   0.3200   0.3371   0.3389   0.3425   0.3458   0.3530   0.3568
  0.3676   0.3708   0.3745   0.3754   0.3819   0.3853   0.3938   0.3977
  0.4027   0.4110   0.4157   0.4217   0.4234   0.4324   0.4483   0.4497
  0.4584   0.4730   0.4801   0.4867   0.5111   0.5151   0.5213   0.5270
  0.5477   0.5656   0.5907   0.6025   0.6137   0.6205   0.6256   0.6303
  0.6529   0.6572   0.6610   0.6678   0.6812   0.6832   0.6917   0.6933
  0.7018   0.7172   0.7245   0.7258   0.7368   0.7441   0.7531   0.7647
  0.7717   0.7835   0.7956   0.8058   0.8137   0.8378   0.8613   0.8670
  0.8787   0.8885   0.9050   0.9118   0.9390   0.9531   0.9642   0.9902
  1.0067   1.0218   1.0421   1.0505   1.0651   1.0725   1.0793   1.0962
  1.1148   1.1237   1.1359   1.1482   1.1586   1.1628   1.1652   1.1809
  1.1971   1.2060   1.2087   1.2150   1.2238   1.2388   1.2549   1.2635
  1.2688   1.2759   1.2790   1.2838   1.2998   1.3122   1.3172   1.3210
  1.3334   1.3469   1.3595   1.3674   1.3719   1.3803   1.3955   1.4037
  1.4180   1.4230   1.4340   1.4447   1.4563   1.4661   1.4807   1.4855
  1.4992   1.5112   1.5140   1.5299   1.5426   1.5584   1.5773   1.5781
  1.5903   1.5967   1.6081   1.6205   1.6400   1.6663   1.6762   1.6873
  1.7053   1.7136   1.7484   1.7622   1.7749   1.7858   1.7952   1.8336
  1.8463   1.8722   1.8904   1.9061   1.9165   1.9393   1.9641   1.9855
  2.0028   2.0321   2.0446   2.0571   2.0854   2.1053   2.1295   2.1537
  2.1842   2.1968   2.2287   2.2563   2.2810   2.3241   2.3410   2.3630
  2.3974   2.4264   2.4327   2.4720   2.4881   2.5130   2.5402   2.6568
  2.6737   2.6971   2.7228   2.7451   2.7626   2.7938   2.8070   2.8366
  2.8487   2.8559   2.8789   2.8893   2.8981   2.9085   2.9295   2.9369
  2.9515   2.9710   2.9842   2.9961   3.0271   3.0338   3.0478   3.0587
  3.1028   3.1218   3.1383   3.1418   3.1631   3.1933   3.2099   3.2305
  3.2440   3.2643   3.2779   3.3117   3.3153   3.3413   3.3520   3.3627
  3.3897   3.3980   3.4205   3.4563   3.4617   3.4698   3.4838   3.4972
  3.5305   3.5369   3.5664   3.5708   3.5925   3.5963   3.6289   3.6405
  3.6458   3.6465   3.6667   3.6846   3.6964   3.7203   3.7303   3.7381
  3.7583   3.7643   3.7751   3.7933   3.8111   3.8298   3.8512   3.8559
  3.8600   3.8797   3.8928   3.9000   3.9162   3.9261   3.9375   3.9489
  3.9624   3.9699   3.9990   4.0023   4.0298   4.0479   4.0598   4.0910
  4.1062   4.1121   4.1428   4.1741   4.1942   4.1965   4.2184   4.2414
  4.2756   4.2912   4.3046   4.3184   4.3427   4.3512   4.3682   4.3891
  4.3993   4.4084   4.4192   4.4210   4.4483   4.4738   4.4817   4.5029
  4.5172   4.5273   4.5454   4.5785   4.5980   4.6304   4.6477   4.6511
  4.6857   4.6998   4.7240   4.7318   4.7587   4.7852   4.8158   4.8330
  4.8946   4.9678   4.9868   5.0458   5.0926   5.1071   5.1307   5.1452
  5.2129   5.2218   5.2673   5.2836   5.2955   5.2990   5.3139   5.3160
  5.3283   5.3383   5.3589   5.3801   5.3909   5.4026   5.4173   5.4420
  5.4540   5.4719   5.4886   5.5099   5.5276   5.5450   5.5553   5.5825
  5.5961   5.6232   5.6337   5.6507   5.6790   5.7012   5.7352   5.7516
  5.7648   5.7795   5.8067   5.8315   5.8993   5.9115   5.9466   5.9789
  6.0038   6.0338   6.0497   6.0765   6.0929   6.1507   6.2808   6.6131
  6.6442   6.6845   6.7336   6.7633   6.8070   6.9060   6.9548   7.0452
  7.1121   7.1472   7.2935   7.3126   7.3362   7.3550   7.3642   7.3841
  7.3890   7.4110   7.4395   7.4540   7.4732   7.5062   7.5631   7.6464
  7.6585   7.7184   7.7280   7.7956   7.8602   7.9185   7.9798   8.2674
 24.3990  24.7018  24.7853  24.8038  24.8563  24.8847  25.2591  50.5454
 50.6078  50.6222  50.6824  50.6938
 
 Beta MOs
 -- Occupied --
-19.4080 -19.4071 -19.3713 -19.3494 -19.3483 -10.4159 -10.4132 -10.4113
-10.4084 -10.3958 -10.3546 -10.3510  -1.2787  -1.1776  -1.1639  -1.1252
 -1.0741  -0.9622  -0.8885  -0.8474  -0.7990  -0.7513  -0.7170  -0.6884
 -0.6578  -0.6387  -0.6121  -0.5988  -0.5827  -0.5644  -0.5589  -0.5378
 -0.5347  -0.5302  -0.5271  -0.4996  -0.4815  -0.4687  -0.4572  -0.4380
 -0.4136  -0.3966  -0.3819  -0.3676  -0.3630
 -- Virtual --
 -0.0610   0.0252   0.0342   0.0363   0.0434   0.0539   0.0549   0.0569
  0.0729   0.0745   0.0857   0.0892   0.0896   0.1089   0.1194   0.1256
  0.1306   0.1323   0.1397   0.1471   0.1515   0.1554   0.1561   0.1600
  0.1662   0.1693   0.1706   0.1755   0.1852   0.1901   0.1970   0.2014
  0.2061   0.2132   0.2159   0.2198   0.2250   0.2371   0.2447   0.2512
  0.2669   0.2748   0.2779   0.2827   0.2893   0.2972   0.3084   0.3128
  0.3184   0.3193   0.3228   0.3382   0.3396   0.3429   0.3505   0.3543
  0.3584   0.3680   0.3714   0.3750   0.3776   0.3825   0.3869   0.3944
  0.3988   0.4035   0.4128   0.4176   0.4220   0.4247   0.4333   0.4490
  0.4512   0.4607   0.4745   0.4807   0.4873   0.5122   0.5166   0.5223
  0.5274   0.5485   0.5664   0.5910   0.6032   0.6144   0.6230   0.6285
  0.6309   0.6535   0.6591   0.6616   0.6687   0.6827   0.6842   0.6940
  0.6970   0.7026   0.7181   0.7249   0.7267   0.7380   0.7447   0.7541
  0.7650   0.7720   0.7847   0.7961   0.8067   0.8143   0.8389   0.8618
  0.8677   0.8790   0.8889   0.9065   0.9124   0.9395   0.9538   0.9644
  0.9925   1.0083   1.0228   1.0424   1.0510   1.0662   1.0731   1.0803
  1.0970   1.1157   1.1244   1.1370   1.1506   1.1605   1.1635   1.1677
  1.1841   1.2004   1.2085   1.2120   1.2174   1.2338   1.2446   1.2580
  1.2657   1.2714   1.2766   1.2813   1.2859   1.3037   1.3172   1.3190
  1.3225   1.3357   1.3510   1.3602   1.3683   1.3745   1.3808   1.3971
  1.4044   1.4200   1.4268   1.4347   1.4470   1.4613   1.4669   1.4826
  1.4884   1.5003   1.5138   1.5181   1.5325   1.5439   1.5616   1.5790
  1.5817   1.5910   1.5984   1.6093   1.6297   1.6405   1.6672   1.6777
  1.6920   1.7077   1.7173   1.7514   1.7661   1.7765   1.7881   1.7977
  1.8428   1.8529   1.8859   1.8938   1.9112   1.9221   1.9473   1.9691
  1.9889   2.0044   2.0339   2.0467   2.0647   2.0864   2.1120   2.1297
  2.1574   2.1849   2.1985   2.2324   2.2599   2.2828   2.3262   2.3458
  2.3682   2.3981   2.4330   2.4347   2.4739   2.4936   2.5178   2.5411
  2.6574   2.6828   2.6984   2.7233   2.7458   2.7634   2.7956   2.8079
  2.8375   2.8502   2.8589   2.8794   2.8903   2.8985   2.9093   2.9300
  2.9384   2.9544   2.9741   2.9863   2.9972   3.0276   3.0345   3.0485
  3.0601   3.1038   3.1234   3.1393   3.1424   3.1645   3.1946   3.2104
  3.2315   3.2444   3.2650   3.2786   3.3123   3.3162   3.3433   3.3541
  3.3629   3.3905   3.3997   3.4216   3.4571   3.4628   3.4711   3.4861
  3.4982   3.5317   3.5391   3.5671   3.5719   3.5939   3.5981   3.6315
  3.6410   3.6464   3.6468   3.6675   3.6859   3.6989   3.7217   3.7307
  3.7392   3.7595   3.7656   3.7765   3.7947   3.8121   3.8303   3.8525
  3.8576   3.8622   3.8805   3.8935   3.9013   3.9174   3.9276   3.9391
  3.9497   3.9643   3.9718   4.0003   4.0029   4.0330   4.0505   4.0615
  4.0927   4.1073   4.1128   4.1447   4.1746   4.1957   4.1982   4.2221
  4.2428   4.2773   4.2940   4.3054   4.3201   4.3449   4.3538   4.3703
  4.3935   4.4007   4.4099   4.4219   4.4265   4.4493   4.4756   4.4846
  4.5038   4.5184   4.5314   4.5523   4.5803   4.6021   4.6313   4.6493
  4.6537   4.6873   4.7002   4.7244   4.7339   4.7601   4.7874   4.8185
  4.8351   4.8967   4.9712   4.9901   5.0480   5.1069   5.1174   5.1878
  5.1994   5.2248   5.2685   5.2821   5.2896   5.3024   5.3106   5.3175
  5.3323   5.3400   5.3490   5.3660   5.4012   5.4103   5.4182   5.4291
  5.4434   5.4568   5.4926   5.5012   5.5131   5.5291   5.5480   5.5752
  5.5912   5.5991   5.6254   5.6350   5.6542   5.6800   5.7013   5.7365
  5.7525   5.7672   5.7818   5.8094   5.8324   5.9022   5.9132   5.9769
  5.9882   6.0079   6.0379   6.0508   6.0826   6.0997   6.1574   6.2813
  6.6133   6.6460   6.6849   6.7467   6.7641   6.8207   7.0097   7.0450
  7.0587   7.1134   7.1499   7.2948   7.3128   7.3368   7.3581   7.3813
  7.4084   7.4136   7.4350   7.4482   7.4698   7.4851   7.5091   7.5635
  7.6467   7.6586   7.7235   7.7692   7.7964   7.8614   7.9191   7.9799
  8.2675  24.3991  24.7021  24.7853  24.8037  24.8564  24.8849  25.2593
 50.5605  50.6081  50.6222  50.6826  50.6942
 --------------------------------------------------------------
 
          Ground-State Mulliken Net Atomic Charges

     Atom                 Charge (a.u.)    Spin (a.u.)
  --------------------------------------------------------
      1 C                    -0.155155       0.010809
      2 C                    -0.061818      -0.001355
      3 C                    -0.475078       0.042439
      4 C                    -0.080959      -0.011201
      5 C                    -0.412175       0.008077
      6 C                     0.124755      -0.008388
      7 C                    -0.393181       0.001591
      8 H                     0.323923       0.003097
      9 H                     0.289732      -0.001662
     10 H                     0.291011       0.092286
     11 H                     0.303849      -0.001250
     12 H                     0.313010       0.002418
     13 H                     0.252442       0.000059
     14 O                    -0.378599       0.000060
     15 H                     0.243472      -0.000006
     16 H                     0.328289       0.000025
     17 O                    -0.403438       0.005579
     18 H                     0.342814       0.000691
     19 O                    -0.112160       0.001141
     20 O                    -0.132436      -0.000501
     21 O                    -0.208296       0.856093
  --------------------------------------------------------
  Sum of atomic charges =     0.000000
  Sum of spin   charges =     1.000000

 -----------------------------------------------------------------
                    Cartesian Multipole Moments
 -----------------------------------------------------------------
    Charge (ESU x 10^10)
                 0.0000
    Dipole Moment (Debye)
         X      -1.4497      Y       1.7666      Z      -3.3920
       Tot       4.0900
    Quadrupole Moments (Debye-Ang)
        XX     -73.2685     XY       8.0150     YY     -79.0859
        XZ       7.8491     YZ      -1.4120     ZZ     -62.4952
    Octopole Moments (Debye-Ang^2)
       XXX     205.3830    XXY      16.7159    XYY      43.3214
       YYY     148.9599    XXZ     -38.0115    XYZ      17.5942
       YYZ     -24.2175    XZZ      61.3696    YZZ      24.5434
       ZZZ     -78.8007
    Hexadecapole Moments (Debye-Ang^3)
      XXXX    -879.1119   XXXY     -85.9642   XXYY    -267.7117
      XYYY     -88.7577   YYYY   -1183.2607   XXXZ     147.0699
      XXYZ      38.3910   XYYZ      30.9470   YYYZ     199.8366
      XXZZ    -257.3057   XYZZ     -29.0579   YYZZ    -287.8505
      XZZZ     148.5646   YZZZ     144.2544   ZZZZ    -614.0051
 -----------------------------------------------------------------
 Calculating analytic gradient of the SCF energy
 Gradient of CDS energy
            1           2           3           4           5           6
    1   0.0016344  -0.0000679   0.0048859  -0.0001893  -0.0002249   0.0000529
    2  -0.0013648   0.0001003  -0.0056730  -0.0002507   0.0001191   0.0000670
    3  -0.0010525   0.0001828   0.0000451  -0.0001571  -0.0001493   0.0001548
            7           8           9          10          11          12
    1   0.0001164  -0.0000362   0.0000744  -0.0001612  -0.0000977  -0.0000499
    2   0.0009941   0.0002085  -0.0000716  -0.0000570  -0.0001502   0.0000827
    3  -0.0003485   0.0000940   0.0001818   0.0001500  -0.0000937  -0.0001153
           13          14          15          16          17          18
    1  -0.0002479  -0.0001699   0.0001362   0.0001746  -0.0016435   0.0004059
    2  -0.0002528  -0.0001463  -0.0001228  -0.0000224   0.0012669  -0.0001123
    3  -0.0000508   0.0002875   0.0002763  -0.0004883   0.0011673  -0.0002157
           19          20          21
    1  -0.0000218   0.0000448  -0.0046151
    2   0.0000551  -0.0000908   0.0054210
    3  -0.0000873   0.0000781   0.0001408
 Gradient of SCF Energy
            1           2           3           4           5           6
    1   0.0024119  -0.0051248   0.0098832   0.0023450   0.0029685  -0.0049582
    2  -0.0052140   0.0044003  -0.0033936   0.0055848  -0.0000131   0.0024831
    3  -0.0050640  -0.0018862  -0.0061399   0.0082788   0.0070144   0.0014283
            7           8           9          10          11          12
    1   0.0088350   0.0031826   0.0019530  -0.0050995  -0.0041487  -0.0046005
    2  -0.0168335   0.0052600  -0.0008718  -0.0027825  -0.0045725   0.0035504
    3   0.0024987   0.0024392   0.0047706   0.0037364  -0.0035487  -0.0134974
           13          14          15          16          17          18
    1  -0.0088736   0.0085347   0.0023373  -0.0093786   0.0002790   0.0007578
    2   0.0034915   0.0150272   0.0061296  -0.0102688  -0.0088184   0.0048142
    3  -0.0073759   0.0142702   0.0049960  -0.0136796   0.0063198  -0.0066447
           19          20          21
    1  -0.0027222  -0.0009244   0.0023426
    2   0.0022695   0.0008811  -0.0011234
    3   0.0011044   0.0015462  -0.0005666
 Max gradient component =       1.683E-02
 RMS gradient           =       6.313E-03
 Computing fast CPCM-SWIG gradient
 Updating gradient with PCM contributions...
 -- total gradient after adding PCM contribution --
---------------------------------------------------
  Atom         X              Y              Z     
---------------------------------------------------
   1       0.001107       0.000024      -0.000119
   2      -0.000196      -0.000135       0.000067
   3       0.000017      -0.000006      -0.000010
   4      -0.000004       0.000003       0.000010
   5      -0.000040      -0.000009      -0.000034
   6      -0.000162       0.000038      -0.000098
   7       0.000066      -0.000026      -0.000052
   8      -0.000214      -0.000193      -0.000093
   9       0.000024       0.000001      -0.000011
  10      -0.000029      -0.000007       0.000016
  11       0.000004      -0.000002      -0.000015
  12      -0.000002       0.000003      -0.000008
  13      -0.000009       0.000010       0.000006
  14      -0.000018       0.000040       0.000047
  15       0.000007       0.000007       0.000015
  16      -0.000009      -0.000024      -0.000033
  17      -0.000320       0.000168       0.000262
  18      -0.000042       0.000039      -0.000021
  19      -0.000068       0.000059      -0.000018
  20      -0.000086      -0.000006       0.000092
  21      -0.000028       0.000014      -0.000003
---------------------------------------------------
 Number of fixed atoms: 0
 Gradient time:  CPU 556.02 s  wall 42.74 s
 ----------------------------------------------------------------
             Standard Nuclear Orientation (Angstroms)
    I     Atom           X                Y                Z
 ----------------------------------------------------------------
    1      C      -0.0122338406    -0.2044571578     0.7943742310
    2      C      -0.8709735290    -0.9833205214     1.7745707659
    3      C      -1.4369571481    -2.2370319746     1.0856013841
    4      C      -2.0180241893    -1.9197745827    -0.2687287740
    5      C      -1.8740873604    -0.7144528704    -0.8014294379
    6      C      -1.1526321212     0.3755764296    -0.0469267503
    7      C      -0.7125435276     1.5399599338    -0.9180948532
    8      H       0.5063594358     0.6107965497     1.3039443737
    9      H      -0.3817733902    -1.2311748197     2.7129706341
   10      H      -2.2377737209    -2.6211108190     1.7495963791
   11      H      -2.5432232216    -2.7154892667    -0.7806317156
   12      H      -2.2902891792    -0.4716493781    -1.7721848746
   13      H      -1.5569794046     1.9509285293    -1.4719372775
   14      O       0.3163577727     1.1021630864    -1.8015854543
   15      H      -0.2870042880     2.3170427906    -0.2868202758
   16      H      -0.0882818083     0.6407612684    -2.5447374248
   17      O       0.8881125400    -1.0441033409     0.1120683293
   18      H       1.1597752464    -0.5683319492    -0.6858020709
   19      O      -1.9370901837    -0.0775912384     2.0694278129
   20      O      -1.9914976436     0.9046110604     0.9865002998
   21      O      -0.5408477387    -3.2811057300     1.0637294989
 ----------------------------------------------------------------
 Nuclear Repulsion Energy =         794.18086047 hartrees
 There are       46 alpha and       45 beta electrons
 Discretize the solute cavity surface with Lebedev spheres
	Using 110 Lebedev grid points for each H atom
	Using 194 Lebedev grid points for other atoms
	Atomic van der Waals radii will be scaled by 1.20
 Remove points where switching function is < 1.0e-08
 Keep 1510 surface tesserae and discard 1808 interior tesserae
 Molecular Surface Area = 169.073 Angst**2
 Requested basis set is 6-311++G(2df,2p)
 There are 150 shells and 498 basis functions
 A cutoff of  1.0D-12 yielded  10189 shell pairs
 There are    113322 function pairs (    141956 Cartesian)
 Smallest overlap matrix eigenvalue = 2.17E-06
 Guess MOs from SCF MO coefficient file

 -----------------------------------------------------------------------
  General SCF calculation program by
  Eric Jon Sundstrom, Paul Horn, Yuezhi Mao, Dmitri Zuev, Alec White,
  David Stuck, Shaama M.S., Shane Yost, Joonho Lee, David Small,
  Daniel Levine, Susi Lehtola, Hugh Burton, Evgeny Epifanovsky,
  Bang C. Huynh
 -----------------------------------------------------------------------
 Exchange:     0.1500 Hartree-Fock + 1.0000 wB97M-V + LR-HF
 Correlation:  1.0000 wB97M-V
 Using SG-2 standard quadrature grid
 Nonlocal Correlation:  VV10 with C = 0.0100 and b = 6.00 and scale = 1.00000
 Grid used for NLC:  SG-1 standard quadrature
 
 Citation of the SMD model:
 Marenich, A.V.; Cramer, C.J.; Truhlar, D.G.
 J. Phys. Chem. B 2009, 113, 6378-6396.
 iSolventCode=           1
 Solvent: water                                                           
 
 vradii
            1           2           3           4           5           6
    1   1.8500000   1.8500000   1.8500000   1.8500000   1.8500000   1.8500000
            7           8           9          10          11          12
    1   1.8500000   1.2000000   1.2000000   1.2000000   1.2000000   1.2000000
           13          14          15          16          17          18
    1   1.2000000   1.5200000   1.2000000   1.2000000   1.5200000   1.2000000
           19          20          21
    1   1.5200000   1.5200000   1.5200000
 -------------------------------------------------------
 OpenMP BLAS3 based DFT computing Module                
 Release: version 1.0, May 2013, Q-Chem Inc. Pittsburgh 
 -------------------------------------------------------
 A unrestricted SCF calculation will be
 performed using Roothaan-Hall, DIIS, GDM
 SCF converges when RMS gradient is below 1.0e-07
 ---------------------------------------
  Cycle       Energy         DIIS error
 ---------------------------------------
    1    -648.0750727069      1.78e-04  Roothaan Step
 ---------------------------------------
  Cycle       Energy         DIIS error
 ---------------------------------------
    1    -648.1081218600      1.97e-04  
    2    -648.1132985326      1.52e-04  Done DIIS. Switching to GDM
 ---------------------------------------
  Cycle       Energy        RMS Gradient
 ---------------------------------------
    1    -648.1132985326      4.39e-03   Normal BFGS step
    2    -648.1135629536      6.87e-03   Normal BFGS step
    3    -648.1154305271      9.83e-04   Normal BFGS step
    4    -648.1154506981      6.16e-04   Normal BFGS step
    5    -648.1154583114      2.62e-04   Normal BFGS step
    6    -648.1154588710      1.39e-04   Normal BFGS step
    7    -648.1154590853      6.13e-05   Normal BFGS step
    8    -648.1154591313      1.70e-05   Normal BFGS step
    9    -648.1154591404      7.73e-06   Normal BFGS step
   10    -648.1154591423      6.56e-06   Normal BFGS step
   11    -648.1154591426      3.11e-06   Normal BFGS step
   12    -648.1154591427      1.84e-06   Normal BFGS step
   13    -648.1154591427      1.22e-06   Normal BFGS step
   14    -648.1154591427      6.87e-07   Normal BFGS step
   15    -648.1154591427      6.68e-07   Normal BFGS step
   16    -648.1154591428      6.18e-07   Normal BFGS step
   17    -648.1154591427      5.96e-07   Normal BFGS step
   18    -648.1154591428      4.89e-07   Normal BFGS step
   19    -648.1154591428      3.62e-07   Normal BFGS step
   20    -648.1154591428      1.99e-07   Normal BFGS step
   21    -648.1154591427      6.52e-08  Convergence criterion met
 ---------------------------------------
 SCF time:   CPU 3453.03s  wall 240.00s 
<S^2> =          0.754195351
(3)  G-ENP(liq) elect-nuc-pol free energy of system     -648.115459143 a.u.
(4)  G-CDS(liq) cavity-dispersion-solvent structure 
     free energy                                                2.9188 kcal/mol
(6)  G-S(liq) free energy of system                     -648.110807669 a.u.
 SCF   energy in the final basis set =     -648.1108076689
 Total energy in the final basis set =     -648.1108076689
 
 --------------------------------------------------------------
 
                    Orbital Energies (a.u.)
 --------------------------------------------------------------
 
 Alpha MOs
 -- Occupied --
-19.4080 -19.4071 -19.3938 -19.3495 -19.3487 -10.4159 -10.4129 -10.4119
-10.4084 -10.3958 -10.3551 -10.3510  -1.2788  -1.1807  -1.1716  -1.1624
 -1.0750  -0.9662  -0.8898  -0.8511  -0.8066  -0.7519  -0.7205  -0.6901
 -0.6640  -0.6426  -0.6145  -0.6089  -0.5868  -0.5749  -0.5656  -0.5524
 -0.5403  -0.5351  -0.5293  -0.5025  -0.4967  -0.4742  -0.4644  -0.4431
 -0.4385  -0.4132  -0.3967  -0.3859  -0.3696  -0.3641
 -- Virtual --
  0.0250   0.0340   0.0362   0.0431   0.0536   0.0548   0.0568   0.0724
  0.0743   0.0849   0.0891   0.0893   0.1078   0.1191   0.1250   0.1304
  0.1321   0.1386   0.1455   0.1510   0.1553   0.1554   0.1597   0.1656
  0.1689   0.1702   0.1755   0.1853   0.1899   0.1968   0.2011   0.2058
  0.2130   0.2156   0.2192   0.2248   0.2357   0.2443   0.2508   0.2665
  0.2735   0.2773   0.2821   0.2888   0.2957   0.3061   0.3124   0.3171
  0.3187   0.3200   0.3371   0.3390   0.3425   0.3458   0.3529   0.3567
  0.3676   0.3708   0.3745   0.3754   0.3819   0.3853   0.3939   0.3977
  0.4027   0.4109   0.4157   0.4218   0.4234   0.4324   0.4483   0.4497
  0.4584   0.4730   0.4801   0.4867   0.5111   0.5151   0.5213   0.5270
  0.5477   0.5656   0.5908   0.6025   0.6137   0.6205   0.6256   0.6303
  0.6529   0.6572   0.6610   0.6679   0.6811   0.6833   0.6917   0.6933
  0.7018   0.7171   0.7245   0.7258   0.7368   0.7441   0.7530   0.7647
  0.7717   0.7836   0.7956   0.8058   0.8138   0.8378   0.8612   0.8671
  0.8787   0.8885   0.9050   0.9118   0.9391   0.9533   0.9642   0.9902
  1.0067   1.0217   1.0422   1.0505   1.0652   1.0724   1.0794   1.0963
  1.1148   1.1236   1.1359   1.1483   1.1586   1.1627   1.1652   1.1809
  1.1972   1.2060   1.2087   1.2150   1.2237   1.2388   1.2549   1.2637
  1.2688   1.2759   1.2790   1.2838   1.2999   1.3122   1.3173   1.3210
  1.3334   1.3470   1.3595   1.3676   1.3720   1.3803   1.3955   1.4039
  1.4180   1.4231   1.4340   1.4447   1.4563   1.4661   1.4808   1.4855
  1.4993   1.5112   1.5141   1.5298   1.5427   1.5584   1.5773   1.5781
  1.5904   1.5968   1.6081   1.6205   1.6399   1.6661   1.6762   1.6875
  1.7053   1.7139   1.7484   1.7622   1.7749   1.7858   1.7952   1.8336
  1.8463   1.8722   1.8906   1.9061   1.9165   1.9394   1.9642   1.9855
  2.0027   2.0318   2.0446   2.0571   2.0855   2.1052   2.1296   2.1538
  2.1841   2.1968   2.2286   2.2563   2.2809   2.3240   2.3409   2.3628
  2.3974   2.4264   2.4326   2.4718   2.4881   2.5130   2.5402   2.6569
  2.6738   2.6970   2.7229   2.7451   2.7625   2.7938   2.8072   2.8367
  2.8488   2.8562   2.8792   2.8895   2.8981   2.9086   2.9296   2.9371
  2.9515   2.9711   2.9844   2.9961   3.0272   3.0340   3.0481   3.0587
  3.1030   3.1220   3.1384   3.1419   3.1633   3.1933   3.2100   3.2305
  3.2441   3.2642   3.2780   3.3120   3.3153   3.3413   3.3519   3.3626
  3.3897   3.3980   3.4206   3.4563   3.4618   3.4699   3.4838   3.4971
  3.5304   3.5370   3.5664   3.5709   3.5923   3.5964   3.6290   3.6405
  3.6458   3.6464   3.6668   3.6846   3.6964   3.7202   3.7302   3.7381
  3.7583   3.7643   3.7752   3.7933   3.8110   3.8297   3.8511   3.8561
  3.8600   3.8799   3.8933   3.9002   3.9162   3.9264   3.9376   3.9490
  3.9628   3.9700   3.9989   4.0030   4.0301   4.0478   4.0600   4.0910
  4.1065   4.1126   4.1429   4.1742   4.1943   4.1966   4.2186   4.2418
  4.2757   4.2917   4.3046   4.3186   4.3430   4.3514   4.3685   4.3894
  4.3993   4.4083   4.4193   4.4209   4.4483   4.4734   4.4818   4.5026
  4.5170   4.5275   4.5453   4.5786   4.5981   4.6306   4.6480   4.6513
  4.6859   4.6998   4.7240   4.7319   4.7595   4.7851   4.8167   4.8330
  4.8951   4.9679   4.9868   5.0459   5.0930   5.1073   5.1307   5.1455
  5.2131   5.2219   5.2674   5.2838   5.2957   5.2992   5.3140   5.3160
  5.3283   5.3383   5.3589   5.3800   5.3912   5.4028   5.4173   5.4419
  5.4543   5.4724   5.4887   5.5099   5.5277   5.5451   5.5553   5.5824
  5.5960   5.6231   5.6337   5.6499   5.6790   5.7011   5.7347   5.7514
  5.7646   5.7794   5.8059   5.8313   5.8992   5.9113   5.9466   5.9787
  6.0031   6.0335   6.0490   6.0762   6.0922   6.1504   6.2809   6.6131
  6.6443   6.6846   6.7327   6.7619   6.8064   6.9060   6.9547   7.0452
  7.1121   7.1471   7.2935   7.3126   7.3362   7.3550   7.3641   7.3841
  7.3891   7.4108   7.4393   7.4538   7.4729   7.5062   7.5631   7.6464
  7.6586   7.7183   7.7280   7.7956   7.8601   7.9185   7.9799   8.2675
 24.3990  24.7018  24.7847  24.8037  24.8577  24.8854  25.2591  50.5454
 50.6078  50.6222  50.6821  50.6938
 
 Beta MOs
 -- Occupied --
-19.4080 -19.4071 -19.3713 -19.3495 -19.3482 -10.4159 -10.4132 -10.4114
-10.4084 -10.3958 -10.3547 -10.3510  -1.2788  -1.1773  -1.1638  -1.1252
 -1.0742  -0.9624  -0.8887  -0.8475  -0.7991  -0.7512  -0.7172  -0.6884
 -0.6578  -0.6386  -0.6121  -0.5988  -0.5828  -0.5644  -0.5589  -0.5378
 -0.5348  -0.5301  -0.5271  -0.4996  -0.4814  -0.4687  -0.4572  -0.4380
 -0.4135  -0.3967  -0.3820  -0.3676  -0.3630
 -- Virtual --
 -0.0610   0.0252   0.0342   0.0362   0.0434   0.0539   0.0549   0.0569
  0.0729   0.0745   0.0857   0.0892   0.0896   0.1089   0.1194   0.1256
  0.1306   0.1323   0.1397   0.1472   0.1515   0.1554   0.1561   0.1600
  0.1661   0.1693   0.1706   0.1755   0.1852   0.1901   0.1970   0.2014
  0.2060   0.2132   0.2159   0.2198   0.2250   0.2371   0.2446   0.2512
  0.2670   0.2748   0.2779   0.2827   0.2892   0.2971   0.3085   0.3128
  0.3183   0.3192   0.3228   0.3382   0.3396   0.3429   0.3505   0.3542
  0.3584   0.3680   0.3715   0.3749   0.3776   0.3825   0.3869   0.3944
  0.3988   0.4035   0.4127   0.4177   0.4221   0.4247   0.4333   0.4491
  0.4513   0.4607   0.4744   0.4807   0.4873   0.5122   0.5166   0.5223
  0.5275   0.5485   0.5664   0.5911   0.6032   0.6144   0.6230   0.6284
  0.6309   0.6535   0.6591   0.6616   0.6687   0.6827   0.6843   0.6940
  0.6970   0.7026   0.7181   0.7249   0.7267   0.7380   0.7447   0.7541
  0.7650   0.7720   0.7848   0.7962   0.8067   0.8144   0.8389   0.8618
  0.8678   0.8790   0.8889   0.9065   0.9123   0.9396   0.9539   0.9644
  0.9925   1.0084   1.0227   1.0424   1.0510   1.0662   1.0731   1.0804
  1.0971   1.1157   1.1244   1.1370   1.1507   1.1605   1.1635   1.1677
  1.1841   1.2004   1.2085   1.2120   1.2174   1.2338   1.2446   1.2580
  1.2659   1.2714   1.2766   1.2813   1.2859   1.3038   1.3173   1.3191
  1.3225   1.3357   1.3511   1.3602   1.3685   1.3745   1.3808   1.3971
  1.4046   1.4200   1.4269   1.4348   1.4469   1.4613   1.4669   1.4827
  1.4884   1.5004   1.5138   1.5181   1.5325   1.5440   1.5616   1.5790
  1.5817   1.5911   1.5985   1.6093   1.6297   1.6405   1.6670   1.6776
  1.6921   1.7078   1.7176   1.7514   1.7661   1.7765   1.7881   1.7977
  1.8428   1.8530   1.8860   1.8938   1.9113   1.9221   1.9473   1.9691
  1.9889   2.0043   2.0336   2.0468   2.0647   2.0865   2.1120   2.1298
  2.1574   2.1848   2.1986   2.2323   2.2598   2.2827   2.3261   2.3456
  2.3680   2.3981   2.4330   2.4348   2.4737   2.4937   2.5178   2.5411
  2.6576   2.6829   2.6983   2.7234   2.7457   2.7634   2.7956   2.8082
  2.8375   2.8504   2.8591   2.8797   2.8905   2.8986   2.9093   2.9301
  2.9386   2.9544   2.9741   2.9866   2.9972   3.0277   3.0346   3.0489
  3.0600   3.1040   3.1236   3.1394   3.1425   3.1648   3.1946   3.2104
  3.2314   3.2445   3.2649   3.2787   3.3125   3.3161   3.3433   3.3541
  3.3628   3.3905   3.3997   3.4217   3.4571   3.4628   3.4712   3.4861
  3.4981   3.5316   3.5392   3.5671   3.5720   3.5937   3.5982   3.6316
  3.6410   3.6464   3.6468   3.6677   3.6859   3.6989   3.7216   3.7306
  3.7392   3.7596   3.7656   3.7765   3.7947   3.8120   3.8301   3.8524
  3.8578   3.8622   3.8807   3.8939   3.9015   3.9175   3.9280   3.9392
  3.9499   3.9646   3.9719   4.0003   4.0037   4.0333   4.0503   4.0617
  4.0926   4.1076   4.1133   4.1448   4.1748   4.1958   4.1982   4.2223
  4.2431   4.2774   4.2945   4.3054   4.3203   4.3452   4.3540   4.3707
  4.3937   4.4007   4.4099   4.4218   4.4266   4.4493   4.4752   4.4847
  4.5036   4.5182   4.5316   4.5522   4.5804   4.6021   4.6316   4.6496
  4.6539   4.6875   4.7002   4.7245   4.7339   4.7609   4.7873   4.8193
  4.8351   4.8973   4.9713   4.9901   5.0481   5.1073   5.1178   5.1879
  5.1994   5.2250   5.2687   5.2824   5.2897   5.3025   5.3107   5.3175
  5.3322   5.3401   5.3490   5.3659   5.4013   5.4104   5.4183   5.4293
  5.4433   5.4570   5.4928   5.5015   5.5132   5.5291   5.5481   5.5751
  5.5911   5.5990   5.6253   5.6350   5.6535   5.6800   5.7012   5.7361
  5.7523   5.7669   5.7817   5.8086   5.8322   5.9020   5.9130   5.9768
  5.9881   6.0074   6.0375   6.0499   6.0821   6.0993   6.1571   6.2813
  6.6133   6.6461   6.6850   6.7453   6.7631   6.8203   7.0097   7.0450
  7.0586   7.1134   7.1499   7.2947   7.3128   7.3368   7.3581   7.3813
  7.4083   7.4136   7.4349   7.4481   7.4694   7.4851   7.5091   7.5635
  7.6468   7.6586   7.7234   7.7692   7.7964   7.8613   7.9191   7.9799
  8.2676  24.3992  24.7021  24.7847  24.8036  24.8578  24.8856  25.2593
 50.5605  50.6081  50.6223  50.6823  50.6941
 --------------------------------------------------------------
 
          Ground-State Mulliken Net Atomic Charges

     Atom                 Charge (a.u.)    Spin (a.u.)
  --------------------------------------------------------
      1 C                    -0.154644       0.010790
      2 C                    -0.062262      -0.001351
      3 C                    -0.475063       0.042436
      4 C                    -0.080576      -0.011212
      5 C                    -0.412938       0.008092
      6 C                     0.125961      -0.008397
      7 C                    -0.393078       0.001591
      8 H                     0.323560       0.003110
      9 H                     0.289753      -0.001666
     10 H                     0.290991       0.092271
     11 H                     0.303885      -0.001249
     12 H                     0.312953       0.002416
     13 H                     0.252504       0.000059
     14 O                    -0.378610       0.000060
     15 H                     0.243465      -0.000006
     16 H                     0.328293       0.000025
     17 O                    -0.404188       0.005599
     18 H                     0.342803       0.000688
     19 O                    -0.112201       0.001139
     20 O                    -0.132339      -0.000502
     21 O                    -0.208268       0.856106
  --------------------------------------------------------
  Sum of atomic charges =     0.000000
  Sum of spin   charges =     1.000000

 -----------------------------------------------------------------
                    Cartesian Multipole Moments
 -----------------------------------------------------------------
    Charge (ESU x 10^10)
                 0.0000
    Dipole Moment (Debye)
         X      -1.4574      Y       1.7685      Z      -3.3903
       Tot       4.0922
    Quadrupole Moments (Debye-Ang)
        XX     -73.2666     XY       8.0187     YY     -79.0815
        XZ       7.8461     YZ      -1.4184     ZZ     -62.4853
    Octopole Moments (Debye-Ang^2)
       XXX     205.3904    XXY      16.7179    XYY      43.3144
       YYY     148.9617    XXZ     -38.0123    XYZ      17.5990
       YYZ     -24.2149    XZZ      61.3642    YZZ      24.5351
       ZZZ     -78.7767
    Hexadecapole Moments (Debye-Ang^3)
      XXXX    -879.0863   XXXY     -85.9599   XXYY    -267.6922
      XYYY     -88.7467   YYYY   -1183.2031   XXXZ     147.0898
      XXYZ      38.3876   XYYZ      30.9560   YYYZ     199.8062
      XXZZ    -257.2885   XYZZ     -29.0507   YYZZ    -287.8242
      XZZZ     148.5653   YZZZ     144.2066   ZZZZ    -613.8988
 -----------------------------------------------------------------
 Calculating analytic gradient of the SCF energy
 Gradient of CDS energy
            1           2           3           4           5           6
    1   0.0014691  -0.0000668   0.0048859  -0.0001892  -0.0002249   0.0000536
    2  -0.0012113   0.0001007  -0.0056730  -0.0002507   0.0001191   0.0000666
    3  -0.0009280   0.0001821   0.0000451  -0.0001572  -0.0001493   0.0001552
            7           8           9          10          11          12
    1   0.0001165  -0.0000347   0.0000744  -0.0001612  -0.0000977  -0.0000499
    2   0.0009940   0.0002090  -0.0000716  -0.0000570  -0.0001502   0.0000827
    3  -0.0003484   0.0000947   0.0001820   0.0001501  -0.0000937  -0.0001153
           13          14          15          16          17          18
    1  -0.0002479  -0.0001700   0.0001361   0.0001746  -0.0014834   0.0004069
    2  -0.0002528  -0.0001463  -0.0001228  -0.0000224   0.0011131  -0.0001127
    3  -0.0000508   0.0002874   0.0002763  -0.0004883   0.0010426  -0.0002157
           19          20          21
    1  -0.0000217   0.0000447  -0.0046146
    2   0.0000551  -0.0000908   0.0054212
    3  -0.0000873   0.0000780   0.0001406
 Gradient of SCF Energy
            1           2           3           4           5           6
    1   0.0002007  -0.0047760   0.0099417   0.0023374   0.0030341  -0.0045423
    2  -0.0052500   0.0045767  -0.0033338   0.0055755  -0.0000006   0.0024435
    3  -0.0049084  -0.0020095  -0.0061694   0.0082792   0.0070871   0.0016179
            7           8           9          10          11          12
    1   0.0087913   0.0036254   0.0019045  -0.0051042  -0.0041533  -0.0046011
    2  -0.0168371   0.0056223  -0.0008941  -0.0027821  -0.0045759   0.0035541
    3   0.0025065   0.0026651   0.0048166   0.0037428  -0.0035506  -0.0135044
           13          14          15          16          17          18
    1  -0.0088765   0.0085493   0.0023348  -0.0093814   0.0009470   0.0008021
    2   0.0035098   0.0150083   0.0061352  -0.0102651  -0.0091873   0.0047628
    3  -0.0073960   0.0142746   0.0049953  -0.0136795   0.0059240  -0.0066658
           19          20          21
    1  -0.0025856  -0.0007897   0.0023418
    2   0.0022440   0.0008205  -0.0011267
    3   0.0010492   0.0014927  -0.0005672
 Max gradient component =       1.684E-02
 RMS gradient           =       6.313E-03
 Computing fast CPCM-SWIG gradient
 Updating gradient with PCM contributions...
 -- total gradient after adding PCM contribution --
---------------------------------------------------
  Atom         X              Y              Z     
---------------------------------------------------
   1      -0.001136      -0.000010       0.000039
   2       0.000171       0.000030      -0.000053
   3       0.000064       0.000053      -0.000035
   4      -0.000008      -0.000005       0.000007
   5       0.000023      -0.000008       0.000023
   6       0.000275      -0.000001       0.000098
   7       0.000014      -0.000022      -0.000043
   8       0.000230       0.000183       0.000140
   9      -0.000024      -0.000019       0.000026
  10      -0.000028      -0.000005       0.000018
  11       0.000002      -0.000003      -0.000015
  12       0.000000       0.000005      -0.000011
  13      -0.000005       0.000023      -0.000008
  14      -0.000010       0.000030       0.000049
  15       0.000006       0.000010       0.000013
  16      -0.000008      -0.000024      -0.000032
  17       0.000333      -0.000203      -0.000116
  18       0.000013      -0.000008      -0.000060
  19       0.000069       0.000029      -0.000072
  20       0.000046      -0.000063       0.000036
  21      -0.000028       0.000009      -0.000003
---------------------------------------------------
 Number of fixed atoms: 0
 Gradient time:  CPU 547.76 s  wall 42.90 s
 ----------------------------------------------------------------
             Standard Nuclear Orientation (Angstroms)
    I     Atom           X                Y                Z
 ----------------------------------------------------------------
    1      C      -0.0112338406    -0.2034571578     0.7943742310
    2      C      -0.8709735290    -0.9833205214     1.7745707659
    3      C      -1.4369571481    -2.2370319746     1.0856013841
    4      C      -2.0180241893    -1.9197745827    -0.2687287740
    5      C      -1.8740873604    -0.7144528704    -0.8014294379
    6      C      -1.1526321212     0.3755764296    -0.0469267503
    7      C      -0.7125435276     1.5399599338    -0.9180948532
    8      H       0.5063594358     0.6107965497     1.3039443737
    9      H      -0.3817733902    -1.2311748197     2.7129706341
   10      H      -2.2377737209    -2.6211108190     1.7495963791
   11      H      -2.5432232216    -2.7154892667    -0.7806317156
   12      H      -2.2902891792    -0.4716493781    -1.7721848746
   13      H      -1.5569794046     1.9509285293    -1.4719372775
   14      O       0.3163577727     1.1021630864    -1.8015854543
   15      H      -0.2870042880     2.3170427906    -0.2868202758
   16      H      -0.0882818083     0.6407612684    -2.5447374248
   17      O       0.8881125400    -1.0441033409     0.1120683293
   18      H       1.1597752464    -0.5683319492    -0.6858020709
   19      O      -1.9370901837    -0.0775912384     2.0694278129
   20      O      -1.9914976436     0.9046110604     0.9865002998
   21      O      -0.5408477387    -3.2811057300     1.0637294989
 ----------------------------------------------------------------
 Nuclear Repulsion Energy =         794.15648066 hartrees
 There are       46 alpha and       45 beta electrons
 Discretize the solute cavity surface with Lebedev spheres
	Using 110 Lebedev grid points for each H atom
	Using 194 Lebedev grid points for other atoms
	Atomic van der Waals radii will be scaled by 1.20
 Remove points where switching function is < 1.0e-08
 Keep 1510 surface tesserae and discard 1808 interior tesserae
 Molecular Surface Area = 169.071 Angst**2
 Requested basis set is 6-311++G(2df,2p)
 There are 150 shells and 498 basis functions
 A cutoff of  1.0D-12 yielded  10189 shell pairs
 There are    113322 function pairs (    141956 Cartesian)
 Smallest overlap matrix eigenvalue = 2.17E-06
 Guess MOs from SCF MO coefficient file

 -----------------------------------------------------------------------
  General SCF calculation program by
  Eric Jon Sundstrom, Paul Horn, Yuezhi Mao, Dmitri Zuev, Alec White,
  David Stuck, Shaama M.S., Shane Yost, Joonho Lee, David Small,
  Daniel Levine, Susi Lehtola, Hugh Burton, Evgeny Epifanovsky,
  Bang C. Huynh
 -----------------------------------------------------------------------
 Exchange:     0.1500 Hartree-Fock + 1.0000 wB97M-V + LR-HF
 Correlation:  1.0000 wB97M-V
 Using SG-2 standard quadrature grid
 Nonlocal Correlation:  VV10 with C = 0.0100 and b = 6.00 and scale = 1.00000
 Grid used for NLC:  SG-1 standard quadrature
 
 Citation of the SMD model:
 Marenich, A.V.; Cramer, C.J.; Truhlar, D.G.
 J. Phys. Chem. B 2009, 113, 6378-6396.
 iSolventCode=           1
 Solvent: water                                                           
 
 vradii
            1           2           3           4           5           6
    1   1.8500000   1.8500000   1.8500000   1.8500000   1.8500000   1.8500000
            7           8           9          10          11          12
    1   1.8500000   1.2000000   1.2000000   1.2000000   1.2000000   1.2000000
           13          14          15          16          17          18
    1   1.2000000   1.5200000   1.2000000   1.2000000   1.5200000   1.2000000
           19          20          21
[...]
 C         -0.025  0.005  0.018    0.031  0.015  0.054   -0.042  0.005 -0.033
 C         -0.001  0.008 -0.012   -0.002  0.019 -0.026    0.005 -0.008  0.010
 C         -0.004 -0.005 -0.007   -0.019 -0.118  0.054   -0.025 -0.042  0.002
 C         -0.001 -0.010 -0.011    0.019  0.055 -0.031    0.015  0.028  0.011
 H         -0.010 -0.122  0.243    0.026  0.260 -0.451   -0.060  0.212 -0.247
 H         -0.000  0.197  0.047   -0.024  0.008 -0.055   -0.277 -0.034  0.044
 H         -0.397  0.632 -0.125   -0.024 -0.080 -0.018   -0.350  0.202 -0.288
 H          0.069 -0.145  0.148    0.078 -0.226  0.381   -0.068  0.275 -0.429
 H          0.124  0.245 -0.009    0.181  0.474  0.009   -0.053 -0.192 -0.012
 H          0.124  0.048 -0.156    0.029  0.057 -0.050   -0.118 -0.062  0.140
 O          0.005  0.002 -0.002   -0.015  0.005  0.009   -0.011 -0.001  0.004
 H         -0.120 -0.067  0.141    0.092  0.103 -0.136    0.146  0.130 -0.205
 H         -0.182  0.025  0.084    0.056 -0.005 -0.021    0.197 -0.026 -0.090
 O         -0.001  0.008 -0.011   -0.002 -0.015  0.018   -0.002 -0.015  0.006
 H          0.133 -0.162 -0.059   -0.238  0.301  0.112   -0.116  0.145  0.056
 O          0.003  0.005  0.008   -0.001 -0.003  0.004   -0.003  0.002  0.021
 O          0.003 -0.003  0.003   -0.007  0.019 -0.004    0.003  0.006 -0.003
 O          0.004  0.024 -0.013   -0.014  0.024  0.006   -0.010  0.020 -0.015
 TransDip  -0.025 -0.082  0.128   -0.033  0.026 -0.045   -0.022 -0.165 -0.091

 Mode:                37                     38                     39
 Frequency:      1252.51                1272.71                1287.41
 Force Cnst:      1.6792                 2.1983                 1.5011
 Red. Mass:       1.8168                 2.3035                 1.5372
 IR Active:          YES                    YES                    YES
 IR Intens:       47.126                 86.727                  1.020
 Raman Active:       YES                    YES                    YES
               X      Y      Z        X      Y      Z        X      Y      Z
 C         -0.020 -0.008 -0.014   -0.070  0.161  0.122    0.026 -0.015 -0.031
 C         -0.001 -0.022  0.003   -0.079 -0.015  0.070   -0.114 -0.012  0.071
 C          0.028 -0.025  0.036    0.012 -0.007 -0.001    0.037  0.009  0.029
 C         -0.031 -0.041 -0.028   -0.002 -0.013  0.004    0.005  0.015  0.004
 C          0.012  0.034  0.003    0.007  0.005  0.013   -0.020 -0.022 -0.028
 C          0.030  0.210 -0.079   -0.049  0.016 -0.067    0.030 -0.055  0.102
 C         -0.012 -0.088  0.029    0.022 -0.001  0.035   -0.017  0.008 -0.027
 H          0.380 -0.034 -0.385   -0.416  0.358  0.173    0.335 -0.042 -0.310
 H         -0.024 -0.225 -0.035    0.482 -0.273 -0.284    0.520 -0.416 -0.361
 H         -0.081  0.069 -0.035   -0.005  0.115  0.052   -0.032  0.135  0.023
 H          0.023 -0.229  0.194   -0.010 -0.024  0.029   -0.028  0.148 -0.168
 H         -0.005 -0.005 -0.008    0.072  0.153  0.022   -0.045 -0.091 -0.035
 H          0.000 -0.079  0.027   -0.104 -0.130  0.127    0.141  0.145 -0.162
 O          0.005  0.004 -0.010   -0.010 -0.002 -0.002    0.005  0.006  0.003
 H         -0.148 -0.168  0.217    0.055  0.096 -0.111    0.028 -0.027 -0.009
 H         -0.076  0.006  0.028    0.164 -0.030 -0.078   -0.117  0.028  0.055
 O          0.013 -0.021  0.035    0.094 -0.135 -0.090   -0.016  0.040  0.023
 H         -0.365  0.453  0.168   -0.073  0.151  0.007    0.027 -0.032 -0.002
 O         -0.012  0.009  0.010    0.015  0.015 -0.042    0.015  0.012 -0.052
 O          0.012 -0.032 -0.004    0.006 -0.012  0.010   -0.019  0.012  0.003
 O         -0.004  0.008 -0.004    0.003 -0.002 -0.003    0.002 -0.006 -0.006
 TransDip  -0.158  0.099  0.116   -0.185  0.195  0.129    0.028  0.012  0.009

 Mode:                40                     41                     42
 Frequency:      1311.31                1342.60                1370.55
 Force Cnst:      1.5018                 1.8395                 2.0979
 Red. Mass:       1.4824                 1.7320                 1.8956
 IR Active:          YES                    YES                    YES
 IR Intens:       24.390                 28.337                104.557
 Raman Active:       YES                    YES                    YES
               X      Y      Z        X      Y      Z        X      Y      Z
 C         -0.028  0.013  0.033    0.065  0.017  0.014   -0.097  0.148 -0.089
 C         -0.016 -0.067 -0.028   -0.085 -0.167  0.009    0.019 -0.072  0.011
 C         -0.004  0.011 -0.003   -0.012  0.056 -0.035   -0.014  0.036 -0.024
 C         -0.010  0.017 -0.040   -0.005  0.007 -0.030    0.032  0.005  0.059
 C         -0.003  0.018 -0.014    0.026  0.011  0.043   -0.050 -0.075 -0.037
 C          0.097  0.024  0.119   -0.063 -0.041 -0.082    0.044 -0.046  0.069
 C         -0.037 -0.017 -0.052    0.027  0.017  0.044   -0.012  0.002 -0.034
 H         -0.379  0.421 -0.249    0.351 -0.024 -0.226    0.301 -0.299  0.199
 H          0.004  0.391  0.078    0.272  0.708  0.048   -0.171  0.205  0.180
 H          0.062  0.048  0.095    0.130  0.138  0.178    0.032  0.001  0.005
 H          0.021 -0.090  0.094    0.011 -0.056  0.062   -0.026  0.276 -0.292
 H         -0.162 -0.393 -0.050   -0.004 -0.040  0.049    0.085  0.238 -0.015
 H          0.109  0.182 -0.118   -0.009 -0.103  0.006   -0.025  0.041  0.017
 O          0.020  0.005  0.005   -0.021 -0.004 -0.006    0.018  0.008  0.010
 H         -0.049 -0.166  0.147    0.013  0.134 -0.094    0.115 -0.055 -0.056
 H         -0.264  0.055  0.124    0.221 -0.048 -0.105   -0.211  0.051  0.103
 O          0.020 -0.038 -0.024   -0.015  0.020  0.019    0.044 -0.068  0.008
 H         -0.019  0.039  0.004   -0.036  0.038  0.021   -0.314  0.414  0.148
 O          0.006  0.001  0.006    0.006  0.014  0.001    0.010  0.002 -0.001
 O         -0.004  0.001 -0.007   -0.002  0.004  0.015   -0.003  0.008 -0.002
 O          0.001  0.001  0.001    0.008 -0.008  0.003    0.003 -0.003  0.001
 TransDip  -0.104  0.075  0.093    0.106 -0.071 -0.113   -0.240  0.210  0.075

 Mode:                43                     44                     45
 Frequency:      1384.94                1403.39                1417.03
 Force Cnst:      1.4327                 1.5566                 2.1167
 Red. Mass:       1.2678                 1.3415                 1.7891
 IR Active:          YES                    YES                    YES
 IR Intens:       13.776                 18.538                 10.600
 Raman Active:       YES                    YES                    YES
               X      Y      Z        X      Y      Z        X      Y      Z
 C          0.002 -0.015  0.045   -0.046  0.014  0.032    0.003 -0.074  0.080
 C         -0.011 -0.000 -0.010    0.003  0.001 -0.015   -0.000 -0.021 -0.016
 C          0.001 -0.002  0.001   -0.000  0.000  0.001   -0.013  0.036 -0.035
 C         -0.002  0.003 -0.006    0.008  0.006  0.012    0.036 -0.054  0.113
 C          0.013  0.008  0.010   -0.011 -0.016 -0.017   -0.057 -0.091 -0.055
 C         -0.054 -0.002 -0.028   -0.004 -0.014  0.057    0.035  0.131 -0.029
 C          0.009 -0.001 -0.099    0.087  0.080 -0.075   -0.022 -0.049  0.022
 H          0.126 -0.011 -0.094    0.140 -0.023 -0.107   -0.109  0.244 -0.306
 H          0.069  0.036 -0.043    0.006  0.022 -0.014    0.077  0.205 -0.001
 H          0.003  0.005  0.008   -0.005 -0.007 -0.010   -0.003 -0.001 -0.053
 H         -0.002 -0.025  0.038   -0.011  0.065 -0.059   -0.059  0.339 -0.395
 H          0.011  0.026  0.012   -0.003  0.021 -0.012    0.187  0.549 -0.008
 H         -0.470 -0.090  0.532   -0.229 -0.147  0.232    0.076  0.097 -0.021
 O          0.062  0.004  0.032   -0.027 -0.029 -0.013    0.003  0.002 -0.002
 H          0.172 -0.095 -0.111   -0.517 -0.142  0.629   -0.043  0.009 -0.030
 H         -0.522  0.124  0.263    0.284 -0.092 -0.140   -0.019  0.006  0.008
 O         -0.000  0.016 -0.006    0.014 -0.000 -0.010   -0.008  0.025 -0.013
 H          0.084 -0.111 -0.042    0.065 -0.074 -0.031    0.174 -0.215 -0.081
 O         -0.001  0.002 -0.000    0.002  0.001 -0.004   -0.007  0.001  0.011
 O          0.005 -0.007  0.004    0.002 -0.002 -0.000    0.007 -0.014 -0.001
 O         -0.000  0.000  0.000   -0.001  0.001 -0.000    0.001 -0.002 -0.000
 TransDip  -0.116 -0.015  0.018    0.088  0.034 -0.101    0.094  0.034 -0.031

 Mode:                46                     47                     48
 Frequency:      1442.63                1486.94                1729.80
 Force Cnst:      2.5478                 1.4137                13.2312
 Red. Mass:       2.0778                 1.0852                 7.5052
 IR Active:          YES                    YES                    YES
 IR Intens:       34.281                  5.198                  3.583
 Raman Active:       YES                    YES                    YES
               X      Y      Z        X      Y      Z        X      Y      Z
 C          0.216 -0.053 -0.159   -0.003  0.009 -0.008   -0.005  0.023 -0.005
 C         -0.045 -0.028  0.057    0.001  0.001  0.001    0.002 -0.016  0.012
 C          0.002  0.015 -0.017    0.000 -0.002  0.002   -0.006  0.050 -0.049
 C          0.007 -0.013  0.026   -0.002  0.006 -0.008   -0.022 -0.462  0.272
 C         -0.006 -0.022 -0.014    0.003  0.003  0.005    0.091  0.504 -0.159
 C         -0.032  0.036  0.021    0.000 -0.011 -0.001   -0.023 -0.089  0.023
 C          0.041  0.010 -0.042    0.030 -0.074 -0.008   -0.004 -0.000 -0.014
 H         -0.590  0.209  0.301    0.013 -0.027  0.028    0.058 -0.056  0.043
 H          0.128 -0.001 -0.018   -0.010 -0.010  0.004    0.023  0.080  0.024
 H          0.008  0.059  0.019    0.002 -0.001  0.004   -0.065  0.020 -0.123
 H         -0.024  0.077 -0.084    0.005 -0.018  0.022   -0.204 -0.020 -0.384
 H          0.037  0.129  0.001   -0.007 -0.029  0.004   -0.207 -0.229 -0.294
 H         -0.180 -0.101  0.202    0.093  0.591  0.359    0.007  0.036 -0.006
 O          0.001 -0.002  0.002    0.005 -0.006 -0.002    0.001 -0.000  0.000
 H         -0.117 -0.066  0.163   -0.522  0.420 -0.225   -0.024 -0.006  0.002
 H         -0.023 -0.000  0.011   -0.009 -0.007  0.004   -0.014  0.002  0.006
 O         -0.056 -0.001  0.050    0.001 -0.003  0.001    0.002 -0.003 -0.001
 H         -0.302  0.355  0.156   -0.024  0.027  0.009   -0.004  0.007  0.001
 O         -0.005  0.007 -0.007    0.000 -0.001  0.000    0.002 -0.000 -0.003
 O         -0.012  0.001  0.005   -0.001  0.001  0.000   -0.000  0.003 -0.005
 O          0.003 -0.004 -0.001    0.000 -0.000  0.000   -0.003  0.002 -0.005
 TransDip   0.138  0.099 -0.080   -0.022  0.070  0.004   -0.023 -0.048  0.029

 Mode:                49                     50                     51
 Frequency:      2894.91                3072.55                3075.31
 Force Cnst:      5.3040                 6.0353                 5.9138
 Red. Mass:       1.0742                 1.0851                 1.0613
 IR Active:          YES                    YES                    YES
 IR Intens:       47.128                 34.304                 58.438
 Raman Active:       YES                    YES                    YES
               X      Y      Z        X      Y      Z        X      Y      Z
 C          0.000  0.000 -0.001   -0.042 -0.061 -0.037    0.007  0.010  0.007
 C         -0.002 -0.000 -0.000    0.002 -0.001  0.004   -0.000  0.000 -0.001
 C         -0.052 -0.032  0.048    0.001  0.001 -0.000   -0.000 -0.000  0.000
 C         -0.001  0.000  0.001   -0.000 -0.000 -0.000    0.000  0.000  0.000
 C          0.000  0.001  0.000    0.000  0.001 -0.000    0.000 -0.000  0.000
 C         -0.000  0.000  0.000   -0.000 -0.001 -0.000   -0.001 -0.000  0.000
 C          0.000 -0.000 -0.000   -0.006  0.010 -0.002   -0.037  0.056 -0.015
 H          0.002  0.003  0.003    0.481  0.724  0.453   -0.081 -0.121 -0.077
 H          0.007 -0.005  0.009   -0.030  0.015 -0.052    0.006 -0.003  0.009
 H          0.729  0.323 -0.598   -0.002 -0.001  0.001    0.001  0.000 -0.001
 H         -0.005 -0.012 -0.005    0.001  0.002  0.001   -0.001 -0.000 -0.001
 H         -0.001 -0.001 -0.003    0.003 -0.002  0.007   -0.002  0.003 -0.004
 H         -0.001  0.000 -0.000    0.110 -0.051  0.074    0.654 -0.312  0.445
 O         -0.000 -0.000 -0.000   -0.000  0.000  0.000   -0.001  0.000  0.001
 H          0.000  0.000  0.000   -0.038 -0.064 -0.056   -0.202 -0.346 -0.289
 H          0.000  0.000 -0.000    0.000 -0.000  0.001    0.003  0.001  0.005
 O          0.000  0.000 -0.000    0.001 -0.000 -0.000   -0.000  0.000  0.000
 H          0.000  0.001  0.000    0.004  0.001 -0.005    0.001 -0.001  0.000
 O          0.000  0.000 -0.000   -0.000 -0.000  0.000    0.000  0.000 -0.000
 O         -0.000  0.000 -0.000   -0.000  0.000  0.000    0.000  0.000 -0.000
 O         -0.006  0.004  0.001    0.000 -0.000 -0.000   -0.000  0.000 -0.000
 TransDip   0.164 -0.146  0.012   -0.068 -0.131 -0.115   -0.120  0.213  0.006

 Mode:                52                     53                     54
 Frequency:      3138.93                3140.46                3176.92
 Force Cnst:      6.4244                 6.3259                 6.4731
 Red. Mass:       1.1067                 1.0886                 1.0886
 IR Active:          YES                    YES                    YES
 IR Intens:       23.606                 12.684                  4.247
 Raman Active:       YES                    YES                    YES
               X      Y      Z        X      Y      Z        X      Y      Z
 C          0.000 -0.000  0.000   -0.003 -0.004 -0.002    0.001  0.000  0.001
 C          0.003 -0.002  0.006   -0.037  0.019 -0.074    0.000 -0.000  0.000
 C         -0.000 -0.000  0.000    0.001  0.001 -0.001    0.000  0.000  0.000
 C         -0.000  0.000 -0.000   -0.000 -0.001  0.000    0.014  0.019  0.016
 C          0.000  0.000  0.000   -0.000  0.000 -0.001   -0.030  0.020 -0.072
 C         -0.001 -0.000 -0.001    0.000 -0.001  0.001    0.000  0.001  0.001
 C         -0.060 -0.036 -0.063   -0.005 -0.003 -0.005   -0.000 -0.000 -0.001
 H          0.003  0.002  0.003    0.032  0.045  0.027   -0.004 -0.004 -0.004
 H         -0.038  0.018 -0.072    0.445 -0.220  0.857   -0.002  0.001 -0.005
 H          0.001  0.000 -0.001   -0.007 -0.003  0.008   -0.001 -0.001  0.000
 H         -0.001 -0.001 -0.000    0.006  0.008  0.005   -0.175 -0.262 -0.171
 H         -0.001  0.002 -0.002    0.004 -0.002  0.009    0.358 -0.207  0.833
 H          0.372 -0.189  0.254    0.030 -0.015  0.020    0.002 -0.003  0.003
 O          0.001  0.001  0.001    0.000  0.000  0.000   -0.000  0.000 -0.000
 H          0.345  0.618  0.494    0.029  0.051  0.041    0.000 -0.001  0.001
 H         -0.013 -0.008 -0.005   -0.001 -0.001 -0.000   -0.001  0.000  0.003
 O         -0.000  0.000 -0.000    0.000  0.000 -0.000   -0.000  0.000 -0.000
 H         -0.000 -0.001  0.001    0.001 -0.001 -0.000    0.000 -0.000  0.001
 O          0.000 -0.000  0.000   -0.001  0.001  0.000   -0.000  0.000  0.000
 O          0.000  0.000 -0.000    0.000 -0.001  0.001    0.000 -0.000 -0.000
 O         -0.000 -0.000  0.000    0.000 -0.000  0.000   -0.000  0.000 -0.000
 TransDip  -0.095 -0.064 -0.105   -0.058  0.003 -0.098   -0.020  0.038 -0.050

 Mode:                55                     56                     57
 Frequency:      3204.64                3745.76                3823.14
 Force Cnst:      6.6438                 8.8153                 9.1865
 Red. Mass:       1.0980                 1.0664                 1.0667
 IR Active:          YES                    YES                    YES
 IR Intens:       11.371                285.482                128.529
 Raman Active:       YES                    YES                    YES
               X      Y      Z        X      Y      Z        X      Y      Z
 C          0.001  0.000  0.000    0.000  0.001 -0.001   -0.000 -0.000 -0.000
 C          0.001  0.000  0.002   -0.000  0.000  0.000    0.000  0.000 -0.000
 C         -0.000 -0.001  0.002   -0.000 -0.000 -0.000    0.000  0.000 -0.000
 C         -0.040 -0.065 -0.035    0.000  0.000  0.000   -0.000 -0.000 -0.000
 C         -0.011  0.013 -0.030    0.000  0.000  0.000    0.000  0.000  0.000
 C          0.000  0.001  0.001   -0.000 -0.000  0.000   -0.000  0.000 -0.000
 C         -0.000 -0.000 -0.000   -0.000  0.000  0.000   -0.002 -0.001 -0.001
 H         -0.003 -0.005 -0.003   -0.001  0.005  0.003    0.000  0.000  0.000
 H         -0.006  0.002 -0.012    0.000 -0.000  0.000   -0.000 -0.000  0.000
 H          0.009  0.006 -0.008    0.000  0.000  0.000   -0.000 -0.000  0.000
 H          0.453  0.685  0.440   -0.000 -0.000 -0.000   -0.000 -0.000  0.000
 H          0.135 -0.081  0.316   -0.000 -0.000 -0.001   -0.001  0.001 -0.002
 H          0.001 -0.001  0.001    0.001  0.000 -0.001   -0.000  0.001  0.005
 O         -0.000 -0.000  0.000   -0.001 -0.001 -0.002   -0.025 -0.030 -0.049
 H         -0.000 -0.001  0.000    0.000 -0.000 -0.001    0.004  0.009  0.009
 H         -0.000  0.000  0.001    0.015  0.016  0.026    0.410  0.475  0.775
 O         -0.000  0.000 -0.000    0.019  0.029 -0.052   -0.001 -0.001  0.002
 H         -0.000 -0.001  0.001   -0.301 -0.468  0.828    0.008  0.017 -0.028
 O          0.000 -0.000 -0.000   -0.000 -0.000  0.000   -0.000 -0.000  0.000
 O          0.000  0.000 -0.000   -0.000  0.000 -0.000   -0.000 -0.000  0.000
 O         -0.000  0.000 -0.000    0.000  0.000 -0.000    0.000 -0.000  0.000
 TransDip  -0.061 -0.063 -0.063   -0.165 -0.243  0.455    0.073  0.153  0.321

 STANDARD THERMODYNAMIC QUANTITIES AT   298.15 K  AND     1.00 ATM

   This Molecule has  0 Imaginary Frequencies
   Zero point vibrational energy:      101.181 kcal/mol

   Atom    1 Element C  Has Mass   12.00000
   Atom    2 Element C  Has Mass   12.00000
   Atom    3 Element C  Has Mass   12.00000
   Atom    4 Element C  Has Mass   12.00000
   Atom    5 Element C  Has Mass   12.00000
   Atom    6 Element C  Has Mass   12.00000
   Atom    7 Element C  Has Mass   12.00000
   Atom    8 Element H  Has Mass    1.00783
   Atom    9 Element H  Has Mass    1.00783
   Atom   10 Element H  Has Mass    1.00783
   Atom   11 Element H  Has Mass    1.00783
   Atom   12 Element H  Has Mass    1.00783
   Atom   13 Element H  Has Mass    1.00783
   Atom   14 Element O  Has Mass   15.99491
   Atom   15 Element H  Has Mass    1.00783
   Atom   16 Element H  Has Mass    1.00783
   Atom   17 Element O  Has Mass   15.99491
   Atom   18 Element H  Has Mass    1.00783
   Atom   19 Element O  Has Mass   15.99491
   Atom   20 Element O  Has Mass   15.99491
   Atom   21 Element O  Has Mass   15.99491
   Molecular Mass:   173.045020 amu
   Principal axes and moments of inertia in amu*Bohr^2:
                             1           2           3
    Eigenvalues --     1178.45162  1971.71614  2291.05505
          X               0.17139     0.65780     0.73344
          Y               0.82372    -0.50407     0.25960
          Z              -0.54047    -0.55966     0.62824
   Rotational Symmetry Number is   1
   The Molecule is an Asymmetric Top
   Translational Enthalpy:        0.889 kcal/mol
   Rotational Enthalpy:           0.889 kcal/mol
   Vibrational Enthalpy:        106.084 kcal/mol
   gas constant (RT):             0.592 kcal/mol
   Translational Entropy:        41.352  cal/mol.K
   Rotational Entropy:           30.055  cal/mol.K
   Vibrational Entropy:          27.942  cal/mol.K

   Total Enthalpy:              108.454 kcal/mol
   Total Entropy:                99.349  cal/mol.K
 Total job time:  49712.49s(wall), 634905.43s(cpu) 
 Thu Jun  6 02:07:16 2024

        *************************************************************
        *                                                           *
        *  Thank you very much for using Q-Chem.  Have a nice day.  *
        *                                                           *
        *************************************************************


