
Running Job 1 of 1 Q_in.in
qchem Q_in.in_453041.0 /scratch/ari.fischer/qChem2116934.hpc-mn1/qchem453041/ 0
/usr/local/qchem-5.4.1/exe/qcprog.exe_s Q_in.in_453041.0 /scratch/ari.fischer/qChem2116934.hpc-mn1/qchem453041/
                  Welcome to Q-Chem
     A Quantum Leap Into The Future Of Chemistry


 Q-Chem 5.4, Q-Chem, Inc., Pleasanton, CA (2021)

 License issued to: Nanyang Technological University (site)

 E. Epifanovsky,  A. T. B. Gilbert,  Xintian Feng,  Joonho Lee,  Yuezhi Mao,  
 N. Mardirossian,  P. Pokhilko,  A. White,  M. Wormit,  M. P. Coons,  
 A. L. Dempwolff,  Zhengting Gan,  D. Hait,  P. R. Horn,  L. D. Jacobson,  
 I. Kaliman,  J. Kussmann,  A. W. Lange,  Ka Un Lao,  D. S. Levine,  Jie Liu,  
 S. C. McKenzie,  A. F. Morrison,  K. Nanda,  F. Plasser,  D. R. Rehn,  
 M. L. Vidal,  Zhi-Qiang You,  Ying Zhu,  B. Alam,  B. Albrecht,  
 A. Aldossary,  E. Alguire,  J. H. Andersen,  D. Barton,  K. Begam,  A. Behn,  
 Y. A. Bernard,  E. J. Berquist,  H. Burton,  A. Carreras,  K. Carter-Fenk,  
 R. Chakraborty,  A. D. Chien,  K. D. Closser,  V. Cofer-Shabica,  
 S. Dasgupta,  Jia Deng,  M. de Wergifosse,  M. Diedenhofen,  Hainam Do,  
 S. Ehlert,  Po-Tung Fang,  S. Fatehi,  Qingguo Feng,  T. Friedhoff,  
 J. Gayvert,  Qinghui Ge,  G. Gidofalvi,  M. Goldey,  J. Gomes,  
 C. Gonzalez-Espinoza,  S. Gulania,  A. Gunina,  M. W. D. Hanson-Heine,  
 P. H. P. Harbach,  A. W. Hauser,  M. F. Herbst,  M. Hernandez Vera,  
 M. Hodecker,  Z. C. Holden,  S. Houck,  Xunkun Huang,  Kerwin Hui,  
 B. C. Huynh,  M. Ivanov,  Hyunjun Ji,  Hanjie Jiang,  B. Kaduk,  S. Kaehler,  
 K. Khistyaev,  Jaehoon Kim,  P. Klunzinger,  Z. Koczor-Benda,  
 Joong Hoon Koh,  D. Kosenkov,  L. Koulias,  T. Kowalczyk,  C. M. Krauter,  
 K. Kue,  A. Kunitsa,  T. Kus,  A. Landau,  K. V. Lawler,  D. Lefrancois,  
 S. Lehtola,  Rain Li,  Yi-Pei Li,  Jiashu Liang,  M. Liebenthal,  
 Hung-Hsuan Lin,  You-Sheng Lin,  Fenglai Liu,  Kuan-Yu Liu,  
 M. Loipersberger,  A. Luenser,  A. Manjanath,  P. Manohar,  E. Mansoor,  
 S. F. Manzer,  Shan-Ping Mao,  A. V. Marenich,  T. Markovich,  S. Mason,  
 S. A. Maurer,  P. F. McLaughlin,  M. F. S. J. Menger,  J.-M. Mewes,  
 S. A. Mewes,  P. Morgante,  J. W. Mullinax,  K. J. Oosterbaan,  G. Paran,  
 Alexander C. Paul,  Suranjan K. Paul,  F. Pavosevic,  Zheng Pei,  S. Prager,  
 E. I. Proynov,  E. Ramos,  B. Rana,  A. E. Rask,  A. Rettig,  R. M. Richard,  
 F. Rob,  E. Rossomme,  T. Scheele,  M. Scheurer,  M. Schneider,  
 N. Sergueev,  S. M. Sharada,  W. Skomorowski,  D. W. Small,  C. J. Stein,  
 Yu-Chuan Su,  E. J. Sundstrom,  Zhen Tao,  J. Thirman,  T. Tsuchimochi,  
 N. M. Tubman,  S. P. Veccham,  O. Vydrov,  J. Wenzel,  J. Witte,  A. Yamada,  
 Kun Yao,  S. Yeganeh,  S. R. Yost,  A. Zech,  Igor Ying Zhang,  Xing Zhang,  
 Yu Zhang,  D. Zuev,  A. Aspuru-Guzik,  A. T. Bell,  N. A. Besley,  
 K. B. Bravaya,  B. R. Brooks,  D. Casanova,  Jeng-Da Chai,  S. Coriani,  
 C. J. Cramer,  A. E. DePrince, III,  R. A. DiStasio Jr.,  A. Dreuw,  
 B. D. Dunietz,  T. R. Furlani,  W. A. Goddard III,  S. Grimme,  
 S. Hammes-Schiffer,  T. Head-Gordon,  W. J. Hehre,  Chao-Ping Hsu,  
 T.-C. Jagau,  Yousung Jung,  A. Klamt,  Jing Kong,  D. S. Lambrecht,  
 WanZhen Liang,  N. J. Mayhall,  C. W. McCurdy,  J. B. Neaton,  
 C. Ochsenfeld,  J. A. Parkhill,  R. Peverati,  V. A. Rassolov,  Yihan Shao,  
 L. V. Slipchenko,  T. Stauch,  R. P. Steele,  J. E. Subotnik,  
 A. J. W. Thom,  A. Tkatchenko,  D. G. Truhlar,  T. Van Voorhis,  
 T. A. Wesolowski,  K. B. Whaley,  H. L. Woodcock III,  P. M. Zimmerman,  
 S. Faraji,  P. M. W. Gill,  M. Head-Gordon,  J. M. Herbert,  A. I. Krylov

 Additional authors for Version 5.4.1: 
 S. Kotaru,  Shaozhi Li,  Xiangyuan Li,  F. Matz,  A. Molle,  Haisheng Ren,  
 Yingli Su,  Hung-Yi Tsai,  C. Utku,  Fang Wang

 Contributors to earlier versions of Q-Chem not listed above: 
 R. D. Adamson,  B. Austin,  R. Baer,  J. Baker,  G. J. O. Beran,  
 K. Brandhorst,  S. T. Brown,  E. F. C. Byrd,  A. K. Chakraborty,  
 G. K. L. Chan,  Chun-Min Chang,  Yunqing Chen,  C.-L. Cheng,  
 Siu Hung Chien,  D. M. Chipman,  D. L. Crittenden,  H. Dachsel,  
 R. J. Doerksen,  A. D. Dutoi,  R. G. Edgar,  J. Fosso-Tande,  
 L. Fusti-Molnar,  D. Ghosh,  A. Ghysels,  A. Golubeva-Zadorozhnaya,  
 J. Gonthier,  M. S. Gordon,  S. R. Gwaltney,  G. Hawkins,  J. E. Herr,  
 A. Heyden,  S. Hirata,  E. G. Hohenstein,  G. Kedziora,  F. J. Keil,  
 C. Kelley,  Jihan Kim,  R. A. King,  R. Z. Khaliullin,  P. P. Korambath,  
 W. Kurlancheek,  A. Laurent,  A. M. Lee,  M. S. Lee,  S. V. Levchenko,  
 Ching Yeh Lin,  D. Liotard,  E. Livshits,  R. C. Lochan,  I. Lotan,  
 L. A. Martinez-Martinez,  P. E. Maslen,  N. Nair,  D. P. O'Neill,  
 D. Neuhauser,  E. Neuscamman,  C. M. Oana,  R. Olivares-Amaya,  R. Olson,  
 T. M. Perrine,  B. Peters,  P. A. Pieniazek,  A. Prociuk,  Y. M. Rhee,  
 J. Ritchie,  M. A. Rohrdanz,  E. Rosta,  N. J. Russ,  H. F. Schaefer III,  
 M. W. Schmidt,  N. E. Schultz,  S. Sharma,  N. Shenvi,  C. D. Sherrill,  
 A. C. Simmonett,  A. Sodt,  T. Stein,  D. Stuck,  K. S. Thanthiriwatte,  
 V. Vanovschi,  L. Vogt,  Tao Wang,  A. Warshel,  M. A. Watson,  
 C. F. Williams,  Q. Wu,  X. Xu,  Jun Yang,  W. Zhang,  Yan Zhao

 Please cite Q-Chem as follows:
 Y. Shao et al., Mol. Phys. 113, 184-215 (2015)
 DOI: 10.1080/00268976.2014.952696

 Q-Chem 5.4.1 for Intel X86 EM64T Linux

 Parts of Q-Chem use Armadillo 9.800.1 (Horizon Scraper).
 http://arma.sourceforge.net/

 Q-Chem begins on Tue May 21 14:34:18 2024  

 Host: 
0

     Scratch files written to /scratch/ari.fischer/qChem2116934.hpc-mn1/qchem453041//
 Aug1521 |scratch|qcdevops|jenkins|workspace|build_RNUM 8249   
 Processing $rem in /usr/local/qchem-5.4.1/config/preferences:
 Processing $rem in /home/ari.fischer/.qchemrc:
 Symmetry turned off for PCM/SM12/SMD calculation

 Checking the input file for inconsistencies... 	...done.

--------------------------------------------------------------
User input:
--------------------------------------------------------------
$molecule
0 2
C        -0.0168774468   -0.2000662033    0.7952676356
C        -0.8765477918   -0.9814305599    1.7778810632
C        -1.4290208569   -2.2410392202    1.0839354776
C        -2.0298138614   -1.9167352067   -0.2652010581
C        -1.8888647978   -0.7046209530   -0.7991441508
C        -1.1633100132    0.3850796340   -0.0410529522
C        -0.6984047677    1.5387915586   -0.9197392806
H         0.5066048371    0.6184287764    1.3063390603
H        -0.3877354012   -1.2276019448    2.7226184104
H        -2.2087292636   -2.6622993208    1.7525757155
H        -2.5596534547   -2.7151336639   -0.7782906620
H        -2.3189431155   -0.4573136827   -1.7681702779
H        -1.5275215112    1.9522952402   -1.5037425362
O         0.3512924334    1.0726493257   -1.7687672605
H        -0.2776833678    2.3255064002   -0.2891407638
H        -0.0576030347    0.5757821737   -2.4971458525
O         0.8715549499   -1.0366951859    0.0936023726
H         1.0938136824   -0.5358295980   -0.7162384307
O        -1.9527642881   -0.0818975793    2.0743685705
O        -2.0033147961    0.9171854328    0.9923679806
O        -0.4870854345   -3.2528094235    1.0215817389
$end

$rem
BASIS = 6-311++G(2df,2p)
GUI = 2
JOB_TYPE = Optimization
METHOD = wB97M-V
SCF_ALGORITHM = DIIS_GDM
MAX_SCF_CYCLES = 400
GEOM_OPT_MAX_CYCLES = 150
SCF_CONVERGENCE = 7
THRESH = 12
Solvent_method = SMD
$end
--------------------------------------------------------------
 ----------------------------------------------------------------
             Standard Nuclear Orientation (Angstroms)
    I     Atom           X                Y                Z
 ----------------------------------------------------------------
    1      C      -0.0168774468    -0.2000662033     0.7952676356
    2      C      -0.8765477918    -0.9814305599     1.7778810632
    3      C      -1.4290208569    -2.2410392202     1.0839354776
    4      C      -2.0298138614    -1.9167352067    -0.2652010581
    5      C      -1.8888647978    -0.7046209530    -0.7991441508
    6      C      -1.1633100132     0.3850796340    -0.0410529522
    7      C      -0.6984047677     1.5387915586    -0.9197392806
    8      H       0.5066048371     0.6184287764     1.3063390603
    9      H      -0.3877354012    -1.2276019448     2.7226184104
   10      H      -2.2087292636    -2.6622993208     1.7525757155
   11      H      -2.5596534547    -2.7151336639    -0.7782906620
   12      H      -2.3189431155    -0.4573136827    -1.7681702779
   13      H      -1.5275215112     1.9522952402    -1.5037425362
   14      O       0.3512924334     1.0726493257    -1.7687672605
   15      H      -0.2776833678     2.3255064002    -0.2891407638
   16      H      -0.0576030347     0.5757821737    -2.4971458525
   17      O       0.8715549499    -1.0366951859     0.0936023726
   18      H       1.0938136824    -0.5358295980    -0.7162384307
   19      O      -1.9527642881    -0.0818975793     2.0743685705
   20      O      -2.0033147961     0.9171854328     0.9923679806
   21      O      -0.4870854345    -3.2528094235     1.0215817389
 ----------------------------------------------------------------
 Nuclear Repulsion Energy =         794.07316692 hartrees
 There are       46 alpha and       45 beta electrons
 Requested basis set is 6-311++G(2df,2p)
 There are 150 shells and 498 basis functions

 Total QAlloc Memory Limit 288000 MB
 Mega-Array Size       188 MB
 MEM_STATIC part       192 MB
 
 Citation of the SMD model:
 Marenich, A.V.; Cramer, C.J.; Truhlar, D.G.
 J. Phys. Chem. B 2009, 113, 6378-6396.
 iSolventCode=           1
 Solvent: water                                                           
 
 vradii
            1           2           3           4           5           6
    1   1.8500000   1.8500000   1.8500000   1.8500000   1.8500000   1.8500000
            7           8           9          10          11          12
    1   1.8500000   1.2000000   1.2000000   1.2000000   1.2000000   1.2000000
           13          14          15          16          17          18
    1   1.2000000   1.5200000   1.2000000   1.2000000   1.5200000   1.2000000
           19          20          21
    1   1.5200000   1.5200000   1.5200000
 Changing PCM_VDW_RADII to SMD_RADIUS
 Discretize the solute cavity surface with Lebedev spheres
	Using 110 Lebedev grid points for each H atom
	Using 194 Lebedev grid points for other atoms
	Atomic van der Waals radii will be scaled by 1.20
 Remove points where switching function is < 1.0e-08
 Keep 1502 surface tesserae and discard 1816 interior tesserae
 Molecular Surface Area = 168.726 Angst**2
 A cutoff of  1.0D-12 yielded  10195 shell pairs
 There are    113374 function pairs (    142019 Cartesian)
 Smallest overlap matrix eigenvalue = 2.24E-06

 Scale SEOQF with 1.000000e-01/1.000000e-01/1.000000e-01

 Standard Electronic Orientation quadrupole field applied
 Nucleus-field energy     =     0.0000000061 hartrees
 Guess from superposition of atomic densities
 Warning:  Energy on first SCF cycle will be non-variational
 SAD guess density has 91.000000 electrons

 -----------------------------------------------------------------------
  General SCF calculation program by
  Eric Jon Sundstrom, Paul Horn, Yuezhi Mao, Dmitri Zuev, Alec White,
  David Stuck, Shaama M.S., Shane Yost, Joonho Lee, David Small,
  Daniel Levine, Susi Lehtola, Hugh Burton, Evgeny Epifanovsky,
  Bang C. Huynh
 -----------------------------------------------------------------------
 Exchange:     0.1500 Hartree-Fock + 1.0000 wB97M-V + LR-HF
 Correlation:  1.0000 wB97M-V
 Using SG-2 standard quadrature grid
 Nonlocal Correlation:  VV10 with C = 0.0100 and b = 6.00 and scale = 1.00000
 Grid used for NLC:  SG-1 standard quadrature
 
 Citation of the SMD model:
 Marenich, A.V.; Cramer, C.J.; Truhlar, D.G.
 J. Phys. Chem. B 2009, 113, 6378-6396.
 iSolventCode=           1
 Solvent: water                                                           
 
 vradii
            1           2           3           4           5           6
    1   1.8500000   1.8500000   1.8500000   1.8500000   1.8500000   1.8500000
            7           8           9          10          11          12
    1   1.8500000   1.2000000   1.2000000   1.2000000   1.2000000   1.2000000
           13          14          15          16          17          18
    1   1.2000000   1.5200000   1.2000000   1.2000000   1.5200000   1.2000000
           19          20          21
    1   1.5200000   1.5200000   1.5200000
 using 16 threads for integral computing
 -------------------------------------------------------
 OpenMP Integral computing Module                
 Release: version 1.0, May 2013, Q-Chem Inc. Pittsburgh 
 -------------------------------------------------------
 -------------------------------------------------------
 OpenMP BLAS3 based DFT computing Module                
 Release: version 1.0, May 2013, Q-Chem Inc. Pittsburgh 
 -------------------------------------------------------
 A unrestricted SCF calculation will be
 performed using DIIS, GDM
 SCF converges when RMS gradient is below 1.0e-07
 ---------------------------------------
  Cycle       Energy         DIIS error
 ---------------------------------------
    1    -651.2121935962      1.12e-02  
    2    -647.7998744693      1.55e-03  Done DIIS. Switching to GDM
 ---------------------------------------
  Cycle       Energy        RMS Gradient
 ---------------------------------------
    1    -647.7998744693      4.94e-01   Descent step
    2    -648.0268430837      8.83e-02   Dog-leg BFGS step
    3    -648.0713323615      9.55e-02   Normal BFGS step
    4    -648.0917145358      4.15e-02   Normal BFGS step
    5    -648.1043825977      1.63e-02   Normal BFGS step
    6    -648.1088280987      1.68e-02   Normal BFGS step
    7    -648.1102438440      1.03e-02   Normal BFGS step
    8    -648.1109244762      8.56e-03   Normal BFGS step
    9    -648.1113430493      6.98e-03   Normal BFGS step
   10    -648.1117894291      6.77e-03   Normal BFGS step
   11    -648.1126446816      8.97e-03   Normal BFGS step
   12    -648.1135011193      7.33e-03   Normal BFGS step
   13    -648.1142118755      5.19e-03   Normal BFGS step
   14    -648.1145342362      1.76e-03   Normal BFGS step
   15    -648.1145734581      7.81e-04   Normal BFGS step
   16    -648.1145841954      5.83e-04   Normal BFGS step
   17    -648.1145870901      3.33e-04   Normal BFGS step
   18    -648.1145877787      1.70e-04   Normal BFGS step
   19    -648.1145879583      5.31e-05   Normal BFGS step
   20    -648.1145879927      2.01e-05   Normal BFGS step
   21    -648.1145880007      1.04e-05   Normal BFGS step
   22    -648.1145880027      7.22e-06   Normal BFGS step
   23    -648.1145880032      3.46e-06   Normal BFGS step
   24    -648.1145880034      2.23e-06   Normal BFGS step
   25    -648.1145880035      1.01e-06   Normal BFGS step
   26    -648.1145880036      3.48e-07   Normal BFGS step
   27    -648.1145880036      1.51e-07   Normal BFGS step
   28    -648.1145880035      8.33e-08  Convergence criterion met
 ---------------------------------------
 SCF time:   CPU 5910.55s  wall 400.00s 
<S^2> =          0.754192023
(3)  G-ENP(liq) elect-nuc-pol free energy of system     -648.114588003 a.u.
(4)  G-CDS(liq) cavity-dispersion-solvent structure 
     free energy                                                2.8230 kcal/mol
(6)  G-S(liq) free energy of system                     -648.110089290 a.u.
 SCF   energy in the final basis set =     -648.1100892903
 Total energy in the final basis set =     -648.1100892903
 
 --------------------------------------------------------------
 
                    Orbital Energies (a.u.)
 --------------------------------------------------------------
 
 Alpha MOs
 -- Occupied --
-19.4085 -19.4080 -19.3945 -19.3526 -19.3485 -10.4175 -10.4138 -10.4130
-10.4093 -10.3979 -10.3570 -10.3530  -1.2742  -1.1805  -1.1706  -1.1607
 -1.0749  -0.9639  -0.8877  -0.8507  -0.8048  -0.7500  -0.7198  -0.6876
 -0.6624  -0.6414  -0.6131  -0.6074  -0.5846  -0.5745  -0.5634  -0.5508
 -0.5396  -0.5354  -0.5301  -0.5024  -0.4959  -0.4746  -0.4652  -0.4435
 -0.4401  -0.4121  -0.3971  -0.3860  -0.3693  -0.3653
 -- Virtual --
  0.0251   0.0338   0.0362   0.0424   0.0523   0.0548   0.0566   0.0720
  0.0748   0.0847   0.0864   0.0892   0.1072   0.1185   0.1252   0.1295
  0.1315   0.1388   0.1451   0.1508   0.1550   0.1555   0.1597   0.1655
  0.1690   0.1702   0.1755   0.1851   0.1900   0.1965   0.2014   0.2054
  0.2117   0.2154   0.2184   0.2240   0.2363   0.2445   0.2499   0.2667
  0.2716   0.2766   0.2811   0.2878   0.2946   0.3045   0.3127   0.3165
  0.3185   0.3205   0.3359   0.3370   0.3416   0.3445   0.3509   0.3551
  0.3664   0.3708   0.3740   0.3749   0.3802   0.3864   0.3934   0.3959
  0.4020   0.4101   0.4170   0.4202   0.4227   0.4318   0.4468   0.4497
  0.4579   0.4700   0.4788   0.4882   0.5101   0.5152   0.5207   0.5251
  0.5479   0.5643   0.5889   0.6017   0.6120   0.6205   0.6254   0.6284
  0.6518   0.6559   0.6592   0.6652   0.6783   0.6831   0.6909   0.6927
  0.7013   0.7136   0.7224   0.7260   0.7354   0.7441   0.7523   0.7653
  0.7693   0.7796   0.7930   0.8024   0.8129   0.8354   0.8594   0.8657
  0.8797   0.8884   0.9030   0.9113   0.9394   0.9520   0.9641   0.9929
  1.0057   1.0185   1.0389   1.0562   1.0707   1.0738   1.0792   1.0945
  1.1128   1.1221   1.1354   1.1485   1.1563   1.1620   1.1629   1.1837
  1.1963   1.2042   1.2079   1.2150   1.2262   1.2400   1.2533   1.2664
  1.2690   1.2709   1.2789   1.2854   1.3026   1.3129   1.3149   1.3192
  1.3314   1.3497   1.3542   1.3633   1.3697   1.3779   1.3926   1.4037
  1.4157   1.4189   1.4354   1.4445   1.4562   1.4643   1.4745   1.4822
  1.4984   1.5079   1.5123   1.5253   1.5437   1.5577   1.5727   1.5765
  1.5871   1.5904   1.6058   1.6215   1.6369   1.6623   1.6735   1.6865
  1.7016   1.7157   1.7502   1.7585   1.7763   1.7832   1.7934   1.8317
  1.8408   1.8719   1.8849   1.9044   1.9120   1.9365   1.9623   1.9803
  1.9952   2.0377   2.0471   2.0538   2.0812   2.1082   2.1273   2.1522
  2.1878   2.1923   2.2220   2.2532   2.2862   2.3173   2.3378   2.3661
  2.3976   2.4209   2.4356   2.4687   2.4874   2.5135   2.5396   2.6590
  2.6722   2.6951   2.7189   2.7483   2.7668   2.7976   2.8047   2.8325
  2.8470   2.8561   2.8763   2.8880   2.8945   2.9055   2.9322   2.9354
  2.9511   2.9655   2.9789   2.9966   3.0242   3.0341   3.0488   3.0586
  3.0977   3.1187   3.1350   3.1444   3.1542   3.1919   3.2093   3.2274
  3.2404   3.2636   3.2756   3.3058   3.3156   3.3386   3.3518   3.3623
  3.3858   3.3967   3.4177   3.4532   3.4609   3.4654   3.4835   3.4907
  3.5303   3.5328   3.5630   3.5720   3.5901   3.5969   3.6238   3.6388
  3.6426   3.6473   3.6684   3.6808   3.6982   3.7175   3.7231   3.7348
  3.7567   3.7587   3.7658   3.7906   3.8101   3.8300   3.8445   3.8469
  3.8630   3.8752   3.8878   3.8989   3.9141   3.9209   3.9310   3.9487
  3.9566   3.9669   3.9939   3.9992   4.0271   4.0478   4.0569   4.0891
  4.1011   4.1097   4.1333   4.1727   4.1893   4.1918   4.2096   4.2370
  4.2723   4.2807   4.2911   4.3108   4.3358   4.3416   4.3636   4.3845
  4.3913   4.4055   4.4112   4.4151   4.4414   4.4659   4.4761   4.4976
  4.5085   4.5184   4.5380   4.5696   4.5932   4.6208   4.6383   4.6471
  4.6725   4.6994   4.7184   4.7270   4.7484   4.7749   4.8038   4.8254
  4.8815   4.9585   4.9869   5.0440   5.0858   5.1054   5.1271   5.1444
  5.2050   5.2208   5.2654   5.2772   5.2872   5.2965   5.3121   5.3150
  5.3246   5.3417   5.3641   5.3736   5.3839   5.3948   5.4134   5.4410
  5.4492   5.4633   5.4805   5.5015   5.5202   5.5401   5.5484   5.5637
  5.5887   5.6139   5.6280   5.6348   5.6572   5.6905   5.7239   5.7423
  5.7549   5.7685   5.7925   5.8195   5.8865   5.8941   5.9301   5.9671
  5.9852   6.0111   6.0294   6.0468   6.0680   6.1254   6.2484   6.6084
  6.6279   6.6710   6.7095   6.7389   6.7819   6.9031   6.9530   7.0354
  7.1027   7.1510   7.2502   7.2926   7.3259   7.3550   7.3637   7.3787
  7.3890   7.4001   7.4435   7.4462   7.4759   7.4994   7.5471   7.6396
  7.6459   7.6929   7.7221   7.7972   7.8642   7.9052   7.9659   8.2657
 24.3873  24.6853  24.7656  24.7834  24.8389  24.8640  25.2241  50.5430
 50.6021  50.6205  50.6811  50.6941
 
 Beta MOs
 -- Occupied --
-19.4085 -19.4081 -19.3719 -19.3526 -19.3480 -10.4174 -10.4141 -10.4125
-10.4093 -10.3979 -10.3566 -10.3530  -1.2742  -1.1778  -1.1629  -1.1221
 -1.0740  -0.9600  -0.8865  -0.8469  -0.7976  -0.7493  -0.7165  -0.6858
 -0.6560  -0.6380  -0.6104  -0.5978  -0.5805  -0.5627  -0.5578  -0.5377
 -0.5343  -0.5298  -0.5274  -0.4991  -0.4807  -0.4692  -0.4577  -0.4383
 -0.4123  -0.3973  -0.3823  -0.3672  -0.3642
 -- Virtual --
 -0.0607   0.0252   0.0340   0.0362   0.0428   0.0527   0.0548   0.0568
  0.0725   0.0750   0.0852   0.0866   0.0894   0.1084   0.1188   0.1258
  0.1298   0.1317   0.1399   0.1467   0.1513   0.1554   0.1558   0.1598
  0.1661   0.1694   0.1707   0.1755   0.1850   0.1902   0.1967   0.2017
  0.2056   0.2120   0.2157   0.2191   0.2241   0.2377   0.2448   0.2503
  0.2671   0.2729   0.2771   0.2816   0.2882   0.2960   0.3069   0.3133
  0.3180   0.3189   0.3231   0.3364   0.3383   0.3418   0.3493   0.3525
  0.3565   0.3669   0.3714   0.3746   0.3767   0.3812   0.3879   0.3938
  0.3969   0.4029   0.4120   0.4188   0.4205   0.4243   0.4326   0.4478
  0.4509   0.4603   0.4718   0.4794   0.4889   0.5120   0.5163   0.5216
  0.5254   0.5487   0.5650   0.5891   0.6023   0.6125   0.6236   0.6276
  0.6292   0.6525   0.6572   0.6605   0.6660   0.6797   0.6845   0.6935
  0.6958   0.7022   0.7144   0.7228   0.7266   0.7367   0.7447   0.7532
  0.7657   0.7694   0.7808   0.7935   0.8034   0.8136   0.8366   0.8598
  0.8663   0.8800   0.8889   0.9046   0.9116   0.9401   0.9526   0.9644
  0.9949   1.0077   1.0197   1.0394   1.0568   1.0720   1.0748   1.0796
  1.0952   1.1138   1.1228   1.1366   1.1503   1.1588   1.1637   1.1657
  1.1857   1.2000   1.2077   1.2108   1.2179   1.2332   1.2466   1.2561
  1.2680   1.2715   1.2718   1.2810   1.2875   1.3048   1.3161   1.3199
  1.3215   1.3342   1.3544   1.3552   1.3641   1.3721   1.3784   1.3941
  1.4044   1.4171   1.4229   1.4365   1.4467   1.4613   1.4653   1.4766
  1.4848   1.4998   1.5115   1.5144   1.5285   1.5451   1.5598   1.5763
  1.5777   1.5880   1.5922   1.6070   1.6318   1.6374   1.6631   1.6758
  1.6915   1.7037   1.7191   1.7523   1.7635   1.7773   1.7861   1.7947
  1.8416   1.8481   1.8849   1.8882   1.9087   1.9185   1.9452   1.9662
  1.9835   1.9973   2.0416   2.0530   2.0557   2.0831   2.1121   2.1297
  2.1561   2.1888   2.1936   2.2258   2.2562   2.2882   2.3215   2.3415
  2.3704   2.3986   2.4286   2.4380   2.4702   2.4928   2.5175   2.5403
  2.6597   2.6809   2.6963   2.7194   2.7490   2.7678   2.7994   2.8054
  2.8334   2.8481   2.8593   2.8767   2.8888   2.8950   2.9063   2.9330
  2.9368   2.9534   2.9690   2.9804   2.9977   3.0247   3.0347   3.0494
  3.0599   3.0987   3.1203   3.1355   3.1454   3.1555   3.1931   3.2097
  3.2282   3.2408   3.2642   3.2763   3.3066   3.3161   3.3406   3.3537
  3.3629   3.3866   3.3979   3.4188   3.4539   3.4618   3.4665   3.4856
  3.4920   3.5321   3.5342   3.5638   3.5729   3.5923   3.5975   3.6263
  3.6393   3.6430   3.6479   3.6690   3.6824   3.7002   3.7189   3.7234
  3.7356   3.7579   3.7602   3.7672   3.7919   3.8111   3.8305   3.8447
  3.8496   3.8642   3.8768   3.8883   3.9004   3.9154   3.9218   3.9330
  3.9496   3.9582   3.9685   3.9953   3.9998   4.0302   4.0501   4.0586
  4.0911   4.1018   4.1105   4.1353   4.1731   4.1907   4.1934   4.2129
  4.2381   4.2741   4.2830   4.2918   4.3123   4.3379   4.3443   4.3658
  4.3868   4.3949   4.4065   4.4122   4.4218   4.4422   4.4672   4.4793
  4.4985   4.5091   4.5221   4.5450   4.5714   4.5965   4.6221   4.6399
  4.6495   4.6741   4.7000   4.7189   4.7288   4.7498   4.7770   4.8062
  4.8274   4.8835   4.9612   4.9903   5.0460   5.0986   5.1162   5.1865
  5.1989   5.2238   5.2669   5.2752   5.2832   5.2965   5.3096   5.3155
  5.3279   5.3425   5.3486   5.3698   5.3972   5.4068   5.4097   5.4214
  5.4423   5.4526   5.4818   5.4924   5.5046   5.5221   5.5431   5.5670
  5.5752   5.5901   5.6162   5.6288   5.6392   5.6586   5.6906   5.7255
  5.7436   5.7569   5.7706   5.7950   5.8204   5.8891   5.8956   5.9614
  5.9732   5.9927   6.0159   6.0316   6.0537   6.0730   6.1310   6.2489
  6.6088   6.6299   6.6715   6.7186   6.7438   6.7944   7.0074   7.0352
  7.0591   7.1041   7.1531   7.2513   7.2929   7.3264   7.3602   7.3866
  7.4006   7.4050   7.4388   7.4440   7.4618   7.4879   7.5010   7.5481
  7.6399   7.6461   7.6957   7.7656   7.7979   7.8654   7.9063   7.9661
  8.2657  24.3874  24.6855  24.7656  24.7832  24.8389  24.8642  25.2243
 50.5583  50.6023  50.6205  50.6814  50.6945
 --------------------------------------------------------------
 
          Ground-State Mulliken Net Atomic Charges

     Atom                 Charge (a.u.)    Spin (a.u.)
  --------------------------------------------------------
      1 C                    -0.144862       0.011985
      2 C                    -0.084873       0.001796
      3 C                    -0.445375       0.033369
      4 C                    -0.117316      -0.007073
      5 C                    -0.378356       0.004764
      6 C                     0.112892      -0.007368
      7 C                    -0.394797       0.001540
      8 H                     0.321206       0.003216
      9 H                     0.289226      -0.001741
     10 H                     0.290795       0.087377
     11 H                     0.302627      -0.001277
     12 H                     0.314019       0.002297
     13 H                     0.250563       0.000105
     14 O                    -0.372034       0.000128
     15 H                     0.242500      -0.000023
     16 H                     0.328414       0.000033
     17 O                    -0.404071       0.006889
     18 H                     0.343361       0.000780
     19 O                    -0.114423       0.001476
     20 O                    -0.136644      -0.000508
     21 O                    -0.202852       0.862236
  --------------------------------------------------------
  Sum of atomic charges =     0.000000
  Sum of spin   charges =     1.000000

 -----------------------------------------------------------------
                    Cartesian Multipole Moments
 -----------------------------------------------------------------
    Charge (ESU x 10^10)
                 0.0000
    Dipole Moment (Debye)
         X      -1.5722      Y       1.7400      Z      -3.3923
       Tot       4.1240
    Quadrupole Moments (Debye-Ang)
        XX     -73.9152     XY       8.3957     YY     -78.4144
        XZ       7.9749     YZ      -1.8310     ZZ     -62.4255
    Octopole Moments (Debye-Ang^2)
       XXX     205.6536    XXY      16.5965    XYY      42.0175
       YYY     146.0311    XXZ     -38.3454    XYZ      17.7675
       YYZ     -22.7684    XZZ      61.7964    YZZ      23.4522
       ZZZ     -77.8474
    Hexadecapole Moments (Debye-Ang^3)
      XXXX    -888.1739   XXXY     -84.1715   XXYY    -266.9024
      XYYY     -80.8334   YYYY   -1161.2145   XXXZ     151.4040
      XXYZ      37.1174   XYYZ      29.9359   YYYZ     187.6302
      XXZZ    -258.3969   XYZZ     -27.8193   YYZZ    -282.7924
      XZZZ     149.3265   YZZZ     139.7886   ZZZZ    -612.4188
 -----------------------------------------------------------------
 Calculating analytic gradient of the SCF energy
 Gradient of CDS energy
            1           2           3           4           5           6
    1   0.0014416  -0.0000701   0.0050433  -0.0001908  -0.0002257   0.0000507
    2  -0.0011889   0.0001028  -0.0054209  -0.0002531   0.0001268   0.0000645
    3  -0.0009434   0.0001799  -0.0001567  -0.0001596  -0.0001425   0.0001572
            7           8           9          10          11          12
    1   0.0001093  -0.0000312   0.0000772  -0.0001576  -0.0001009  -0.0000535
    2   0.0009882   0.0002125  -0.0000740  -0.0000717  -0.0001541   0.0000854
    3  -0.0003645   0.0000971   0.0001887   0.0001539  -0.0000964  -0.0001246
           13          14          15          16          17          18
    1  -0.0002460  -0.0001679   0.0001406   0.0001563  -0.0014403   0.0004116
    2  -0.0002481  -0.0002076  -0.0001172   0.0000274   0.0010742  -0.0000998
    3  -0.0000651   0.0002818   0.0002832  -0.0004982   0.0010549  -0.0001838
           19          20          21
    1  -0.0000201   0.0000457  -0.0047722
    2   0.0000575  -0.0000949   0.0051910
    3  -0.0000857   0.0000846   0.0003390
 Gradient of SCF Energy
            1           2           3           4           5           6
    1   0.0041945  -0.0052702   0.0088145   0.0022085   0.0050476  -0.0051472
    2  -0.0066745   0.0048075  -0.0028550   0.0018802   0.0047611   0.0027764
    3  -0.0082422  -0.0038409  -0.0046888   0.0108375   0.0046714   0.0024440
            7           8           9          10          11          12
    1   0.0101451   0.0046243   0.0031407  -0.0066651  -0.0056699  -0.0062888
    2  -0.0208156   0.0084178  -0.0017630  -0.0036570  -0.0072230   0.0043385
    3   0.0007565   0.0043250   0.0076655   0.0050363  -0.0050544  -0.0165198
           13          14          15          16          17          18
    1  -0.0116599   0.0151689   0.0036441  -0.0139682   0.0001980  -0.0004409
    2   0.0053191   0.0196646   0.0087639  -0.0149254  -0.0155805   0.0101974
    3  -0.0093308   0.0198570   0.0067262  -0.0176319   0.0112945  -0.0120794
           19          20          21
    1  -0.0045043  -0.0031731   0.0056014
    2   0.0004757   0.0050258  -0.0029339
    3   0.0050718   0.0002445  -0.0015418
 Max gradient component =       2.082E-02
 RMS gradient           =       8.595E-03
 Computing fast CPCM-SWIG gradient
 Updating gradient with PCM contributions...
 -- total gradient after adding PCM contribution --
---------------------------------------------------
  Atom         X              Y              Z     
---------------------------------------------------
   1       0.002272      -0.001226      -0.003316
   2       0.000049       0.000212      -0.002179
   3      -0.001452       0.000399       0.001935
   4      -0.000103      -0.003428       0.002303
   5       0.001840       0.004597      -0.002011
   6      -0.000014      -0.000285       0.000611
   7       0.001014      -0.002675      -0.002212
   8       0.001421       0.003030       0.001791
   9       0.001258      -0.000835       0.002855
  10      -0.001612      -0.000639       0.001172
  11      -0.001464      -0.002537      -0.001510
  12      -0.001547       0.000704      -0.002898
  13      -0.002608       0.001643      -0.001505
  14       0.006347       0.003168       0.005806
  15       0.001287       0.002307       0.001644
  16      -0.004520      -0.003687      -0.004449
  17      -0.001091      -0.006908       0.005680
  18      -0.000241       0.005642      -0.005417
  19      -0.001875      -0.001714       0.004039
  20      -0.002246       0.004222      -0.001366
  21       0.003286      -0.001988      -0.000974
---------------------------------------------------
 Number of fixed atoms: 0
 Gradient time:  CPU 628.72 s  wall 48.68 s
 Geometry Optimization Parameters
   NAtoms,    NIC,     NZ,  NCons,   NDum,   NFix, NCnnct, MaxDiis
       21     169       0       0       0       0       0       0


** GEOMETRY OPTIMIZATION IN DELOCALIZED INTERNAL COORDINATES **
   Searching for a Minimum

   Optimization Cycle:   1

                       Coordinates (Angstroms)
     ATOM                X               Y               Z
      1  C        -0.0168774468   -0.2000662033    0.7952676356
      2  C        -0.8765477918   -0.9814305599    1.7778810632
      3  C        -1.4290208569   -2.2410392202    1.0839354776
      4  C        -2.0298138614   -1.9167352067   -0.2652010581
      5  C        -1.8888647978   -0.7046209530   -0.7991441508
      6  C        -1.1633100132    0.3850796340   -0.0410529522
      7  C        -0.6984047677    1.5387915586   -0.9197392806
      8  H         0.5066048371    0.6184287764    1.3063390603
      9  H        -0.3877354012   -1.2276019448    2.7226184104
     10  H        -2.2087292636   -2.6622993208    1.7525757155
     11  H        -2.5596534547   -2.7151336639   -0.7782906620
     12  H        -2.3189431155   -0.4573136827   -1.7681702779
     13  H        -1.5275215112    1.9522952402   -1.5037425362
     14  O         0.3512924334    1.0726493257   -1.7687672605
     15  H        -0.2776833678    2.3255064002   -0.2891407638
     16  H        -0.0576030347    0.5757821737   -2.4971458525
     17  O         0.8715549499   -1.0366951859    0.0936023726
     18  H         1.0938136824   -0.5358295980   -0.7162384307
     19  O        -1.9527642881   -0.0818975793    2.0743685705
     20  O        -2.0033147961    0.9171854328    0.9923679806
     21  O        -0.4870854345   -3.2528094235    1.0215817389
   Point Group: c1    Number of degrees of freedom:    57


   Energy is   -648.110089290


 Attempting to generate delocalized internal coordinates
 Initial Hessian constructed with Jon Baker's OPTIMIZE code

 57 Hessian modes will be used to form the next step
  Hessian Eigenvalues:
     0.006147    0.007587    0.011904    0.013382    0.014222    0.014628
     0.018919    0.019732    0.027348    0.038183    0.044882    0.048211
     0.053097    0.055357    0.056583    0.058833    0.060030    0.068842
     0.071182    0.082740    0.093228    0.096293    0.103908    0.110274
     0.112245    0.136669    0.149401    0.156644    0.159896    0.160000
     0.160000    0.160019    0.189264    0.213062    0.220328    0.253430
     0.269415    0.276845    0.296234    0.300873    0.305452    0.325817
     0.330554    0.339267    0.342177    0.345240    0.346034    0.349701
     0.351691    0.363117    0.400047    0.412365    0.443693    0.484202
     0.518130    0.529887    0.553578

 Minimum search - taking simple RFO step
 Searching for Lamda that Minimizes Along All modes
 Value Taken    Lamda =  -0.00130412
 Step Taken.  Stepsize is  0.135137

                             Maximum     Tolerance    Cnvgd?
         Gradient           0.007230      0.000300      NO
         Displacement       0.044614      0.001200      NO
         Energy change     *********      0.000001      NO


 New Cartesian Coordinates Obtained by Inverse Iteration

 Displacement from previous Coordinates is:  0.270276
 ----------------------------------------------------------------
             Standard Nuclear Orientation (Angstroms)
    I     Atom           X                Y                Z
 ----------------------------------------------------------------
    1      C      -0.0116197369    -0.2039937221     0.7995110150
    2      C      -0.8745225194    -0.9840078454     1.7761466336
    3      C      -1.4356940633    -2.2370144033     1.0834766631
    4      C      -2.0241418353    -1.9163177067    -0.2667668937
    5      C      -1.8780139015    -0.7117684224    -0.7994766467
    6      C      -1.1526584630     0.3761135565    -0.0457409589
    7      C      -0.7076997884     1.5379835071    -0.9196147796
    8      H       0.5018862709     0.6116438752     1.3127125724
    9      H      -0.3917518626    -1.2294636470     2.7185091826
   10      H      -2.2248700886    -2.6392891909     1.7471090956
   11      H      -2.5571751830    -2.7081836641    -0.7762390383
   12      H      -2.3008902021    -0.4665258936    -1.7665379549
   13      H      -1.5476953161     1.9522926966    -1.4770850290
   14      O       0.3187046254     1.0946824329    -1.8069888747
   15      H      -0.2793878494     2.3147371552    -0.2899624722
   16      H      -0.0896302830     0.6234321920    -2.5432231232
   17      O       0.8956666481    -1.0381759930     0.1188488331
   18      H       1.1544038448    -0.5619987505    -0.6860573034
   19      O      -1.9441100470    -0.0809436075     2.0669967721
   20      O      -1.9918510368     0.9069256610     0.9841723062
   21      O      -0.5195565130    -3.2678822306     1.0441148008
 ----------------------------------------------------------------
 Nuclear Repulsion Energy =         794.09580653 hartrees
 There are       46 alpha and       45 beta electrons
 Discretize the solute cavity surface with Lebedev spheres
	Using 110 Lebedev grid points for each H atom
	Using 194 Lebedev grid points for other atoms
	Atomic van der Waals radii will be scaled by 1.20
 Remove points where switching function is < 1.0e-08
 Keep 1511 surface tesserae and discard 1807 interior tesserae
 Molecular Surface Area = 169.014 Angst**2
 Applying Cartesian multipole field
    Component          Value
    ---------          -----
     (2,0,0)        1.00000E-11
     (0,2,0)        2.00000E-11
     (0,0,2)       -3.00000E-11
 Nucleus-field energy     =     0.0000000060 hartrees
 Requested basis set is 6-311++G(2df,2p)
 There are 150 shells and 498 basis functions
 A cutoff of  1.0D-12 yielded  10187 shell pairs
 There are    113279 function pairs (    141883 Cartesian)
 Smallest overlap matrix eigenvalue = 2.16E-06
 Guess MOs from SCF MO coefficient file

 -----------------------------------------------------------------------
  General SCF calculation program by
  Eric Jon Sundstrom, Paul Horn, Yuezhi Mao, Dmitri Zuev, Alec White,
  David Stuck, Shaama M.S., Shane Yost, Joonho Lee, David Small,
  Daniel Levine, Susi Lehtola, Hugh Burton, Evgeny Epifanovsky,
  Bang C. Huynh
 -----------------------------------------------------------------------
 Exchange:     0.1500 Hartree-Fock + 1.0000 wB97M-V + LR-HF
 Correlation:  1.0000 wB97M-V
 Using SG-2 standard quadrature grid
 Nonlocal Correlation:  VV10 with C = 0.0100 and b = 6.00 and scale = 1.00000
 Grid used for NLC:  SG-1 standard quadrature
 
 Citation of the SMD model:
 Marenich, A.V.; Cramer, C.J.; Truhlar, D.G.
 J. Phys. Chem. B 2009, 113, 6378-6396.
 iSolventCode=           1
 Solvent: water                                                           
 
 vradii
            1           2           3           4           5           6
    1   1.8500000   1.8500000   1.8500000   1.8500000   1.8500000   1.8500000
            7           8           9          10          11          12
    1   1.8500000   1.2000000   1.2000000   1.2000000   1.2000000   1.2000000
           13          14          15          16          17          18
    1   1.2000000   1.5200000   1.2000000   1.2000000   1.5200000   1.2000000
           19          20          21
    1   1.5200000   1.5200000   1.5200000
 -------------------------------------------------------
 OpenMP BLAS3 based DFT computing Module                
 Release: version 1.0, May 2013, Q-Chem Inc. Pittsburgh 
 -------------------------------------------------------
 A unrestricted SCF calculation will be
 performed using Roothaan-Hall, DIIS, GDM
 SCF converges when RMS gradient is below 1.0e-07
 ---------------------------------------
  Cycle       Energy         DIIS error
 ---------------------------------------
    1    -648.0732424272      2.05e-04  Roothaan Step
 ---------------------------------------
  Cycle       Energy         DIIS error
 ---------------------------------------
    1    -648.1077315005      1.99e-04  
    2    -648.1130671609      1.55e-04  Done DIIS. Switching to GDM
 ---------------------------------------
  Cycle       Energy        RMS Gradient
 ---------------------------------------
    1    -648.1130671609      4.40e-03   Normal BFGS step
    2    -648.1133370636      6.79e-03   Normal BFGS step
    3    -648.1153044545      1.15e-03   Normal BFGS step
    4    -648.1153286865      6.67e-04   Normal BFGS step
    5    -648.1153378799      3.55e-04   Normal BFGS step
    6    -648.1153390956      2.18e-04   Normal BFGS step
    7    -648.1153396156      8.13e-05   Normal BFGS step
    8    -648.1153397234      5.20e-05   Normal BFGS step
    9    -648.1153397485      5.08e-05   Normal BFGS step
   10    -648.1153397611      4.08e-05   Normal BFGS step
   11    -648.1153397706      4.00e-05   Normal BFGS step
   12    -648.1153397831      3.29e-05   Normal BFGS step
   13    -648.1153397954      3.80e-05   Normal BFGS step
   14    -648.1153398120      3.61e-05   Normal BFGS step
   15    -648.1153398199      1.60e-05   Normal BFGS step
   16    -648.1153398225      7.91e-06   Normal BFGS step
   17    -648.1153398229      2.17e-06   Normal BFGS step
   18    -648.1153398230      9.82e-07   Normal BFGS step
   19    -648.1153398230      7.32e-07   Normal BFGS step
   20    -648.1153398231      4.42e-07   Normal BFGS step
   21    -648.1153398231      2.21e-07   Normal BFGS step
   22    -648.1153398231      8.66e-08  Convergence criterion met
 ---------------------------------------
 SCF time:   CPU 4737.42s  wall 322.00s 
<S^2> =          0.754173297
(3)  G-ENP(liq) elect-nuc-pol free energy of system     -648.115339823 a.u.
(4)  G-CDS(liq) cavity-dispersion-solvent structure 
     free energy                                                2.8795 kcal/mol
(6)  G-S(liq) free energy of system                     -648.110751079 a.u.
 SCF   energy in the final basis set =     -648.1107510791
 Total energy in the final basis set =     -648.1107510791
 
 --------------------------------------------------------------
 
                    Orbital Energies (a.u.)
 --------------------------------------------------------------
 
 Alpha MOs
 -- Occupied --
-19.4082 -19.4074 -19.3940 -19.3498 -19.3491 -10.4164 -10.4127 -10.4120
-10.4088 -10.3962 -10.3550 -10.3510  -1.2779  -1.1802  -1.1706  -1.1617
 -1.0759  -0.9659  -0.8896  -0.8512  -0.8066  -0.7518  -0.7205  -0.6897
 -0.6643  -0.6422  -0.6143  -0.6085  -0.5863  -0.5747  -0.5654  -0.5522
 -0.5403  -0.5352  -0.5293  -0.5027  -0.4966  -0.4741  -0.4647  -0.4432
 -0.4393  -0.4127  -0.3969  -0.3860  -0.3700  -0.3646
 -- Virtual --
  0.0251   0.0339   0.0362   0.0430   0.0532   0.0548   0.0567   0.0726
  0.0744   0.0848   0.0882   0.0892   0.1077   0.1190   0.1252   0.1301
  0.1319   0.1387   0.1455   0.1509   0.1552   0.1554   0.1598   0.1656
  0.1690   0.1700   0.1755   0.1852   0.1899   0.1968   0.2013   0.2057
  0.2126   0.2155   0.2191   0.2247   0.2359   0.2448   0.2508   0.2663
  0.2736   0.2770   0.2822   0.2891   0.2952   0.3061   0.3121   0.3163
  0.3186   0.3204   0.3372   0.3386   0.3426   0.3453   0.3523   0.3559
  0.3676   0.3711   0.3743   0.3755   0.3818   0.3857   0.3936   0.3968
  0.4029   0.4107   0.4165   0.4210   0.4239   0.4315   0.4480   0.4497
  0.4580   0.4727   0.4805   0.4867   0.5107   0.5151   0.5211   0.5266
  0.5477   0.5646   0.5904   0.6027   0.6135   0.6210   0.6254   0.6295
  0.6531   0.6577   0.6606   0.6676   0.6806   0.6830   0.6920   0.6940
  0.7021   0.7165   0.7242   0.7264   0.7370   0.7447   0.7529   0.7645
  0.7715   0.7835   0.7952   0.8056   0.8134   0.8370   0.8607   0.8675
  0.8783   0.8886   0.9044   0.9129   0.9394   0.9537   0.9640   0.9906
  1.0068   1.0211   1.0423   1.0518   1.0654   1.0721   1.0783   1.0954
  1.1142   1.1224   1.1354   1.1489   1.1582   1.1621   1.1645   1.1809
  1.1973   1.2050   1.2082   1.2146   1.2235   1.2392   1.2544   1.2646
  1.2694   1.2755   1.2793   1.2838   1.3007   1.3130   1.3176   1.3208
  1.3337   1.3465   1.3592   1.3668   1.3719   1.3798   1.3951   1.4035
  1.4174   1.4222   1.4332   1.4448   1.4560   1.4656   1.4800   1.4848
  1.4996   1.5094   1.5141   1.5292   1.5433   1.5592   1.5768   1.5776
  1.5899   1.5950   1.6090   1.6220   1.6404   1.6657   1.6763   1.6853
  1.7052   1.7142   1.7489   1.7614   1.7763   1.7854   1.7954   1.8329
  1.8459   1.8719   1.8905   1.9058   1.9156   1.9390   1.9650   1.9842
  2.0011   2.0334   2.0444   2.0543   2.0839   2.1040   2.1269   2.1530
  2.1843   2.1966   2.2267   2.2555   2.2804   2.3237   2.3403   2.3636
  2.3964   2.4230   2.4329   2.4712   2.4861   2.5129   2.5407   2.6562
  2.6742   2.6963   2.7222   2.7453   2.7631   2.7935   2.8067   2.8365
  2.8481   2.8562   2.8774   2.8895   2.8980   2.9072   2.9301   2.9363
  2.9515   2.9727   2.9835   2.9973   3.0258   3.0339   3.0482   3.0594
  3.1014   3.1207   3.1379   3.1423   3.1602   3.1926   3.2101   3.2303
  3.2444   3.2636   3.2776   3.3116   3.3155   3.3428   3.3504   3.3642
  3.3885   3.3987   3.4202   3.4560   3.4626   3.4690   3.4850   3.4967
  3.5309   3.5363   3.5665   3.5715   3.5929   3.5961   3.6268   3.6397
  3.6448   3.6478   3.6665   3.6837   3.6974   3.7203   3.7291   3.7390
  3.7574   3.7645   3.7732   3.7932   3.8121   3.8314   3.8519   3.8540
  3.8606   3.8779   3.8921   3.9015   3.9151   3.9255   3.9350   3.9486
  3.9630   3.9708   3.9994   4.0010   4.0311   4.0482   4.0587   4.0910
  4.1055   4.1112   4.1415   4.1736   4.1947   4.1957   4.2170   4.2421
  4.2757   4.2891   4.3029   4.3185   4.3411   4.3498   4.3677   4.3889
  4.4001   4.4072   4.4179   4.4206   4.4474   4.4726   4.4816   4.5029
  4.5168   4.5269   4.5447   4.5793   4.5978   4.6300   4.6479   4.6513
  4.6832   4.7016   4.7244   4.7313   4.7581   4.7854   4.8164   4.8353
  4.8956   4.9702   4.9883   5.0469   5.0924   5.1086   5.1311   5.1459
  5.2100   5.2232   5.2679   5.2822   5.2932   5.2982   5.3135   5.3150
  5.3275   5.3383   5.3589   5.3796   5.3900   5.4007   5.4174   5.4419
  5.4540   5.4709   5.4883   5.5100   5.5263   5.5442   5.5549   5.5819
  5.5953   5.6208   5.6332   5.6480   5.6739   5.6988   5.7323   5.7502
  5.7609   5.7783   5.8056   5.8305   5.8975   5.9062   5.9422   5.9779
  5.9992   6.0303   6.0458   6.0673   6.0866   6.1465   6.2728   6.6089
  6.6431   6.6863   6.7247   6.7541   6.7965   6.9052   6.9545   7.0438
  7.1101   7.1448   7.2856   7.3097   7.3337   7.3550   7.3640   7.3823
  7.3862   7.4085   7.4372   7.4521   7.4721   7.5043   7.5601   7.6446
  7.6570   7.7134   7.7272   7.7940   7.8596   7.9140   7.9768   8.2684
 24.3982  24.7011  24.7806  24.8014  24.8527  24.8847  25.2614  50.5444
 50.6061  50.6210  50.6810  50.6939
 
 Beta MOs
 -- Occupied --
-19.4082 -19.4075 -19.3714 -19.3498 -19.3486 -10.4164 -10.4130 -10.4114
-10.4088 -10.3962 -10.3546 -10.3511  -1.2779  -1.1768  -1.1632  -1.1239
 -1.0750  -0.9619  -0.8886  -0.8475  -0.7991  -0.7512  -0.7172  -0.6879
 -0.6580  -0.6382  -0.6118  -0.5987  -0.5825  -0.5640  -0.5588  -0.5379
 -0.5348  -0.5301  -0.5271  -0.4996  -0.4812  -0.4686  -0.4574  -0.4380
 -0.4132  -0.3970  -0.3821  -0.3678  -0.3636
 -- Virtual --
 -0.0607   0.0252   0.0341   0.0363   0.0434   0.0536   0.0549   0.0569
  0.0731   0.0747   0.0856   0.0883   0.0894   0.1088   0.1193   0.1257
  0.1304   0.1321   0.1398   0.1472   0.1513   0.1554   0.1560   0.1600
  0.1661   0.1694   0.1705   0.1755   0.1851   0.1901   0.1970   0.2016
  0.2060   0.2128   0.2158   0.2197   0.2248   0.2373   0.2451   0.2512
  0.2668   0.2749   0.2776   0.2827   0.2895   0.2966   0.3085   0.3125
  0.3173   0.3191   0.3234   0.3381   0.3394   0.3429   0.3503   0.3537
  0.3575   0.3680   0.3717   0.3749   0.3774   0.3825   0.3873   0.3942
  0.3979   0.4036   0.4125   0.4185   0.4214   0.4252   0.4324   0.4489
  0.4511   0.4604   0.4742   0.4812   0.4873   0.5119   0.5165   0.5220
  0.5270   0.5485   0.5654   0.5907   0.6033   0.6142   0.6231   0.6286
  0.6300   0.6537   0.6594   0.6613   0.6686   0.6820   0.6841   0.6943
  0.6978   0.7029   0.7174   0.7246   0.7272   0.7382   0.7452   0.7539
  0.7649   0.7717   0.7847   0.7957   0.8066   0.8141   0.8381   0.8613
  0.8681   0.8786   0.8890   0.9059   0.9134   0.9400   0.9543   0.9642
  0.9928   1.0084   1.0223   1.0426   1.0524   1.0664   1.0728   1.0792
  1.0961   1.1151   1.1232   1.1365   1.1511   1.1602   1.1630   1.1672
  1.1836   1.2005   1.2084   1.2109   1.2170   1.2329   1.2448   1.2574
  1.2664   1.2720   1.2763   1.2818   1.2861   1.3042   1.3187   1.3193
  1.3222   1.3358   1.3510   1.3601   1.3677   1.3745   1.3805   1.3966
  1.4042   1.4191   1.4261   1.4340   1.4470   1.4611   1.4664   1.4820
  1.4877   1.5008   1.5130   1.5169   1.5320   1.5447   1.5621   1.5789
  1.5806   1.5906   1.5969   1.6102   1.6314   1.6410   1.6666   1.6780
  1.6899   1.7075   1.7181   1.7516   1.7656   1.7780   1.7877   1.7975
  1.8424   1.8529   1.8858   1.8930   1.9111   1.9210   1.9470   1.9700
  1.9877   2.0029   2.0349   2.0472   2.0613   2.0849   2.1108   2.1271
  2.1569   2.1849   2.1984   2.2303   2.2589   2.2824   2.3262   2.3446
  2.3688   2.3970   2.4310   2.4342   2.4730   2.4915   2.5175   2.5415
  2.6569   2.6835   2.6973   2.7227   2.7459   2.7640   2.7952   2.8076
  2.8373   2.8493   2.8594   2.8780   2.8903   2.8984   2.9079   2.9306
  2.9378   2.9542   2.9757   2.9853   2.9984   3.0263   3.0344   3.0489
  3.0608   3.1024   3.1223   3.1389   3.1429   3.1616   3.1939   3.2105
  3.2312   3.2448   3.2642   3.2784   3.3124   3.3160   3.3447   3.3525
  3.3645   3.3893   3.4002   3.4213   3.4567   3.4638   3.4703   3.4872
  3.4977   3.5321   3.5384   3.5672   3.5726   3.5944   3.5976   3.6294
  3.6402   3.6452   3.6483   3.6673   3.6851   3.6998   3.7217   3.7295
  3.7400   3.7586   3.7658   3.7745   3.7945   3.8131   3.8319   3.8530
  3.8558   3.8629   3.8788   3.8927   3.9028   3.9163   3.9269   3.9366
  3.9493   3.9646   3.9728   4.0007   4.0016   4.0343   4.0506   4.0605
  4.0926   4.1066   4.1120   4.1433   4.1742   4.1956   4.1980   4.2204
  4.2433   4.2774   4.2917   4.3036   4.3202   4.3433   4.3522   4.3698
  4.3929   4.4014   4.4087   4.4204   4.4266   4.4482   4.4746   4.4843
  4.5038   4.5176   4.5308   4.5519   4.5809   4.6017   4.6312   4.6494
  4.6540   4.6847   4.7021   4.7249   4.7332   4.7594   4.7876   4.8190
  4.8374   4.8978   4.9737   4.9914   5.0491   5.1065   5.1198   5.1884
  5.2001   5.2258   5.2689   5.2801   5.2888   5.3005   5.3099   5.3169
  5.3305   5.3406   5.3475   5.3662   5.4004   5.4111   5.4179   5.4281
  5.4433   5.4571   5.4901   5.5010   5.5131   5.5279   5.5473   5.5738
  5.5906   5.5984   5.6233   5.6345   5.6514   5.6750   5.6989   5.7338
  5.7510   5.7633   5.7805   5.8085   5.8314   5.8999   5.9083   5.9748
  5.9861   6.0045   6.0336   6.0466   6.0748   6.0916   6.1525   6.2732
  6.6091   6.6452   6.6866   6.7377   6.7548   6.8099   7.0092   7.0436
  7.0594   7.1114   7.1472   7.2868   7.3099   7.3342   7.3592   7.3802
  7.4068   7.4107   7.4341   7.4468   7.4654   7.4854   7.5069   7.5607
  7.6449   7.6571   7.7181   7.7685   7.7950   7.8609   7.9147   7.9769
  8.2685  24.3984  24.7013  24.7806  24.8013  24.8527  24.8849  25.2615
 50.5596  50.6064  50.6210  50.6813  50.6943
 --------------------------------------------------------------
 
          Ground-State Mulliken Net Atomic Charges

     Atom                 Charge (a.u.)    Spin (a.u.)
  --------------------------------------------------------
      1 C                    -0.155460       0.011327
      2 C                    -0.065302      -0.000224
      3 C                    -0.468347       0.039097
      4 C                    -0.094436      -0.009848
      5 C                    -0.405840       0.006978
      6 C                     0.130027      -0.008167
      7 C                    -0.395110       0.001535
      8 H                     0.324206       0.003121
      9 H                     0.289917      -0.001695
     10 H                     0.291670       0.089495
     11 H                     0.303578      -0.001252
     12 H                     0.313548       0.002358
     13 H                     0.253496       0.000067
     14 O                    -0.379614       0.000070
     15 H                     0.243676      -0.000006
     16 H                     0.328182       0.000028
     17 O                    -0.406182       0.006175
     18 H                     0.343089       0.000720
     19 O                    -0.112812       0.001304
     20 O                    -0.132174      -0.000504
     21 O                    -0.206114       0.859422
  --------------------------------------------------------
  Sum of atomic charges =     0.000000
  Sum of spin   charges =     1.000000

 -----------------------------------------------------------------
                    Cartesian Multipole Moments
 -----------------------------------------------------------------
    Charge (ESU x 10^10)
                 0.0000
    Dipole Moment (Debye)
         X      -1.5243      Y       1.7355      Z      -3.3404
       Tot       4.0612
    Quadrupole Moments (Debye-Ang)
        XX     -73.3575     XY       8.1832     YY     -78.8313
        XZ       7.8504     YZ      -1.5053     ZZ     -62.4705
    Octopole Moments (Debye-Ang^2)
       XXX     205.0117    XXY      16.5979    XYY      42.6893
       YYY     147.6739    XXZ     -38.1508    XYZ      17.7332
       YYZ     -23.3965    XZZ      61.1568    YZZ      24.0247
       ZZZ     -77.9497
    Hexadecapole Moments (Debye-Ang^3)
      XXXX    -881.2294   XXXY     -84.7498   XXYY    -266.8846
      XYYY     -85.3780   YYYY   -1173.1763   XXXZ     147.7677
      XXYZ      38.3275   XYYZ      30.0673   YYYZ     195.5651
      XXZZ    -257.7771   XYZZ     -28.6573   YYZZ    -286.0415
      XZZZ     148.2633   YZZZ     143.3622   ZZZZ    -613.2484
 -----------------------------------------------------------------
 Calculating analytic gradient of the SCF energy
 Gradient of CDS energy
            1           2           3           4           5           6
    1   0.0014298  -0.0000667   0.0049802  -0.0001901  -0.0002254   0.0000524
    2  -0.0011555   0.0000992  -0.0055937  -0.0002535   0.0001204   0.0000661
    3  -0.0008849   0.0001798  -0.0000441  -0.0001577  -0.0001467   0.0001544
            7           8           9          10          11          12
    1   0.0001228  -0.0000363   0.0000727  -0.0001574  -0.0000992  -0.0000504
    2   0.0009940   0.0002093  -0.0000713  -0.0000638  -0.0001485   0.0000832
    3  -0.0003394   0.0000938   0.0001843   0.0001500  -0.0000940  -0.0001157
           13          14          15          16          17          18
    1  -0.0002452  -0.0001725   0.0001331   0.0001677  -0.0014393   0.0004104
    2  -0.0002527  -0.0001611  -0.0001225  -0.0000091   0.0010507  -0.0001095
    3  -0.0000589   0.0002812   0.0002766  -0.0004941   0.0010017  -0.0002078
           19          20          21
    1  -0.0000197   0.0000447  -0.0047116
    2   0.0000559  -0.0000921   0.0053545
    3  -0.0000859   0.0000790   0.0002284
 Gradient of SCF Energy
            1           2           3           4           5           6
    1   0.0014980  -0.0044789   0.0080005   0.0024369   0.0027970  -0.0056810
    2  -0.0053963   0.0046026  -0.0023189   0.0058710  -0.0001097   0.0025461
    3  -0.0044459  -0.0020985  -0.0055489   0.0080351   0.0071105   0.0019778
            7           8           9          10          11          12
    1   0.0082024   0.0034705   0.0016236  -0.0046449  -0.0043115  -0.0048083
    2  -0.0165696   0.0053211  -0.0007075  -0.0028574  -0.0044764   0.0034394
    3   0.0035837   0.0026862   0.0050862   0.0033307  -0.0035536  -0.0133544
           13          14          15          16          17          18
    1  -0.0083237   0.0094229   0.0020471  -0.0096844   0.0014357   0.0009541
    2   0.0036157   0.0155594   0.0062759  -0.0109883  -0.0105068   0.0058928
    3  -0.0078612   0.0132404   0.0051876  -0.0142181   0.0076226  -0.0082953
           19          20          21
    1  -0.0026646  -0.0006973   0.0034060
    2   0.0008761   0.0014773  -0.0015462
    3   0.0022931   0.0000101  -0.0007878
 Max gradient component =       1.657E-02
 RMS gradient           =       6.403E-03
 Computing fast CPCM-SWIG gradient
 Updating gradient with PCM contributions...
 -- total gradient after adding PCM contribution --
---------------------------------------------------
  Atom         X              Y              Z     
---------------------------------------------------
   1       0.000033      -0.000155       0.000421
   2       0.000513       0.000032      -0.000130
   3      -0.002045       0.001014       0.000790
   4       0.000044       0.000346      -0.000309
   5      -0.000199      -0.000238      -0.000020
   6      -0.000997       0.000044       0.000586
   7      -0.000468       0.000431       0.000948
   8       0.000136      -0.000097       0.000145
   9      -0.000280       0.000197       0.000222
  10       0.000459       0.000048      -0.000473
  11      -0.000064       0.000151      -0.000004
  12      -0.000106      -0.000114       0.000130
  13       0.000503       0.000096      -0.000404
  14       0.000784       0.000368      -0.000679
  15      -0.000297       0.000082       0.000149
  16      -0.000280      -0.000584      -0.000784
  17       0.000637      -0.001568       0.001650
  18       0.000379       0.001171      -0.001738
  19      -0.000002      -0.001333       0.001211
  20       0.000196       0.000614      -0.001491
  21       0.001052      -0.000504      -0.000220
---------------------------------------------------
 Number of fixed atoms: 0
 Gradient time:  CPU 628.85 s  wall 48.74 s
 Geometry Optimization Parameters
   NAtoms,    NIC,     NZ,  NCons,   NDum,   NFix, NCnnct, MaxDiis
       21     169       0       0       0       0       0       0

 Cartesian Hessian Update
 Hessian updated using BFGS update


** GEOMETRY OPTIMIZATION IN DELOCALIZED INTERNAL COORDINATES **
   Searching for a Minimum

   Optimization Cycle:   2

                       Coordinates (Angstroms)
     ATOM                X               Y               Z
      1  C        -0.0116197369   -0.2039937221    0.7995110150
      2  C        -0.8745225194   -0.9840078454    1.7761466336
      3  C        -1.4356940633   -2.2370144033    1.0834766631
      4  C        -2.0241418353   -1.9163177067   -0.2667668937
      5  C        -1.8780139015   -0.7117684224   -0.7994766467
      6  C        -1.1526584630    0.3761135565   -0.0457409589
      7  C        -0.7076997884    1.5379835071   -0.9196147796
      8  H         0.5018862709    0.6116438752    1.3127125724
      9  H        -0.3917518626   -1.2294636470    2.7185091826
     10  H        -2.2248700886   -2.6392891909    1.7471090956
     11  H        -2.5571751830   -2.7081836641   -0.7762390383
     12  H        -2.3008902021   -0.4665258936   -1.7665379549
     13  H        -1.5476953161    1.9522926966   -1.4770850290
     14  O         0.3187046254    1.0946824329   -1.8069888747
     15  H        -0.2793878494    2.3147371552   -0.2899624722
     16  H        -0.0896302830    0.6234321920   -2.5432231232
     17  O         0.8956666481   -1.0381759930    0.1188488331
     18  H         1.1544038448   -0.5619987505   -0.6860573034
     19  O        -1.9441100470   -0.0809436075    2.0669967721
     20  O        -1.9918510368    0.9069256610    0.9841723062
     21  O        -0.5195565130   -3.2678822306    1.0441148008
   Point Group: c1    Number of degrees of freedom:    57


   Energy is   -648.110751079

 Hessian updated using BFGS update

 57 Hessian modes will be used to form the next step
  Hessian Eigenvalues:
     0.006244    0.007390    0.011876    0.013380    0.014226    0.014600
     0.019249    0.019789    0.027231    0.038202    0.045254    0.047923
     0.053485    0.055599    0.056763    0.059059    0.060345    0.068828
     0.071414    0.082820    0.093056    0.096364    0.104492    0.110312
     0.112249    0.136647    0.147783    0.156147    0.157483    0.159908
     0.160016    0.161840    0.189206    0.213256    0.223631    0.254623
     0.269804    0.277040    0.296292    0.296386    0.306485    0.316280
     0.327573    0.339703    0.343129    0.345518    0.346709    0.350509
     0.353533    0.363383    0.402748    0.414881    0.444798    0.474424
     0.500066    0.528245    0.564495

 Minimum search - taking simple RFO step
 Searching for Lamda that Minimizes Along All modes
 Value Taken    Lamda =  -0.00009735
 Step Taken.  Stepsize is  0.060291

                             Maximum     Tolerance    Cnvgd?
         Gradient           0.001947      0.000300      NO
         Displacement       0.023217      0.001200      NO
         Energy change     -0.000662      0.000001      NO


 New Cartesian Coordinates Obtained by Inverse Iteration

 Displacement from previous Coordinates is:  0.079965
 ----------------------------------------------------------------
             Standard Nuclear Orientation (Angstroms)
    I     Atom           X                Y                Z
 ----------------------------------------------------------------
    1      C      -0.0126126736    -0.2034543461     0.7948068276
    2      C      -0.8723003262    -0.9827146113     1.7742859998
    3      C      -1.4361548082    -2.2364771043     1.0850071463
    4      C      -2.0184506259    -1.9187617350    -0.2681857253
    5      C      -1.8740809996    -0.7138532184    -0.8009313703
    6      C      -1.1535419482     0.3762650135    -0.0463441836
    7      C      -0.7114210869     1.5394448416    -0.9170217515
    8      H       0.5040055150     0.6118274513     1.3043236089
    9      H      -0.3843104296    -1.2290035397     2.7132801626
   10      H      -2.2319777692    -2.6280146839     1.7484878154
   11      H      -2.5476437735    -2.7124324868    -0.7783527787
   12      H      -2.2921393578    -0.4701076863    -1.7702343000
   13      H      -1.5536756293     1.9506319181    -1.4730882232
   14      O       0.3198909487     1.0994437712    -1.7973571882
   15      H      -0.2852286844     2.3159770108    -0.2863152181
   16      H      -0.0828863989     0.6312002985    -2.5365247175
   17      O       0.8872179277    -1.0406824728     0.1103413892
   18      H       1.1480033664    -0.5694534138    -0.6934578433
   19      O      -1.9393140340    -0.0775547110     2.0679722541
   20      O      -1.9923665921     0.9058801089     0.9851648532
   21      O      -0.5316199205    -3.2759144049     1.0580480425
 ----------------------------------------------------------------
 Nuclear Repulsion Energy =         794.50809481 hartrees
 There are       46 alpha and       45 beta electrons
 Discretize the solute cavity surface with Lebedev spheres
	Using 110 Lebedev grid points for each H atom
	Using 194 Lebedev grid points for other atoms
	Atomic van der Waals radii will be scaled by 1.20
 Remove points where switching function is < 1.0e-08
 Keep 1511 surface tesserae and discard 1807 interior tesserae
 Molecular Surface Area = 168.892 Angst**2
 Applying Cartesian multipole field
    Component          Value
    ---------          -----
     (2,0,0)        1.00000E-11
     (0,2,0)        2.00000E-11
     (0,0,2)       -3.00000E-11
 Nucleus-field energy     =     0.0000000060 hartrees
 Requested basis set is 6-311++G(2df,2p)
 There are 150 shells and 498 basis functions
 A cutoff of  1.0D-12 yielded  10193 shell pairs
 There are    113362 function pairs (    141992 Cartesian)
 Smallest overlap matrix eigenvalue = 2.16E-06
 Guess MOs from SCF MO coefficient file

 -----------------------------------------------------------------------
  General SCF calculation program by
  Eric Jon Sundstrom, Paul Horn, Yuezhi Mao, Dmitri Zuev, Alec White,
  David Stuck, Shaama M.S., Shane Yost, Joonho Lee, David Small,
  Daniel Levine, Susi Lehtola, Hugh Burton, Evgeny Epifanovsky,
  Bang C. Huynh
 -----------------------------------------------------------------------
 Exchange:     0.1500 Hartree-Fock + 1.0000 wB97M-V + LR-HF
 Correlation:  1.0000 wB97M-V
 Using SG-2 standard quadrature grid
 Nonlocal Correlation:  VV10 with C = 0.0100 and b = 6.00 and scale = 1.00000
 Grid used for NLC:  SG-1 standard quadrature
 
 Citation of the SMD model:
 Marenich, A.V.; Cramer, C.J.; Truhlar, D.G.
 J. Phys. Chem. B 2009, 113, 6378-6396.
 iSolventCode=           1
 Solvent: water                                                           
 
 vradii
            1           2           3           4           5           6
    1   1.8500000   1.8500000   1.8500000   1.8500000   1.8500000   1.8500000
            7           8           9          10          11          12
    1   1.8500000   1.2000000   1.2000000   1.2000000   1.2000000   1.2000000
           13          14          15          16          17          18
    1   1.2000000   1.5200000   1.2000000   1.2000000   1.5200000   1.2000000
           19          20          21
    1   1.5200000   1.5200000   1.5200000
 -------------------------------------------------------
 OpenMP BLAS3 based DFT computing Module                
 Release: version 1.0, May 2013, Q-Chem Inc. Pittsburgh 
 -------------------------------------------------------
 A unrestricted SCF calculation will be
 performed using Roothaan-Hall, DIIS, GDM
 SCF converges when RMS gradient is below 1.0e-07
 ---------------------------------------
  Cycle       Energy         DIIS error
 ---------------------------------------
    1    -648.0748004220      1.81e-04  Roothaan Step
 ---------------------------------------
  Cycle       Energy         DIIS error
 ---------------------------------------
    1    -648.1080352321      1.97e-04  
    2    -648.1132568995      1.51e-04  Done DIIS. Switching to GDM
 ---------------------------------------
  Cycle       Energy        RMS Gradient
 ---------------------------------------
    1    -648.1132568995      4.41e-03   Normal BFGS step
    2    -648.1135340364      6.58e-03   Normal BFGS step
    3    -648.1153792516      1.02e-03   Normal BFGS step
    4    -648.1154003465      5.10e-04   Normal BFGS step
    5    -648.1154083381      2.71e-04   Normal BFGS step
    6    -648.1154090932      1.53e-04   Normal BFGS step
    7    -648.1154093817      6.60e-05   Normal BFGS step
    8    -648.1154094502      3.48e-05   Normal BFGS step
    9    -648.1154094644      3.95e-05   Normal BFGS step
   10    -648.1154094735      3.78e-05   Normal BFGS step
   11    -648.1154094826      3.97e-05   Normal BFGS step
   12    -648.1154094934      3.55e-05   Normal BFGS step
   13    -648.1154095044      3.14e-05   Normal BFGS step
   14    -648.1154095158      2.81e-05   Normal BFGS step
   15    -648.1154095211      1.27e-05   Normal BFGS step
   16    -648.1154095230      6.12e-06   Normal BFGS step
   17    -648.1154095232      1.83e-06   Normal BFGS step
   18    -648.1154095233      5.63e-07   Normal BFGS step
   19    -648.1154095233      4.73e-07   Normal BFGS step
   20    -648.1154095233      3.26e-07   Normal BFGS step
   21    -648.1154095234      1.08e-07   Normal BFGS step
  GDM::WARNING energy changes are now smaller than effective accuracy.
  GDM::        calculation will continue, but THRESH should be increased
  GDM::        or SCF_CONVERGENCE decreased. 
  GDM::        effective_thresh = 4.12e-09
   22    -648.1154095233      7.75e-08  Convergence criterion met
 ---------------------------------------
 SCF time:   CPU 4714.74s  wall 320.00s 
<S^2> =          0.754180755
(3)  G-ENP(liq) elect-nuc-pol free energy of system     -648.115409523 a.u.
(4)  G-CDS(liq) cavity-dispersion-solvent structure 
     free energy                                                2.8943 kcal/mol
(6)  G-S(liq) free energy of system                     -648.110797159 a.u.
 SCF   energy in the final basis set =     -648.1107971595
 Total energy in the final basis set =     -648.1107971595
 
 --------------------------------------------------------------
 
                    Orbital Energies (a.u.)
 --------------------------------------------------------------
 
 Alpha MOs
 -- Occupied --
-19.4080 -19.4072 -19.3939 -19.3496 -19.3485 -10.4158 -10.4128 -10.4118
-10.4083 -10.3957 -10.3550 -10.3509  -1.2788  -1.1808  -1.1713  -1.1624
 -1.0754  -0.9663  -0.8899  -0.8513  -0.8068  -0.7521  -0.7206  -0.6902
 -0.6643  -0.6427  -0.6148  -0.6088  -0.5866  -0.5749  -0.5655  -0.5524
 -0.5403  -0.5351  -0.5294  -0.5025  -0.4967  -0.4742  -0.4645  -0.4432
 -0.4389  -0.4130  -0.3968  -0.3860  -0.3697  -0.3642
 -- Virtual --
  0.0251   0.0340   0.0362   0.0431   0.0535   0.0548   0.0567   0.0725
  0.0744   0.0849   0.0889   0.0893   0.1078   0.1190   0.1251   0.1303
  0.1320   0.1387   0.1455   0.1510   0.1553   0.1554   0.1598   0.1657
  0.1690   0.1702   0.1756   0.1852   0.1900   0.1968   0.2012   0.2059
  0.2128   0.2156   0.2192   0.2249   0.2359   0.2444   0.2508   0.2666
  0.2736   0.2772   0.2821   0.2891   0.2958   0.3063   0.3128   0.3171
  0.3189   0.3204   0.3373   0.3389   0.3425   0.3457   0.3529   0.3566
  0.3677   0.3710   0.3745   0.3755   0.3820   0.3857   0.3940   0.3976
  0.4028   0.4109   0.4162   0.4216   0.4236   0.4325   0.4483   0.4500
  0.4584   0.4728   0.4802   0.4873   0.5112   0.5151   0.5213   0.5267
  0.5481   0.5655   0.5909   0.6026   0.6135   0.6207   0.6258   0.6303
  0.6536   0.6577   0.6612   0.6677   0.6811   0.6836   0.6921   0.6936
  0.7020   0.7170   0.7245   0.7262   0.7370   0.7448   0.7533   0.7653
  0.7717   0.7831   0.7954   0.8054   0.8136   0.8377   0.8615   0.8681
  0.8787   0.8886   0.9050   0.9128   0.9395   0.9533   0.9643   0.9907
  1.0068   1.0216   1.0419   1.0518   1.0665   1.0729   1.0791   1.0961
  1.1147   1.1232   1.1361   1.1489   1.1587   1.1626   1.1651   1.1814
  1.1975   1.2057   1.2088   1.2152   1.2237   1.2393   1.2549   1.2646
  1.2693   1.2758   1.2791   1.2845   1.3006   1.3127   1.3173   1.3209
  1.3335   1.3474   1.3594   1.3676   1.3722   1.3800   1.3957   1.4038
  1.4180   1.4230   1.4349   1.4452   1.4567   1.4665   1.4806   1.4856
  1.5001   1.5107   1.5144   1.5298   1.5433   1.5591   1.5771   1.5783
  1.5904   1.5965   1.6086   1.6213   1.6410   1.6662   1.6769   1.6868
  1.7054   1.7151   1.7497   1.7626   1.7762   1.7862   1.7952   1.8335
  1.8467   1.8722   1.8910   1.9069   1.9164   1.9400   1.9647   1.9853
  2.0029   2.0342   2.0459   2.0565   2.0854   2.1053   2.1300   2.1542
  2.1851   2.1967   2.2285   2.2564   2.2821   2.3239   2.3413   2.3640
  2.3979   2.4252   2.4333   2.4719   2.4872   2.5134   2.5408   2.6574
  2.6744   2.6964   2.7227   2.7451   2.7634   2.7949   2.8069   2.8374
  2.8493   2.8570   2.8784   2.8901   2.8983   2.9090   2.9308   2.9376
  2.9518   2.9717   2.9843   2.9969   3.0275   3.0352   3.0491   3.0590
  3.1031   3.1221   3.1400   3.1429   3.1626   3.1935   3.2105   3.2313
  3.2447   3.2647   3.2788   3.3118   3.3158   3.3419   3.3522   3.3636
  3.3902   3.3984   3.4208   3.4562   3.4625   3.4700   3.4846   3.4975
  3.5313   3.5374   3.5671   3.5724   3.5929   3.5969   3.6287   3.6403
  3.6462   3.6467   3.6677   3.6845   3.6968   3.7210   3.7298   3.7390
  3.7584   3.7642   3.7746   3.7938   3.8119   3.8309   3.8519   3.8559
  3.8615   3.8792   3.8930   3.9010   3.9170   3.9262   3.9373   3.9505
  3.9632   3.9710   3.9997   4.0034   4.0309   4.0483   4.0603   4.0923
  4.1071   4.1135   4.1436   4.1759   4.1954   4.1978   4.2186   4.2429
  4.2772   4.2918   4.3052   4.3194   4.3438   4.3522   4.3698   4.3910
  4.4007   4.4097   4.4200   4.4215   4.4496   4.4743   4.4832   4.5043
  4.5179   4.5282   4.5461   4.5799   4.5989   4.6320   4.6490   4.6523
  4.6866   4.7005   4.7242   4.7330   4.7600   4.7862   4.8173   4.8343
  4.8963   4.9698   4.9887   5.0468   5.0932   5.1082   5.1309   5.1459
  5.2121   5.2226   5.2678   5.2833   5.2950   5.2992   5.3148   5.3162
  5.3283   5.3394   5.3598   5.3799   5.3907   5.4020   5.4179   5.4429
  5.4544   5.4723   5.4893   5.5111   5.5285   5.5463   5.5557   5.5834
  5.5973   5.6233   5.6350   5.6516   5.6795   5.7028   5.7349   5.7529
  5.7648   5.7810   5.8077   5.8327   5.8993   5.9103   5.9447   5.9803
  6.0037   6.0337   6.0498   6.0729   6.0923   6.1503   6.2798   6.6139
  6.6438   6.6868   6.7307   6.7616   6.8035   6.9056   6.9545   7.0453
  7.1112   7.1473   7.2940   7.3137   7.3387   7.3553   7.3645   7.3832
  7.3906   7.4115   7.4416   7.4538   7.4741   7.5062   7.5634   7.6466
  7.6582   7.7180   7.7283   7.7961   7.8601   7.9179   7.9797   8.2678
 24.3998  24.7031  24.7868  24.8034  24.8599  24.8866  25.2613  50.5446
 50.6077  50.6230  50.6828  50.6948
 
 Beta MOs
 -- Occupied --
-19.4080 -19.4072 -19.3714 -19.3496 -19.3481 -10.4158 -10.4130 -10.4113
-10.4083 -10.3957 -10.3546 -10.3510  -1.2787  -1.1776  -1.1639  -1.1245
 -1.0745  -0.9624  -0.8888  -0.8476  -0.7993  -0.7515  -0.7173  -0.6884
 -0.6582  -0.6387  -0.6123  -0.5989  -0.5827  -0.5642  -0.5589  -0.5379
 -0.5349  -0.5300  -0.5273  -0.4996  -0.4814  -0.4688  -0.4574  -0.4380
 -0.4133  -0.3968  -0.3821  -0.3677  -0.3632
 -- Virtual --
 -0.0608   0.0252   0.0342   0.0363   0.0434   0.0538   0.0549   0.0569
  0.0730   0.0746   0.0857   0.0890   0.0895   0.1089   0.1193   0.1257
  0.1306   0.1322   0.1398   0.1472   0.1515   0.1555   0.1560   0.1600
  0.1662   0.1693   0.1707   0.1755   0.1851   0.1901   0.1970   0.2015
  0.2061   0.2130   0.2159   0.2199   0.2250   0.2373   0.2448   0.2511
  0.2671   0.2748   0.2779   0.2827   0.2895   0.2973   0.3086   0.3133
  0.3183   0.3195   0.3232   0.3383   0.3397   0.3429   0.3504   0.3544
  0.3581   0.3681   0.3716   0.3750   0.3777   0.3827   0.3873   0.3946
  0.3987   0.4036   0.4128   0.4181   0.4220   0.4249   0.4334   0.4491
  0.4514   0.4607   0.4743   0.4808   0.4879   0.5125   0.5166   0.5222
  0.5272   0.5489   0.5662   0.5911   0.6033   0.6142   0.6232   0.6286
  0.6309   0.6542   0.6594   0.6620   0.6686   0.6826   0.6845   0.6943
  0.6974   0.7029   0.7179   0.7249   0.7271   0.7382   0.7454   0.7543
  0.7656   0.7720   0.7844   0.7959   0.8063   0.8143   0.8389   0.8620
  0.8687   0.8790   0.8890   0.9065   0.9133   0.9401   0.9540   0.9645
  0.9930   1.0085   1.0227   1.0422   1.0524   1.0675   1.0736   1.0800
  1.0969   1.1156   1.1240   1.1372   1.1512   1.1606   1.1635   1.1677
  1.1845   1.2007   1.2085   1.2118   1.2176   1.2336   1.2452   1.2579
  1.2668   1.2719   1.2765   1.2813   1.2867   1.3042   1.3183   1.3189
  1.3224   1.3357   1.3515   1.3601   1.3685   1.3748   1.3806   1.3972
  1.4045   1.4198   1.4268   1.4357   1.4475   1.4618   1.4672   1.4825
  1.4884   1.5013   1.5137   1.5178   1.5325   1.5446   1.5622   1.5796
  1.5809   1.5911   1.5982   1.6098   1.6306   1.6415   1.6671   1.6785
  1.6916   1.7078   1.7188   1.7525   1.7668   1.7778   1.7886   1.7976
  1.8428   1.8534   1.8861   1.8939   1.9123   1.9218   1.9479   1.9696
  1.9888   2.0045   2.0359   2.0484   2.0637   2.0864   2.1121   2.1302
  2.1579   2.1858   2.1985   2.2321   2.2599   2.2840   2.3262   2.3460
  2.3689   2.3986   2.4327   2.4350   2.4737   2.4928   2.5180   2.5416
  2.6581   2.6835   2.6976   2.7232   2.7457   2.7643   2.7966   2.8078
  2.8382   2.8507   2.8600   2.8789   2.8910   2.8988   2.9097   2.9314
  2.9390   2.9547   2.9746   2.9862   2.9980   3.0280   3.0358   3.0498
  3.0603   3.1041   3.1238   3.1409   3.1435   3.1641   3.1947   3.2110
  3.2322   3.2450   3.2653   3.2795   3.3124   3.3165   3.3438   3.3544
  3.3638   3.3909   3.4000   3.4219   3.4569   3.4636   3.4712   3.4869
  3.4985   3.5325   3.5396   3.5677   3.5734   3.5945   3.5984   3.6314
  3.6408   3.6469   3.6470   3.6685   3.6859   3.6992   3.7224   3.7301
  3.7401   3.7597   3.7655   3.7760   3.7952   3.8130   3.8314   3.8530
  3.8577   3.8639   3.8800   3.8937   3.9023   3.9182   3.9277   3.9390
  3.9513   3.9651   3.9728   4.0011   4.0041   4.0341   4.0508   4.0620
  4.0940   4.1082   4.1142   4.1455   4.1765   4.1971   4.1993   4.2222
  4.2441   4.2789   4.2944   4.3059   4.3212   4.3460   4.3549   4.3719
  4.3949   4.4022   4.4111   4.4223   4.4275   4.4507   4.4762   4.4858
  4.5052   4.5188   4.5324   4.5529   4.5815   4.6029   4.6330   4.6506
  4.6550   4.6882   4.7009   4.7247   4.7349   4.7614   4.7884   4.8199
  4.8363   4.8984   4.9732   4.9919   5.0491   5.1076   5.1191   5.1882
  5.1997   5.2258   5.2692   5.2816   5.2896   5.3021   5.3109   5.3180
  5.3317   5.3417   5.3490   5.3665   5.4009   5.4110   5.4185   5.4291
  5.4444   5.4573   5.4918   5.5023   5.5143   5.5302   5.5493   5.5750
  5.5921   5.6002   5.6257   5.6363   5.6550   5.6805   5.7030   5.7363
  5.7538   5.7671   5.7832   5.8105   5.8336   5.9020   5.9123   5.9777
  5.9881   6.0079   6.0372   6.0506   6.0808   6.0971   6.1566   6.2802
  6.6142   6.6457   6.6871   6.7444   6.7623   6.8164   7.0095   7.0450
  7.0588   7.1126   7.1499   7.2953   7.3140   7.3392   7.3588   7.3840
  7.4081   7.4135   7.4366   7.4489   7.4691   7.4858   7.5089   7.5639
  7.6469   7.6583   7.7236   7.7689   7.7969   7.8614   7.9185   7.9797
  8.2679  24.3999  24.7034  24.7868  24.8032  24.8599  24.8868  25.2615
 50.5598  50.6080  50.6230  50.6831  50.6951
 --------------------------------------------------------------
 
          Ground-State Mulliken Net Atomic Charges

     Atom                 Charge (a.u.)    Spin (a.u.)
  --------------------------------------------------------
      1 C                    -0.152767       0.011050
      2 C                    -0.062098      -0.000992
      3 C                    -0.474502       0.040987
      4 C                    -0.087272      -0.010668
      5 C                    -0.401973       0.007593
      6 C                     0.116968      -0.008303
      7 C                    -0.393063       0.001591
      8 H                     0.323934       0.003101
      9 H                     0.289823      -0.001668
     10 H                     0.291170       0.090796
     11 H                     0.304042      -0.001248
     12 H                     0.313554       0.002389
     13 H                     0.252793       0.000066
     14 O                    -0.377968       0.000069
     15 H                     0.243710      -0.000008
     16 H                     0.327468       0.000027
     17 O                    -0.404373       0.005834
     18 H                     0.342567       0.000671
     19 O                    -0.112149       0.001183
     20 O                    -0.132576      -0.000504
     21 O                    -0.207288       0.858037
  --------------------------------------------------------
  Sum of atomic charges =    -0.000000
  Sum of spin   charges =     1.000000

 -----------------------------------------------------------------
                    Cartesian Multipole Moments
 -----------------------------------------------------------------
    Charge (ESU x 10^10)
                 0.0000
    Dipole Moment (Debye)
         X      -1.4912      Y       1.7424      Z      -3.3853
       Tot       4.0890
    Quadrupole Moments (Debye-Ang)
        XX     -73.3326     XY       8.0715     YY     -78.9753
        XZ       7.8279     YZ      -1.4237     ZZ     -62.4828
    Octopole Moments (Debye-Ang^2)
       XXX     205.1423    XXY      16.6317    XYY      43.0746
       YYY     148.3813    XXZ     -38.0293    XYZ      17.6284
       YYZ     -23.9411    XZZ      61.4194    YZZ      24.3086
       ZZZ     -78.4696
    Hexadecapole Moments (Debye-Ang^3)
      XXXX    -879.2399   XXXY     -85.3749   XXYY    -267.2123
      XYYY     -87.3231   YYYY   -1179.1488   XXXZ     147.5170
      XXYZ      38.2474   XYYZ      30.6473   YYYZ     197.9660
      XXZZ    -257.1949   XYZZ     -28.8490   YYZZ    -286.9737
      XZZZ     148.2951   YZZZ     143.7990   ZZZZ    -613.1827
 -----------------------------------------------------------------
 Calculating analytic gradient of the SCF energy
 Gradient of CDS energy
            1           2           3           4           5           6
    1   0.0015660  -0.0000676   0.0049347  -0.0001883  -0.0002263   0.0000525
    2  -0.0012930   0.0000999  -0.0056560  -0.0002524   0.0001198   0.0000662
    3  -0.0010020   0.0001823   0.0000192  -0.0001579  -0.0001473   0.0001545
            7           8           9          10          11          12
    1   0.0001130  -0.0000358   0.0000744  -0.0001591  -0.0000983  -0.0000500
    2   0.0009942   0.0002085  -0.0000718  -0.0000603  -0.0001493   0.0000829
[...]
    3   0.0025026   0.0025523   0.0047935   0.0037396  -0.0035497  -0.0135009
           13          14          15          16          17          18
    1  -0.0088751   0.0085420   0.0023360  -0.0093800   0.0006126   0.0007800
    2   0.0035007   0.0150178   0.0061324  -0.0102669  -0.0090026   0.0047885
    3  -0.0073860   0.0142724   0.0049956  -0.0136796   0.0061221  -0.0066553
           19          20          21
    1  -0.0026540  -0.0008572   0.0023422
    2   0.0022568   0.0008508  -0.0011251
    3   0.0010769   0.0015195  -0.0005669
 Max gradient component =       1.684E-02
 RMS gradient           =       6.311E-03
 Computing fast CPCM-SWIG gradient
 Updating gradient with PCM contributions...
 -- total gradient after adding PCM contribution --
---------------------------------------------------
  Atom         X              Y              Z     
---------------------------------------------------
   1      -0.000013       0.000006      -0.000040
   2      -0.000012      -0.000052       0.000007
   3       0.000040       0.000024      -0.000022
   4      -0.000006      -0.000001       0.000009
   5      -0.000008      -0.000009      -0.000006
   6       0.000056       0.000018       0.000000
   7       0.000040      -0.000024      -0.000048
   8       0.000008      -0.000004       0.000024
   9      -0.000000      -0.000009       0.000007
  10      -0.000028      -0.000006       0.000017
  11       0.000003      -0.000003      -0.000015
  12      -0.000001       0.000004      -0.000010
  13      -0.000007       0.000017      -0.000001
  14      -0.000014       0.000035       0.000048
  15       0.000006       0.000008       0.000014
  16      -0.000008      -0.000024      -0.000033
  17       0.000006      -0.000017       0.000073
  18      -0.000014       0.000015      -0.000041
  19       0.000001       0.000044      -0.000045
  20      -0.000020      -0.000035       0.000064
  21      -0.000028       0.000012      -0.000003
---------------------------------------------------
 Number of fixed atoms: 0
 Gradient time:  CPU 633.68 s  wall 49.12 s
 Geometry Optimization Parameters
   NAtoms,    NIC,     NZ,  NCons,   NDum,   NFix, NCnnct, MaxDiis
       21     169       0       0       0       0       0       0

 Cartesian Hessian Update
 Hessian updated using BFGS update


** GEOMETRY OPTIMIZATION IN DELOCALIZED INTERNAL COORDINATES **
   Searching for a Minimum

   Optimization Cycle:   6

                       Coordinates (Angstroms)
     ATOM                X               Y               Z
      1  C        -0.0112338406   -0.2044571578    0.7943742310
      2  C        -0.8709735290   -0.9833205214    1.7745707659
      3  C        -1.4369571481   -2.2370319746    1.0856013841
      4  C        -2.0180241893   -1.9197745827   -0.2687287740
      5  C        -1.8740873604   -0.7144528704   -0.8014294379
      6  C        -1.1526321212    0.3755764296   -0.0469267503
      7  C        -0.7125435276    1.5399599338   -0.9180948532
      8  H         0.5063594358    0.6107965497    1.3039443737
      9  H        -0.3817733902   -1.2311748197    2.7129706341
     10  H        -2.2377737209   -2.6211108190    1.7495963791
     11  H        -2.5432232216   -2.7154892667   -0.7806317156
     12  H        -2.2902891792   -0.4716493781   -1.7721848746
     13  H        -1.5569794046    1.9509285293   -1.4719372775
     14  O         0.3163577727    1.1021630864   -1.8015854543
     15  H        -0.2870042880    2.3170427906   -0.2868202758
     16  H        -0.0882818083    0.6407612684   -2.5447374248
     17  O         0.8881125400   -1.0441033409    0.1120683293
     18  H         1.1597752464   -0.5683319492   -0.6858020709
     19  O        -1.9370901837   -0.0775912384    2.0694278129
     20  O        -1.9914976436    0.9046110604    0.9865002998
     21  O        -0.5408477387   -3.2811057300    1.0637294989
   Point Group: c1    Number of degrees of freedom:    57


   Energy is   -648.110808755

 Hessian updated using BFGS update

 57 Hessian modes will be used to form the next step
  Hessian Eigenvalues:
     0.004553    0.006271    0.008571    0.012283    0.013370    0.014168
     0.019557    0.019727    0.027284    0.038042    0.045042    0.046901
     0.053550    0.055714    0.056566    0.058823    0.061874    0.068553
     0.071524    0.081996    0.093207    0.097247    0.105053    0.109957
     0.114488    0.138610    0.146072    0.156095    0.159491    0.159844
     0.162089    0.182199    0.193231    0.216378    0.239546    0.260722
     0.272058    0.274781    0.294658    0.303024    0.312318    0.319786
     0.326212    0.340098    0.342877    0.345463    0.346843    0.350671
     0.354906    0.363692    0.396876    0.416749    0.442816    0.495705
     0.514853    0.531179    0.571094

 Minimum search - taking simple RFO step
 Searching for Lamda that Minimizes Along All modes
 Value Taken    Lamda =  -0.00000022
 Step Taken.  Stepsize is  0.005183

                             Maximum     Tolerance    Cnvgd?
         Gradient           0.000055      0.000300     YES
         Displacement       0.001775      0.001200      NO
         Energy change     -0.000000      0.000001     YES

 Final energy is   -648.110808754559     


 ******************************
 **  OPTIMIZATION CONVERGED  **
 ******************************

                       Coordinates (Angstroms)
     ATOM                X               Y               Z
      1  C        -0.0112338406   -0.2044571578    0.7943742310
      2  C        -0.8709735290   -0.9833205214    1.7745707659
      3  C        -1.4369571481   -2.2370319746    1.0856013841
      4  C        -2.0180241893   -1.9197745827   -0.2687287740
      5  C        -1.8740873604   -0.7144528704   -0.8014294379
      6  C        -1.1526321212    0.3755764296   -0.0469267503
      7  C        -0.7125435276    1.5399599338   -0.9180948532
      8  H         0.5063594358    0.6107965497    1.3039443737
      9  H        -0.3817733902   -1.2311748197    2.7129706341
     10  H        -2.2377737209   -2.6211108190    1.7495963791
     11  H        -2.5432232216   -2.7154892667   -0.7806317156
     12  H        -2.2902891792   -0.4716493781   -1.7721848746
     13  H        -1.5569794046    1.9509285293   -1.4719372775
     14  O         0.3163577727    1.1021630864   -1.8015854543
     15  H        -0.2870042880    2.3170427906   -0.2868202758
     16  H        -0.0882818083    0.6407612684   -2.5447374248
     17  O         0.8881125400   -1.0441033409    0.1120683293
     18  H         1.1597752464   -0.5683319492   -0.6858020709
     19  O        -1.9370901837   -0.0775912384    2.0694278129
     20  O        -1.9914976436    0.9046110604    0.9865002998
     21  O        -0.5408477387   -3.2811057300    1.0637294989

Z-matrix Print:
$molecule
0 2
O 
C  1 1.432321
O  1 1.463015 2 105.326051
C  3 1.429647 1 107.481342 2 12.250534 0
H  4 1.086896 3 107.580414 1 142.170449 0
C  2 1.509283 1 110.333484 3 77.943314 0
H  6 1.083764 2 118.005081 1 102.234761 0
C  6 1.325627 2 120.509967 1 -76.097302 0
H  8 1.082146 6 122.085538 2 179.074213 0
C  8 1.507482 6 120.698822 2 -1.461819 0
H  10 1.108924 8 109.419042 6 124.919903 0
O  10 1.376074 8 113.354012 6 -121.324232 0
C  4 1.518738 3 103.317994 1 20.361426 0
H  13 1.091881 4 110.490620 3 71.023266 0
O  13 1.406901 4 111.641850 3 -164.088921 0
H  15 0.967862 13 106.609359 4 160.113975 0
C  2 1.519342 1 107.474405 3 -157.319372 0
H  17 1.087864 2 109.148169 1 52.228904 0
H  17 1.090279 2 110.842597 1 -68.053772 0
O  17 1.425082 2 109.218358 1 169.212758 0
H  20 0.963794 17 108.782652 2 80.186949 0
$end

 
 --------------------------------------------------------------
 
                    Orbital Energies (a.u.)
 --------------------------------------------------------------
 
 Alpha MOs
 -- Occupied --
-19.4080 -19.4071 -19.3938 -19.3494 -19.3487 -10.4159 -10.4129 -10.4119
-10.4085 -10.3958 -10.3551 -10.3510  -1.2788  -1.1808  -1.1716  -1.1625
 -1.0750  -0.9661  -0.8897  -0.8511  -0.8066  -0.7519  -0.7204  -0.6901
 -0.6640  -0.6427  -0.6146  -0.6088  -0.5868  -0.5749  -0.5657  -0.5524
 -0.5403  -0.5351  -0.5293  -0.5024  -0.4967  -0.4741  -0.4644  -0.4431
 -0.4385  -0.4132  -0.3967  -0.3858  -0.3696  -0.3640
 -- Virtual --
  0.0250   0.0340   0.0362   0.0431   0.0536   0.0548   0.0568   0.0724
  0.0743   0.0849   0.0891   0.0893   0.1078   0.1191   0.1250   0.1304
  0.1321   0.1386   0.1455   0.1510   0.1553   0.1554   0.1598   0.1656
  0.1689   0.1702   0.1755   0.1853   0.1899   0.1968   0.2011   0.2058
  0.2129   0.2156   0.2192   0.2248   0.2357   0.2443   0.2509   0.2665
  0.2735   0.2773   0.2821   0.2889   0.2957   0.3061   0.3124   0.3172
  0.3187   0.3200   0.3371   0.3390   0.3425   0.3458   0.3529   0.3567
  0.3676   0.3708   0.3745   0.3754   0.3819   0.3853   0.3938   0.3977
  0.4027   0.4109   0.4157   0.4218   0.4234   0.4324   0.4483   0.4497
  0.4584   0.4730   0.4801   0.4867   0.5111   0.5151   0.5213   0.5270
  0.5477   0.5656   0.5907   0.6025   0.6137   0.6205   0.6256   0.6303
  0.6529   0.6572   0.6610   0.6678   0.6811   0.6833   0.6917   0.6933
  0.7018   0.7171   0.7245   0.7258   0.7368   0.7441   0.7531   0.7647
  0.7717   0.7835   0.7956   0.8058   0.8137   0.8378   0.8612   0.8671
  0.8787   0.8885   0.9050   0.9118   0.9390   0.9532   0.9642   0.9902
  1.0067   1.0217   1.0421   1.0505   1.0651   1.0725   1.0794   1.0963
  1.1148   1.1237   1.1359   1.1483   1.1586   1.1627   1.1652   1.1809
  1.1971   1.2060   1.2087   1.2150   1.2238   1.2388   1.2549   1.2636
  1.2688   1.2759   1.2790   1.2838   1.2998   1.3122   1.3173   1.3210
  1.3334   1.3470   1.3595   1.3675   1.3720   1.3803   1.3955   1.4038
  1.4180   1.4230   1.4340   1.4447   1.4563   1.4661   1.4807   1.4855
  1.4992   1.5112   1.5140   1.5299   1.5427   1.5584   1.5773   1.5781
  1.5904   1.5968   1.6081   1.6205   1.6399   1.6662   1.6762   1.6874
  1.7053   1.7137   1.7484   1.7622   1.7749   1.7858   1.7952   1.8336
  1.8463   1.8722   1.8905   1.9061   1.9165   1.9393   1.9641   1.9855
  2.0028   2.0320   2.0446   2.0571   2.0855   2.1052   2.1295   2.1538
  2.1841   2.1968   2.2287   2.2563   2.2810   2.3241   2.3409   2.3629
  2.3974   2.4264   2.4326   2.4719   2.4881   2.5130   2.5402   2.6568
  2.6737   2.6971   2.7229   2.7451   2.7625   2.7938   2.8071   2.8366
  2.8488   2.8560   2.8790   2.8894   2.8981   2.9085   2.9295   2.9370
  2.9515   2.9710   2.9843   2.9961   3.0271   3.0339   3.0479   3.0587
  3.1029   3.1219   3.1384   3.1419   3.1632   3.1933   3.2100   3.2305
  3.2441   3.2643   3.2779   3.3118   3.3153   3.3413   3.3520   3.3627
  3.3897   3.3980   3.4205   3.4563   3.4617   3.4699   3.4838   3.4971
  3.5305   3.5370   3.5664   3.5709   3.5924   3.5963   3.6289   3.6405
  3.6458   3.6464   3.6667   3.6846   3.6964   3.7203   3.7303   3.7381
  3.7583   3.7643   3.7752   3.7933   3.8111   3.8297   3.8511   3.8560
  3.8600   3.8798   3.8931   3.9001   3.9162   3.9263   3.9375   3.9490
  3.9626   3.9700   3.9990   4.0026   4.0300   4.0478   4.0599   4.0910
  4.1063   4.1123   4.1429   4.1742   4.1942   4.1965   4.2185   4.2416
  4.2756   4.2915   4.3046   4.3185   4.3429   4.3513   4.3684   4.3893
  4.3993   4.4084   4.4192   4.4209   4.4483   4.4736   4.4817   4.5027
  4.5171   4.5274   4.5453   4.5786   4.5980   4.6305   4.6478   4.6512
  4.6858   4.6998   4.7240   4.7319   4.7591   4.7851   4.8162   4.8330
  4.8948   4.9679   4.9868   5.0459   5.0928   5.1072   5.1307   5.1454
  5.2130   5.2219   5.2674   5.2837   5.2956   5.2991   5.3140   5.3160
  5.3283   5.3383   5.3589   5.3800   5.3910   5.4027   5.4173   5.4419
  5.4541   5.4722   5.4886   5.5099   5.5277   5.5450   5.5553   5.5824
  5.5961   5.6231   5.6337   5.6503   5.6790   5.7011   5.7350   5.7515
  5.7647   5.7795   5.8063   5.8314   5.8993   5.9114   5.9466   5.9788
  6.0034   6.0336   6.0494   6.0764   6.0925   6.1505   6.2809   6.6131
  6.6442   6.6846   6.7332   6.7626   6.8067   6.9060   6.9547   7.0452
  7.1121   7.1472   7.2935   7.3126   7.3362   7.3550   7.3642   7.3841
  7.3890   7.4109   7.4394   7.4539   7.4730   7.5062   7.5631   7.6464
  7.6585   7.7184   7.7280   7.7956   7.8601   7.9185   7.9798   8.2675
 24.3990  24.7018  24.7850  24.8038  24.8570  24.8851  25.2591  50.5454
 50.6078  50.6222  50.6822  50.6938
 
 Beta MOs
 -- Occupied --
-19.4080 -19.4071 -19.3713 -19.3494 -19.3483 -10.4159 -10.4132 -10.4113
-10.4084 -10.3958 -10.3547 -10.3510  -1.2787  -1.1774  -1.1639  -1.1252
 -1.0741  -0.9623  -0.8886  -0.8475  -0.7991  -0.7513  -0.7171  -0.6884
 -0.6578  -0.6387  -0.6121  -0.5988  -0.5828  -0.5644  -0.5589  -0.5378
 -0.5348  -0.5301  -0.5271  -0.4996  -0.4814  -0.4687  -0.4572  -0.4380
 -0.4135  -0.3967  -0.3819  -0.3676  -0.3630
 -- Virtual --
 -0.0610   0.0252   0.0342   0.0363   0.0434   0.0539   0.0549   0.0569
  0.0729   0.0745   0.0857   0.0892   0.0896   0.1089   0.1194   0.1256
  0.1306   0.1323   0.1397   0.1472   0.1515   0.1554   0.1561   0.1600
  0.1661   0.1693   0.1706   0.1755   0.1852   0.1901   0.1970   0.2014
  0.2061   0.2132   0.2159   0.2198   0.2250   0.2371   0.2446   0.2512
  0.2670   0.2748   0.2779   0.2827   0.2893   0.2972   0.3085   0.3128
  0.3183   0.3193   0.3228   0.3382   0.3396   0.3429   0.3505   0.3543
  0.3584   0.3680   0.3715   0.3749   0.3776   0.3825   0.3869   0.3944
  0.3988   0.4035   0.4128   0.4177   0.4221   0.4247   0.4333   0.4490
  0.4513   0.4607   0.4745   0.4807   0.4873   0.5122   0.5166   0.5223
  0.5274   0.5485   0.5664   0.5910   0.6032   0.6144   0.6230   0.6285
  0.6309   0.6535   0.6591   0.6616   0.6687   0.6827   0.6843   0.6940
  0.6970   0.7026   0.7181   0.7249   0.7267   0.7380   0.7447   0.7541
  0.7650   0.7720   0.7848   0.7962   0.8067   0.8144   0.8389   0.8618
  0.8677   0.8790   0.8889   0.9065   0.9123   0.9395   0.9538   0.9644
  0.9925   1.0083   1.0227   1.0424   1.0510   1.0662   1.0731   1.0803
  1.0971   1.1157   1.1244   1.1370   1.1506   1.1605   1.1635   1.1677
  1.1841   1.2004   1.2085   1.2120   1.2174   1.2338   1.2446   1.2580
  1.2658   1.2714   1.2766   1.2813   1.2859   1.3037   1.3172   1.3191
  1.3225   1.3357   1.3511   1.3602   1.3684   1.3745   1.3808   1.3971
  1.4045   1.4200   1.4268   1.4347   1.4469   1.4613   1.4669   1.4827
  1.4884   1.5003   1.5138   1.5181   1.5325   1.5439   1.5616   1.5790
  1.5817   1.5911   1.5985   1.6093   1.6297   1.6405   1.6671   1.6776
  1.6921   1.7077   1.7175   1.7514   1.7661   1.7765   1.7881   1.7977
  1.8428   1.8530   1.8859   1.8938   1.9112   1.9221   1.9473   1.9691
  1.9889   2.0044   2.0338   2.0468   2.0647   2.0865   2.1120   2.1297
  2.1574   2.1849   2.1985   2.2324   2.2599   2.2828   2.3262   2.3457
  2.3681   2.3981   2.4330   2.4347   2.4738   2.4936   2.5178   2.5411
  2.6575   2.6828   2.6983   2.7234   2.7457   2.7634   2.7956   2.8080
  2.8375   2.8503   2.8590   2.8795   2.8904   2.8986   2.9093   2.9301
  2.9385   2.9544   2.9741   2.9865   2.9972   3.0276   3.0345   3.0487
  3.0601   3.1039   3.1235   3.1393   3.1425   3.1646   3.1946   3.2104
  3.2315   3.2445   3.2649   3.2787   3.3124   3.3162   3.3433   3.3541
  3.3629   3.3905   3.3997   3.4216   3.4571   3.4628   3.4712   3.4861
  3.4982   3.5317   3.5392   3.5671   3.5720   3.5938   3.5981   3.6316
  3.6410   3.6464   3.6468   3.6676   3.6859   3.6989   3.7217   3.7307
  3.7392   3.7596   3.7656   3.7765   3.7947   3.8121   3.8302   3.8525
  3.8577   3.8622   3.8806   3.8937   3.9014   3.9174   3.9278   3.9391
  3.9498   3.9645   3.9719   4.0003   4.0033   4.0332   4.0504   4.0616
  4.0926   4.1074   4.1131   4.1448   4.1747   4.1958   4.1982   4.2222
  4.2430   4.2773   4.2943   4.3054   4.3202   4.3451   4.3539   4.3705
  4.3936   4.4007   4.4099   4.4219   4.4266   4.4493   4.4754   4.4846
  4.5037   4.5183   4.5315   4.5523   4.5804   4.6021   4.6314   4.6495
  4.6538   4.6874   4.7002   4.7245   4.7339   4.7605   4.7874   4.8189
  4.8351   4.8970   4.9712   4.9901   5.0481   5.1071   5.1176   5.1879
  5.1994   5.2249   5.2686   5.2823   5.2897   5.3024   5.3107   5.3175
  5.3323   5.3400   5.3490   5.3659   5.4012   5.4104   5.4183   5.4292
  5.4433   5.4569   5.4927   5.5014   5.5132   5.5291   5.5481   5.5752
  5.5912   5.5990   5.6254   5.6350   5.6538   5.6800   5.7013   5.7363
  5.7524   5.7671   5.7817   5.8090   5.8323   5.9021   5.9131   5.9769
  5.9881   6.0076   6.0377   6.0503   6.0823   6.0995   6.1572   6.2813
  6.6133   6.6461   6.6849   6.7460   6.7636   6.8205   7.0097   7.0450
  7.0586   7.1134   7.1499   7.2948   7.3128   7.3368   7.3581   7.3813
  7.4084   7.4136   7.4349   7.4482   7.4696   7.4851   7.5091   7.5635
  7.6467   7.6586   7.7234   7.7692   7.7964   7.8613   7.9191   7.9799
  8.2675  24.3991  24.7021  24.7850  24.8036  24.8571  24.8853  25.2593
 50.5605  50.6081  50.6222  50.6824  50.6942
 --------------------------------------------------------------
 
          Ground-State Mulliken Net Atomic Charges

     Atom                 Charge (a.u.)    Spin (a.u.)
  --------------------------------------------------------
      1 C                    -0.154900       0.010799
      2 C                    -0.062040      -0.001353
      3 C                    -0.475071       0.042437
      4 C                    -0.080768      -0.011207
      5 C                    -0.412557       0.008085
      6 C                     0.125359      -0.008393
      7 C                    -0.393130       0.001591
      8 H                     0.323741       0.003103
      9 H                     0.289743      -0.001664
     10 H                     0.291001       0.092278
     11 H                     0.303867      -0.001249
     12 H                     0.312982       0.002417
     13 H                     0.252473       0.000059
     14 O                    -0.378604       0.000060
     15 H                     0.243469      -0.000006
     16 H                     0.328291       0.000025
     17 O                    -0.403814       0.005589
     18 H                     0.342808       0.000689
     19 O                    -0.112180       0.001140
     20 O                    -0.132388      -0.000502
     21 O                    -0.208282       0.856100
  --------------------------------------------------------
  Sum of atomic charges =     0.000000
  Sum of spin   charges =     1.000000

 -----------------------------------------------------------------
                    Cartesian Multipole Moments
 -----------------------------------------------------------------
    Charge (ESU x 10^10)
                 0.0000
    Dipole Moment (Debye)
         X      -1.4536      Y       1.7675      Z      -3.3912
       Tot       4.0911
    Quadrupole Moments (Debye-Ang)
        XX     -73.2676     XY       8.0168     YY     -79.0837
        XZ       7.8476     YZ      -1.4152     ZZ     -62.4902
    Octopole Moments (Debye-Ang^2)
       XXX     205.3867    XXY      16.7169    XYY      43.3179
       YYY     148.9608    XXZ     -38.0119    XYZ      17.5966
       YYZ     -24.2162    XZZ      61.3669    YZZ      24.5393
       ZZZ     -78.7887
    Hexadecapole Moments (Debye-Ang^3)
      XXXX    -879.0991   XXXY     -85.9620   XXYY    -267.7019
      XYYY     -88.7522   YYYY   -1183.2318   XXXZ     147.0799
      XXYZ      38.3893   XYYZ      30.9515   YYYZ     199.8214
      XXZZ    -257.2971   XYZZ     -29.0543   YYZZ    -287.8374
      XZZZ     148.5649   YZZZ     144.2305   ZZZZ    -613.9519
 -----------------------------------------------------------------
 Total job time:  2261.49s(wall), 32659.08s(cpu) 
 Tue May 21 15:11:59 2024

        *************************************************************
        *                                                           *
        *  Thank you very much for using Q-Chem.  Have a nice day.  *
        *                                                           *
        *************************************************************


