
Running Job 1 of 1 Q_in.in
qchem Q_in.in_261273.0 /scratch/ari.fischer/qChem2294127.hpc-mn1/qchem261273/ 0
/usr/local/qchem-5.4.1/exe/qcprog.exe_s Q_in.in_261273.0 /scratch/ari.fischer/qChem2294127.hpc-mn1/qchem261273/
                  Welcome to Q-Chem
     A Quantum Leap Into The Future Of Chemistry


 Q-Chem 5.4, Q-Chem, Inc., Pleasanton, CA (2021)

 License issued to: Nanyang Technological University (site)

 E. Epifanovsky,  A. T. B. Gilbert,  Xintian Feng,  Joonho Lee,  Yuezhi Mao,  
 N. Mardirossian,  P. Pokhilko,  A. White,  M. Wormit,  M. P. Coons,  
 A. L. Dempwolff,  Zhengting Gan,  D. Hait,  P. R. Horn,  L. D. Jacobson,  
 I. Kaliman,  J. Kussmann,  A. W. Lange,  Ka Un Lao,  D. S. Levine,  Jie Liu,  
 S. C. McKenzie,  A. F. Morrison,  K. Nanda,  F. Plasser,  D. R. Rehn,  
 M. L. Vidal,  Zhi-Qiang You,  Ying Zhu,  B. Alam,  B. Albrecht,  
 A. Aldossary,  E. Alguire,  J. H. Andersen,  D. Barton,  K. Begam,  A. Behn,  
 Y. A. Bernard,  E. J. Berquist,  H. Burton,  A. Carreras,  K. Carter-Fenk,  
 R. Chakraborty,  A. D. Chien,  K. D. Closser,  V. Cofer-Shabica,  
 S. Dasgupta,  Jia Deng,  M. de Wergifosse,  M. Diedenhofen,  Hainam Do,  
 S. Ehlert,  Po-Tung Fang,  S. Fatehi,  Qingguo Feng,  T. Friedhoff,  
 J. Gayvert,  Qinghui Ge,  G. Gidofalvi,  M. Goldey,  J. Gomes,  
 C. Gonzalez-Espinoza,  S. Gulania,  A. Gunina,  M. W. D. Hanson-Heine,  
 P. H. P. Harbach,  A. W. Hauser,  M. F. Herbst,  M. Hernandez Vera,  
 M. Hodecker,  Z. C. Holden,  S. Houck,  Xunkun Huang,  Kerwin Hui,  
 B. C. Huynh,  M. Ivanov,  Hyunjun Ji,  Hanjie Jiang,  B. Kaduk,  S. Kaehler,  
 K. Khistyaev,  Jaehoon Kim,  P. Klunzinger,  Z. Koczor-Benda,  
 Joong Hoon Koh,  D. Kosenkov,  L. Koulias,  T. Kowalczyk,  C. M. Krauter,  
 K. Kue,  A. Kunitsa,  T. Kus,  A. Landau,  K. V. Lawler,  D. Lefrancois,  
 S. Lehtola,  Rain Li,  Yi-Pei Li,  Jiashu Liang,  M. Liebenthal,  
 Hung-Hsuan Lin,  You-Sheng Lin,  Fenglai Liu,  Kuan-Yu Liu,  
 M. Loipersberger,  A. Luenser,  A. Manjanath,  P. Manohar,  E. Mansoor,  
 S. F. Manzer,  Shan-Ping Mao,  A. V. Marenich,  T. Markovich,  S. Mason,  
 S. A. Maurer,  P. F. McLaughlin,  M. F. S. J. Menger,  J.-M. Mewes,  
 S. A. Mewes,  P. Morgante,  J. W. Mullinax,  K. J. Oosterbaan,  G. Paran,  
 Alexander C. Paul,  Suranjan K. Paul,  F. Pavosevic,  Zheng Pei,  S. Prager,  
 E. I. Proynov,  E. Ramos,  B. Rana,  A. E. Rask,  A. Rettig,  R. M. Richard,  
 F. Rob,  E. Rossomme,  T. Scheele,  M. Scheurer,  M. Schneider,  
 N. Sergueev,  S. M. Sharada,  W. Skomorowski,  D. W. Small,  C. J. Stein,  
 Yu-Chuan Su,  E. J. Sundstrom,  Zhen Tao,  J. Thirman,  T. Tsuchimochi,  
 N. M. Tubman,  S. P. Veccham,  O. Vydrov,  J. Wenzel,  J. Witte,  A. Yamada,  
 Kun Yao,  S. Yeganeh,  S. R. Yost,  A. Zech,  Igor Ying Zhang,  Xing Zhang,  
 Yu Zhang,  D. Zuev,  A. Aspuru-Guzik,  A. T. Bell,  N. A. Besley,  
 K. B. Bravaya,  B. R. Brooks,  D. Casanova,  Jeng-Da Chai,  S. Coriani,  
 C. J. Cramer,  A. E. DePrince, III,  R. A. DiStasio Jr.,  A. Dreuw,  
 B. D. Dunietz,  T. R. Furlani,  W. A. Goddard III,  S. Grimme,  
 S. Hammes-Schiffer,  T. Head-Gordon,  W. J. Hehre,  Chao-Ping Hsu,  
 T.-C. Jagau,  Yousung Jung,  A. Klamt,  Jing Kong,  D. S. Lambrecht,  
 WanZhen Liang,  N. J. Mayhall,  C. W. McCurdy,  J. B. Neaton,  
 C. Ochsenfeld,  J. A. Parkhill,  R. Peverati,  V. A. Rassolov,  Yihan Shao,  
 L. V. Slipchenko,  T. Stauch,  R. P. Steele,  J. E. Subotnik,  
 A. J. W. Thom,  A. Tkatchenko,  D. G. Truhlar,  T. Van Voorhis,  
 T. A. Wesolowski,  K. B. Whaley,  H. L. Woodcock III,  P. M. Zimmerman,  
 S. Faraji,  P. M. W. Gill,  M. Head-Gordon,  J. M. Herbert,  A. I. Krylov

 Additional authors for Version 5.4.1: 
 S. Kotaru,  Shaozhi Li,  Xiangyuan Li,  F. Matz,  A. Molle,  Haisheng Ren,  
 Yingli Su,  Hung-Yi Tsai,  C. Utku,  Fang Wang

 Contributors to earlier versions of Q-Chem not listed above: 
 R. D. Adamson,  B. Austin,  R. Baer,  J. Baker,  G. J. O. Beran,  
 K. Brandhorst,  S. T. Brown,  E. F. C. Byrd,  A. K. Chakraborty,  
 G. K. L. Chan,  Chun-Min Chang,  Yunqing Chen,  C.-L. Cheng,  
 Siu Hung Chien,  D. M. Chipman,  D. L. Crittenden,  H. Dachsel,  
 R. J. Doerksen,  A. D. Dutoi,  R. G. Edgar,  J. Fosso-Tande,  
 L. Fusti-Molnar,  D. Ghosh,  A. Ghysels,  A. Golubeva-Zadorozhnaya,  
 J. Gonthier,  M. S. Gordon,  S. R. Gwaltney,  G. Hawkins,  J. E. Herr,  
 A. Heyden,  S. Hirata,  E. G. Hohenstein,  G. Kedziora,  F. J. Keil,  
 C. Kelley,  Jihan Kim,  R. A. King,  R. Z. Khaliullin,  P. P. Korambath,  
 W. Kurlancheek,  A. Laurent,  A. M. Lee,  M. S. Lee,  S. V. Levchenko,  
 Ching Yeh Lin,  D. Liotard,  E. Livshits,  R. C. Lochan,  I. Lotan,  
 L. A. Martinez-Martinez,  P. E. Maslen,  N. Nair,  D. P. O'Neill,  
 D. Neuhauser,  E. Neuscamman,  C. M. Oana,  R. Olivares-Amaya,  R. Olson,  
 T. M. Perrine,  B. Peters,  P. A. Pieniazek,  A. Prociuk,  Y. M. Rhee,  
 J. Ritchie,  M. A. Rohrdanz,  E. Rosta,  N. J. Russ,  H. F. Schaefer III,  
 M. W. Schmidt,  N. E. Schultz,  S. Sharma,  N. Shenvi,  C. D. Sherrill,  
 A. C. Simmonett,  A. Sodt,  T. Stein,  D. Stuck,  K. S. Thanthiriwatte,  
 V. Vanovschi,  L. Vogt,  Tao Wang,  A. Warshel,  M. A. Watson,  
 C. F. Williams,  Q. Wu,  X. Xu,  Jun Yang,  W. Zhang,  Yan Zhao

 Please cite Q-Chem as follows:
 Y. Shao et al., Mol. Phys. 113, 184-215 (2015)
 DOI: 10.1080/00268976.2014.952696

 Q-Chem 5.4.1 for Intel X86 EM64T Linux

 Parts of Q-Chem use Armadillo 9.800.1 (Horizon Scraper).
 http://arma.sourceforge.net/

 Q-Chem begins on Wed Aug 21 16:50:33 2024  

 Host: 
0

     Scratch files written to /scratch/ari.fischer/qChem2294127.hpc-mn1/qchem261273//
 Aug1521 |scratch|qcdevops|jenkins|workspace|build_RNUM 8249   
 Processing $rem in /usr/local/qchem-5.4.1/config/preferences:
 Processing $rem in /home/ari.fischer/.qchemrc:
 Symmetry turned off for PCM/SM12/SMD calculation


!!********************************************.
!!******************Warning*******************.
!!Desired Analytical derivatives not available.
!!Finite difference job might take a long time.
!!********************************************.
!!********************************************.


 2-order derivative to be evaluated numerically with 1-order analytical derivatives

 Checking the input file for inconsistencies... 	...done.

--------------------------------------------------------------
User input:
--------------------------------------------------------------
$molecule
0 2
C    1.0505187    0.0607743    0.3443880
O    0.7716834   -1.3096786    0.5288867
C    2.5783461    0.3329543    0.3049672
O    3.1064437   -0.4340924   -0.7399411
O    2.7759734    1.6713104    0.1805999
C    3.1891171    0.0427280    1.6863497
C    4.4732480   -0.0269614    2.0232628
C    5.6386715    0.1603453    1.1344953
O    6.7701977    0.2367645    1.8336242
O    5.6226180    0.2397308   -0.0809897
H    0.6146680    0.6757433    1.1292332
H    0.6467938    0.3546307   -0.6213279
H    0.8108601   -1.5157689    1.4692089
H    2.4558458   -0.0666340    2.4757547
H    4.7220325   -0.2275540    3.0562382
H    7.5112515    0.3661001    1.2200749
H    4.0714626   -0.2873870   -0.7385293
$end

$rem
BASIS = 6-311++G(2df,2p)
GUI = 2
JOB_TYPE = Frequency
METHOD = wB97M-V
SOLVENT_METHOD = SMD
SCF_ALGORITHM = DIIS_GDM
MAX_SCF_CYCLES = 400
SCF_CONVERGENCE = 7
THRESH = 12
$end
--------------------------------------------------------------
 ----------------------------------------------------------------
             Standard Nuclear Orientation (Angstroms)
    I     Atom           X                Y                Z
 ----------------------------------------------------------------
    1      C       1.0505187000     0.0607743000     0.3443880000
    2      O       0.7716834000    -1.3096786000     0.5288867000
    3      C       2.5783461000     0.3329543000     0.3049672000
    4      O       3.1064437000    -0.4340924000    -0.7399411000
    5      O       2.7759734000     1.6713104000     0.1805999000
    6      C       3.1891171000     0.0427280000     1.6863497000
    7      C       4.4732480000    -0.0269614000     2.0232628000
    8      C       5.6386715000     0.1603453000     1.1344953000
    9      O       6.7701977000     0.2367645000     1.8336242000
   10      O       5.6226180000     0.2397308000    -0.0809897000
   11      H       0.6146680000     0.6757433000     1.1292332000
   12      H       0.6467938000     0.3546307000    -0.6213279000
   13      H       0.8108601000    -1.5157689000     1.4692089000
   14      H       2.4558458000    -0.0666340000     2.4757547000
   15      H       4.7220325000    -0.2275540000     3.0562382000
   16      H       7.5112515000     0.3661001000     1.2200749000
   17      H       4.0714626000    -0.2873870000    -0.7385293000
 ----------------------------------------------------------------
 Nuclear Repulsion Energy =         552.47888297 hartrees
 There are       39 alpha and       38 beta electrons
 Requested basis set is 6-311++G(2df,2p)
 There are 122 shells and 410 basis functions

 Total QAlloc Memory Limit 288000 MB
 Mega-Array Size       188 MB
 MEM_STATIC part       192 MB
 
 Citation of the SMD model:
 Marenich, A.V.; Cramer, C.J.; Truhlar, D.G.
 J. Phys. Chem. B 2009, 113, 6378-6396.
 iSolventCode=           1
 Solvent: water                                                           
 
 vradii
            1           2           3           4           5           6
    1   1.8500000   1.5200000   1.8500000   1.5200000   1.5200000   1.8500000
            7           8           9          10          11          12
    1   1.8500000   1.8500000   1.5200000   1.5200000   1.2000000   1.2000000
           13          14          15          16          17
    1   1.2000000   1.2000000   1.2000000   1.2000000   1.2000000
 Changing PCM_VDW_RADII to SMD_RADIUS
 Discretize the solute cavity surface with Lebedev spheres
	Using 110 Lebedev grid points for each H atom
	Using 194 Lebedev grid points for other atoms
	Atomic van der Waals radii will be scaled by 1.20
 Remove points where switching function is < 1.0e-08
 Keep 1377 surface tesserae and discard 1333 interior tesserae
 Molecular Surface Area = 156.497 Angst**2
 A cutoff of  1.0D-12 yielded   6512 shell pairs
 There are     73744 function pairs (     92400 Cartesian)
 Smallest overlap matrix eigenvalue = 3.68E-06
 Guess from superposition of atomic densities
 Warning:  Energy on first SCF cycle will be non-variational
 SAD guess density has 77.000000 electrons

 -----------------------------------------------------------------------
  General SCF calculation program by
  Eric Jon Sundstrom, Paul Horn, Yuezhi Mao, Dmitri Zuev, Alec White,
  David Stuck, Shaama M.S., Shane Yost, Joonho Lee, David Small,
  Daniel Levine, Susi Lehtola, Hugh Burton, Evgeny Epifanovsky,
  Bang C. Huynh
 -----------------------------------------------------------------------
 Exchange:     0.1500 Hartree-Fock + 1.0000 wB97M-V + LR-HF
 Correlation:  1.0000 wB97M-V
 Using SG-2 standard quadrature grid
 Nonlocal Correlation:  VV10 with C = 0.0100 and b = 6.00 and scale = 1.00000
 Grid used for NLC:  SG-1 standard quadrature
 using 32 threads for integral computing
 -------------------------------------------------------
 OpenMP Integral computing Module                
 Release: version 1.0, May 2013, Q-Chem Inc. Pittsburgh 
 -------------------------------------------------------
 
 Citation of the SMD model:
 Marenich, A.V.; Cramer, C.J.; Truhlar, D.G.
 J. Phys. Chem. B 2009, 113, 6378-6396.
 iSolventCode=           1
 Solvent: water                                                           
 
 vradii
            1           2           3           4           5           6
    1   1.8500000   1.5200000   1.8500000   1.5200000   1.5200000   1.8500000
            7           8           9          10          11          12
    1   1.8500000   1.8500000   1.5200000   1.5200000   1.2000000   1.2000000
           13          14          15          16          17
    1   1.2000000   1.2000000   1.2000000   1.2000000   1.2000000
 -------------------------------------------------------
 OpenMP BLAS3 based DFT computing Module                
 Release: version 1.0, May 2013, Q-Chem Inc. Pittsburgh 
 -------------------------------------------------------
 A unrestricted SCF calculation will be
 performed using DIIS, GDM
 SCF converges when RMS gradient is below 1.0e-07
 ---------------------------------------
  Cycle       Energy         DIIS error
 ---------------------------------------
    1    -573.0277442480      1.26e-02  
    2    -570.5886847312      1.83e-03  Done DIIS. Switching to GDM
 ---------------------------------------
  Cycle       Energy        RMS Gradient
 ---------------------------------------
    1    -570.5886847312      1.56e-01   Descent step
    2    -570.7877965833      5.06e-02   Normal BFGS step
    3    -570.8251015191      5.37e-02   Normal BFGS step
    4    -570.8311406148      1.52e-02   Normal BFGS step
    5    -570.8354300339      1.40e-02   Normal BFGS step
    6    -570.8368216316      4.62e-03   Normal BFGS step
    7    -570.8370214090      2.65e-03   Normal BFGS step
    8    -570.8370687554      1.76e-03   Normal BFGS step
    9    -570.8370797267      1.35e-03   Normal BFGS step
   10    -570.8370907271      1.56e-03   Normal BFGS step
   11    -570.8371080856      1.52e-03   Normal BFGS step
   12    -570.8371191595      1.07e-03   Normal BFGS step
   13    -570.8371266715      9.29e-04   Normal BFGS step
   14    -570.8371297501      4.03e-04   Normal BFGS step
   15    -570.8371306273      1.96e-04   Normal BFGS step
   16    -570.8371309074      8.13e-05   Normal BFGS step
   17    -570.8371309877      3.89e-05   Normal BFGS step
   18    -570.8371309971      1.71e-05   Normal BFGS step
   19    -570.8371310004      8.06e-06   Normal BFGS step
   20    -570.8371310008      4.50e-06   Normal BFGS step
   21    -570.8371310009      1.42e-06   Normal BFGS step
   22    -570.8371310009      1.02e-06   Normal BFGS step
   23    -570.8371310009      1.03e-06   Normal BFGS step
   24    -570.8371310009      5.51e-07   Normal BFGS step
   25    -570.8371310009      1.56e-07   Normal BFGS step
   26    -570.8371310010      4.95e-08  Convergence criterion met
 ---------------------------------------
 SCF time:   CPU 3633.23s  wall 145.00s 
<S^2> =          0.755279374
(3)  G-ENP(liq) elect-nuc-pol free energy of system     -570.837131001 a.u.
(4)  G-CDS(liq) cavity-dispersion-solvent structure 
     free energy                                                4.9711 kcal/mol
(6)  G-S(liq) free energy of system                     -570.829209006 a.u.
 SCF   energy in the final basis set =     -570.8292090062
 Total energy in the final basis set =     -570.8292090062
 
 --------------------------------------------------------------
 
                    Orbital Energies (a.u.)
 --------------------------------------------------------------
 
 Alpha MOs
 -- Occupied --
-19.3968 -19.3922 -19.3493 -19.3466 -19.3400 -10.5057 -10.4701 -10.4014
-10.3912 -10.3746  -1.2603  -1.2197  -1.1696  -1.1677  -1.1368  -0.9448
 -0.8642  -0.8132  -0.7427  -0.6906  -0.6668  -0.6507  -0.6354  -0.6122
 -0.5890  -0.5804  -0.5670  -0.5538  -0.5365  -0.5246  -0.5077  -0.4858
 -0.4525  -0.4469  -0.4419  -0.4261  -0.4097  -0.3916  -0.3820
 -- Virtual --
  0.0096   0.0257   0.0367   0.0429   0.0558   0.0581   0.0640   0.0826
  0.0886   0.0999   0.1065   0.1116   0.1267   0.1293   0.1340   0.1393
  0.1490   0.1521   0.1611   0.1710   0.1759   0.1796   0.1819   0.1905
  0.1923   0.1991   0.2126   0.2226   0.2362   0.2463   0.2521   0.2593
  0.2608   0.2764   0.2837   0.2879   0.3007   0.3071   0.3102   0.3153
  0.3289   0.3307   0.3342   0.3382   0.3435   0.3465   0.3552   0.3623
  0.3634   0.3722   0.3782   0.3906   0.3960   0.3966   0.4061   0.4133
  0.4303   0.4368   0.4498   0.4590   0.4682   0.4855   0.4873   0.5105
  0.5422   0.5506   0.5856   0.5895   0.6029   0.6166   0.6298   0.6385
  0.6437   0.6507   0.6519   0.6591   0.6789   0.6829   0.6997   0.7140
  0.7274   0.7293   0.7429   0.7547   0.7584   0.7713   0.7925   0.8108
  0.8213   0.8351   0.8482   0.8635   0.8927   0.8979   0.9074   0.9283
  0.9503   0.9613   0.9914   1.0033   1.0180   1.0379   1.0698   1.0806
  1.0893   1.0969   1.1082   1.1227   1.1262   1.1382   1.1478   1.1656
  1.1734   1.1773   1.1804   1.1894   1.2103   1.2209   1.2276   1.2349
  1.2498   1.2550   1.2666   1.2823   1.2874   1.2972   1.3190   1.3324
  1.3561   1.3807   1.3856   1.4053   1.4183   1.4503   1.4579   1.4721
  1.4860   1.4940   1.5286   1.5388   1.5583   1.5674   1.5736   1.5971
  1.6070   1.6201   1.6274   1.6421   1.6540   1.6946   1.7187   1.7189
  1.7590   1.7993   1.8020   1.8235   1.8425   1.8864   1.9105   1.9176
  1.9496   1.9738   1.9927   2.0472   2.0579   2.0873   2.1389   2.1654
  2.2107   2.2421   2.2722   2.2741   2.3416   2.3833   2.3908   2.3996
  2.4289   2.4347   2.4736   2.5266   2.5662   2.5988   2.6142   2.6657
  2.7008   2.7168   2.7537   2.7841   2.7946   2.8076   2.8387   2.8463
  2.8561   2.8779   2.9241   2.9306   2.9390   2.9439   2.9845   3.0031
  3.0525   3.0711   3.1055   3.1476   3.1535   3.1724   3.1831   3.2133
  3.2276   3.2438   3.2634   3.2846   3.3031   3.3227   3.3438   3.3667
  3.3874   3.3900   3.4192   3.4274   3.4555   3.4854   3.4944   3.5048
  3.5155   3.5419   3.5489   3.5609   3.6076   3.6191   3.6457   3.6692
  3.6844   3.6890   3.7262   3.7322   3.7494   3.7747   3.7912   3.8095
  3.8307   3.8453   3.8632   3.8700   3.8747   3.9021   3.9127   3.9612
  3.9780   3.9898   4.0309   4.0654   4.0935   4.1241   4.1345   4.1551
  4.1818   4.2128   4.2347   4.2543   4.2710   4.2787   4.3100   4.3494
  4.3744   4.3893   4.3986   4.4191   4.4738   4.4926   4.5095   4.5341
  4.5819   4.6079   4.6302   4.7416   4.8183   4.8302   4.9083   5.0502
  5.1036   5.1193   5.1381   5.1637   5.2025   5.2142   5.2237   5.2305
  5.2431   5.2601   5.2619   5.2724   5.2900   5.2919   5.3055   5.3317
  5.3443   5.3692   5.3966   5.4060   5.4189   5.4374   5.4645   5.5380
  5.5507   5.5673   5.5747   5.5823   5.5916   5.6300   5.6343   5.6608
  5.6844   5.7141   5.7536   5.7964   5.8382   5.8605   5.9286   5.9889
  5.9993   6.0484   6.0633   6.1196   6.1820   6.3076   6.4089   6.5700
  6.6277   6.7455   6.8434   6.9350   6.9403   6.9547   7.0337   7.0944
  7.0998   7.1548   7.1960   7.2232   7.2674   7.2927   7.2990   7.3192
  7.3269   7.3435   7.3652   7.3731   7.3931   7.4378   7.4905   7.5945
  7.6394   7.6961   7.7129   7.7548   7.7685   7.8131   7.8607   7.8907
  7.9432  24.3886  24.7295  24.9044  25.0943  25.2585  50.5745  50.5834
 50.6029  50.6689  50.7597
 
 Beta MOs
 -- Occupied --
-19.3922 -19.3753 -19.3488 -19.3464 -19.3401 -10.5057 -10.4704 -10.4000
-10.3895 -10.3738  -1.2600  -1.2029  -1.1691  -1.1636  -1.1101  -0.9403
 -0.8556  -0.8101  -0.7365  -0.6883  -0.6609  -0.6438  -0.6331  -0.6005
 -0.5872  -0.5743  -0.5606  -0.5505  -0.5230  -0.5136  -0.5034  -0.4552
 -0.4512  -0.4283  -0.4228  -0.4094  -0.4060  -0.3787
 -- Virtual --
 -0.0793   0.0149   0.0261   0.0367   0.0433   0.0563   0.0585   0.0642
  0.0826   0.0892   0.1001   0.1066   0.1124   0.1271   0.1297   0.1342
  0.1398   0.1500   0.1530   0.1612   0.1712   0.1760   0.1800   0.1822
  0.1914   0.1934   0.2001   0.2132   0.2231   0.2367   0.2474   0.2531
  0.2603   0.2614   0.2775   0.2840   0.2881   0.3029   0.3096   0.3122
  0.3170   0.3295   0.3325   0.3349   0.3389   0.3444   0.3483   0.3558
  0.3638   0.3645   0.3731   0.3789   0.3917   0.3966   0.3983   0.4073
  0.4181   0.4353   0.4380   0.4521   0.4606   0.4687   0.4874   0.4882
  0.5118   0.5431   0.5521   0.5868   0.5905   0.6039   0.6179   0.6307
  0.6400   0.6449   0.6515   0.6530   0.6601   0.6794   0.6851   0.7004
  0.7152   0.7290   0.7304   0.7447   0.7555   0.7601   0.7723   0.7935
  0.8129   0.8233   0.8358   0.8491   0.8644   0.8933   0.8992   0.9081
  0.9294   0.9511   0.9641   0.9932   1.0056   1.0186   1.0386   1.0706
  1.0832   1.0920   1.0991   1.1098   1.1242   1.1272   1.1410   1.1494
  1.1681   1.1773   1.1792   1.1858   1.1935   1.2135   1.2218   1.2295
  1.2383   1.2530   1.2576   1.2714   1.2865   1.2912   1.3013   1.3205
  1.3341   1.3579   1.3824   1.3885   1.4101   1.4216   1.4527   1.4595
  1.4734   1.4872   1.4956   1.5322   1.5431   1.5623   1.5707   1.5748
  1.5997   1.6115   1.6218   1.6346   1.6456   1.6566   1.6984   1.7212
  1.7254   1.7645   1.8012   1.8042   1.8252   1.8581   1.9038   1.9159
  1.9301   1.9521   1.9813   1.9966   2.0522   2.0613   2.0949   2.1428
  2.1689   2.2130   2.2448   2.2732   2.2830   2.3446   2.3852   2.3915
  2.4018   2.4299   2.4356   2.4783   2.5334   2.5675   2.6021   2.6164
  2.6677   2.7043   2.7191   2.7561   2.7855   2.7963   2.8097   2.8419
  2.8487   2.8582   2.8799   2.9258   2.9327   2.9422   2.9467   2.9867
  3.0057   3.0568   3.0740   3.1088   3.1501   3.1568   3.1751   3.1853
  3.2154   3.2297   3.2458   3.2658   3.2869   3.3063   3.3252   3.3472
  3.3684   3.3901   3.3922   3.4215   3.4294   3.4583   3.4881   3.4971
  3.5066   3.5187   3.5450   3.5523   3.5628   3.6099   3.6217   3.6478
  3.6714   3.6864   3.6915   3.7269   3.7346   3.7514   3.7754   3.7933
  3.8114   3.8320   3.8472   3.8672   3.8725   3.8766   3.9042   3.9142
  3.9648   3.9795   3.9924   4.0333   4.0689   4.0954   4.1260   4.1363
  4.1583   4.1832   4.2154   4.2378   4.2556   4.2725   4.2802   4.3110
  4.3513   4.3761   4.3920   4.4021   4.4211   4.4760   4.4948   4.5119
  4.5364   4.5843   4.6108   4.6328   4.7455   4.8225   4.8336   4.9125
  5.0549   5.1384   5.1630   5.1716   5.1825   5.2051   5.2170   5.2300
  5.2491   5.2534   5.2709   5.2725   5.2878   5.2954   5.3116   5.3166
  5.3476   5.3562   5.3852   5.4099   5.4271   5.4384   5.4561   5.4760
  5.5422   5.5572   5.5744   5.5768   5.5895   5.5969   5.6308   5.6410
  5.6633   5.6868   5.7196   5.7636   5.7991   5.8417   5.8651   5.9360
  5.9924   6.0029   6.0638   6.0767   6.1344   6.1851   6.3169   6.4092
  6.5762   6.6309   6.7461   6.8596   6.9493   7.0210   7.0336   7.0441
  7.0994   7.1014   7.1618   7.1979   7.2252   7.2695   7.2995   7.3110
  7.3232   7.3296   7.3460   7.3736   7.3788   7.3970   7.4886   7.5000
  7.6112   7.6469   7.6976   7.7278   7.7630   7.7721   7.8146   7.8623
  7.9014   7.9469  24.3897  24.7308  24.9040  25.0948  25.2593  50.5806
 50.5864  50.6089  50.6692  50.7599
 --------------------------------------------------------------
 
          Ground-State Mulliken Net Atomic Charges

     Atom                 Charge (a.u.)    Spin (a.u.)
  --------------------------------------------------------
      1 C                    -0.263249       0.033139
      2 O                    -0.392354       0.015169
      3 C                    -0.328684       0.027829
      4 O                    -0.434580      -0.000524
      5 O                    -0.202543       0.821371
      6 C                     0.131935       0.040539
      7 C                     0.044788       0.055444
      8 C                     0.098869      -0.002466
      9 O                    -0.304624       0.002121
     10 O                    -0.494122       0.005862
     11 H                     0.254868      -0.002303
     12 H                     0.229989      -0.000072
     13 H                     0.332200      -0.000370
     14 H                     0.301659       0.001847
     15 H                     0.300206       0.002019
     16 H                     0.363236      -0.000191
     17 H                     0.362407       0.000586
  --------------------------------------------------------
  Sum of atomic charges =    -0.000000
  Sum of spin   charges =     1.000000

 -----------------------------------------------------------------
                    Cartesian Multipole Moments
 -----------------------------------------------------------------
    Charge (ESU x 10^10)
                -0.0000
    Dipole Moment (Debye)
         X       1.4568      Y      -0.1429      Z       6.4777
       Tot       6.6411
    Quadrupole Moments (Debye-Ang)
        XX     -33.3271     XY      -3.0756     YY     -66.0626
        XZ      18.7372     YZ      -3.8377     ZZ     -49.6052
    Octopole Moments (Debye-Ang^2)
       XXX    -351.6117    XXY      -7.0586    XYY    -225.3406
       YYY     -20.7639    XXZ      35.3715    XYZ      -3.8663
       YYZ     -39.9868    XZZ    -194.3916    YZZ     -12.9410
       ZZZ    -104.3515
    Hexadecapole Moments (Debye-Ang^3)
      XXXX   -3289.9066   XXXY     -39.6691   XXYY   -1046.4182
      XYYY    -135.6098   YYYY    -261.3842   XXXZ    -140.7641
      XXYZ       5.8732   XYYZ    -190.2824   YYYZ     -18.9713
      XXZZ   -1050.9536   XYZZ     -55.7850   YYZZ    -126.5807
      XZZZ    -527.5329   YZZZ     -29.1886   ZZZZ    -482.0107
 -----------------------------------------------------------------
 Calculating analytic gradient of the SCF energy
 Gradient of CDS energy
            1           2           3           4           5           6
    1  -0.0013739   0.0006278   0.0023808  -0.0016507  -0.0009371  -0.0001579
    2  -0.0013787   0.0016027   0.0040554   0.0021635  -0.0059508   0.0000116
    3   0.0000106  -0.0003253  -0.0036818   0.0030274   0.0005076   0.0001443
            7           8           9          10          11          12
    1  -0.0001943   0.0037933  -0.0032744   0.0001047   0.0002537   0.0001918
    2  -0.0000691   0.0003124  -0.0002402  -0.0000228   0.0000401  -0.0000458
    3   0.0004256   0.0003426  -0.0017876   0.0011265   0.0002542  -0.0002381
           13          14          15          16          17
    1  -0.0002133  -0.0000967   0.0000534   0.0004272   0.0000656
    2  -0.0003776   0.0000136  -0.0000293   0.0000494  -0.0001344
    3   0.0002631   0.0000535   0.0001774  -0.0000151  -0.0002848
 Gradient of SCF Energy
            1           2           3           4           5           6
    1   0.0043401   0.0000715   0.0013402   0.0019657   0.0006362  -0.0010340
    2  -0.0054163  -0.0010010   0.0042807  -0.0046228   0.0018362   0.0011479
    3  -0.0037855  -0.0223847  -0.0061455  -0.0051068  -0.0008668  -0.0086895
            7           8           9          10          11          12
    1   0.0097253  -0.0023562  -0.0102383  -0.0032815  -0.0034897  -0.0008854
    2   0.0030249  -0.0024036  -0.0015400   0.0023186   0.0035725   0.0021700
    3  -0.0101113   0.0038496   0.0111831  -0.0085471   0.0090710   0.0005847
           13          14          15          16          17
    1   0.0009578  -0.0120005   0.0023849   0.0151574  -0.0032934
    2   0.0002193  -0.0028104  -0.0023845   0.0020536  -0.0004451
    3   0.0193950   0.0133872   0.0127424  -0.0079325   0.0033566
 Max gradient component =       2.238E-02
 RMS gradient           =       7.173E-03
 Computing fast CPCM-SWIG gradient
 Updating gradient with PCM contributions...
 -- total gradient after adding PCM contribution --
---------------------------------------------------
  Atom         X              Y              Z     
---------------------------------------------------
   1      -0.000091      -0.000045      -0.000019
   2       0.000039       0.000004       0.000020
   3       0.000093       0.000036       0.000001
   4      -0.000031      -0.000000      -0.000008
   5      -0.000041      -0.000063      -0.000013
   6      -0.000013       0.000011      -0.000008
   7       0.000004      -0.000002      -0.000006
   8       0.000023       0.000027       0.000097
   9      -0.000031       0.000022      -0.000019
  10      -0.000005      -0.000004      -0.000055
  11       0.000011      -0.000012      -0.000011
  12       0.000004      -0.000018      -0.000013
  13       0.000001       0.000008       0.000020
  14      -0.000007       0.000014      -0.000004
  15      -0.000003       0.000024       0.000006
  16       0.000003       0.000021       0.000005
  17       0.000044      -0.000025       0.000006
---------------------------------------------------
 Number of fixed atoms: 0
 Gradient time:  CPU 354.89 s  wall 18.98 s
 ######################################################
 ######################################################
 # Starting finite difference calculation for IDERIV  #
 Finite diff step size:  1.88973e-03 a.u.
 ----------------------------------------------------------------
             Standard Nuclear Orientation (Angstroms)
    I     Atom           X                Y                Z
 ----------------------------------------------------------------
    1      C       1.0515187000     0.0607743000     0.3443880000
    2      O       0.7716834000    -1.3096786000     0.5288867000
    3      C       2.5783461000     0.3329543000     0.3049672000
    4      O       3.1064437000    -0.4340924000    -0.7399411000
    5      O       2.7759734000     1.6713104000     0.1805999000
    6      C       3.1891171000     0.0427280000     1.6863497000
    7      C       4.4732480000    -0.0269614000     2.0232628000
    8      C       5.6386715000     0.1603453000     1.1344953000
    9      O       6.7701977000     0.2367645000     1.8336242000
   10      O       5.6226180000     0.2397308000    -0.0809897000
   11      H       0.6146680000     0.6757433000     1.1292332000
   12      H       0.6467938000     0.3546307000    -0.6213279000
   13      H       0.8108601000    -1.5157689000     1.4692089000
   14      H       2.4558458000    -0.0666340000     2.4757547000
   15      H       4.7220325000    -0.2275540000     3.0562382000
   16      H       7.5112515000     0.3661001000     1.2200749000
   17      H       4.0714626000    -0.2873870000    -0.7385293000
 ----------------------------------------------------------------
 Nuclear Repulsion Energy =         552.49638893 hartrees
 There are       39 alpha and       38 beta electrons
 Discretize the solute cavity surface with Lebedev spheres
	Using 110 Lebedev grid points for each H atom
	Using 194 Lebedev grid points for other atoms
	Atomic van der Waals radii will be scaled by 1.20
 Remove points where switching function is < 1.0e-08
 Keep 1377 surface tesserae and discard 1333 interior tesserae
 Molecular Surface Area = 156.493 Angst**2
 Requested basis set is 6-311++G(2df,2p)
 There are 122 shells and 410 basis functions
 A cutoff of  1.0D-12 yielded   6512 shell pairs
 There are     73744 function pairs (     92400 Cartesian)
 Smallest overlap matrix eigenvalue = 3.68E-06
 Guess MOs from SCF MO coefficient file

 -----------------------------------------------------------------------
  General SCF calculation program by
  Eric Jon Sundstrom, Paul Horn, Yuezhi Mao, Dmitri Zuev, Alec White,
  David Stuck, Shaama M.S., Shane Yost, Joonho Lee, David Small,
  Daniel Levine, Susi Lehtola, Hugh Burton, Evgeny Epifanovsky,
  Bang C. Huynh
 -----------------------------------------------------------------------
 Exchange:     0.1500 Hartree-Fock + 1.0000 wB97M-V + LR-HF
 Correlation:  1.0000 wB97M-V
 Using SG-2 standard quadrature grid
 Nonlocal Correlation:  VV10 with C = 0.0100 and b = 6.00 and scale = 1.00000
 Grid used for NLC:  SG-1 standard quadrature
 
 Citation of the SMD model:
 Marenich, A.V.; Cramer, C.J.; Truhlar, D.G.
 J. Phys. Chem. B 2009, 113, 6378-6396.
 iSolventCode=           1
 Solvent: water                                                           
 
 vradii
            1           2           3           4           5           6
    1   1.8500000   1.5200000   1.8500000   1.5200000   1.5200000   1.8500000
            7           8           9          10          11          12
    1   1.8500000   1.8500000   1.5200000   1.5200000   1.2000000   1.2000000
           13          14          15          16          17
    1   1.2000000   1.2000000   1.2000000   1.2000000   1.2000000
 -------------------------------------------------------
 OpenMP BLAS3 based DFT computing Module                
 Release: version 1.0, May 2013, Q-Chem Inc. Pittsburgh 
 -------------------------------------------------------
 A unrestricted SCF calculation will be
 performed using Roothaan-Hall, DIIS, GDM
 SCF converges when RMS gradient is below 1.0e-07
 ---------------------------------------
  Cycle       Energy         DIIS error
 ---------------------------------------
    1    -570.7894238072      2.44e-04  Roothaan Step
 ---------------------------------------
  Cycle       Energy         DIIS error
 ---------------------------------------
    1    -570.8275863851      2.69e-04  
    2    -570.8340359929      2.29e-04  Done DIIS. Switching to GDM
 ---------------------------------------
  Cycle       Energy        RMS Gradient
 ---------------------------------------
    1    -570.8340359929      8.04e-03   Normal BFGS step
    2    -570.8336139176      1.41e-02  Line search: overstep
    3    -570.8368667720      2.83e-03   Normal BFGS step
    4    -570.8370817674      1.82e-03   Normal BFGS step
    5    -570.8371135089      9.25e-04   Normal BFGS step
    6    -570.8371259168      4.26e-04   Normal BFGS step
    7    -570.8371271563      4.46e-04   Normal BFGS step
    8    -570.8371276238      1.71e-04   Normal BFGS step
    9    -570.8371277841      5.31e-05   Normal BFGS step
   10    -570.8371278057      4.04e-05   Normal BFGS step
   11    -570.8371278169      2.71e-05   Normal BFGS step
   12    -570.8371278227      3.08e-05   Normal BFGS step
   13    -570.8371278268      2.70e-05   Normal BFGS step
   14    -570.8371278311      2.13e-05   Normal BFGS step
   15    -570.8371278344      1.65e-05   Normal BFGS step
   16    -570.8371278366      1.01e-05   Normal BFGS step
   17    -570.8371278379      5.40e-06   Normal BFGS step
   18    -570.8371278383      4.33e-06   Normal BFGS step
   19    -570.8371278384      2.31e-06   Normal BFGS step
   20    -570.8371278385      1.10e-06   Normal BFGS step
   21    -570.8371278385      4.02e-07   Normal BFGS step
   22    -570.8371278385      2.19e-07   Normal BFGS step
   23    -570.8371278385      1.42e-07   Normal BFGS step
   24    -570.8371278385      7.70e-08  Convergence criterion met
 ---------------------------------------
 SCF time:   CPU 3431.71s  wall 138.00s 
<S^2> =          0.755278287
(3)  G-ENP(liq) elect-nuc-pol free energy of system     -570.837127838 a.u.
(4)  G-CDS(liq) cavity-dispersion-solvent structure 
     free energy                                                4.9695 kcal/mol
(6)  G-S(liq) free energy of system                     -570.829208428 a.u.
 SCF   energy in the final basis set =     -570.8292084283
 Total energy in the final basis set =     -570.8292084283
 
 --------------------------------------------------------------
 
                    Orbital Energies (a.u.)
 --------------------------------------------------------------
 
 Alpha MOs
 -- Occupied --
-19.3968 -19.3923 -19.3492 -19.3466 -19.3400 -10.5057 -10.4701 -10.4014
-10.3913 -10.3746  -1.2603  -1.2198  -1.1696  -1.1676  -1.1368  -0.9448
 -0.8643  -0.8132  -0.7426  -0.6907  -0.6669  -0.6507  -0.6354  -0.6122
 -0.5890  -0.5804  -0.5670  -0.5539  -0.5365  -0.5245  -0.5077  -0.4857
 -0.4525  -0.4469  -0.4419  -0.4262  -0.4097  -0.3917  -0.3821
 -- Virtual --
  0.0095   0.0257   0.0367   0.0429   0.0558   0.0581   0.0640   0.0826
  0.0886   0.0999   0.1065   0.1116   0.1267   0.1293   0.1340   0.1393
  0.1490   0.1521   0.1611   0.1710   0.1759   0.1796   0.1819   0.1905
  0.1923   0.1992   0.2126   0.2226   0.2362   0.2463   0.2521   0.2593
  0.2608   0.2764   0.2837   0.2879   0.3007   0.3071   0.3102   0.3153
  0.3289   0.3307   0.3343   0.3383   0.3436   0.3465   0.3552   0.3623
  0.3634   0.3722   0.3782   0.3906   0.3960   0.3966   0.4061   0.4133
  0.4303   0.4369   0.4498   0.4590   0.4682   0.4855   0.4873   0.5105
  0.5422   0.5506   0.5855   0.5895   0.6029   0.6166   0.6298   0.6385
  0.6438   0.6507   0.6519   0.6591   0.6790   0.6829   0.6997   0.7140
  0.7274   0.7293   0.7429   0.7547   0.7584   0.7713   0.7925   0.8108
  0.8213   0.8351   0.8482   0.8635   0.8927   0.8979   0.9074   0.9283
  0.9504   0.9613   0.9914   1.0033   1.0180   1.0380   1.0698   1.0805
  1.0892   1.0969   1.1082   1.1226   1.1262   1.1382   1.1478   1.1656
  1.1734   1.1773   1.1805   1.1894   1.2103   1.2208   1.2276   1.2349
  1.2498   1.2550   1.2666   1.2823   1.2874   1.2973   1.3189   1.3325
  1.3561   1.3807   1.3856   1.4054   1.4183   1.4503   1.4580   1.4721
  1.4861   1.4940   1.5286   1.5387   1.5584   1.5675   1.5736   1.5971
  1.6070   1.6202   1.6274   1.6422   1.6542   1.6948   1.7187   1.7189
  1.7591   1.7993   1.8021   1.8235   1.8426   1.8864   1.9104   1.9176
  1.9496   1.9740   1.9927   2.0473   2.0579   2.0873   2.1389   2.1654
  2.2108   2.2421   2.2723   2.2741   2.3415   2.3833   2.3909   2.3997
  2.4290   2.4348   2.4737   2.5266   2.5662   2.5989   2.6142   2.6659
  2.7009   2.7169   2.7540   2.7842   2.7947   2.8078   2.8388   2.8462
  2.8561   2.8780   2.9241   2.9306   2.9390   2.9439   2.9845   3.0032
  3.0524   3.0713   3.1055   3.1477   3.1535   3.1725   3.1831   3.2134
  3.2278   3.2437   3.2634   3.2846   3.3031   3.3226   3.3438   3.3666
  3.3874   3.3902   3.4192   3.4275   3.4556   3.4855   3.4943   3.5048
  3.5155   3.5420   3.5489   3.5610   3.6078   3.6191   3.6458   3.6694
  3.6843   3.6890   3.7262   3.7323   3.7493   3.7748   3.7910   3.8095
  3.8305   3.8451   3.8634   3.8698   3.8746   3.9021   3.9127   3.9611
  3.9781   3.9897   4.0308   4.0657   4.0938   4.1240   4.1347   4.1551
  4.1819   4.2128   4.2352   4.2545   4.2713   4.2787   4.3100   4.3495
  4.3745   4.3895   4.3986   4.4190   4.4736   4.4924   4.5096   4.5342
  4.5820   4.6078   4.6302   4.7418   4.8184   4.8303   4.9083   5.0503
  5.1036   5.1193   5.1381   5.1637   5.2025   5.2142   5.2237   5.2305
  5.2431   5.2601   5.2619   5.2724   5.2899   5.2919   5.3055   5.3317
  5.3443   5.3693   5.3967   5.4060   5.4190   5.4375   5.4645   5.5380
  5.5507   5.5672   5.5747   5.5818   5.5917   5.6300   5.6344   5.6608
  5.6844   5.7139   5.7532   5.7963   5.8381   5.8605   5.9288   5.9888
  5.9992   6.0483   6.0633   6.1198   6.1821   6.3076   6.4089   6.5702
  6.6273   6.7455   6.8435   6.9350   6.9403   6.9547   7.0337   7.0944
  7.0998   7.1549   7.1960   7.2232   7.2674   7.2927   7.2990   7.3192
  7.3269   7.3435   7.3652   7.3731   7.3930   7.4379   7.4905   7.5946
  7.6394   7.6961   7.7130   7.7548   7.7685   7.8131   7.8606   7.8908
  7.9433  24.3887  24.7288  24.9051  25.0943  25.2586  50.5745  50.5834
 50.6029  50.6689  50.7597
 
 Beta MOs
 -- Occupied --
-19.3922 -19.3754 -19.3488 -19.3464 -19.3401 -10.5057 -10.4704 -10.3999
-10.3896 -10.3739  -1.2601  -1.2030  -1.1690  -1.1635  -1.1102  -0.9403
 -0.8557  -0.8101  -0.7365  -0.6884  -0.6610  -0.6438  -0.6331  -0.6005
 -0.5872  -0.5743  -0.5605  -0.5505  -0.5230  -0.5136  -0.5034  -0.4551
 -0.4512  -0.4283  -0.4228  -0.4094  -0.4061  -0.3788
 -- Virtual --
 -0.0793   0.0149   0.0261   0.0367   0.0433   0.0563   0.0585   0.0642
  0.0826   0.0892   0.1001   0.1066   0.1124   0.1271   0.1297   0.1342
  0.1398   0.1500   0.1530   0.1612   0.1712   0.1760   0.1800   0.1822
  0.1913   0.1934   0.2001   0.2133   0.2231   0.2367   0.2474   0.2531
  0.2602   0.2613   0.2775   0.2840   0.2881   0.3028   0.3096   0.3122
  0.3170   0.3295   0.3325   0.3350   0.3390   0.3444   0.3483   0.3558
  0.3638   0.3645   0.3731   0.3788   0.3918   0.3966   0.3983   0.4073
  0.4181   0.4353   0.4380   0.4522   0.4606   0.4687   0.4874   0.4881
  0.5118   0.5431   0.5521   0.5868   0.5905   0.6039   0.6179   0.6307
  0.6400   0.6450   0.6515   0.6530   0.6600   0.6794   0.6851   0.7003
  0.7152   0.7290   0.7303   0.7447   0.7554   0.7601   0.7723   0.7936
  0.8129   0.8234   0.8358   0.8491   0.8644   0.8933   0.8992   0.9081
  0.9295   0.9512   0.9641   0.9932   1.0056   1.0186   1.0386   1.0706
  1.0832   1.0920   1.0991   1.1098   1.1241   1.1272   1.1410   1.1494
  1.1681   1.1773   1.1792   1.1859   1.1935   1.2135   1.2218   1.2295
  1.2383   1.2530   1.2576   1.2714   1.2866   1.2912   1.3014   1.3204
  1.3341   1.3579   1.3824   1.3884   1.4102   1.4216   1.4527   1.4596
  1.4734   1.4873   1.4956   1.5322   1.5431   1.5623   1.5707   1.5749
  1.5997   1.6116   1.6218   1.6347   1.6457   1.6567   1.6986   1.7212
  1.7254   1.7646   1.8012   1.8043   1.8252   1.8582   1.9038   1.9159
  1.9301   1.9521   1.9815   1.9966   2.0522   2.0613   2.0950   2.1428
  2.1689   2.2130   2.2449   2.2732   2.2832   2.3445   2.3852   2.3915
  2.4019   2.4299   2.4357   2.4783   2.5335   2.5675   2.6021   2.6164
  2.6678   2.7043   2.7192   2.7563   2.7855   2.7964   2.8099   2.8419
  2.8486   2.8582   2.8799   2.9258   2.9328   2.9422   2.9467   2.9868
  3.0057   3.0567   3.0742   3.1087   3.1502   3.1568   3.1752   3.1853
  3.2155   3.2299   3.2456   3.2659   3.2869   3.3063   3.3251   3.3473
  3.3684   3.3901   3.3923   3.4215   3.4295   3.4584   3.4882   3.4970
  3.5066   3.5187   3.5450   3.5523   3.5628   3.6101   3.6218   3.6479
  3.6715   3.6863   3.6915   3.7270   3.7347   3.7513   3.7755   3.7932
  3.8114   3.8318   3.8470   3.8674   3.8723   3.8765   3.9042   3.9142
  3.9647   3.9796   3.9923   4.0332   4.0692   4.0958   4.1259   4.1365
  4.1583   4.1834   4.2154   4.2382   4.2558   4.2728   4.2803   4.3110
  4.3514   4.3763   4.3921   4.4021   4.4210   4.4758   4.4946   4.5120
  4.5365   4.5844   4.6107   4.6329   4.7456   4.8226   4.8338   4.9125
  5.0550   5.1384   5.1630   5.1716   5.1825   5.2051   5.2170   5.2300
  5.2491   5.2534   5.2709   5.2725   5.2877   5.2953   5.3116   5.3166
  5.3477   5.3562   5.3852   5.4099   5.4271   5.4386   5.4560   5.4760
  5.5422   5.5571   5.5743   5.5768   5.5890   5.5970   5.6308   5.6410
  5.6633   5.6868   5.7194   5.7633   5.7990   5.8416   5.8651   5.9361
  5.9924   6.0027   6.0638   6.0767   6.1346   6.1853   6.3169   6.4092
  6.5763   6.6305   6.7461   6.8598   6.9493   7.0210   7.0336   7.0441
  7.0995   7.1015   7.1618   7.1979   7.2252   7.2695   7.2995   7.3110
  7.3233   7.3295   7.3460   7.3736   7.3788   7.3969   7.4887   7.5001
  7.6113   7.6468   7.6976   7.7278   7.7631   7.7721   7.8146   7.8623
  7.9014   7.9469  24.3898  24.7302  24.9047  25.0948  25.2594  50.5806
 50.5864  50.6088  50.6692  50.7599
 --------------------------------------------------------------
 
          Ground-State Mulliken Net Atomic Charges

     Atom                 Charge (a.u.)    Spin (a.u.)
  --------------------------------------------------------
      1 C                    -0.263330       0.032757
      2 O                    -0.392636       0.015063
      3 C                    -0.328554       0.027893
      4 O                    -0.434571      -0.000522
      5 O                    -0.202309       0.821656
      6 C                     0.131906       0.040458
      7 C                     0.044869       0.055637
      8 C                     0.098865      -0.002463
      9 O                    -0.304614       0.002126
     10 O                    -0.494107       0.005873
     11 H                     0.254802      -0.002303
     12 H                     0.229936      -0.000066
     13 H                     0.332194      -0.000367
     14 H                     0.301659       0.001852
     15 H                     0.300218       0.002018
     16 H                     0.363244      -0.000190
     17 H                     0.362428       0.000578
  --------------------------------------------------------
  Sum of atomic charges =    -0.000000
  Sum of spin   charges =     1.000000

 -----------------------------------------------------------------
                    Cartesian Multipole Moments
 -----------------------------------------------------------------
    Charge (ESU x 10^10)
                -0.0000
    Dipole Moment (Debye)
         X       1.4630      Y      -0.1400      Z       6.4783
       Tot       6.6429
    Quadrupole Moments (Debye-Ang)
        XX     -33.2997     XY      -3.0698     YY     -66.0616
        XZ      18.7439     YZ      -3.8374     ZZ     -49.6022
    Octopole Moments (Debye-Ang^2)
       XXX    -351.4990    XXY      -7.0435    XYY    -225.3343
       YYY     -20.7509    XXZ      35.4058    XYZ      -3.8661
       YYZ     -39.9884    XZZ    -194.3747    YZZ     -12.9385
       ZZZ    -104.3419
    Hexadecapole Moments (Debye-Ang^3)
      XXXX   -3289.3075   XXXY     -39.6278   XXYY   -1046.3838
      XYYY    -135.5795   YYYY    -261.3805   XXXZ    -140.5915
      XXYZ       5.8741   XYYZ    -190.2811   YYYZ     -18.9693
      XXZZ   -1050.8593   XYZZ     -55.7790   YYZZ    -126.5771
      XZZZ    -527.4862   YZZZ     -29.1882   ZZZZ    -481.9798
 -----------------------------------------------------------------
 Calculating analytic gradient of the SCF energy
 Gradient of CDS energy
            1           2           3           4           5           6
    1  -0.0013615   0.0006186   0.0023799  -0.0016507  -0.0009372  -0.0001579
    2  -0.0013303   0.0015543   0.0040552   0.0021635  -0.0059508   0.0000116
    3   0.0000049  -0.0003194  -0.0036817   0.0030274   0.0005075   0.0001443
            7           8           9          10          11          12
    1  -0.0001943   0.0037933  -0.0032744   0.0001047   0.0002528   0.0001907
    2  -0.0000691   0.0003124  -0.0002402  -0.0000228   0.0000406  -0.0000462
    3   0.0004256   0.0003426  -0.0017876   0.0011265   0.0002547  -0.0002389
           13          14          15          16          17
    1  -0.0002136  -0.0000967   0.0000534   0.0004272   0.0000656
    2  -0.0003775   0.0000136  -0.0000293   0.0000494  -0.0001344
    3   0.0002632   0.0000535   0.0001774  -0.0000151  -0.0002848
 Gradient of SCF Energy
            1           2           3           4           5           6
    1   0.0051399  -0.0000452   0.0011589   0.0019048   0.0005823  -0.0010921
    2  -0.0054642  -0.0010834   0.0043637  -0.0046244   0.0017577   0.0011243
    3  -0.0037720  -0.0223717  -0.0061345  -0.0050938  -0.0008819  -0.0087124
            7           8           9          10          11          12
    1   0.0097300  -0.0023720  -0.0102336  -0.0032794  -0.0036721  -0.0010428
    2   0.0030224  -0.0024102  -0.0015395   0.0023207   0.0036743   0.0022104
    3  -0.0101129   0.0038612   0.0111850  -0.0085606   0.0092162   0.0004181
           13          14          15          16          17
    1   0.0009563  -0.0119966   0.0023878   0.0151612  -0.0032872
    2   0.0002270  -0.0028134  -0.0023799   0.0020544  -0.0004399
    3   0.0193874   0.0133953   0.0127508  -0.0079349   0.0033607
 Max gradient component =       2.237E-02
 RMS gradient           =       7.191E-03
 Computing fast CPCM-SWIG gradient
 Updating gradient with PCM contributions...
 -- total gradient after adding PCM contribution --
---------------------------------------------------
  Atom         X              Y              Z     
---------------------------------------------------
   1       0.000703      -0.000108      -0.000012
   2      -0.000073      -0.000070       0.000025
   3      -0.000087       0.000130       0.000013
   4      -0.000088      -0.000002       0.000006
   5      -0.000093      -0.000142      -0.000030
   6      -0.000062      -0.000017      -0.000024
   7       0.000007      -0.000005      -0.000008
   8       0.000009       0.000020       0.000107
   9      -0.000025       0.000023      -0.000020
  10      -0.000003      -0.000002      -0.000063
  11      -0.000166       0.000098       0.000147
  12      -0.000159       0.000024      -0.000188
  13      -0.000003       0.000010       0.000022
  14      -0.000005       0.000012       0.000002
  15      -0.000003       0.000029       0.000007
  16       0.000003       0.000021       0.000005
  17       0.000045      -0.000020       0.000011
---------------------------------------------------
 Number of fixed atoms: 0
 Gradient time:  CPU 351.76 s  wall 18.44 s
 ----------------------------------------------------------------
             Standard Nuclear Orientation (Angstroms)
    I     Atom           X                Y                Z
 ----------------------------------------------------------------
    1      C       1.0495187000     0.0607743000     0.3443880000
    2      O       0.7716834000    -1.3096786000     0.5288867000
    3      C       2.5783461000     0.3329543000     0.3049672000
    4      O       3.1064437000    -0.4340924000    -0.7399411000
    5      O       2.7759734000     1.6713104000     0.1805999000
    6      C       3.1891171000     0.0427280000     1.6863497000
    7      C       4.4732480000    -0.0269614000     2.0232628000
    8      C       5.6386715000     0.1603453000     1.1344953000
    9      O       6.7701977000     0.2367645000     1.8336242000
   10      O       5.6226180000     0.2397308000    -0.0809897000
   11      H       0.6146680000     0.6757433000     1.1292332000
   12      H       0.6467938000     0.3546307000    -0.6213279000
   13      H       0.8108601000    -1.5157689000     1.4692089000
   14      H       2.4558458000    -0.0666340000     2.4757547000
   15      H       4.7220325000    -0.2275540000     3.0562382000
   16      H       7.5112515000     0.3661001000     1.2200749000
   17      H       4.0714626000    -0.2873870000    -0.7385293000
 ----------------------------------------------------------------
 Nuclear Repulsion Energy =         552.46138223 hartrees
 There are       39 alpha and       38 beta electrons
 Discretize the solute cavity surface with Lebedev spheres
	Using 110 Lebedev grid points for each H atom
	Using 194 Lebedev grid points for other atoms
	Atomic van der Waals radii will be scaled by 1.20
 Remove points where switching function is < 1.0e-08
 Keep 1376 surface tesserae and discard 1334 interior tesserae
 Molecular Surface Area = 156.501 Angst**2
 Requested basis set is 6-311++G(2df,2p)
 There are 122 shells and 410 basis functions
 A cutoff of  1.0D-12 yielded   6512 shell pairs
 There are     73744 function pairs (     92400 Cartesian)
 Smallest overlap matrix eigenvalue = 3.68E-06
 Guess MOs from SCF MO coefficient file

 -----------------------------------------------------------------------
  General SCF calculation program by
  Eric Jon Sundstrom, Paul Horn, Yuezhi Mao, Dmitri Zuev, Alec White,
  David Stuck, Shaama M.S., Shane Yost, Joonho Lee, David Small,
  Daniel Levine, Susi Lehtola, Hugh Burton, Evgeny Epifanovsky,
  Bang C. Huynh
 -----------------------------------------------------------------------
 Exchange:     0.1500 Hartree-Fock + 1.0000 wB97M-V + LR-HF
 Correlation:  1.0000 wB97M-V
 Using SG-2 standard quadrature grid
 Nonlocal Correlation:  VV10 with C = 0.0100 and b = 6.00 and scale = 1.00000
 Grid used for NLC:  SG-1 standard quadrature
 
 Citation of the SMD model:
 Marenich, A.V.; Cramer, C.J.; Truhlar, D.G.
 J. Phys. Chem. B 2009, 113, 6378-6396.
 iSolventCode=           1
 Solvent: water                                                           
 
 vradii
            1           2           3           4           5           6
    1   1.8500000   1.5200000   1.8500000   1.5200000   1.5200000   1.8500000
            7           8           9          10          11          12
    1   1.8500000   1.8500000   1.5200000   1.5200000   1.2000000   1.2000000
           13          14          15          16          17
    1   1.2000000   1.2000000   1.2000000   1.2000000   1.2000000
 -------------------------------------------------------
 OpenMP BLAS3 based DFT computing Module                
 Release: version 1.0, May 2013, Q-Chem Inc. Pittsburgh 
 -------------------------------------------------------
 A unrestricted SCF calculation will be
 performed using Roothaan-Hall, DIIS, GDM
 SCF converges when RMS gradient is below 1.0e-07
 ---------------------------------------
  Cycle       Energy         DIIS error
 ---------------------------------------
    1    -570.7894303231      2.44e-04  Roothaan Step
 ---------------------------------------
  Cycle       Energy         DIIS error
 ---------------------------------------
    1    -570.8275938102      2.68e-04  
    2    -570.8340473768      2.29e-04  Done DIIS. Switching to GDM
 ---------------------------------------
  Cycle       Energy        RMS Gradient
 ---------------------------------------
    1    -570.8340473768      8.02e-03   Normal BFGS step
    2    -570.8336270344      1.40e-02  Line search: overstep
    3    -570.8368707657      2.85e-03   Normal BFGS step
    4    -570.8370863132      1.89e-03   Normal BFGS step
    5    -570.8371182875      9.26e-04   Normal BFGS step
    6    -570.8371307444      4.47e-04   Normal BFGS step
    7    -570.8371320121      4.62e-04   Normal BFGS step
    8    -570.8371324918      1.78e-04   Normal BFGS step
    9    -570.8371326494      5.75e-05   Normal BFGS step
   10    -570.8371326686      3.57e-05   Normal BFGS step
   11    -570.8371326779      2.49e-05   Normal BFGS step
   12    -570.8371326817      1.98e-05   Normal BFGS step
   13    -570.8371326841      1.79e-05   Normal BFGS step
   14    -570.8371326863      1.65e-05   Normal BFGS step
   15    -570.8371326881      9.62e-06   Normal BFGS step
   16    -570.8371326894      7.35e-06   Normal BFGS step
   17    -570.8371326904      7.00e-06   Normal BFGS step
   18    -570.8371326908      4.70e-06   Normal BFGS step
   19    -570.8371326909      2.63e-06   Normal BFGS step
   20    -570.8371326909      1.20e-06   Normal BFGS step
   21    -570.8371326910      3.84e-07   Normal BFGS step
   22    -570.8371326910      2.09e-07   Normal BFGS step
   23    -570.8371326909      1.58e-07   Normal BFGS step
   24    -570.8371326909      8.03e-08  Convergence criterion met
 ---------------------------------------
 SCF time:   CPU 3417.30s  wall 137.00s 
<S^2> =          0.755280530
(3)  G-ENP(liq) elect-nuc-pol free energy of system     -570.837132691 a.u.
(4)  G-CDS(liq) cavity-dispersion-solvent structure 
     free energy                                                4.9728 kcal/mol
(6)  G-S(liq) free energy of system                     -570.829208088 a.u.
 SCF   energy in the final basis set =     -570.8292080883
 Total energy in the final basis set =     -570.8292080883
 
 --------------------------------------------------------------
 
                    Orbital Energies (a.u.)
 --------------------------------------------------------------
 
 Alpha MOs
 -- Occupied --
-19.3967 -19.3922 -19.3493 -19.3466 -19.3400 -10.5057 -10.4701 -10.4015
-10.3912 -10.3745  -1.2603  -1.2197  -1.1696  -1.1678  -1.1367  -0.9447
 -0.8641  -0.8132  -0.7427  -0.6906  -0.6668  -0.6507  -0.6355  -0.6121
 -0.5890  -0.5804  -0.5670  -0.5538  -0.5365  -0.5246  -0.5076  -0.4858
 -0.4525  -0.4470  -0.4419  -0.4261  -0.4097  -0.3916  -0.3819
 -- Virtual --
  0.0096   0.0257   0.0367   0.0429   0.0558   0.0581   0.0640   0.0826
  0.0887   0.0999   0.1065   0.1116   0.1267   0.1293   0.1340   0.1392
  0.1490   0.1521   0.1611   0.1710   0.1759   0.1796   0.1819   0.1905
  0.1923   0.1991   0.2126   0.2226   0.2362   0.2463   0.2521   0.2594
  0.2608   0.2764   0.2837   0.2879   0.3007   0.3070   0.3102   0.3153
  0.3289   0.3307   0.3342   0.3382   0.3435   0.3465   0.3552   0.3623
  0.3634   0.3722   0.3782   0.3905   0.3960   0.3966   0.4060   0.4133
  0.4303   0.4368   0.4497   0.4590   0.4681   0.4855   0.4873   0.5105
  0.5422   0.5506   0.5856   0.5895   0.6029   0.6166   0.6297   0.6385
  0.6436   0.6507   0.6519   0.6592   0.6789   0.6829   0.6998   0.7140
  0.7274   0.7293   0.7429   0.7547   0.7584   0.7713   0.7924   0.8109
  0.8213   0.8351   0.8481   0.8635   0.8926   0.8979   0.9074   0.9283
  0.9503   0.9613   0.9914   1.0033   1.0181   1.0379   1.0698   1.0806
  1.0893   1.0969   1.1083   1.1227   1.1262   1.1382   1.1479   1.1656
  1.1733   1.1773   1.1804   1.1894   1.2103   1.2209   1.2277   1.2349
  1.2498   1.2550   1.2666   1.2822   1.2874   1.2971   1.3191   1.3324
  1.3561   1.3807   1.3857   1.4052   1.4183   1.4503   1.4578   1.4721
  1.4859   1.4940   1.5286   1.5388   1.5583   1.5674   1.5736   1.5971
  1.6069   1.6201   1.6275   1.6421   1.6539   1.6943   1.7187   1.7189
  1.7589   1.7994   1.8020   1.8235   1.8423   1.8863   1.9105   1.9176
  1.9496   1.9737   1.9928   2.0472   2.0579   2.0872   2.1389   2.1653
  2.2107   2.2420   2.2722   2.2741   2.3416   2.3832   2.3908   2.3996
  2.4289   2.4345   2.4736   2.5265   2.5662   2.5988   2.6142   2.6656
  2.7008   2.7167   2.7535   2.7841   2.7946   2.8074   2.8387   2.8464
  2.8560   2.8779   2.9241   2.9306   2.9391   2.9439   2.9845   3.0030
  3.0526   3.0709   3.1056   3.1476   3.1535   3.1723   3.1831   3.2132
  3.2273   3.2439   3.2634   3.2846   3.3031   3.3227   3.3437   3.3667
  3.3874   3.3899   3.4193   3.4273   3.4554   3.4853   3.4945   3.5048
  3.5154   3.5419   3.5489   3.5609   3.6075   3.6190   3.6456   3.6691
  3.6844   3.6890   3.7262   3.7321   3.7494   3.7747   3.7913   3.8095
  3.8309   3.8454   3.8631   3.8701   3.8749   3.9021   3.9126   3.9612
  3.9779   3.9899   4.0310   4.0651   4.0932   4.1241   4.1343   4.1550
  4.1816   4.2127   4.2342   4.2541   4.2707   4.2786   4.3099   4.3493
  4.3742   4.3892   4.3987   4.4191   4.4740   4.4927   4.5095   4.5340
  4.5818   4.6079   4.6302   4.7415   4.8182   4.8300   4.9083   5.0502
  5.1036   5.1193   5.1381   5.1637   5.2025   5.2142   5.2237   5.2305
  5.2430   5.2601   5.2618   5.2724   5.2900   5.2919   5.3054   5.3316
  5.3443   5.3691   5.3966   5.4060   5.4188   5.4372   5.4645   5.5379
  5.5507   5.5673   5.5747   5.5829   5.5915   5.6300   5.6343   5.6607
  5.6844   5.7143   5.7540   5.7965   5.8382   5.8605   5.9284   5.9890
  5.9995   6.0485   6.0633   6.1195   6.1819   6.3076   6.4089   6.5699
  6.6280   6.7455   6.8433   6.9350   6.9403   6.9547   7.0337   7.0943
  7.0998   7.1548   7.1960   7.2232   7.2674   7.2927   7.2990   7.3191
  7.3270   7.3435   7.3652   7.3731   7.3931   7.4377   7.4905   7.5944
  7.6395   7.6960   7.7129   7.7547   7.7685   7.8131   7.8607   7.8907
  7.9432  24.3886  24.7301  24.9038  25.0943  25.2585  50.5745  50.5834
 50.6029  50.6689  50.7597
 
 Beta MOs
 -- Occupied --
-19.3922 -19.3753 -19.3489 -19.3464 -19.3401 -10.5057 -10.4704 -10.4000
-10.3895 -10.3738  -1.2600  -1.2029  -1.1691  -1.1637  -1.1101  -0.9402
 -0.8555  -0.8101  -0.7365  -0.6883  -0.6609  -0.6438  -0.6331  -0.6004
 -0.5872  -0.5743  -0.5606  -0.5505  -0.5231  -0.5136  -0.5034  -0.4553
 -0.4512  -0.4283  -0.4228  -0.4094  -0.4060  -0.3786
 -- Virtual --
 -0.0792   0.0149   0.0261   0.0367   0.0433   0.0563   0.0585   0.0642
  0.0826   0.0892   0.1001   0.1066   0.1124   0.1271   0.1297   0.1342
  0.1398   0.1500   0.1530   0.1612   0.1713   0.1760   0.1800   0.1822
  0.1914   0.1934   0.2001   0.2132   0.2231   0.2367   0.2474   0.2531
  0.2603   0.2614   0.2775   0.2840   0.2881   0.3029   0.3096   0.3121
  0.3170   0.3295   0.3325   0.3349   0.3388   0.3443   0.3483   0.3558
  0.3638   0.3645   0.3731   0.3789   0.3917   0.3966   0.3983   0.4072
  0.4181   0.4353   0.4380   0.4520   0.4606   0.4687   0.4874   0.4882
  0.5118   0.5431   0.5521   0.5868   0.5904   0.6039   0.6179   0.6306
  0.6400   0.6448   0.6515   0.6529   0.6601   0.6794   0.6851   0.7004
  0.7152   0.7290   0.7304   0.7447   0.7555   0.7601   0.7723   0.7935
  0.8129   0.8233   0.8357   0.8490   0.8644   0.8933   0.8992   0.9081
  0.9294   0.9511   0.9641   0.9932   1.0056   1.0187   1.0386   1.0705
  1.0832   1.0920   1.0991   1.1099   1.1242   1.1272   1.1410   1.1494
  1.1681   1.1773   1.1792   1.1858   1.1935   1.2134   1.2218   1.2295
  1.2383   1.2530   1.2576   1.2713   1.2864   1.2912   1.3013   1.3206
  1.3341   1.3579   1.3824   1.3886   1.4100   1.4216   1.4527   1.4594
  1.4734   1.4872   1.4955   1.5323   1.5431   1.5622   1.5707   1.5748
  1.5998   1.6115   1.6218   1.6346   1.6455   1.6565   1.6981   1.7212
  1.7254   1.7645   1.8012   1.8042   1.8252   1.8579   1.9038   1.9159
  1.9300   1.9521   1.9812   1.9967   2.0522   2.0613   2.0949   2.1428
  2.1688   2.2129   2.2448   2.2732   2.2829   2.3446   2.3851   2.3914
  2.4017   2.4298   2.4354   2.4782   2.5334   2.5675   2.6020   2.6163
  2.6675   2.7042   2.7189   2.7559   2.7855   2.7963   2.8096   2.8419
  2.8489   2.8582   2.8798   2.9258   2.9327   2.9422   2.9467   2.9867
  3.0056   3.0568   3.0738   3.1089   3.1501   3.1568   3.1750   3.1853
  3.2153   3.2295   3.2459   3.2658   3.2869   3.3063   3.3253   3.3471
  3.3684   3.3901   3.3921   3.4216   3.4293   3.4582   3.4880   3.4972
  3.5067   3.5186   3.5450   3.5523   3.5628   3.6098   3.6216   3.6477
  3.6712   3.6864   3.6915   3.7269   3.7344   3.7514   3.7754   3.7934
  3.8114   3.8322   3.8473   3.8671   3.8726   3.8768   3.9042   3.9141
  3.9648   3.9794   3.9925   4.0334   4.0686   4.0951   4.1260   4.1362
  4.1582   4.1831   4.2153   4.2373   4.2555   4.2723   4.2802   4.3109
  4.3512   4.3760   4.3919   4.4022   4.4212   4.4762   4.4949   4.5119
  4.5363   4.5842   4.6108   4.6328   4.7454   4.8224   4.8335   4.9124
  5.0548   5.1384   5.1630   5.1716   5.1825   5.2051   5.2170   5.2299
  5.2491   5.2534   5.2709   5.2725   5.2878   5.2954   5.3116   5.3165
  5.3476   5.3561   5.3851   5.4099   5.4270   5.4383   5.4561   5.4760
  5.5422   5.5573   5.5744   5.5767   5.5901   5.5968   5.6308   5.6409
  5.6632   5.6868   5.7199   5.7639   5.7991   5.8417   5.8651   5.9358
  5.9925   6.0031   6.0638   6.0767   6.1343   6.1850   6.3169   6.4092
  6.5760   6.6313   6.7461   6.8595   6.9492   7.0210   7.0336   7.0441
  7.0994   7.1014   7.1617   7.1979   7.2252   7.2695   7.2994   7.3110
  7.3232   7.3296   7.3460   7.3736   7.3788   7.3970   7.4886   7.5000
  7.6111   7.6470   7.6975   7.7278   7.7629   7.7722   7.8146   7.8623
  7.9014   7.9468  24.3897  24.7314  24.9034  25.0948  25.2593  50.5806
 50.5864  50.6089  50.6692  50.7599
 --------------------------------------------------------------
 
          Ground-State Mulliken Net Atomic Charges

     Atom                 Charge (a.u.)    Spin (a.u.)
  --------------------------------------------------------
      1 C                    -0.263166       0.033522
      2 O                    -0.392071       0.015276
      3 C                    -0.328816       0.027766
      4 O                    -0.434590      -0.000526
      5 O                    -0.202779       0.821084
      6 C                     0.131964       0.040619
      7 C                     0.044706       0.055250
      8 C                     0.098873      -0.002468
      9 O                    -0.304634       0.002116
     10 O                    -0.494138       0.005850
     11 H                     0.254933      -0.002303
     12 H                     0.230042      -0.000079
     13 H                     0.332206      -0.000372
     14 H                     0.301660       0.001842
     15 H                     0.300194       0.002020
     16 H                     0.363229      -0.000191
     17 H                     0.362386       0.000594
  --------------------------------------------------------
  Sum of atomic charges =    -0.000000
  Sum of spin   charges =     1.000000

 -----------------------------------------------------------------
                    Cartesian Multipole Moments
 -----------------------------------------------------------------
    Charge (ESU x 10^10)
                -0.0000
    Dipole Moment (Debye)
         X       1.4507      Y      -0.1458      Z       6.4772
       Tot       6.6393
    Quadrupole Moments (Debye-Ang)
        XX     -33.3547     XY      -3.0815     YY     -66.0637
        XZ      18.7306     YZ      -3.8380     ZZ     -49.6082
    Octopole Moments (Debye-Ang^2)
       XXX    -351.7249    XXY      -7.0739    XYY    -225.3470
       YYY     -20.7771    XXZ      35.3370    XYZ      -3.8664
       YYZ     -39.9852    XZZ    -194.4087    YZZ     -12.9435
       ZZZ    -104.3611
    Hexadecapole Moments (Debye-Ang^3)
      XXXX   -3290.5080   XXXY     -39.7107   XXYY   -1046.4528
      XYYY    -135.6402   YYYY    -261.3881   XXXZ    -140.9373
      XXYZ       5.8723   XYYZ    -190.2838   YYYZ     -18.9733
      XXZZ   -1051.0482   XYZZ     -55.7910   YYZZ    -126.5845
      XZZZ    -527.5797   YZZZ     -29.1891   ZZZZ    -482.0418
 -----------------------------------------------------------------
 Calculating analytic gradient of the SCF energy
 Gradient of CDS energy
            1           2           3           4           5           6
    1  -0.0013861   0.0006369   0.0023816  -0.0016507  -0.0009371  -0.0001579
    2  -0.0014273   0.0016512   0.0040555   0.0021635  -0.0059507   0.0000117
    3   0.0000163  -0.0003313  -0.0036819   0.0030274   0.0005076   0.0001443
            7           8           9          10          11          12
    1  -0.0001943   0.0037933  -0.0032744   0.0001047   0.0002546   0.0001930
    2  -0.0000691   0.0003124  -0.0002402  -0.0000228   0.0000397  -0.0000455
    3   0.0004256   0.0003426  -0.0017876   0.0011265   0.0002536  -0.0002372
           13          14          15          16          17
    1  -0.0002131  -0.0000967   0.0000534   0.0004272   0.0000656
    2  -0.0003777   0.0000136  -0.0000293   0.0000494  -0.0001344
    3   0.0002631   0.0000535   0.0001774  -0.0000151  -0.0002848
 Gradient of SCF Energy
            1           2           3           4           5           6
    1   0.0035439   0.0001879   0.0015186   0.0020266   0.0006903  -0.0009758
    2  -0.0053674  -0.0009190   0.0041968  -0.0046211   0.0019151   0.0011715
    3  -0.0037990  -0.0223976  -0.0061567  -0.0051196  -0.0008516  -0.0086666
            7           8           9          10          11          12
    1   0.0097205  -0.0023403  -0.0102430  -0.0032836  -0.0033075  -0.0007284
    2   0.0030275  -0.0023970  -0.0015404   0.0023165   0.0034706   0.0021295
    3  -0.0101097   0.0038381   0.0111811  -0.0085335   0.0089257   0.0007514
           13          14          15          16          17
    1   0.0009594  -0.0120045   0.0023820   0.0151535  -0.0032996
    2   0.0002116  -0.0028075  -0.0023892   0.0020527  -0.0004503
    3   0.0194026   0.0133790   0.0127340  -0.0079300   0.0033524
 Max gradient component =       2.240E-02
 RMS gradient           =       7.157E-03
 Computing fast CPCM-SWIG gradient
 Updating gradient with PCM contributions...
 -- total gradient after adding PCM contribution --
---------------------------------------------------
  Atom         X              Y              Z     
---------------------------------------------------
   1      -0.000880       0.000020      -0.000026
   2       0.000150       0.000078       0.000016
   3       0.000270      -0.000058      -0.000010
   4       0.000026       0.000002      -0.000022
   5       0.000011       0.000017       0.000004
   6       0.000036       0.000040       0.000009
   7      -0.000000       0.000002      -0.000004
   8       0.000036       0.000034       0.000088
   9      -0.000036       0.000021      -0.000019
  10      -0.000007      -0.000006      -0.000048
  11       0.000188      -0.000122      -0.000169
  12       0.000167      -0.000060       0.000162
  13       0.000005       0.000006       0.000018
  14      -0.000008       0.000016      -0.000010
  15      -0.000003       0.000019       0.000006
  16       0.000003       0.000021       0.000004
  17       0.000043      -0.000030       0.000002
---------------------------------------------------
 Number of fixed atoms: 0
 Gradient time:  CPU 352.47 s  wall 18.22 s
 ----------------------------------------------------------------
             Standard Nuclear Orientation (Angstroms)
    I     Atom           X                Y                Z
 ----------------------------------------------------------------
    1      C       1.0505187000     0.0617743000     0.3443880000
    2      O       0.7716834000    -1.3096786000     0.5288867000
    3      C       2.5783461000     0.3329543000     0.3049672000
    4      O       3.1064437000    -0.4340924000    -0.7399411000
    5      O       2.7759734000     1.6713104000     0.1805999000
    6      C       3.1891171000     0.0427280000     1.6863497000
    7      C       4.4732480000    -0.0269614000     2.0232628000
    8      C       5.6386715000     0.1603453000     1.1344953000
    9      O       6.7701977000     0.2367645000     1.8336242000
   10      O       5.6226180000     0.2397308000    -0.0809897000
   11      H       0.6146680000     0.6757433000     1.1292332000
   12      H       0.6467938000     0.3546307000    -0.6213279000
   13      H       0.8108601000    -1.5157689000     1.4692089000
   14      H       2.4558458000    -0.0666340000     2.4757547000
   15      H       4.7220325000    -0.2275540000     3.0562382000
   16      H       7.5112515000     0.3661001000     1.2200749000
   17      H       4.0714626000    -0.2873870000    -0.7385293000
 ----------------------------------------------------------------
 Nuclear Repulsion Energy =         552.47156422 hartrees
 There are       39 alpha and       38 beta electrons
 Discretize the solute cavity surface with Lebedev spheres
	Using 110 Lebedev grid points for each H atom
	Using 194 Lebedev grid points for other atoms
	Atomic van der Waals radii will be scaled by 1.20
 Remove points where switching function is < 1.0e-08
 Keep 1377 surface tesserae and discard 1333 interior tesserae
 Molecular Surface Area = 156.499 Angst**2
 Requested basis set is 6-311++G(2df,2p)
 There are 122 shells and 410 basis functions
 A cutoff of  1.0D-12 yielded   6512 shell pairs
 There are     73744 function pairs (     92400 Cartesian)
 Smallest overlap matrix eigenvalue = 3.68E-06
 Guess MOs from SCF MO coefficient file

 -----------------------------------------------------------------------
  General SCF calculation program by
  Eric Jon Sundstrom, Paul Horn, Yuezhi Mao, Dmitri Zuev, Alec White,
  David Stuck, Shaama M.S., Shane Yost, Joonho Lee, David Small,
  Daniel Levine, Susi Lehtola, Hugh Burton, Evgeny Epifanovsky,
  Bang C. Huynh
 -----------------------------------------------------------------------
 Exchange:     0.1500 Hartree-Fock + 1.0000 wB97M-V + LR-HF
 Correlation:  1.0000 wB97M-V
 Using SG-2 standard quadrature grid
 Nonlocal Correlation:  VV10 with C = 0.0100 and b = 6.00 and scale = 1.00000
 Grid used for NLC:  SG-1 standard quadrature
 
 Citation of the SMD model:
 Marenich, A.V.; Cramer, C.J.; Truhlar, D.G.
 J. Phys. Chem. B 2009, 113, 6378-6396.
 iSolventCode=           1
 Solvent: water                                                           
 
 vradii
            1           2           3           4           5           6
    1   1.8500000   1.5200000   1.8500000   1.5200000   1.5200000   1.8500000
            7           8           9          10          11          12
    1   1.8500000   1.8500000   1.5200000   1.5200000   1.2000000   1.2000000
           13          14          15          16          17
    1   1.2000000   1.2000000   1.2000000   1.2000000   1.2000000
 -------------------------------------------------------
 OpenMP BLAS3 based DFT computing Module                
 Release: version 1.0, May 2013, Q-Chem Inc. Pittsburgh 
 -------------------------------------------------------
 A unrestricted SCF calculation will be
 performed using Roothaan-Hall, DIIS, GDM
 SCF converges when RMS gradient is below 1.0e-07
 ---------------------------------------
  Cycle       Energy         DIIS error
 ---------------------------------------
    1    -570.7894092773      2.44e-04  Roothaan Step
 ---------------------------------------
  Cycle       Energy         DIIS error
 ---------------------------------------
    1    -570.8275770998      2.69e-04  
    2    -570.8340281331      2.29e-04  Done DIIS. Switching to GDM
 ---------------------------------------
  Cycle       Energy        RMS Gradient
 ---------------------------------------
    1    -570.8340281331      8.00e-03   Normal BFGS step
    2    -570.8336039218      1.40e-02  Line search: overstep
    3    -570.8368665396      2.86e-03   Normal BFGS step
    4    -570.8370815829      1.81e-03   Normal BFGS step
    5    -570.8371132651      9.32e-04   Normal BFGS step
    6    -570.8371256813      4.24e-04   Normal BFGS step
    7    -570.8371269107      4.45e-04   Normal BFGS step
    8    -570.8371273720      1.71e-04   Normal BFGS step
    9    -570.8371275296      4.97e-05   Normal BFGS step
   10    -570.8371275506      3.89e-05   Normal BFGS step
   11    -570.8371275610      2.47e-05   Normal BFGS step
   12    -570.8371275658      2.76e-05   Normal BFGS step
   13    -570.8371275691      2.46e-05   Normal BFGS step
   14    -570.8371275724      1.99e-05   Normal BFGS step
   15    -570.8371275750      1.51e-05   Normal BFGS step
   16    -570.8371275769      9.65e-06   Normal BFGS step
   17    -570.8371275781      5.48e-06   Normal BFGS step
   18    -570.8371275785      4.34e-06   Normal BFGS step
   19    -570.8371275786      2.38e-06   Normal BFGS step
   20    -570.8371275787      1.12e-06   Normal BFGS step
   21    -570.8371275787      3.80e-07   Normal BFGS step
   22    -570.8371275787      2.16e-07   Normal BFGS step
   23    -570.8371275787      1.39e-07   Normal BFGS step
   24    -570.8371275786      7.42e-08  Convergence criterion met
 ---------------------------------------
 SCF time:   CPU 3460.11s  wall 139.00s 
<S^2> =          0.755277049
(3)  G-ENP(liq) elect-nuc-pol free energy of system     -570.837127579 a.u.
(4)  G-CDS(liq) cavity-dispersion-solvent structure 
     free energy                                                4.9696 kcal/mol
(6)  G-S(liq) free energy of system                     -570.829207964 a.u.
 SCF   energy in the final basis set =     -570.8292079637
 Total energy in the final basis set =     -570.8292079637
 
 --------------------------------------------------------------
 
                    Orbital Energies (a.u.)
 --------------------------------------------------------------
 
 Alpha MOs
 -- Occupied --
-19.3968 -19.3922 -19.3492 -19.3466 -19.3401 -10.5057 -10.4701 -10.4014
-10.3913 -10.3746  -1.2603  -1.2198  -1.1695  -1.1675  -1.1368  -0.9448
 -0.8642  -0.8132  -0.7427  -0.6907  -0.6668  -0.6506  -0.6354  -0.6122
 -0.5890  -0.5804  -0.5670  -0.5538  -0.5364  -0.5245  -0.5077  -0.4858
 -0.4525  -0.4470  -0.4419  -0.4262  -0.4097  -0.3916  -0.3821
 -- Virtual --
  0.0096   0.0257   0.0367   0.0429   0.0558   0.0581   0.0640   0.0826
  0.0886   0.0999   0.1065   0.1116   0.1267   0.1293   0.1340   0.1393
  0.1490   0.1521   0.1611   0.1710   0.1759   0.1796   0.1819   0.1905
  0.1923   0.1992   0.2126   0.2227   0.2362   0.2462   0.2521   0.2592
  0.2608   0.2764   0.2837   0.2879   0.3006   0.3071   0.3102   0.3153
  0.3289   0.3307   0.3342   0.3382   0.3435   0.3466   0.3552   0.3623
  0.3634   0.3722   0.3782   0.3905   0.3960   0.3966   0.4061   0.4132
  0.4303   0.4368   0.4497   0.4590   0.4681   0.4855   0.4873   0.5105
  0.5422   0.5507   0.5856   0.5895   0.6029   0.6167   0.6298   0.6385
  0.6437   0.6507   0.6519   0.6592   0.6789   0.6829   0.6998   0.7140
  0.7274   0.7293   0.7429   0.7547   0.7584   0.7713   0.7925   0.8108
  0.8213   0.8351   0.8482   0.8635   0.8926   0.8979   0.9074   0.9283
  0.9503   0.9613   0.9914   1.0033   1.0180   1.0379   1.0698   1.0806
  1.0893   1.0969   1.1082   1.1227   1.1262   1.1382   1.1478   1.1655
  1.1734   1.1773   1.1804   1.1894   1.2103   1.2209   1.2276   1.2349
  1.2498   1.2550   1.2666   1.2823   1.2874   1.2972   1.3190   1.3325
  1.3561   1.3806   1.3857   1.4053   1.4183   1.4503   1.4579   1.4721
  1.4859   1.4940   1.5286   1.5388   1.5584   1.5675   1.5736   1.5971
  1.6069   1.6202   1.6276   1.6422   1.6541   1.6947   1.7188   1.7190
  1.7589   1.7993   1.8020   1.8235   1.8424   1.8863   1.9104   1.9176
  1.9496   1.9738   1.9926   2.0472   2.0579   2.0872   2.1388   2.1653
  2.2105   2.2420   2.2722   2.2740   2.3411   2.3832   2.3908   2.3996
  2.4289   2.4345   2.4736   2.5265   2.5661   2.5988   2.6141   2.6657
  2.7007   2.7169   2.7536   2.7842   2.7946   2.8075   2.8387   2.8463
  2.8561   2.8779   2.9241   2.9306   2.9390   2.9439   2.9845   3.0031
  3.0525   3.0712   3.1055   3.1476   3.1535   3.1723   3.1831   3.2133
  3.2274   3.2437   3.2634   3.2844   3.3030   3.3227   3.3437   3.3667
  3.3874   3.3900   3.4192   3.4275   3.4555   3.4853   3.4943   3.5049
  3.5154   3.5418   3.5487   3.5609   3.6077   3.6189   3.6457   3.6691
  3.6844   3.6888   3.7263   3.7323   3.7494   3.7747   3.7912   3.8096
  3.8307   3.8453   3.8632   3.8700   3.8747   3.9021   3.9126   3.9612
  3.9779   3.9900   4.0315   4.0656   4.0935   4.1240   4.1345   4.1551
  4.1819   4.2129   4.2348   4.2543   4.2711   4.2786   4.3100   4.3496
  4.3746   4.3893   4.3986   4.4193   4.4738   4.4928   4.5097   4.5350
  4.5820   4.6082   4.6302   4.7418   4.8183   4.8303   4.9083   5.0504
  5.1036   5.1193   5.1381   5.1637   5.2025   5.2142   5.2237   5.2305
  5.2432   5.2602   5.2619   5.2724   5.2899   5.2920   5.3055   5.3318
  5.3442   5.3693   5.3966   5.4061   5.4190   5.4375   5.4645   5.5379
  5.5504   5.5671   5.5746   5.5819   5.5916   5.6300   5.6343   5.6610
  5.6846   5.7143   5.7536   5.7964   5.8381   5.8604   5.9266   5.9887
  5.9989   6.0481   6.0633   6.1193   6.1820   6.3076   6.4089   6.5701
  6.6254   6.7455   6.8433   6.9350   6.9403   6.9547   7.0337   7.0943
  7.0998   7.1548   7.1960   7.2232   7.2674   7.2926   7.2989   7.3189
  7.3267   7.3434   7.3651   7.3731   7.3928   7.4377   7.4905   7.5944
  7.6392   7.6960   7.7129   7.7548   7.7683   7.8131   7.8607   7.8907
  7.9432  24.3887  24.7291  24.9045  25.0943  25.2585  50.5745  50.5834
 50.6027  50.6688  50.7597
 
 Beta MOs
 -- Occupied --
-19.3922 -19.3753 -19.3487 -19.3464 -19.3402 -10.5057 -10.4705 -10.3999
-10.3895 -10.3738  -1.2600  -1.2029  -1.1690  -1.1634  -1.1102  -0.9403
 -0.8556  -0.8101  -0.7365  -0.6884  -0.6609  -0.6437  -0.6330  -0.6005
 -0.5872  -0.5743  -0.5605  -0.5505  -0.5230  -0.5136  -0.5034  -0.4553
 -0.4512  -0.4283  -0.4228  -0.4094  -0.4060  -0.3787
 -- Virtual --
 -0.0793   0.0149   0.0261   0.0367   0.0433   0.0563   0.0585   0.0642
  0.0826   0.0892   0.1001   0.1066   0.1124   0.1271   0.1297   0.1342
  0.1398   0.1500   0.1530   0.1612   0.1713   0.1760   0.1800   0.1822
  0.1913   0.1934   0.2001   0.2132   0.2231   0.2366   0.2474   0.2530
  0.2602   0.2614   0.2775   0.2840   0.2882   0.3028   0.3096   0.3121
  0.3170   0.3295   0.3325   0.3349   0.3389   0.3444   0.3483   0.3558
  0.3638   0.3645   0.3732   0.3789   0.3917   0.3966   0.3983   0.4073
  0.4181   0.4353   0.4380   0.4521   0.4606   0.4686   0.4874   0.4881
  0.5118   0.5431   0.5521   0.5868   0.5905   0.6039   0.6180   0.6307
  0.6400   0.6449   0.6515   0.6529   0.6601   0.6794   0.6851   0.7004
  0.7152   0.7290   0.7304   0.7447   0.7555   0.7601   0.7723   0.7936
  0.8129   0.8233   0.8358   0.8491   0.8644   0.8933   0.8992   0.9081
  0.9294   0.9512   0.9641   0.9932   1.0056   1.0186   1.0386   1.0706
  1.0832   1.0921   1.0991   1.1098   1.1242   1.1272   1.1410   1.1494
  1.1681   1.1773   1.1792   1.1858   1.1935   1.2134   1.2219   1.2295
  1.2382   1.2530   1.2576   1.2714   1.2865   1.2913   1.3013   1.3204
  1.3342   1.3579   1.3823   1.3885   1.4101   1.4215   1.4527   1.4596
  1.4733   1.4872   1.4956   1.5323   1.5431   1.5624   1.5707   1.5749
  1.5997   1.6115   1.6218   1.6348   1.6457   1.6566   1.6985   1.7213
  1.7254   1.7644   1.8012   1.8042   1.8252   1.8581   1.9037   1.9158
  1.9300   1.9521   1.9813   1.9965   2.0522   2.0613   2.0948   2.1427
  2.1687   2.2128   2.2448   2.2732   2.2829   2.3441   2.3851   2.3914
  2.4017   2.4298   2.4354   2.4783   2.5334   2.5675   2.6020   2.6163
  2.6676   2.7041   2.7191   2.7560   2.7855   2.7963   2.8096   2.8419
  2.8488   2.8582   2.8799   2.9258   2.9327   2.9422   2.9467   2.9868
  3.0056   3.0568   3.0740   3.1088   3.1501   3.1569   3.1751   3.1852
[...]
 Frequency:       794.44                 846.55                 884.92
 Force Cnst:      1.7913                 1.2670                 1.9540
 Red. Mass:       4.8173                 3.0008                 4.2352
 IR Active:          YES                    YES                    YES
 IR Intens:       12.251                107.817                160.924
 Raman Active:       YES                    YES                    YES
               X      Y      Z        X      Y      Z        X      Y      Z
 C         -0.077 -0.007 -0.040   -0.023  0.001 -0.001   -0.206 -0.001  0.106
 O         -0.012 -0.024  0.014   -0.002 -0.007 -0.000   -0.008 -0.003 -0.012
 C          0.075  0.078 -0.087    0.024 -0.011  0.015    0.338  0.217  0.079
 O          0.058 -0.110 -0.116    0.003 -0.008 -0.001    0.025 -0.010 -0.020
 O         -0.005  0.129  0.018    0.006  0.043 -0.007   -0.017 -0.158  0.045
 C         -0.199 -0.068  0.286    0.001 -0.071 -0.005   -0.025  0.041 -0.055
 C         -0.061 -0.001  0.017    0.006 -0.197 -0.056   -0.056  0.032 -0.139
 C          0.123 -0.028 -0.116   -0.045  0.333  0.034   -0.018 -0.016  0.018
 O          0.163  0.021  0.126    0.018 -0.069 -0.002    0.025  0.005  0.006
 O         -0.107  0.007 -0.126    0.003 -0.081  0.010   -0.017 -0.003  0.036
 H          0.113 -0.090  0.131   -0.029 -0.016  0.009   -0.500  0.066 -0.114
 H         -0.337  0.057  0.090   -0.024  0.002  0.001    0.249 -0.262 -0.156
 H          0.006  0.029  0.025   -0.009  0.015  0.006   -0.057 -0.208 -0.052
 H         -0.246  0.016  0.268    0.029  0.686  0.126   -0.075  0.049 -0.112
 H          0.154  0.075 -0.012    0.050  0.566  0.081   -0.140  0.022 -0.128
 H          0.382 -0.014  0.383   -0.019  0.026 -0.027   -0.049  0.003 -0.083
 H          0.051 -0.118 -0.247   -0.002  0.025 -0.047    0.046 -0.243 -0.343
 TransDip   0.105 -0.014 -0.037   -0.084  0.322  0.014   -0.370 -0.153 -0.070

 Mode:                22                     23                     24
 Frequency:       937.85                 959.98                1017.64
 Force Cnst:      2.1215                 1.2720                 1.6459
 Red. Mass:       4.0937                 2.3426                 2.6975
 IR Active:          YES                    YES                    YES
 IR Intens:        5.424                 11.717                 25.031
 Raman Active:       YES                    YES                    YES
               X      Y      Z        X      Y      Z        X      Y      Z
 C          0.060 -0.032 -0.008   -0.045  0.054  0.158    0.106 -0.007  0.128
 O         -0.014  0.006  0.002    0.024  0.018 -0.021   -0.005  0.028 -0.020
 C          0.016  0.146 -0.097   -0.049 -0.150  0.076   -0.145  0.182 -0.176
 O         -0.054  0.079  0.130    0.054 -0.051 -0.082    0.015 -0.036 -0.021
 O         -0.018 -0.154  0.014    0.014  0.099 -0.009   -0.013 -0.049  0.005
 C          0.001 -0.029 -0.143   -0.010  0.048 -0.063   -0.007 -0.119  0.090
 C         -0.073 -0.056  0.292   -0.047 -0.029  0.103    0.058  0.045 -0.036
 C          0.037  0.051 -0.096    0.015  0.020 -0.033    0.008 -0.013  0.020
 O          0.064 -0.003  0.041    0.027 -0.001  0.014   -0.028 -0.000 -0.014
 O          0.002  0.003 -0.171    0.000  0.001 -0.064    0.001  0.000  0.040
 H          0.137 -0.008  0.014   -0.512  0.260 -0.260   -0.146  0.269 -0.231
 H          0.045 -0.027  0.001    0.406 -0.280 -0.137    0.335 -0.362 -0.080
 H         -0.011 -0.025 -0.005   -0.087 -0.310 -0.090   -0.151 -0.372 -0.103
 H         -0.336  0.227 -0.423   -0.070 -0.080 -0.137    0.010  0.344  0.175
 H         -0.263 -0.010  0.358   -0.151 -0.069  0.122    0.237 -0.091 -0.102
 H          0.281  0.011  0.309    0.112  0.007  0.119   -0.052 -0.005 -0.044
 H         -0.043 -0.027  0.097    0.041  0.100  0.080    0.008  0.066  0.218
 TransDip   0.074 -0.006 -0.009    0.031 -0.031  0.100    0.013 -0.019  0.159

 Mode:                25                     26                     27
 Frequency:      1031.28                1152.61                1193.01
 Force Cnst:      0.8430                 2.0579                 1.2285
 Red. Mass:       1.3453                 2.6291                 1.4650
 IR Active:          YES                    YES                    YES
 IR Intens:       13.738                855.899                218.301
 Raman Active:       YES                    YES                    YES
               X      Y      Z        X      Y      Z        X      Y      Z
 C         -0.027  0.006 -0.016    0.009 -0.002 -0.005    0.038 -0.021  0.016
 O          0.001 -0.008  0.001   -0.006 -0.007  0.001   -0.018 -0.017 -0.002
 C          0.034 -0.046  0.049    0.003  0.045  0.037   -0.074  0.104  0.062
 O          0.001  0.004  0.002    0.004 -0.027 -0.033    0.034 -0.053 -0.072
 O          0.002  0.030 -0.010   -0.002 -0.007  0.001    0.001 -0.021 -0.001
 C         -0.001 -0.103 -0.040   -0.026 -0.004  0.022    0.018 -0.008 -0.014
 C         -0.008  0.098  0.024   -0.014 -0.012 -0.002   -0.016 -0.001  0.011
 C          0.005  0.002 -0.002    0.243  0.028  0.043   -0.038 -0.003 -0.009
 O         -0.003  0.000 -0.003   -0.157 -0.007 -0.167    0.027  0.001  0.030
 O          0.000 -0.001 -0.001   -0.002 -0.006  0.070    0.001  0.002 -0.028
 H         -0.015 -0.049  0.035   -0.053 -0.097  0.034   -0.331 -0.409  0.109
 H         -0.039  0.067  0.008    0.040  0.076  0.006    0.372  0.367 -0.006
 H          0.025  0.082  0.021    0.033  0.104  0.025    0.175  0.510  0.110
 H          0.012  0.691  0.081    0.007 -0.015  0.055    0.138 -0.011  0.097
 H         -0.035 -0.671 -0.120   -0.459  0.040  0.120   -0.150  0.022  0.046
 H          0.009  0.007  0.013    0.472  0.012  0.616   -0.087 -0.002 -0.114
 H          0.001 -0.010 -0.046   -0.003  0.076  0.047    0.021  0.064  0.136
 TransDip   0.109 -0.035  0.030    0.806  0.150  0.455   -0.138  0.409  0.195

 Mode:                28                     29                     30
 Frequency:      1248.37                1272.79                1311.88
 Force Cnst:      1.0713                 2.9109                 2.4755
 Red. Mass:       1.1667                 3.0497                 2.4413
 IR Active:          YES                    YES                    YES
 IR Intens:       63.512                163.588                206.930
 Raman Active:       YES                    YES                    YES
               X      Y      Z        X      Y      Z        X      Y      Z
 C         -0.004  0.037  0.019   -0.012 -0.281  0.011    0.032  0.026 -0.092
 O         -0.008 -0.041  0.003    0.033  0.272 -0.021   -0.001 -0.016  0.031
 C          0.025 -0.038 -0.041   -0.012 -0.019  0.035   -0.078  0.135  0.254
 O         -0.013  0.011  0.020   -0.001 -0.005 -0.007    0.033 -0.075 -0.108
 O         -0.002  0.005  0.001    0.012  0.019 -0.003    0.001 -0.029 -0.005
 C         -0.042  0.005 -0.008   -0.016  0.006 -0.020   -0.000  0.006 -0.055
 C          0.019 -0.003 -0.004    0.003 -0.001  0.005    0.010 -0.003  0.011
 C          0.015 -0.006  0.003   -0.003 -0.002 -0.001   -0.000 -0.003 -0.007
 O         -0.011  0.001 -0.023   -0.001  0.001 -0.012    0.001  0.000  0.003
 O          0.000 -0.001  0.040    0.001 -0.001  0.017   -0.002 -0.001  0.010
 H         -0.203 -0.105  0.018   -0.204 -0.629  0.170    0.349  0.165 -0.015
 H          0.219  0.211 -0.024   -0.204 -0.431  0.050   -0.298  0.036  0.052
 H          0.087  0.199  0.055   -0.032  0.008 -0.093   -0.117 -0.463 -0.065
 H         -0.433  0.034 -0.368   -0.143  0.022 -0.133   -0.321  0.088 -0.347
 H          0.643  0.038 -0.142    0.283  0.004 -0.060    0.319  0.034 -0.056
 H          0.101  0.002  0.120    0.071  0.002  0.081   -0.014 -0.002 -0.016
 H         -0.013  0.056  0.072   -0.004  0.024  0.032    0.002  0.139  0.212
 TransDip   0.214  0.092 -0.104   -0.150 -0.377  0.055   -0.088  0.301  0.337

 Mode:                31                     32                     33
 Frequency:      1333.56                1378.06                1387.97
 Force Cnst:      1.6199                 1.4181                 1.6054
 Red. Mass:       1.5460                 1.2675                 1.4144
 IR Active:          YES                    YES                    YES
 IR Intens:       78.338                 84.165                 30.251
 Raman Active:       YES                    YES                    YES
               X      Y      Z        X      Y      Z        X      Y      Z
 C          0.005  0.004 -0.006   -0.067 -0.041  0.007   -0.101 -0.098  0.039
 O         -0.001  0.007  0.004    0.005  0.002 -0.013    0.019  0.018 -0.023
 C          0.038 -0.023 -0.019    0.091 -0.004 -0.022   -0.071  0.014  0.027
 O         -0.021 -0.004 -0.000   -0.053 -0.028 -0.027    0.031  0.009  0.007
 O         -0.002  0.009  0.001    0.000  0.011  0.007    0.009  0.012 -0.004
 C         -0.002 -0.008  0.053   -0.003  0.008 -0.004   -0.019 -0.002 -0.013
 C          0.043  0.002 -0.018   -0.023  0.002 -0.003    0.009 -0.004  0.015
 C          0.165  0.018  0.031   -0.027 -0.004  0.015    0.066  0.007  0.002
 O         -0.053 -0.010  0.051    0.012  0.002 -0.002   -0.023 -0.003  0.007
 O         -0.025  0.000 -0.053    0.010  0.002 -0.013   -0.013 -0.001 -0.003
 H         -0.109 -0.097  0.009    0.367  0.150  0.097    0.554  0.343  0.065
 H         -0.054 -0.012  0.013    0.205 -0.066 -0.109    0.471  0.107 -0.134
 H         -0.001 -0.021 -0.004    0.026  0.114  0.013    0.068  0.220  0.023
 H         -0.355  0.039 -0.267    0.125 -0.016  0.113   -0.066  0.003 -0.049
 H         -0.290 -0.009  0.066    0.042 -0.014 -0.024    0.084  0.014  0.007
 H         -0.516 -0.018 -0.547    0.062  0.003  0.061   -0.129 -0.005 -0.130
 H         -0.031  0.166  0.217   -0.082  0.465  0.691    0.043 -0.240 -0.352
 TransDip   0.259 -0.016  0.114   -0.098 -0.009  0.277   -0.028 -0.166 -0.052

 Mode:                34                     35                     36
 Frequency:      1404.88                1428.35                1487.04
 Force Cnst:      1.3994                 1.9750                 1.5586
 Red. Mass:       1.2034                 1.6430                 1.1963
 IR Active:          YES                    YES                    YES
 IR Intens:      132.264                135.451                 10.354
 Raman Active:       YES                    YES                    YES
               X      Y      Z        X      Y      Z        X      Y      Z
 C          0.044  0.012  0.070    0.018  0.030 -0.016    0.009 -0.121  0.019
 O         -0.016 -0.032 -0.066   -0.004 -0.005  0.012    0.012  0.022 -0.002
 C         -0.001  0.017  0.040    0.025  0.012 -0.000    0.027  0.003 -0.007
 O          0.005 -0.007 -0.011   -0.001 -0.000  0.001   -0.009 -0.001  0.000
 O         -0.001 -0.008 -0.000   -0.002 -0.014  0.003    0.000  0.001  0.001
 C         -0.006  0.002 -0.016   -0.082  0.024 -0.105   -0.002  0.000 -0.004
 C         -0.011 -0.002  0.008   -0.077 -0.018  0.081   -0.012 -0.000  0.002
 C          0.016  0.001 -0.001    0.137  0.012  0.033    0.006 -0.000  0.005
 O         -0.004 -0.001  0.002   -0.037 -0.005  0.010   -0.001 -0.000  0.000
 O         -0.002 -0.000 -0.000   -0.018  0.000 -0.032   -0.000  0.000 -0.004
 H          0.003  0.263 -0.133   -0.088 -0.118  0.033   -0.216  0.421 -0.511
 H         -0.411 -0.512  0.115   -0.033 -0.007 -0.007   -0.214  0.585  0.314
 H          0.139  0.643  0.084   -0.045 -0.139 -0.016    0.010  0.006 -0.005
 H         -0.020 -0.004 -0.029    0.513 -0.072  0.441    0.042 -0.006  0.035
 H          0.097  0.010 -0.015    0.591  0.014 -0.059    0.029  0.002 -0.008
 H         -0.028 -0.001 -0.030   -0.199 -0.007 -0.203   -0.004 -0.000 -0.004
 H          0.002  0.003 -0.002    0.003 -0.002 -0.034   -0.012  0.052  0.071
 TransDip   0.157  0.323  0.081    0.355  0.062  0.095   -0.076 -0.057  0.040

 Mode:                37                     38                     39
 Frequency:      1715.89                1720.63                3091.83
 Force Cnst:     16.2356                13.3537                 5.9587
 Red. Mass:       9.3592                 7.6556                 1.0580
 IR Active:          YES                    YES                    YES
 IR Intens:      359.246                354.464                 36.975
 Raman Active:       YES                    YES                    YES
               X      Y      Z        X      Y      Z        X      Y      Z
 C          0.017 -0.001  0.009   -0.004  0.005 -0.009    0.045 -0.050 -0.002
 O         -0.004 -0.005 -0.002    0.001  0.001  0.001    0.000  0.000 -0.000
 C          0.019  0.011  0.035   -0.054 -0.003 -0.008    0.001  0.001 -0.000
 O         -0.001 -0.002 -0.007    0.007  0.004  0.004   -0.000 -0.000  0.000
 O          0.001 -0.007 -0.002    0.003  0.005 -0.001   -0.000 -0.000 -0.000
 C         -0.392  0.029 -0.120    0.335 -0.031  0.132   -0.001 -0.000  0.000
 C          0.486  0.001 -0.008   -0.357  0.018 -0.103    0.000 -0.000 -0.000
 C         -0.147 -0.044  0.470    0.012 -0.038  0.466   -0.000 -0.000  0.000
 O          0.001  0.003 -0.037    0.010  0.005 -0.041    0.000  0.000  0.000
 O          0.016  0.020 -0.277   -0.004  0.020 -0.285    0.000  0.000 -0.000
 H         -0.020  0.011 -0.021    0.022 -0.008  0.017   -0.311  0.432  0.573
 H         -0.014 -0.001  0.030   -0.003 -0.018 -0.018   -0.225  0.159 -0.555
 H          0.019  0.034  0.008   -0.004 -0.011 -0.003   -0.001  0.000  0.005
 H         -0.100 -0.040  0.220   -0.071  0.078 -0.300    0.006  0.000 -0.004
 H         -0.180 -0.057  0.174    0.326  0.057 -0.298    0.001  0.001  0.002
 H          0.228  0.007  0.261    0.205  0.017  0.196    0.000  0.000 -0.000
 H          0.053 -0.043 -0.121    0.055 -0.100 -0.174    0.001  0.001  0.000
 TransDip  -0.278 -0.004  0.540    0.197 -0.015  0.570    0.141 -0.132  0.023

 Mode:                40                     41                     42
 Frequency:      3157.31                3190.08                3214.13
 Force Cnst:      6.5262                 6.5277                 6.6627
 Red. Mass:       1.1112                 1.0887                 1.0946
 IR Active:          YES                    YES                    YES
 IR Intens:       19.134                  1.259                  0.451
 Raman Active:       YES                    YES                    YES
               X      Y      Z        X      Y      Z        X      Y      Z
 C         -0.003 -0.011 -0.096    0.000 -0.000 -0.003   -0.000  0.000 -0.001
 O          0.000  0.000  0.002    0.000 -0.000  0.000    0.000 -0.000  0.000
 C         -0.000 -0.001 -0.002    0.000  0.000  0.000    0.001 -0.000  0.001
 O         -0.000  0.000  0.000   -0.000  0.000  0.000    0.000  0.000  0.000
 O         -0.000  0.000  0.000    0.000 -0.000  0.000    0.000  0.000  0.000
 C         -0.002 -0.000  0.002    0.057  0.008 -0.057    0.025  0.003 -0.019
 C         -0.000  0.000 -0.000    0.002 -0.005  0.027   -0.023  0.015 -0.078
 C          0.000  0.000 -0.000    0.000  0.000 -0.000   -0.002 -0.000  0.001
 O         -0.000 -0.000  0.000   -0.000 -0.000  0.000    0.000  0.000  0.000
 O          0.000  0.000  0.000    0.000 -0.000 -0.000    0.000  0.000  0.000
 H         -0.252  0.340  0.443   -0.013  0.015  0.019   -0.003  0.002  0.003
 H          0.297 -0.205  0.695    0.008 -0.005  0.021    0.001 -0.001  0.005
 H         -0.006 -0.005 -0.014   -0.002 -0.002 -0.000   -0.001 -0.001  0.000
 H          0.026  0.004 -0.025   -0.637 -0.094  0.680   -0.229 -0.033  0.242
 H          0.001 -0.001  0.005   -0.075  0.063 -0.324    0.213 -0.174  0.897
 H         -0.000 -0.000  0.000   -0.000  0.000 -0.001    0.001 -0.000  0.002
 H          0.003  0.000  0.001    0.003  0.000  0.000   -0.001  0.000  0.001
 TransDip  -0.011 -0.026 -0.137   -0.028  0.015 -0.018    0.011 -0.006  0.017

 Mode:                43                     44                     45
 Frequency:      3545.38                3742.62                3825.28
 Force Cnst:      7.9037                 8.7876                 9.1994
 Red. Mass:       1.0672                 1.0648                 1.0671
 IR Active:          YES                    YES                    YES
 IR Intens:      708.641                251.916                136.612
 Raman Active:       YES                    YES                    YES
               X      Y      Z        X      Y      Z        X      Y      Z
 C          0.001 -0.000 -0.000   -0.000 -0.000 -0.000   -0.000 -0.001 -0.002
 O          0.000  0.000  0.000    0.000  0.000  0.000   -0.002  0.015 -0.061
 C         -0.002  0.001  0.002    0.000  0.000 -0.000   -0.000 -0.001 -0.000
 O         -0.062 -0.008  0.001    0.001  0.000  0.000   -0.000  0.000  0.000
 O          0.000 -0.001 -0.000   -0.000  0.000  0.000    0.000  0.000  0.000
 C          0.000 -0.000  0.000   -0.000  0.000 -0.000    0.000  0.000  0.000
 C         -0.001  0.000  0.000    0.001  0.000 -0.000   -0.000  0.000 -0.000
 C          0.000  0.001 -0.006   -0.003 -0.000  0.000    0.000  0.000 -0.000
 O         -0.000 -0.000  0.002   -0.048 -0.008  0.038   -0.000 -0.000  0.000
 O         -0.000  0.000  0.003    0.000 -0.000  0.001   -0.000 -0.000  0.000
 H          0.004 -0.001 -0.002    0.000 -0.000 -0.000   -0.003 -0.002  0.005
 H         -0.001  0.000 -0.001    0.000 -0.000  0.000    0.003 -0.004  0.012
 H          0.000  0.000 -0.002   -0.000  0.000 -0.001    0.035 -0.221  0.972
 H          0.000  0.001 -0.004    0.000 -0.000 -0.000   -0.000 -0.000 -0.001
 H         -0.002 -0.000  0.003    0.001  0.000  0.000   -0.000 -0.000 -0.000
 H          0.012  0.003 -0.013    0.774  0.134 -0.615    0.001  0.000 -0.001
 H          0.990  0.121 -0.037   -0.018 -0.003 -0.000    0.002  0.000 -0.000
 TransDip   0.842  0.073  0.108    0.480  0.059 -0.156   -0.083 -0.182  0.317

 STANDARD THERMODYNAMIC QUANTITIES AT   298.15 K  AND     1.00 ATM

   This Molecule has  0 Imaginary Frequencies
   Zero point vibrational energy:       78.804 kcal/mol

   Atom    1 Element C  Has Mass   12.00000
   Atom    2 Element O  Has Mass   15.99491
   Atom    3 Element C  Has Mass   12.00000
   Atom    4 Element O  Has Mass   15.99491
   Atom    5 Element O  Has Mass   15.99491
   Atom    6 Element C  Has Mass   12.00000
   Atom    7 Element C  Has Mass   12.00000
   Atom    8 Element C  Has Mass   12.00000
   Atom    9 Element O  Has Mass   15.99491
   Atom   10 Element O  Has Mass   15.99491
   Atom   11 Element H  Has Mass    1.00783
   Atom   12 Element H  Has Mass    1.00783
   Atom   13 Element H  Has Mass    1.00783
   Atom   14 Element H  Has Mass    1.00783
   Atom   15 Element H  Has Mass    1.00783
   Atom   16 Element H  Has Mass    1.00783
   Atom   17 Element H  Has Mass    1.00783
   Molecular Mass:   147.029360 amu
   Principal axes and moments of inertia in amu*Bohr^2:
                             1           2           3
    Eigenvalues --      622.75588  2354.70763  2488.58133
          X               0.97345    -0.14113    -0.18021
          Y               0.11446    -0.38163     0.91720
          Z               0.19822     0.91348     0.35534
   Rotational Symmetry Number is   1
   The Molecule is an Asymmetric Top
   Translational Enthalpy:        0.889 kcal/mol
   Rotational Enthalpy:           0.889 kcal/mol
   Vibrational Enthalpy:         83.517 kcal/mol
   gas constant (RT):             0.592 kcal/mol
   Translational Entropy:        40.867  cal/mol.K
   Rotational Entropy:           29.680  cal/mol.K
   Vibrational Entropy:          30.054  cal/mol.K

   Total Enthalpy:               85.887 kcal/mol
   Total Entropy:               100.600  cal/mol.K
 Total job time:  16068.94s(wall), 390882.61s(cpu) 
 Wed Aug 21 21:18:22 2024

        *************************************************************
        *                                                           *
        *  Thank you very much for using Q-Chem.  Have a nice day.  *
        *                                                           *
        *************************************************************


