
Running Job 1 of 1 Q_in.in
qchem Q_in.in_66381.0 /scratch/ari.fischer/qChem2294093.hpc-mn1/qchem66381/ 0
/usr/local/qchem-5.4.1/exe/qcprog.exe_s Q_in.in_66381.0 /scratch/ari.fischer/qChem2294093.hpc-mn1/qchem66381/
                  Welcome to Q-Chem
     A Quantum Leap Into The Future Of Chemistry


 Q-Chem 5.4, Q-Chem, Inc., Pleasanton, CA (2021)

 License issued to: Nanyang Technological University (site)

 E. Epifanovsky,  A. T. B. Gilbert,  Xintian Feng,  Joonho Lee,  Yuezhi Mao,  
 N. Mardirossian,  P. Pokhilko,  A. White,  M. Wormit,  M. P. Coons,  
 A. L. Dempwolff,  Zhengting Gan,  D. Hait,  P. R. Horn,  L. D. Jacobson,  
 I. Kaliman,  J. Kussmann,  A. W. Lange,  Ka Un Lao,  D. S. Levine,  Jie Liu,  
 S. C. McKenzie,  A. F. Morrison,  K. Nanda,  F. Plasser,  D. R. Rehn,  
 M. L. Vidal,  Zhi-Qiang You,  Ying Zhu,  B. Alam,  B. Albrecht,  
 A. Aldossary,  E. Alguire,  J. H. Andersen,  D. Barton,  K. Begam,  A. Behn,  
 Y. A. Bernard,  E. J. Berquist,  H. Burton,  A. Carreras,  K. Carter-Fenk,  
 R. Chakraborty,  A. D. Chien,  K. D. Closser,  V. Cofer-Shabica,  
 S. Dasgupta,  Jia Deng,  M. de Wergifosse,  M. Diedenhofen,  Hainam Do,  
 S. Ehlert,  Po-Tung Fang,  S. Fatehi,  Qingguo Feng,  T. Friedhoff,  
 J. Gayvert,  Qinghui Ge,  G. Gidofalvi,  M. Goldey,  J. Gomes,  
 C. Gonzalez-Espinoza,  S. Gulania,  A. Gunina,  M. W. D. Hanson-Heine,  
 P. H. P. Harbach,  A. W. Hauser,  M. F. Herbst,  M. Hernandez Vera,  
 M. Hodecker,  Z. C. Holden,  S. Houck,  Xunkun Huang,  Kerwin Hui,  
 B. C. Huynh,  M. Ivanov,  Hyunjun Ji,  Hanjie Jiang,  B. Kaduk,  S. Kaehler,  
 K. Khistyaev,  Jaehoon Kim,  P. Klunzinger,  Z. Koczor-Benda,  
 Joong Hoon Koh,  D. Kosenkov,  L. Koulias,  T. Kowalczyk,  C. M. Krauter,  
 K. Kue,  A. Kunitsa,  T. Kus,  A. Landau,  K. V. Lawler,  D. Lefrancois,  
 S. Lehtola,  Rain Li,  Yi-Pei Li,  Jiashu Liang,  M. Liebenthal,  
 Hung-Hsuan Lin,  You-Sheng Lin,  Fenglai Liu,  Kuan-Yu Liu,  
 M. Loipersberger,  A. Luenser,  A. Manjanath,  P. Manohar,  E. Mansoor,  
 S. F. Manzer,  Shan-Ping Mao,  A. V. Marenich,  T. Markovich,  S. Mason,  
 S. A. Maurer,  P. F. McLaughlin,  M. F. S. J. Menger,  J.-M. Mewes,  
 S. A. Mewes,  P. Morgante,  J. W. Mullinax,  K. J. Oosterbaan,  G. Paran,  
 Alexander C. Paul,  Suranjan K. Paul,  F. Pavosevic,  Zheng Pei,  S. Prager,  
 E. I. Proynov,  E. Ramos,  B. Rana,  A. E. Rask,  A. Rettig,  R. M. Richard,  
 F. Rob,  E. Rossomme,  T. Scheele,  M. Scheurer,  M. Schneider,  
 N. Sergueev,  S. M. Sharada,  W. Skomorowski,  D. W. Small,  C. J. Stein,  
 Yu-Chuan Su,  E. J. Sundstrom,  Zhen Tao,  J. Thirman,  T. Tsuchimochi,  
 N. M. Tubman,  S. P. Veccham,  O. Vydrov,  J. Wenzel,  J. Witte,  A. Yamada,  
 Kun Yao,  S. Yeganeh,  S. R. Yost,  A. Zech,  Igor Ying Zhang,  Xing Zhang,  
 Yu Zhang,  D. Zuev,  A. Aspuru-Guzik,  A. T. Bell,  N. A. Besley,  
 K. B. Bravaya,  B. R. Brooks,  D. Casanova,  Jeng-Da Chai,  S. Coriani,  
 C. J. Cramer,  A. E. DePrince, III,  R. A. DiStasio Jr.,  A. Dreuw,  
 B. D. Dunietz,  T. R. Furlani,  W. A. Goddard III,  S. Grimme,  
 S. Hammes-Schiffer,  T. Head-Gordon,  W. J. Hehre,  Chao-Ping Hsu,  
 T.-C. Jagau,  Yousung Jung,  A. Klamt,  Jing Kong,  D. S. Lambrecht,  
 WanZhen Liang,  N. J. Mayhall,  C. W. McCurdy,  J. B. Neaton,  
 C. Ochsenfeld,  J. A. Parkhill,  R. Peverati,  V. A. Rassolov,  Yihan Shao,  
 L. V. Slipchenko,  T. Stauch,  R. P. Steele,  J. E. Subotnik,  
 A. J. W. Thom,  A. Tkatchenko,  D. G. Truhlar,  T. Van Voorhis,  
 T. A. Wesolowski,  K. B. Whaley,  H. L. Woodcock III,  P. M. Zimmerman,  
 S. Faraji,  P. M. W. Gill,  M. Head-Gordon,  J. M. Herbert,  A. I. Krylov

 Additional authors for Version 5.4.1: 
 S. Kotaru,  Shaozhi Li,  Xiangyuan Li,  F. Matz,  A. Molle,  Haisheng Ren,  
 Yingli Su,  Hung-Yi Tsai,  C. Utku,  Fang Wang

 Contributors to earlier versions of Q-Chem not listed above: 
 R. D. Adamson,  B. Austin,  R. Baer,  J. Baker,  G. J. O. Beran,  
 K. Brandhorst,  S. T. Brown,  E. F. C. Byrd,  A. K. Chakraborty,  
 G. K. L. Chan,  Chun-Min Chang,  Yunqing Chen,  C.-L. Cheng,  
 Siu Hung Chien,  D. M. Chipman,  D. L. Crittenden,  H. Dachsel,  
 R. J. Doerksen,  A. D. Dutoi,  R. G. Edgar,  J. Fosso-Tande,  
 L. Fusti-Molnar,  D. Ghosh,  A. Ghysels,  A. Golubeva-Zadorozhnaya,  
 J. Gonthier,  M. S. Gordon,  S. R. Gwaltney,  G. Hawkins,  J. E. Herr,  
 A. Heyden,  S. Hirata,  E. G. Hohenstein,  G. Kedziora,  F. J. Keil,  
 C. Kelley,  Jihan Kim,  R. A. King,  R. Z. Khaliullin,  P. P. Korambath,  
 W. Kurlancheek,  A. Laurent,  A. M. Lee,  M. S. Lee,  S. V. Levchenko,  
 Ching Yeh Lin,  D. Liotard,  E. Livshits,  R. C. Lochan,  I. Lotan,  
 L. A. Martinez-Martinez,  P. E. Maslen,  N. Nair,  D. P. O'Neill,  
 D. Neuhauser,  E. Neuscamman,  C. M. Oana,  R. Olivares-Amaya,  R. Olson,  
 T. M. Perrine,  B. Peters,  P. A. Pieniazek,  A. Prociuk,  Y. M. Rhee,  
 J. Ritchie,  M. A. Rohrdanz,  E. Rosta,  N. J. Russ,  H. F. Schaefer III,  
 M. W. Schmidt,  N. E. Schultz,  S. Sharma,  N. Shenvi,  C. D. Sherrill,  
 A. C. Simmonett,  A. Sodt,  T. Stein,  D. Stuck,  K. S. Thanthiriwatte,  
 V. Vanovschi,  L. Vogt,  Tao Wang,  A. Warshel,  M. A. Watson,  
 C. F. Williams,  Q. Wu,  X. Xu,  Jun Yang,  W. Zhang,  Yan Zhao

 Please cite Q-Chem as follows:
 Y. Shao et al., Mol. Phys. 113, 184-215 (2015)
 DOI: 10.1080/00268976.2014.952696

 Q-Chem 5.4.1 for Intel X86 EM64T Linux

 Parts of Q-Chem use Armadillo 9.800.1 (Horizon Scraper).
 http://arma.sourceforge.net/

 Q-Chem begins on Wed Aug 21 10:46:32 2024  

 Host: 
0

     Scratch files written to /scratch/ari.fischer/qChem2294093.hpc-mn1/qchem66381//
 Aug1521 |scratch|qcdevops|jenkins|workspace|build_RNUM 8249   
 Processing $rem in /usr/local/qchem-5.4.1/config/preferences:
 Processing $rem in /home/ari.fischer/.qchemrc:
 Symmetry turned off for PCM/SM12/SMD calculation

 Checking the input file for inconsistencies... 	...done.

--------------------------------------------------------------
User input:
--------------------------------------------------------------
$molecule
0 2
C         1.0519447676    0.0831998394    0.3414904749
O         0.7240233490   -1.2786482950    0.5093295731
C         2.5913292784    0.3005087848    0.3097753908
O         3.0940255166   -0.5191516751   -0.7100229365
O         2.8372586417    1.6314631977    0.1533830693
C         3.1884665305    0.0046698504    1.6994907566
C         4.4792507166   -0.0392293899    2.0415966662
C         5.6309710916    0.1889728856    1.1403421173
O         6.7729163617    0.2751535025    1.8290288716
O         5.5970494832    0.2965013031   -0.0792875342
H         0.6309394896    0.7172714109    1.1273974500
H         0.6619926325    0.3974233507   -0.6291238335
H         0.7985230496   -1.4914270111    1.4538427376
H         2.4528574041   -0.1347380235    2.4887358208
H         4.7402830688   -0.2473191149    3.0747307443
H         7.4986708238    0.4282563318    1.1919636587
H         4.0592297948   -0.3399017472   -0.7363774269
$end

$rem
BASIS = 6-311++G(2df,2p)
GUI = 2
JOB_TYPE = Optimization
METHOD = wB97M-V
SCF_ALGORITHM = DIIS_GDM
MAX_SCF_CYCLES = 400
GEOM_OPT_MAX_CYCLES = 150
SCF_CONVERGENCE = 7
THRESH = 12
Solvent_method = SMD
$end
--------------------------------------------------------------
 ----------------------------------------------------------------
             Standard Nuclear Orientation (Angstroms)
    I     Atom           X                Y                Z
 ----------------------------------------------------------------
    1      C       1.0519447676     0.0831998394     0.3414904749
    2      O       0.7240233490    -1.2786482950     0.5093295731
    3      C       2.5913292784     0.3005087848     0.3097753908
    4      O       3.0940255166    -0.5191516751    -0.7100229365
    5      O       2.8372586417     1.6314631977     0.1533830693
    6      C       3.1884665305     0.0046698504     1.6994907566
    7      C       4.4792507166    -0.0392293899     2.0415966662
    8      C       5.6309710916     0.1889728856     1.1403421173
    9      O       6.7729163617     0.2751535025     1.8290288716
   10      O       5.5970494832     0.2965013031    -0.0792875342
   11      H       0.6309394896     0.7172714109     1.1273974500
   12      H       0.6619926325     0.3974233507    -0.6291238335
   13      H       0.7985230496    -1.4914270111     1.4538427376
   14      H       2.4528574041    -0.1347380235     2.4887358208
   15      H       4.7402830688    -0.2473191149     3.0747307443
   16      H       7.4986708238     0.4282563318     1.1919636587
   17      H       4.0592297948    -0.3399017472    -0.7363774269
 ----------------------------------------------------------------
 Nuclear Repulsion Energy =         552.20810746 hartrees
 There are       39 alpha and       38 beta electrons
 Requested basis set is 6-311++G(2df,2p)
 There are 122 shells and 410 basis functions

 Total QAlloc Memory Limit 288000 MB
 Mega-Array Size       188 MB
 MEM_STATIC part       192 MB
 
 Citation of the SMD model:
 Marenich, A.V.; Cramer, C.J.; Truhlar, D.G.
 J. Phys. Chem. B 2009, 113, 6378-6396.
 iSolventCode=           1
 Solvent: water                                                           
 
 vradii
            1           2           3           4           5           6
    1   1.8500000   1.5200000   1.8500000   1.5200000   1.5200000   1.8500000
            7           8           9          10          11          12
    1   1.8500000   1.8500000   1.5200000   1.5200000   1.2000000   1.2000000
           13          14          15          16          17
    1   1.2000000   1.2000000   1.2000000   1.2000000   1.2000000
 Changing PCM_VDW_RADII to SMD_RADIUS
 Discretize the solute cavity surface with Lebedev spheres
	Using 110 Lebedev grid points for each H atom
	Using 194 Lebedev grid points for other atoms
	Atomic van der Waals radii will be scaled by 1.20
 Remove points where switching function is < 1.0e-08
 Keep 1365 surface tesserae and discard 1345 interior tesserae
 Molecular Surface Area = 156.746 Angst**2
 A cutoff of  1.0D-12 yielded   6518 shell pairs
 There are     73888 function pairs (     92620 Cartesian)
 Smallest overlap matrix eigenvalue = 3.62E-06

 Scale SEOQF with 1.000000e-02/1.000000e-01/1.000000e-01

 Standard Electronic Orientation quadrupole field applied
 Nucleus-field energy     =    -0.0000000038 hartrees
 Guess from superposition of atomic densities
 Warning:  Energy on first SCF cycle will be non-variational
 SAD guess density has 77.000000 electrons

 -----------------------------------------------------------------------
  General SCF calculation program by
  Eric Jon Sundstrom, Paul Horn, Yuezhi Mao, Dmitri Zuev, Alec White,
  David Stuck, Shaama M.S., Shane Yost, Joonho Lee, David Small,
  Daniel Levine, Susi Lehtola, Hugh Burton, Evgeny Epifanovsky,
  Bang C. Huynh
 -----------------------------------------------------------------------
 Exchange:     0.1500 Hartree-Fock + 1.0000 wB97M-V + LR-HF
 Correlation:  1.0000 wB97M-V
 Using SG-2 standard quadrature grid
 Nonlocal Correlation:  VV10 with C = 0.0100 and b = 6.00 and scale = 1.00000
 Grid used for NLC:  SG-1 standard quadrature
 
 Citation of the SMD model:
 Marenich, A.V.; Cramer, C.J.; Truhlar, D.G.
 J. Phys. Chem. B 2009, 113, 6378-6396.
 iSolventCode=           1
 Solvent: water                                                           
 
 vradii
            1           2           3           4           5           6
    1   1.8500000   1.5200000   1.8500000   1.5200000   1.5200000   1.8500000
            7           8           9          10          11          12
    1   1.8500000   1.8500000   1.5200000   1.5200000   1.2000000   1.2000000
           13          14          15          16          17
    1   1.2000000   1.2000000   1.2000000   1.2000000   1.2000000
 using 16 threads for integral computing
 -------------------------------------------------------
 OpenMP Integral computing Module                
 Release: version 1.0, May 2013, Q-Chem Inc. Pittsburgh 
 -------------------------------------------------------
 -------------------------------------------------------
 OpenMP BLAS3 based DFT computing Module                
 Release: version 1.0, May 2013, Q-Chem Inc. Pittsburgh 
 -------------------------------------------------------
 A unrestricted SCF calculation will be
 performed using DIIS, GDM
 SCF converges when RMS gradient is below 1.0e-07
 ---------------------------------------
  Cycle       Energy         DIIS error
 ---------------------------------------
    1    -572.9468619561      1.25e-02  
    2    -570.5860064153      1.83e-03  Done DIIS. Switching to GDM
 ---------------------------------------
  Cycle       Energy        RMS Gradient
 ---------------------------------------
    1    -570.5860064153      1.64e-01   Descent step
    2    -570.7866463298      5.83e-02   Normal BFGS step
    3    -570.8241062975      5.20e-02   Normal BFGS step
    4    -570.8302167378      1.45e-02   Normal BFGS step
    5    -570.8346065217      1.45e-02   Normal BFGS step
    6    -570.8360734901      5.08e-03   Normal BFGS step
    7    -570.8362862548      2.93e-03   Normal BFGS step
    8    -570.8363381018      1.85e-03   Normal BFGS step
    9    -570.8363496046      1.59e-03   Normal BFGS step
   10    -570.8363610258      1.38e-03   Normal BFGS step
   11    -570.8363787398      1.54e-03   Normal BFGS step
   12    -570.8363905381      1.60e-03   Normal BFGS step
   13    -570.8363994916      1.12e-03   Normal BFGS step
   14    -570.8364033362      4.04e-04   Normal BFGS step
   15    -570.8364043975      2.22e-04   Normal BFGS step
   16    -570.8364047273      9.80e-05   Normal BFGS step
   17    -570.8364048230      4.39e-05   Normal BFGS step
   18    -570.8364048352      1.66e-05   Normal BFGS step
   19    -570.8364048394      8.63e-06   Normal BFGS step
   20    -570.8364048400      4.67e-06   Normal BFGS step
   21    -570.8364048401      1.40e-06   Normal BFGS step
   22    -570.8364048401      3.84e-07   Normal BFGS step
   23    -570.8364048400      1.53e-07   Normal BFGS step
   24    -570.8364048401      7.32e-08  Convergence criterion met
 ---------------------------------------
 SCF time:   CPU 2790.02s  wall 194.00s 
<S^2> =          0.755125984
(3)  G-ENP(liq) elect-nuc-pol free energy of system     -570.836404840 a.u.
(4)  G-CDS(liq) cavity-dispersion-solvent structure 
     free energy                                                4.8991 kcal/mol
(6)  G-S(liq) free energy of system                     -570.828597705 a.u.
 SCF   energy in the final basis set =     -570.8285977055
 Total energy in the final basis set =     -570.8285977055
 
 --------------------------------------------------------------
 
                    Orbital Energies (a.u.)
 --------------------------------------------------------------
 
 Alpha MOs
 -- Occupied --
-19.3977 -19.3933 -19.3508 -19.3468 -19.3418 -10.5068 -10.4711 -10.4028
-10.3927 -10.3759  -1.2573  -1.2188  -1.1681  -1.1658  -1.1365  -0.9430
 -0.8626  -0.8108  -0.7406  -0.6867  -0.6648  -0.6492  -0.6346  -0.6124
 -0.5873  -0.5785  -0.5666  -0.5531  -0.5355  -0.5252  -0.5067  -0.4879
 -0.4521  -0.4465  -0.4421  -0.4271  -0.4099  -0.3904  -0.3820
 -- Virtual --
  0.0076   0.0257   0.0366   0.0427   0.0557   0.0581   0.0642   0.0821
  0.0888   0.1001   0.1063   0.1123   0.1264   0.1288   0.1330   0.1398
  0.1478   0.1526   0.1612   0.1702   0.1752   0.1796   0.1816   0.1899
  0.1923   0.1976   0.2128   0.2230   0.2393   0.2467   0.2494   0.2575
  0.2602   0.2770   0.2829   0.2863   0.3015   0.3064   0.3080   0.3147
  0.3284   0.3315   0.3349   0.3353   0.3432   0.3469   0.3534   0.3613
  0.3635   0.3700   0.3773   0.3879   0.3935   0.3948   0.4067   0.4146
  0.4289   0.4358   0.4493   0.4592   0.4661   0.4838   0.4855   0.5063
  0.5398   0.5497   0.5839   0.5854   0.6014   0.6132   0.6263   0.6369
  0.6438   0.6480   0.6516   0.6575   0.6763   0.6803   0.6983   0.7125
  0.7263   0.7275   0.7418   0.7507   0.7567   0.7716   0.7904   0.8090
  0.8227   0.8326   0.8476   0.8624   0.8872   0.8998   0.9054   0.9243
  0.9486   0.9611   0.9897   1.0058   1.0169   1.0339   1.0681   1.0770
  1.0896   1.0986   1.1064   1.1214   1.1240   1.1384   1.1505   1.1640
  1.1722   1.1757   1.1810   1.1901   1.2064   1.2204   1.2315   1.2353
  1.2499   1.2574   1.2659   1.2813   1.2898   1.2979   1.3181   1.3275
  1.3565   1.3757   1.3829   1.4033   1.4127   1.4461   1.4578   1.4674
  1.4810   1.4845   1.5129   1.5287   1.5536   1.5670   1.5720   1.5913
  1.6017   1.6182   1.6203   1.6373   1.6518   1.6898   1.7184   1.7237
  1.7548   1.7912   1.8010   1.8219   1.8440   1.8884   1.9103   1.9271
  1.9499   1.9744   1.9883   2.0333   2.0504   2.0863   2.1256   2.1596
  2.2051   2.2383   2.2702   2.2721   2.3345   2.3765   2.3902   2.4016
  2.4262   2.4318   2.4694   2.5277   2.5588   2.6080   2.6170   2.6593
  2.6979   2.7131   2.7503   2.7810   2.7947   2.8066   2.8382   2.8482
  2.8552   2.8768   2.9243   2.9279   2.9355   2.9437   2.9883   2.9935
  3.0445   3.0661   3.0995   3.1458   3.1509   3.1695   3.1788   3.2118
  3.2245   3.2397   3.2658   3.2825   3.3035   3.3192   3.3289   3.3677
  3.3870   3.3897   3.4163   3.4253   3.4530   3.4808   3.4856   3.5044
  3.5251   3.5380   3.5451   3.5552   3.6049   3.6159   3.6435   3.6657
  3.6846   3.6889   3.7172   3.7243   3.7510   3.7733   3.7863   3.8039
  3.8246   3.8410   3.8555   3.8684   3.8733   3.8982   3.9115   3.9509
  3.9703   3.9823   4.0173   4.0630   4.0889   4.1226   4.1269   4.1427
  4.1739   4.2064   4.2231   4.2383   4.2574   4.2739   4.2925   4.3395
  4.3694   4.3808   4.3898   4.4055   4.4625   4.4746   4.4942   4.5260
  4.5673   4.5965   4.6249   4.7296   4.7925   4.8293   4.8834   5.0379
  5.1035   5.1148   5.1384   5.1662   5.1990   5.2147   5.2252   5.2276
  5.2431   5.2504   5.2580   5.2658   5.2826   5.2863   5.3008   5.3281
  5.3429   5.3632   5.3957   5.4023   5.4137   5.4290   5.4584   5.5300
  5.5438   5.5628   5.5676   5.5752   5.5914   5.6145   5.6184   5.6485
  5.6767   5.7075   5.7394   5.7835   5.8266   5.8429   5.9215   5.9644
  5.9727   6.0331   6.0488   6.1033   6.1489   6.2947   6.3833   6.5608
  6.6260   6.7259   6.8332   6.9283   6.9454   6.9579   7.0317   7.0822
  7.0972   7.1421   7.1655   7.1958   7.2619   7.2656   7.2924   7.3101
  7.3274   7.3378   7.3577   7.3705   7.3785   7.4256   7.4767   7.5888
  7.6298   7.6927   7.7010   7.7431   7.7666   7.8117   7.8603   7.8668
  7.9388  24.3762  24.7125  24.8868  25.0652  25.2287  50.5705  50.5754
 50.5998  50.6647  50.7491
 
 Beta MOs
 -- Occupied --
-19.3932 -19.3762 -19.3503 -19.3466 -19.3419 -10.5068 -10.4715 -10.4013
-10.3909 -10.3753  -1.2570  -1.2023  -1.1669  -1.1622  -1.1092  -0.9386
 -0.8540  -0.8077  -0.7347  -0.6845  -0.6584  -0.6427  -0.6319  -0.6002
 -0.5858  -0.5727  -0.5601  -0.5496  -0.5231  -0.5158  -0.5021  -0.4548
 -0.4504  -0.4272  -0.4241  -0.4094  -0.4060  -0.3779
 -- Virtual --
 -0.0794   0.0125   0.0261   0.0367   0.0432   0.0562   0.0585   0.0644
  0.0820   0.0893   0.1003   0.1065   0.1130   0.1268   0.1292   0.1332
  0.1405   0.1488   0.1534   0.1613   0.1705   0.1753   0.1800   0.1819
  0.1911   0.1931   0.1984   0.2134   0.2234   0.2397   0.2477   0.2505
  0.2582   0.2610   0.2780   0.2834   0.2865   0.3034   0.3078   0.3109
  0.3170   0.3290   0.3333   0.3354   0.3360   0.3448   0.3481   0.3541
  0.3624   0.3648   0.3713   0.3779   0.3891   0.3947   0.3964   0.4077
  0.4193   0.4338   0.4371   0.4508   0.4615   0.4667   0.4858   0.4864
  0.5076   0.5406   0.5510   0.5847   0.5868   0.6025   0.6145   0.6271
  0.6383   0.6452   0.6492   0.6524   0.6586   0.6767   0.6822   0.6990
  0.7138   0.7275   0.7288   0.7435   0.7513   0.7586   0.7725   0.7913
  0.8107   0.8250   0.8333   0.8485   0.8632   0.8882   0.9005   0.9059
  0.9257   0.9493   0.9636   0.9912   1.0085   1.0174   1.0346   1.0690
  1.0784   1.0922   1.1010   1.1080   1.1228   1.1253   1.1412   1.1520
  1.1668   1.1762   1.1822   1.1830   1.1928   1.2093   1.2216   1.2346
  1.2384   1.2521   1.2611   1.2713   1.2855   1.2949   1.3006   1.3190
  1.3290   1.3591   1.3782   1.3856   1.4059   1.4173   1.4486   1.4589
  1.4689   1.4825   1.4861   1.5162   1.5341   1.5569   1.5699   1.5735
  1.5930   1.6086   1.6196   1.6270   1.6396   1.6546   1.6931   1.7213
  1.7305   1.7594   1.7946   1.8035   1.8238   1.8614   1.9012   1.9164
  1.9374   1.9551   1.9796   1.9952   2.0368   2.0536   2.0951   2.1293
  2.1631   2.2076   2.2400   2.2725   2.2805   2.3374   2.3799   2.3906
  2.4028   2.4271   2.4326   2.4737   2.5349   2.5598   2.6112   2.6193
  2.6611   2.7013   2.7153   2.7527   2.7822   2.7964   2.8088   2.8415
  2.8504   2.8572   2.8787   2.9261   2.9302   2.9384   2.9469   2.9903
  2.9958   3.0485   3.0692   3.1026   3.1490   3.1539   3.1723   3.1806
  3.2139   3.2265   3.2417   3.2680   3.2850   3.3066   3.3215   3.3325
  3.3694   3.3895   3.3921   3.4186   3.4274   3.4556   3.4833   3.4879
  3.5061   3.5275   3.5419   3.5480   3.5576   3.6070   3.6186   3.6453
  3.6682   3.6864   3.6911   3.7179   3.7268   3.7526   3.7742   3.7883
  3.8060   3.8257   3.8430   3.8592   3.8706   3.8752   3.9004   3.9129
  3.9541   3.9721   3.9847   4.0197   4.0665   4.0908   4.1245   4.1286
  4.1460   4.1753   4.2088   4.2258   4.2394   4.2589   4.2755   4.2935
  4.3413   4.3712   4.3833   4.3934   4.4076   4.4647   4.4760   4.4971
  4.5282   4.5697   4.5994   4.6274   4.7333   4.7964   4.8325   4.8876
  5.0429   5.1387   5.1631   5.1713   5.1811   5.2015   5.2157   5.2305
  5.2475   5.2502   5.2611   5.2705   5.2826   5.2903   5.3076   5.3135
  5.3428   5.3558   5.3783   5.4091   5.4231   5.4352   5.4460   5.4687
  5.5325   5.5530   5.5687   5.5704   5.5804   5.5976   5.6177   5.6226
  5.6504   5.6795   5.7119   5.7510   5.7859   5.8306   5.8467   5.9303
  5.9675   5.9764   6.0480   6.0578   6.1221   6.1521   6.3041   6.3837
  6.5669   6.6294   6.7265   6.8480   6.9584   7.0204   7.0307   7.0392
  7.0878   7.0998   7.1478   7.1681   7.1977   7.2637   7.2694   7.3016
  7.3194   7.3299   7.3412   7.3651   7.3717   7.3823   7.4775   7.4910
  7.6062   7.6366   7.6943   7.7149   7.7529   7.7679   7.8137   7.8649
  7.8765   7.9428  24.3773  24.7139  24.8863  25.0658  25.2294  50.5745
 50.5796  50.6064  50.6652  50.7494
 --------------------------------------------------------------
 
          Ground-State Mulliken Net Atomic Charges

     Atom                 Charge (a.u.)    Spin (a.u.)
  --------------------------------------------------------
      1 C                    -0.262598       0.033994
      2 O                    -0.391024       0.016061
      3 C                    -0.349281       0.025549
      4 O                    -0.422185      -0.000283
      5 O                    -0.201644       0.824228
      6 C                     0.184810       0.043820
      7 C                     0.001427       0.048105
      8 C                     0.098725      -0.000973
      9 O                    -0.304251       0.002198
     10 O                    -0.491668       0.005661
     11 H                     0.253263      -0.002315
     12 H                     0.227798      -0.000292
     13 H                     0.332615      -0.000426
     14 H                     0.301696       0.002281
     15 H                     0.299797       0.001870
     16 H                     0.366041      -0.000170
     17 H                     0.356478       0.000694
  --------------------------------------------------------
  Sum of atomic charges =    -0.000000
  Sum of spin   charges =     1.000000

 -----------------------------------------------------------------
                    Cartesian Multipole Moments
 -----------------------------------------------------------------
    Charge (ESU x 10^10)
                -0.0000
    Dipole Moment (Debye)
         X       1.4584      Y      -0.0801      Z       6.4105
       Tot       6.5748
    Quadrupole Moments (Debye-Ang)
        XX     -34.2334     XY      -3.1261     YY     -65.8952
        XZ      18.2812     YZ      -3.8783     ZZ     -49.4923
    Octopole Moments (Debye-Ang^2)
       XXX    -359.6023    XXY      -6.3313    XYY    -225.2463
       YYY     -19.5340    XXZ      31.5108    XYZ      -3.7287
       YYZ     -39.8789    XZZ    -194.0748    YZZ     -13.0038
       ZZZ    -104.7166
    Hexadecapole Moments (Debye-Ang^3)
      XXXX   -3359.0627   XXXY     -33.0280   XXYY   -1046.1844
      XYYY    -138.7240   YYYY    -257.1185   XXXZ    -174.1674
      XXYZ       8.2692   XYYZ    -190.4170   YYYZ     -18.8288
      XXZZ   -1053.1653   XYZZ     -59.1474   YYZZ    -126.7831
      XZZZ    -529.2604   YZZZ     -31.1363   ZZZZ    -482.1201
 -----------------------------------------------------------------
 Calculating analytic gradient of the SCF energy
 Gradient of CDS energy
            1           2           3           4           5           6
    1  -0.0014092   0.0006725   0.0024153  -0.0014545  -0.0011673  -0.0001654
    2  -0.0013097   0.0015489   0.0041338   0.0021070  -0.0059950   0.0000022
    3   0.0000040  -0.0003151  -0.0035211   0.0027104   0.0006614   0.0001486
            7           8           9          10          11          12
    1  -0.0001840   0.0039562  -0.0034543   0.0001079   0.0002493   0.0001855
    2  -0.0000784   0.0004064  -0.0002840  -0.0000431   0.0000431  -0.0000503
    3   0.0004331   0.0003587  -0.0018536   0.0011772   0.0002579  -0.0002456
           13          14          15          16          17
    1  -0.0002133  -0.0000970   0.0000615   0.0004283   0.0000685
    2  -0.0003742   0.0000129  -0.0000312   0.0000578  -0.0001462
    3   0.0002593   0.0000544   0.0001814  -0.0000196  -0.0002915
 Gradient of SCF Energy
            1           2           3           4           5           6
    1   0.0061787  -0.0019012   0.0027183  -0.0056747   0.0020608  -0.0063632
    2  -0.0095660  -0.0016544   0.0032809  -0.0087142   0.0058836   0.0013171
    3  -0.0010865  -0.0314622  -0.0084247  -0.0054803  -0.0006149  -0.0111970
            7           8           9          10          11          12
    1   0.0150222  -0.0025101  -0.0113410  -0.0039584  -0.0046809  -0.0022017
    2   0.0034459  -0.0036936  -0.0025366   0.0044298   0.0066703   0.0028706
    3  -0.0090078   0.0081946   0.0196503  -0.0184998   0.0109008  -0.0023226
           13          14          15          16          17
    1   0.0028843  -0.0140332   0.0034886   0.0183377   0.0019738
    2   0.0004226  -0.0037112  -0.0029982   0.0031861   0.0013672
    3   0.0262817   0.0163432   0.0158896  -0.0131189   0.0039543
 Max gradient component =       3.146E-02
 RMS gradient           =       9.961E-03
 Computing fast CPCM-SWIG gradient
 Updating gradient with PCM contributions...
 -- total gradient after adding PCM contribution --
---------------------------------------------------
  Atom         X              Y              Z     
---------------------------------------------------
   1       0.001704      -0.003897       0.002504
   2      -0.001139      -0.000776      -0.009323
   3       0.001575      -0.000631      -0.001666
   4      -0.007345      -0.004450      -0.000675
   5       0.001316       0.004116       0.000297
   6      -0.005319      -0.000222      -0.003563
   7       0.005263       0.000055       0.001830
   8      -0.000407      -0.001198       0.005092
   9      -0.001675      -0.000668       0.008116
  10      -0.000450       0.001633      -0.010424
  11      -0.001331       0.002873       0.002021
  12      -0.001398       0.000631      -0.002855
  13       0.001301       0.000349       0.007021
  14      -0.001795      -0.000510       0.002689
  15       0.000949      -0.000478       0.003116
  16       0.003738       0.000883      -0.005037
  17       0.005010       0.002291       0.000857
---------------------------------------------------
 Number of fixed atoms: 0
 Gradient time:  CPU 334.87 s  wall 27.73 s
 Geometry Optimization Parameters
   NAtoms,    NIC,     NZ,  NCons,   NDum,   NFix, NCnnct, MaxDiis
       17     105       0       0       0       0       0       0


** GEOMETRY OPTIMIZATION IN DELOCALIZED INTERNAL COORDINATES **
   Searching for a Minimum

   Optimization Cycle:   1

                       Coordinates (Angstroms)
     ATOM                X               Y               Z
      1  C         1.0519447676    0.0831998394    0.3414904749
      2  O         0.7240233490   -1.2786482950    0.5093295731
      3  C         2.5913292784    0.3005087848    0.3097753908
      4  O         3.0940255166   -0.5191516751   -0.7100229365
      5  O         2.8372586417    1.6314631977    0.1533830693
      6  C         3.1884665305    0.0046698504    1.6994907566
      7  C         4.4792507166   -0.0392293899    2.0415966662
      8  C         5.6309710916    0.1889728856    1.1403421173
      9  O         6.7729163617    0.2751535025    1.8290288716
     10  O         5.5970494832    0.2965013031   -0.0792875342
     11  H         0.6309394896    0.7172714109    1.1273974500
     12  H         0.6619926325    0.3974233507   -0.6291238335
     13  H         0.7985230496   -1.4914270111    1.4538427376
     14  H         2.4528574041   -0.1347380235    2.4887358208
     15  H         4.7402830688   -0.2473191149    3.0747307443
     16  H         7.4986708238    0.4282563318    1.1919636587
     17  H         4.0592297948   -0.3399017472   -0.7363774269
   Point Group: c1    Number of degrees of freedom:    45


   Energy is   -570.828597705


 Attempting to generate delocalized internal coordinates
 Initial Hessian constructed with Jon Baker's OPTIMIZE code

 45 Hessian modes will be used to form the next step
  Hessian Eigenvalues:
     0.002000    0.003724    0.011807    0.014218    0.014955    0.015431
     0.015596    0.021666    0.024069    0.030863    0.049132    0.060361
     0.062893    0.081426    0.101208    0.113306    0.138584    0.159874
     0.159992    0.160000    0.160000    0.160000    0.186894    0.216323
     0.220003    0.220040    0.221320    0.249999    0.250000    0.272329
     0.284099    0.343489    0.345543    0.345601    0.350598    0.353110
     0.438779    0.453533    0.509865    0.518226    0.524473    0.531638
     0.580372    0.580944    0.932747

 Minimum search - taking simple RFO step
 Searching for Lamda that Minimizes Along All modes
 Value Taken    Lamda =  -0.00121812
 Step Taken.  Stepsize is  0.208655

                             Maximum     Tolerance    Cnvgd?
         Gradient           0.007490      0.000300      NO
         Displacement       0.100576      0.001200      NO
         Energy change     *********      0.000001      NO


 New Cartesian Coordinates Obtained by Inverse Iteration

 Displacement from previous Coordinates is:  0.553239
 ----------------------------------------------------------------
             Standard Nuclear Orientation (Angstroms)
    I     Atom           X                Y                Z
 ----------------------------------------------------------------
    1      C       1.0544396014     0.0557049002     0.3399107888
    2      O       0.7791564973    -1.3170285581     0.5127478454
    3      C       2.5816087149     0.3375444778     0.3168862690
    4      O       3.1353129360    -0.4371955319    -0.7111121414
    5      O       2.7624252012     1.6759363143     0.1726239491
    6      C       3.1822272841     0.0597498866     1.7049659319
    7      C       4.4664746341    -0.0069152122     2.0401124331
    8      C       5.6210127036     0.1565014890     1.1344043840
    9      O       6.7657856470     0.2271564177     1.8141702838
   10      O       5.5906544335     0.1943982335    -0.0834906828
   11      H       0.6070627787     0.6631252229     1.1245516629
   12      H       0.6581639094     0.3559627413    -0.6270369559
   13      H       0.8456434041    -1.5408322534     1.4483050681
   14      H       2.4492066846    -0.0517074448     2.4943789238
   15      H       4.7225993857    -0.1964459945     3.0728992985
   16      H       7.4990327764     0.3249041887     1.1844770293
   17      H       4.0889254082    -0.2278536768    -0.7324984874
 ----------------------------------------------------------------
 Nuclear Repulsion Energy =         553.50956040 hartrees
 There are       39 alpha and       38 beta electrons
 Discretize the solute cavity surface with Lebedev spheres
	Using 110 Lebedev grid points for each H atom
	Using 194 Lebedev grid points for other atoms
	Atomic van der Waals radii will be scaled by 1.20
 Remove points where switching function is < 1.0e-08
 Keep 1372 surface tesserae and discard 1338 interior tesserae
 Molecular Surface Area = 156.049 Angst**2
 Applying Cartesian multipole field
    Component          Value
    ---------          -----
     (2,0,0)        1.00000E-12
     (0,2,0)        2.00000E-11
     (0,0,2)       -3.00000E-11
 Nucleus-field energy     =    -0.0000000037 hartrees
 Requested basis set is 6-311++G(2df,2p)
 There are 122 shells and 410 basis functions
 A cutoff of  1.0D-12 yielded   6520 shell pairs
 There are     73896 function pairs (     92589 Cartesian)
 Smallest overlap matrix eigenvalue = 3.72E-06
 Guess MOs from SCF MO coefficient file

 -----------------------------------------------------------------------
  General SCF calculation program by
  Eric Jon Sundstrom, Paul Horn, Yuezhi Mao, Dmitri Zuev, Alec White,
  David Stuck, Shaama M.S., Shane Yost, Joonho Lee, David Small,
  Daniel Levine, Susi Lehtola, Hugh Burton, Evgeny Epifanovsky,
  Bang C. Huynh
 -----------------------------------------------------------------------
 Exchange:     0.1500 Hartree-Fock + 1.0000 wB97M-V + LR-HF
 Correlation:  1.0000 wB97M-V
 Using SG-2 standard quadrature grid
 Nonlocal Correlation:  VV10 with C = 0.0100 and b = 6.00 and scale = 1.00000
 Grid used for NLC:  SG-1 standard quadrature
 
 Citation of the SMD model:
 Marenich, A.V.; Cramer, C.J.; Truhlar, D.G.
 J. Phys. Chem. B 2009, 113, 6378-6396.
 iSolventCode=           1
 Solvent: water                                                           
 
 vradii
            1           2           3           4           5           6
    1   1.8500000   1.5200000   1.8500000   1.5200000   1.5200000   1.8500000
            7           8           9          10          11          12
    1   1.8500000   1.8500000   1.5200000   1.5200000   1.2000000   1.2000000
           13          14          15          16          17
    1   1.2000000   1.2000000   1.2000000   1.2000000   1.2000000
 -------------------------------------------------------
 OpenMP BLAS3 based DFT computing Module                
 Release: version 1.0, May 2013, Q-Chem Inc. Pittsburgh 
 -------------------------------------------------------
 A unrestricted SCF calculation will be
 performed using Roothaan-Hall, DIIS, GDM
 SCF converges when RMS gradient is below 1.0e-07
 ---------------------------------------
  Cycle       Energy         DIIS error
 ---------------------------------------
    1    -570.7815381445      3.48e-04  Roothaan Step
 ---------------------------------------
  Cycle       Energy         DIIS error
 ---------------------------------------
    1    -570.8264639455      2.72e-04  
    2    -570.8335296040      2.24e-04  Done DIIS. Switching to GDM
 ---------------------------------------
  Cycle       Energy        RMS Gradient
 ---------------------------------------
    1    -570.8335296040      6.95e-03   Normal BFGS step
    2    -570.8333187152      1.29e-02  Line search: overstep
    3    -570.8362904837      2.54e-03   Normal BFGS step
    4    -570.8365411070      1.65e-03   Normal BFGS step
    5    -570.8365745405      1.05e-03   Normal BFGS step
    6    -570.8365897351      3.92e-04   Normal BFGS step
    7    -570.8365914251      4.35e-04   Normal BFGS step
    8    -570.8365921030      1.46e-04   Normal BFGS step
    9    -570.8365923154      4.98e-05   Normal BFGS step
   10    -570.8365923372      3.85e-05   Normal BFGS step
   11    -570.8365923471      1.57e-05   Normal BFGS step
   12    -570.8365923489      9.97e-06   Normal BFGS step
   13    -570.8365923496      7.63e-06   Normal BFGS step
   14    -570.8365923500      7.62e-06   Normal BFGS step
   15    -570.8365923503      6.81e-06   Normal BFGS step
   16    -570.8365923506      6.02e-06   Normal BFGS step
   17    -570.8365923510      4.35e-06   Normal BFGS step
   18    -570.8365923511      3.10e-06   Normal BFGS step
   19    -570.8365923512      1.82e-06   Normal BFGS step
   20    -570.8365923513      7.74e-07   Normal BFGS step
   21    -570.8365923512      2.30e-07   Normal BFGS step
   22    -570.8365923512      8.78e-08  Convergence criterion met
 ---------------------------------------
 SCF time:   CPU 2743.42s  wall 187.00s 
<S^2> =          0.755128120
(3)  G-ENP(liq) elect-nuc-pol free energy of system     -570.836592351 a.u.
(4)  G-CDS(liq) cavity-dispersion-solvent structure 
     free energy                                                4.9329 kcal/mol
(6)  G-S(liq) free energy of system                     -570.828731205 a.u.
 SCF   energy in the final basis set =     -570.8287312053
 Total energy in the final basis set =     -570.8287312053
 
 --------------------------------------------------------------
 
                    Orbital Energies (a.u.)
 --------------------------------------------------------------
 
 Alpha MOs
 -- Occupied --
-19.3970 -19.3926 -19.3497 -19.3474 -19.3365 -10.5065 -10.4698 -10.4021
-10.3908 -10.3740  -1.2607  -1.2192  -1.1705  -1.1678  -1.1347  -0.9451
 -0.8639  -0.8131  -0.7432  -0.6892  -0.6677  -0.6517  -0.6362  -0.6123
 -0.5890  -0.5794  -0.5678  -0.5541  -0.5369  -0.5247  -0.5050  -0.4878
 -0.4530  -0.4464  -0.4415  -0.4268  -0.4094  -0.3917  -0.3807
 -- Virtual --
  0.0091   0.0258   0.0367   0.0428   0.0560   0.0582   0.0642   0.0831
  0.0882   0.0995   0.1070   0.1114   0.1263   0.1298   0.1347   0.1389
  0.1489   0.1525   0.1610   0.1709   0.1756   0.1794   0.1821   0.1904
  0.1923   0.2004   0.2122   0.2233   0.2355   0.2475   0.2532   0.2600
  0.2609   0.2771   0.2834   0.2878   0.3004   0.3080   0.3105   0.3150
  0.3295   0.3310   0.3344   0.3388   0.3444   0.3489   0.3570   0.3628
  0.3638   0.3719   0.3774   0.3907   0.3943   0.4000   0.4072   0.4149
  0.4278   0.4379   0.4505   0.4605   0.4668   0.4828   0.4903   0.5129
  0.5421   0.5521   0.5858   0.5929   0.6025   0.6181   0.6313   0.6393
  0.6436   0.6504   0.6535   0.6599   0.6812   0.6839   0.7023   0.7139
  0.7255   0.7289   0.7421   0.7545   0.7595   0.7744   0.7935   0.8008
  0.8233   0.8383   0.8496   0.8631   0.8905   0.8994   0.9049   0.9279
  0.9525   0.9605   0.9902   1.0031   1.0172   1.0397   1.0713   1.0812
  1.0917   1.1005   1.1093   1.1220   1.1268   1.1389   1.1467   1.1660
  1.1739   1.1782   1.1789   1.1898   1.2149   1.2227   1.2335   1.2383
  1.2493   1.2584   1.2705   1.2842   1.2897   1.2989   1.3181   1.3371
  1.3544   1.3841   1.3903   1.4065   1.4163   1.4493   1.4597   1.4789
  1.4866   1.4935   1.5276   1.5431   1.5576   1.5650   1.5758   1.6031
  1.6089   1.6227   1.6324   1.6528   1.6557   1.6909   1.7086   1.7215
  1.7608   1.7980   1.8029   1.8239   1.8431   1.8894   1.9111   1.9177
  1.9506   1.9836   1.9977   2.0373   2.0650   2.0897   2.1408   2.1735
  2.2094   2.2405   2.2678   2.2850   2.3387   2.3815   2.3975   2.4014
  2.4316   2.4624   2.4738   2.5257   2.5785   2.5969   2.6153   2.6692
  2.7008   2.7186   2.7527   2.7853   2.8029   2.8111   2.8381   2.8489
  2.8586   2.8788   2.9258   2.9303   2.9395   2.9448   2.9927   3.0027
  3.0497   3.0727   3.1110   3.1498   3.1582   3.1738   3.1842   3.2121
  3.2266   3.2461   3.2640   3.2851   3.3007   3.3226   3.3463   3.3642
  3.3879   3.3927   3.4213   3.4265   3.4582   3.4856   3.4951   3.5056
  3.5183   3.5457   3.5484   3.5611   3.6095   3.6229   3.6466   3.6675
  3.6847   3.6901   3.7270   3.7285   3.7509   3.7756   3.7892   3.8130
  3.8320   3.8453   3.8642   3.8722   3.8754   3.9035   3.9226   3.9616
  3.9818   3.9946   4.0283   4.0663   4.0936   4.1298   4.1368   4.1530
  4.1798   4.2138   4.2321   4.2541   4.2781   4.2786   4.3120   4.3487
  4.3751   4.3909   4.4034   4.4229   4.4768   4.5019   4.5086   4.5336
  4.5831   4.6072   4.6323   4.7416   4.8177   4.8307   4.9046   5.0493
  5.1043   5.1177   5.1363   5.1621   5.1988   5.2146   5.2250   5.2325
  5.2430   5.2563   5.2626   5.2706   5.2857   5.2908   5.3065   5.3350
  5.3455   5.3754   5.4005   5.4076   5.4202   5.4468   5.4637   5.5381
  5.5507   5.5677   5.5748   5.5817   5.5982   5.6260   5.6348   5.6613
  5.6899   5.7140   5.7535   5.7967   5.8367   5.8668   5.9261   5.9853
  6.0028   6.0499   6.0596   6.1126   6.1797   6.3026   6.4058   6.5679
  6.6279   6.7453   6.8447   6.9355   6.9386   6.9535   7.0343   7.0926
  7.1004   7.1531   7.2014   7.2301   7.2709   7.2939   7.3177   7.3211
  7.3242   7.3424   7.3685   7.3730   7.3884   7.4395   7.4931   7.5981
  7.6417   7.6933   7.7179   7.7560   7.7678   7.8146   7.8620   7.9068
  7.9494  24.3882  24.7286  24.9024  25.0938  25.2613  50.5731  50.5855
 50.6030  50.6687  50.7631
 
 Beta MOs
 -- Occupied --
-19.3926 -19.3756 -19.3491 -19.3472 -19.3366 -10.5065 -10.4701 -10.4005
-10.3891 -10.3733  -1.2605  -1.2020  -1.1698  -1.1632  -1.1089  -0.9408
 -0.8551  -0.8099  -0.7373  -0.6870  -0.6620  -0.6443  -0.6337  -0.6004
 -0.5873  -0.5735  -0.5607  -0.5507  -0.5229  -0.5160  -0.5012  -0.4550
 -0.4519  -0.4279  -0.4231  -0.4096  -0.4046  -0.3779
 -- Virtual --
 -0.0794   0.0140   0.0262   0.0367   0.0432   0.0566   0.0584   0.0643
  0.0831   0.0888   0.0996   0.1071   0.1122   0.1267   0.1302   0.1349
  0.1395   0.1497   0.1535   0.1611   0.1712   0.1757   0.1799   0.1824
  0.1913   0.1933   0.2013   0.2130   0.2238   0.2360   0.2487   0.2540
  0.2609   0.2615   0.2783   0.2836   0.2881   0.3029   0.3096   0.3129
  0.3170   0.3300   0.3329   0.3351   0.3395   0.3451   0.3506   0.3576
  0.3640   0.3651   0.3727   0.3783   0.3919   0.3952   0.4014   0.4083
  0.4198   0.4324   0.4390   0.4540   0.4616   0.4673   0.4848   0.4910
  0.5143   0.5429   0.5534   0.5870   0.5939   0.6037   0.6193   0.6322
  0.6407   0.6450   0.6517   0.6542   0.6608   0.6816   0.6862   0.7029
  0.7151   0.7263   0.7304   0.7439   0.7552   0.7610   0.7753   0.7945
  0.8029   0.8253   0.8388   0.8507   0.8639   0.8910   0.9009   0.9055
  0.9291   0.9532   0.9632   0.9922   1.0051   1.0178   1.0403   1.0722
  1.0846   1.0940   1.1024   1.1108   1.1238   1.1278   1.1416   1.1482
  1.1689   1.1768   1.1809   1.1860   1.1930   1.2173   1.2235   1.2352
  1.2415   1.2524   1.2617   1.2757   1.2878   1.2940   1.3038   1.3195
  1.3386   1.3558   1.3875   1.3913   1.4120   1.4188   1.4509   1.4623
  1.4796   1.4882   1.4949   1.5299   1.5492   1.5602   1.5681   1.5768
  1.6095   1.6120   1.6252   1.6380   1.6546   1.6593   1.6953   1.7129
  1.7258   1.7664   1.7990   1.8056   1.8256   1.8591   1.9060   1.9173
  1.9314   1.9528   1.9896   2.0017   2.0421   2.0686   2.0983   2.1443
  2.1774   2.2125   2.2433   2.2709   2.2905   2.3417   2.3843   2.3979
  2.4028   2.4321   2.4636   2.4783   2.5329   2.5798   2.6002   2.6174
  2.6712   2.7041   2.7207   2.7551   2.7866   2.8050   2.8129   2.8407
  2.8513   2.8610   2.8805   2.9274   2.9324   2.9427   2.9477   2.9948
  3.0053   3.0536   3.0756   3.1144   3.1521   3.1617   3.1764   3.1865
  3.2143   3.2288   3.2483   3.2664   3.2871   3.3038   3.3251   3.3494
  3.3659   3.3906   3.3951   3.4234   3.4286   3.4609   3.4883   3.4978
  3.5073   3.5214   3.5489   3.5515   3.5631   3.6118   3.6257   3.6486
  3.6695   3.6868   3.6925   3.7277   3.7306   3.7531   3.7763   3.7913
  3.8149   3.8333   3.8473   3.8679   3.8744   3.8776   3.9062   3.9237
  3.9651   3.9836   3.9970   4.0307   4.0701   4.0955   4.1316   4.1386
  4.1560   4.1813   4.2163   4.2350   4.2556   4.2796   4.2799   4.3130
  4.3504   4.3768   4.3933   4.4071   4.4249   4.4790   4.5045   4.5106
  4.5361   4.5854   4.6100   4.6348   4.7454   4.8217   4.8341   4.9087
  5.0542   5.1367   5.1612   5.1714   5.1821   5.2011   5.2169   5.2311
  5.2478   5.2522   5.2687   5.2739   5.2865   5.2955   5.3130   5.3152
  5.3496   5.3603   5.3891   5.4115   5.4367   5.4440   5.4552   5.4742
  5.5407   5.5583   5.5752   5.5769   5.5897   5.6035   5.6267   5.6409
  5.6634   5.6922   5.7194   5.7640   5.7993   5.8404   5.8716   5.9340
  5.9891   6.0058   6.0601   6.0757   6.1302   6.1826   6.3118   6.4061
  6.5739   6.6314   6.7458   6.8612   6.9434   7.0269   7.0324   7.0457
  7.0966   7.1027   7.1571   7.2031   7.2339   7.2738   7.2989   7.3216
  7.3274   7.3336   7.3450   7.3738   7.3823   7.3933   7.4868   7.5027
  7.6171   7.6490   7.6966   7.7276   7.7639   7.7768   7.8174   7.8631
  7.9153   7.9525  24.3893  24.7300  24.9020  25.0943  25.2620  50.5794
 50.5880  50.6091  50.6690  50.7633
 --------------------------------------------------------------
 
          Ground-State Mulliken Net Atomic Charges

     Atom                 Charge (a.u.)    Spin (a.u.)
  --------------------------------------------------------
      1 C                    -0.266922       0.035953
      2 O                    -0.390464       0.016571
      3 C                    -0.331795       0.027286
      4 O                    -0.453066       0.000304
      5 O                    -0.202154       0.822162
      6 C                     0.124261       0.043410
      7 C                     0.061815       0.048903
      8 C                     0.097371      -0.002839
      9 O                    -0.307611       0.001847
     10 O                    -0.495309       0.005321
     11 H                     0.256359      -0.002344
     12 H                     0.229689      -0.000361
     13 H                     0.331787      -0.000414
     14 H                     0.301068       0.001656
     15 H                     0.300386       0.002137
     16 H                     0.363105      -0.000174
     17 H                     0.381479       0.000583
  --------------------------------------------------------
  Sum of atomic charges =    -0.000000
  Sum of spin   charges =     1.000000

 -----------------------------------------------------------------
                    Cartesian Multipole Moments
 -----------------------------------------------------------------
    Charge (ESU x 10^10)
                -0.0000
    Dipole Moment (Debye)
         X       1.5380      Y       0.0104      Z       6.4493
       Tot       6.6302
    Quadrupole Moments (Debye-Ang)
        XX     -32.8520     XY      -2.4044     YY     -66.0628
        XZ      18.5316     YZ      -4.0521     ZZ     -49.5080
    Octopole Moments (Debye-Ang^2)
       XXX    -348.3673    XXY      -4.7918    XYY    -225.3928
       YYY     -20.6928    XXZ      32.4877    XYZ      -5.1063
       YYZ     -39.9174    XZZ    -193.7248    YZZ     -12.6587
       ZZZ    -104.4583
    Hexadecapole Moments (Debye-Ang^3)
      XXXX   -3261.1763   XXXY     -37.0501   XXYY   -1045.9062
      XYYY    -131.9454   YYYY    -261.4195   XXXZ    -166.6402
      XXYZ      -2.2486   XYYZ    -190.2301   YYYZ     -20.4834
      XXZZ   -1048.2444   XYZZ     -54.4968   YYZZ    -126.8858
      XZZZ    -524.8453   YZZZ     -29.3275   ZZZZ    -479.7573
 -----------------------------------------------------------------
 Calculating analytic gradient of the SCF energy
 Gradient of CDS energy
            1           2           3           4           5           6
    1  -0.0013745   0.0006217   0.0022632  -0.0016050  -0.0008655  -0.0001582
    2  -0.0013915   0.0015974   0.0041952   0.0020197  -0.0059526   0.0000204
    3  -0.0000059  -0.0003134  -0.0035153   0.0027800   0.0005966   0.0001457
            7           8           9          10          11          12
    1  -0.0001904   0.0038436  -0.0033484   0.0001214   0.0002528   0.0001942
    2  -0.0000593   0.0002470  -0.0002229   0.0000131   0.0000455  -0.0000349
    3   0.0004333   0.0003097  -0.0017553   0.0011216   0.0002544  -0.0002339
           13          14          15          16          17
    1  -0.0002056  -0.0000998   0.0000567   0.0004284   0.0000652
    2  -0.0003843   0.0000122  -0.0000282   0.0000398  -0.0001165
    3   0.0002575   0.0000563   0.0001771  -0.0000226  -0.0002856
 Gradient of SCF Energy
            1           2           3           4           5           6
    1   0.0048728  -0.0006124   0.0001455   0.0085166   0.0004787  -0.0009121
    2  -0.0045814  -0.0007326   0.0052625  -0.0060078   0.0022430   0.0011137
    3  -0.0043421  -0.0219569  -0.0048391  -0.0046425  -0.0014992  -0.0087627
            7           8           9          10          11          12
    1   0.0099059  -0.0042250  -0.0093155  -0.0070203  -0.0037554  -0.0008489
    2   0.0023050   0.0012998  -0.0020227  -0.0015198   0.0034573   0.0026411
    3  -0.0094241   0.0032574   0.0126461  -0.0093347   0.0089204   0.0006094
           13          14          15          16          17
    1   0.0013834  -0.0116915   0.0023868   0.0154880  -0.0047966
    2  -0.0006454  -0.0034867  -0.0022132   0.0015827   0.0013044
    3   0.0196540   0.0135625   0.0125879  -0.0088240   0.0023875
 Max gradient component =       2.196E-02
 RMS gradient           =       7.384E-03
 Computing fast CPCM-SWIG gradient
 Updating gradient with PCM contributions...
 -- total gradient after adding PCM contribution --
---------------------------------------------------
  Atom         X              Y              Z     
---------------------------------------------------
   1       0.000505       0.000347      -0.000623
   2      -0.000314      -0.000004       0.000087
   3      -0.001038       0.001158       0.001593
   4       0.005828      -0.000941       0.000675
   5      -0.000047       0.000199      -0.000695
   6       0.000219      -0.000110      -0.000205
   7      -0.000048      -0.000737       0.000719
   8      -0.001545       0.003203      -0.000444
   9       0.000682      -0.000867       0.001080
  10      -0.003626      -0.002935      -0.000982
  11      -0.000270      -0.000046      -0.000038
  12       0.000001       0.000467      -0.000085
  13       0.000093      -0.000584       0.000596
  14       0.000305      -0.000558       0.000163
  15      -0.000122       0.000043      -0.000191
  16       0.000397      -0.000013      -0.000570
  17      -0.001020       0.001377      -0.001081
---------------------------------------------------
 Number of fixed atoms: 0
 Gradient time:  CPU 372.65 s  wall 29.76 s
 Geometry Optimization Parameters
   NAtoms,    NIC,     NZ,  NCons,   NDum,   NFix, NCnnct, MaxDiis
       17     105       0       0       0       0       0       0

 Cartesian Hessian Update
 Hessian updated using BFGS update


** GEOMETRY OPTIMIZATION IN DELOCALIZED INTERNAL COORDINATES **
   Searching for a Minimum

   Optimization Cycle:   2

                       Coordinates (Angstroms)
     ATOM                X               Y               Z
      1  C         1.0544396014    0.0557049002    0.3399107888
      2  O         0.7791564973   -1.3170285581    0.5127478454
      3  C         2.5816087149    0.3375444778    0.3168862690
      4  O         3.1353129360   -0.4371955319   -0.7111121414
      5  O         2.7624252012    1.6759363143    0.1726239491
      6  C         3.1822272841    0.0597498866    1.7049659319
      7  C         4.4664746341   -0.0069152122    2.0401124331
      8  C         5.6210127036    0.1565014890    1.1344043840
      9  O         6.7657856470    0.2271564177    1.8141702838
     10  O         5.5906544335    0.1943982335   -0.0834906828
     11  H         0.6070627787    0.6631252229    1.1245516629
     12  H         0.6581639094    0.3559627413   -0.6270369559
     13  H         0.8456434041   -1.5408322534    1.4483050681
     14  H         2.4492066846   -0.0517074448    2.4943789238
     15  H         4.7225993857   -0.1964459945    3.0728992985
     16  H         7.4990327764    0.3249041887    1.1844770293
     17  H         4.0889254082   -0.2278536768   -0.7324984874
   Point Group: c1    Number of degrees of freedom:    45


   Energy is   -570.828731205

 Hessian updated using BFGS update

 44 Hessian modes will be used to form the next step
  Hessian Eigenvalues:
     0.001995    0.006278    0.011987    0.013910    0.014689    0.015012
     0.017942    0.022957    0.024041    0.036083    0.047550    0.059162
     0.060671    0.081855    0.098567    0.109351    0.113325    0.139314
     0.159892    0.159993    0.160112    0.187412    0.206519    0.219887
     0.220643    0.235978    0.248839    0.259711    0.273668    0.291195
     0.342960    0.344753    0.348697    0.352108    0.394555    0.438601
     0.451628    0.512231    0.520237    0.525493    0.529913    0.577231
     0.667809    0.903057

 Minimum search - taking simple RFO step
 Searching for Lamda that Minimizes Along All modes
 Value Taken    Lamda =  -0.00236906
 Step Taken.  Stepsize is  0.234828

                             Maximum     Tolerance    Cnvgd?
         Gradient           0.018466      0.000300      NO
         Displacement       0.130988      0.001200      NO
         Energy change     -0.000133      0.000001      NO


 New Cartesian Coordinates Obtained by Inverse Iteration

 Displacement from previous Coordinates is:  0.828713
 ----------------------------------------------------------------
             Standard Nuclear Orientation (Angstroms)
    I     Atom           X                Y                Z
 ----------------------------------------------------------------
    1      C       1.0402687459     0.0862188231     0.3680458085
    2      O       0.7079324614    -1.2678540713     0.5785283156
    3      C       2.5729422546     0.3001551707     0.2783007849
    4      O       3.0543027676    -0.4807528877    -0.7785154405
    5      O       2.7898674090     1.6249055464     0.1261966407
    6      C       3.2081641596     0.0065553083     1.6428250604
    7      C       4.4809674076    -0.0398563303     1.9864382676
    8      C       5.6709833658     0.1895124376     1.1496073503
    9      O       6.7707612679     0.2778250638     1.8879098450
   10      O       5.7110542123     0.2934281474    -0.0538333785
   11      H       0.6601488389     0.7070424049     1.1646779790
   12      H       0.6194429661     0.3960930164    -0.5758565665
   13      H       0.7830916476    -1.5049803494     1.4979956985
   14      H       2.4826593200    -0.1344134589     2.4234002762
   15      H       4.7078383522    -0.2545723240     3.0127959356
   16      H       7.5358914320     0.4366126662     1.3293110958
   17      H       4.0134153916    -0.3629139630    -0.8315320725
 ----------------------------------------------------------------
 Nuclear Repulsion Energy =         550.99555610 hartrees
 There are       39 alpha and       38 beta electrons
 Discretize the solute cavity surface with Lebedev spheres
	Using 110 Lebedev grid points for each H atom
	Using 194 Lebedev grid points for other atoms
	Atomic van der Waals radii will be scaled by 1.20
 Remove points where switching function is < 1.0e-08
 Keep 1377 surface tesserae and discard 1333 interior tesserae
 Molecular Surface Area = 157.112 Angst**2
 Applying Cartesian multipole field
    Component          Value
    ---------          -----
     (2,0,0)        1.00000E-12
     (0,2,0)        2.00000E-11
     (0,0,2)       -3.00000E-11
 Nucleus-field energy     =    -0.0000000039 hartrees
 Requested basis set is 6-311++G(2df,2p)
 There are 122 shells and 410 basis functions
 A cutoff of  1.0D-12 yielded   6496 shell pairs
 There are     73546 function pairs (     92136 Cartesian)
 Smallest overlap matrix eigenvalue = 3.28E-06
 Guess MOs from SCF MO coefficient file

 -----------------------------------------------------------------------
  General SCF calculation program by
  Eric Jon Sundstrom, Paul Horn, Yuezhi Mao, Dmitri Zuev, Alec White,
  David Stuck, Shaama M.S., Shane Yost, Joonho Lee, David Small,
  Daniel Levine, Susi Lehtola, Hugh Burton, Evgeny Epifanovsky,
  Bang C. Huynh
 -----------------------------------------------------------------------
 Exchange:     0.1500 Hartree-Fock + 1.0000 wB97M-V + LR-HF
 Correlation:  1.0000 wB97M-V
 Using SG-2 standard quadrature grid
 Nonlocal Correlation:  VV10 with C = 0.0100 and b = 6.00 and scale = 1.00000
 Grid used for NLC:  SG-1 standard quadrature
 
 Citation of the SMD model:
 Marenich, A.V.; Cramer, C.J.; Truhlar, D.G.
 J. Phys. Chem. B 2009, 113, 6378-6396.
 iSolventCode=           1
 Solvent: water                                                           
 
 vradii
            1           2           3           4           5           6
    1   1.8500000   1.5200000   1.8500000   1.5200000   1.5200000   1.8500000
            7           8           9          10          11          12
    1   1.8500000   1.8500000   1.5200000   1.5200000   1.2000000   1.2000000
           13          14          15          16          17
    1   1.2000000   1.2000000   1.2000000   1.2000000   1.2000000
 -------------------------------------------------------
 OpenMP BLAS3 based DFT computing Module                
 Release: version 1.0, May 2013, Q-Chem Inc. Pittsburgh 
 -------------------------------------------------------
 A unrestricted SCF calculation will be
 performed using Roothaan-Hall, DIIS, GDM
 SCF converges when RMS gradient is below 1.0e-07
 ---------------------------------------
  Cycle       Energy         DIIS error
 ---------------------------------------
    1    -570.7716692760      4.60e-04  Roothaan Step
 ---------------------------------------
  Cycle       Energy         DIIS error
 ---------------------------------------
    1    -570.8240042779      2.95e-04  
    2    -570.8308791726      2.68e-04  Done DIIS. Switching to GDM
 ---------------------------------------
  Cycle       Energy        RMS Gradient
 ---------------------------------------
    1    -570.8308791726      1.31e-02   Normal BFGS step
    2    -570.8297063002      2.08e-02  Line search: overstep
    3    -570.8347708884      3.13e-03   Normal BFGS step
    4    -570.8350409752      2.16e-03   Normal BFGS step
    5    -570.8350855633      8.58e-04   Normal BFGS step
    6    -570.8351015496      7.74e-04   Normal BFGS step
    7    -570.8351040640      6.72e-04   Normal BFGS step
    8    -570.8351057542      3.85e-04   Normal BFGS step
    9    -570.8351066441      3.78e-04   Normal BFGS step
   10    -570.8351071886      3.39e-04   Normal BFGS step
   11    -570.8351079549      2.51e-04   Normal BFGS step
   12    -570.8351084792      1.97e-04   Normal BFGS step
   13    -570.8351087879      1.02e-04   Normal BFGS step
   14    -570.8351088920      8.10e-05   Normal BFGS step
   15    -570.8351089232      4.12e-05   Normal BFGS step
   16    -570.8351089325      1.50e-05   Normal BFGS step
   17    -570.8351089351      1.02e-05   Normal BFGS step
   18    -570.8351089358      6.76e-06   Normal BFGS step
   19    -570.8351089360      2.89e-06   Normal BFGS step
   20    -570.8351089361      1.05e-06   Normal BFGS step
   21    -570.8351089361      5.61e-07   Normal BFGS step
   22    -570.8351089361      2.97e-07   Normal BFGS step
   23    -570.8351089361      1.39e-07   Normal BFGS step
   24    -570.8351089361      6.82e-08  Convergence criterion met
 ---------------------------------------
 SCF time:   CPU 2931.12s  wall 200.00s 
<S^2> =          0.755078015
(3)  G-ENP(liq) elect-nuc-pol free energy of system     -570.835108936 a.u.
(4)  G-CDS(liq) cavity-dispersion-solvent structure 
     free energy                                                5.1148 kcal/mol
(6)  G-S(liq) free energy of system                     -570.826957998 a.u.
 SCF   energy in the final basis set =     -570.8269579976
 Total energy in the final basis set =     -570.8269579976
 
 --------------------------------------------------------------
 
                    Orbital Energies (a.u.)
 --------------------------------------------------------------
 
 Alpha MOs
 -- Occupied --
-19.3961 -19.3879 -19.3478 -19.3449 -19.3420 -10.5006 -10.4703 -10.4008
-10.3881 -10.3711  -1.2613  -1.2235  -1.1694  -1.1674  -1.1405  -0.9468
 -0.8677  -0.8159  -0.7460  -0.6955  -0.6670  -0.6525  -0.6323  -0.6146
 -0.5893  -0.5825  -0.5677  -0.5543  -0.5363  -0.5252  -0.5088  -0.4875
 -0.4507  -0.4455  -0.4403  -0.4282  -0.4084  -0.3923  -0.3831
 -- Virtual --
  0.0121   0.0258   0.0370   0.0429   0.0552   0.0585   0.0639   0.0826
  0.0891   0.1003   0.1056   0.1118   0.1268   0.1302   0.1329   0.1406
  0.1500   0.1532   0.1620   0.1714   0.1764   0.1784   0.1816   0.1913
  0.1934   0.1985   0.2145   0.2240   0.2400   0.2435   0.2503   0.2583
  0.2613   0.2775   0.2854   0.2885   0.3020   0.3086   0.3113   0.3159
  0.3279   0.3308   0.3327   0.3392   0.3431   0.3463   0.3533   0.3622
  0.3663   0.3699   0.3782   0.3909   0.3973   0.4007   0.4090   0.4118
  0.4339   0.4373   0.4510   0.4593   0.4661   0.4823   0.4908   0.5157
  0.5472   0.5527   0.5879   0.5897   0.6057   0.6174   0.6352   0.6414
  0.6474   0.6525   0.6555   0.6632   0.6794   0.6844   0.7032   0.7166
  0.7300   0.7337   0.7473   0.7525   0.7594   0.7683   0.7943   0.8146
  0.8182   0.8408   0.8473   0.8662   0.8933   0.8970   0.9111   0.9245
  0.9515   0.9638   0.9909   1.0031   1.0169   1.0395   1.0647   1.0706
  1.0899   1.1004   1.1069   1.1250   1.1286   1.1357   1.1480   1.1612
  1.1696   1.1729   1.1819   1.1876   1.1980   1.2062   1.2247   1.2338
  1.2444   1.2527   1.2698   1.2779   1.2853   1.3017   1.3106   1.3247
  1.3633   1.3741   1.3816   1.4103   1.4229   1.4499   1.4642   1.4775
  1.4900   1.5008   1.5263   1.5409   1.5634   1.5747   1.5782   1.6005
  1.6117   1.6191   1.6294   1.6496   1.6605   1.6964   1.7193   1.7247
  1.7613   1.7959   1.8056   1.8285   1.8493   1.8762   1.9094   1.9178
  1.9618   1.9729   1.9941   2.0395   2.0623   2.0881   2.1281   2.1405
  2.2053   2.2491   2.2547   2.2764   2.3239   2.3525   2.3753   2.3991
  2.4051   2.4313   2.4804   2.5234   2.5584   2.5965   2.6172   2.6639
  2.6994   2.7308   2.7521   2.7747   2.7895   2.8155   2.8399   2.8540
  2.8576   2.8774   2.9233   2.9315   2.9365   2.9482   2.9798   3.0026
  3.0599   3.0765   3.0935   3.1453   3.1563   3.1736   3.1820   3.2138
  3.2318   3.2475   3.2611   3.2793   3.3015   3.3244   3.3387   3.3729
  3.3862   3.3944   3.4210   3.4278   3.4566   3.4825   3.4851   3.5064
  3.5193   3.5461   3.5522   3.5658   3.6036   3.6179   3.6441   3.6711
  3.6870   3.6937   3.7367   3.7399   3.7528   3.7807   3.8005   3.8133
  3.8331   3.8570   3.8646   3.8745   3.8877   3.9049   3.9132   3.9607
  3.9746   3.9910   4.0476   4.0801   4.0977   4.1251   4.1417   4.1643
  4.1999   4.2244   4.2449   4.2538   4.2743   4.2954   4.3326   4.3633
  4.3859   4.4007   4.4089   4.4311   4.4718   4.4947   4.5274   4.5484
  4.6006   4.6160   4.6401   4.7607   4.8326   4.8573   4.9570   5.0747
  5.1067   5.1189   5.1400   5.1624   5.1864   5.2147   5.2249   5.2354
  5.2390   5.2598   5.2629   5.2740   5.2890   5.2911   5.3107   5.3414
  5.3433   5.3573   5.4001   5.4107   5.4192   5.4416   5.4705   5.5445
  5.5580   5.5679   5.5763   5.6023   5.6068   5.6502   5.6592   5.6716
  5.7082   5.7222   5.7767   5.8246   5.8596   5.8712   5.9282   6.0228
  6.0336   6.0704   6.0787   6.1446   6.2261   6.3181   6.4502   6.5804
  6.6323   6.7704   6.8595   6.9407   6.9474   6.9521   7.0394   7.0823
  7.1019   7.1381   7.1788   7.2566   7.2682   7.2889   7.3127   7.3343
  7.3461   7.3605   7.3693   7.3813   7.4108   7.4479   7.5177   7.6034
  7.6567   7.6914   7.7203   7.7684   7.7758   7.8061   7.8554   7.8722
  7.9241  24.4100  24.7573  24.9284  25.1408  25.3069  50.5804  50.5932
 50.6099  50.6663  50.7660
 
 Beta MOs
 -- Occupied --
-19.3879 -19.3747 -19.3473 -19.3450 -19.3418 -10.5006 -10.4706 -10.3993
-10.3863 -10.3705  -1.2611  -1.2064  -1.1680  -1.1651  -1.1137  -0.9423
 -0.8590  -0.8128  -0.7399  -0.6931  -0.6607  -0.6451  -0.6302  -0.6025
 -0.5875  -0.5764  -0.5619  -0.5506  -0.5250  -0.5117  -0.5057  -0.4547
 -0.4488  -0.4271  -0.4251  -0.4097  -0.4052  -0.3799
 -- Virtual --
 -0.0789   0.0170   0.0263   0.0370   0.0433   0.0556   0.0590   0.0641
  0.0827   0.0896   0.1005   0.1058   0.1126   0.1272   0.1304   0.1331
  0.1413   0.1506   0.1544   0.1622   0.1716   0.1765   0.1787   0.1821
  0.1921   0.1944   0.1995   0.2151   0.2245   0.2403   0.2443   0.2515
  0.2592   0.2622   0.2783   0.2858   0.2888   0.3044   0.3106   0.3130
  0.3183   0.3285   0.3321   0.3337   0.3394   0.3440   0.3483   0.3539
  0.3635   0.3676   0.3710   0.3786   0.3923   0.3987   0.4019   0.4105
  0.4157   0.4377   0.4399   0.4521   0.4626   0.4667   0.4836   0.4923
  0.5172   0.5480   0.5540   0.5888   0.5911   0.6069   0.6188   0.6361
  0.6430   0.6480   0.6529   0.6573   0.6644   0.6800   0.6864   0.7038
  0.7178   0.7321   0.7347   0.7489   0.7533   0.7611   0.7688   0.7954
  0.8168   0.8202   0.8415   0.8480   0.8671   0.8945   0.8975   0.9120
  0.9254   0.9524   0.9666   0.9922   1.0060   1.0176   1.0402   1.0654
  1.0724   1.0934   1.1023   1.1087   1.1263   1.1297   1.1383   1.1500
  1.1641   1.1730   1.1761   1.1855   1.1919   1.2006   1.2109   1.2255
  1.2358   1.2465   1.2566   1.2732   1.2832   1.2892   1.3034   1.3125
  1.3272   1.3670   1.3760   1.3840   1.4139   1.4269   1.4530   1.4655
  1.4787   1.4912   1.5023   1.5312   1.5447   1.5672   1.5772   1.5799
  1.6018   1.6167   1.6237   1.6331   1.6535   1.6624   1.7006   1.7215
  1.7313   1.7666   1.7987   1.8078   1.8315   1.8608   1.8933   1.9144
  1.9310   1.9649   1.9796   1.9997   2.0428   2.0661   2.0976   2.1313
  2.1443   2.2081   2.2543   2.2572   2.2809   2.3256   2.3559   2.3772
  2.3999   2.4062   2.4320   2.4849   2.5294   2.5605   2.6000   2.6193
  2.6662   2.7030   2.7328   2.7545   2.7766   2.7908   2.8176   2.8429
  2.8557   2.8604   2.8793   2.9252   2.9332   2.9393   2.9512   2.9821
  3.0052   3.0640   3.0798   3.0967   3.1472   3.1603   3.1765   3.1840
  3.2157   3.2340   3.2493   3.2637   3.2821   3.3049   3.3268   3.3423
  3.3747   3.3884   3.3963   3.4233   3.4300   3.4594   3.4852   3.4879
  3.5084   3.5218   3.5494   3.5560   3.5673   3.6061   3.6202   3.6463
  3.6737   3.6892   3.6958   3.7382   3.7410   3.7552   3.7814   3.8025
  3.8149   3.8350   3.8591   3.8680   3.8768   3.8897   3.9071   3.9157
  3.9630   3.9770   3.9935   4.0503   4.0837   4.0997   4.1269   4.1438
  4.1672   4.2017   4.2268   4.2476   4.2557   4.2763   4.2967   4.3338
  4.3649   4.3877   4.4039   4.4116   4.4334   4.4739   4.4966   4.5299
  4.5506   4.6035   4.6189   4.6429   4.7642   4.8361   4.8614   4.9616
  5.0802   5.1403   5.1611   5.1731   5.1801   5.1895   5.2224   5.2309
  5.2469   5.2526   5.2707   5.2731   5.2856   5.2940   5.3120   5.3176
  5.3541   5.3616   5.3803   5.4138   5.4241   5.4434   5.4586   5.4826
  5.5514   5.5614   5.5728   5.5828   5.6095   5.6109   5.6558   5.6609
  5.6751   5.7105   5.7288   5.7847   5.8276   5.8626   5.8765   5.9364
  6.0271   6.0363   6.0793   6.1025   6.1551   6.2302   6.3269   6.4506
  6.5857   6.6360   6.7709   6.8773   6.9510   7.0254   7.0360   7.0421
  7.0914   7.1051   7.1478   7.1800   7.2573   7.2702   7.3023   7.3154
  7.3426   7.3525   7.3623   7.3784   7.3874   7.4142   7.5005   7.5200
  7.6203   7.6653   7.6955   7.7364   7.7710   7.7770   7.8078   7.8663
  7.8764   7.9293  24.4111  24.7587  24.9280  25.1412  25.3077  50.5900
 50.5936  50.6148  50.6666  50.7662
 --------------------------------------------------------------
 
          Ground-State Mulliken Net Atomic Charges

     Atom                 Charge (a.u.)    Spin (a.u.)
  --------------------------------------------------------
      1 C                    -0.260446       0.034871
      2 O                    -0.396930       0.016229
      3 C                    -0.364393       0.027905
      4 O                    -0.406921      -0.000796
      5 O                    -0.200945       0.819799
      6 C                     0.213685       0.046414
      7 C                    -0.010999       0.047800
      8 C                     0.105981      -0.001865
      9 O                    -0.307373       0.002021
     10 O                    -0.501045       0.005606
     11 H                     0.261992      -0.002430
     12 H                     0.235024      -0.000044
     13 H                     0.331293      -0.000378
     14 H                     0.299938       0.002244
     15 H                     0.298979       0.002140
     16 H                     0.360489      -0.000208
     17 H                     0.341669       0.000692
  --------------------------------------------------------
  Sum of atomic charges =    -0.000000
  Sum of spin   charges =     1.000000

 -----------------------------------------------------------------
                    Cartesian Multipole Moments
 -----------------------------------------------------------------
    Charge (ESU x 10^10)
                -0.0000
    Dipole Moment (Debye)
         X       1.3126      Y      -0.2444      Z       6.3168
       Tot       6.4564
    Quadrupole Moments (Debye-Ang)
        XX     -35.8435     XY      -3.6322     YY     -65.4402
        XZ      18.5104     YZ      -3.5635     ZZ     -49.7594
    Octopole Moments (Debye-Ang^2)
       XXX    -371.3157    XXY      -7.8117    XYY    -223.6883
       YYY     -20.6184    XXZ      37.8473    XYZ      -2.1663
       YYZ     -39.1163    XZZ    -194.5754    YZZ     -13.2998
       ZZZ    -105.9982
    Hexadecapole Moments (Debye-Ang^3)
      XXXX   -3446.1393   XXXY     -35.2832   XXYY   -1044.2443
      XYYY    -140.8318   YYYY    -252.9859   XXXZ    -100.0861
      XXYZ      18.4409   XYYZ    -188.3619   YYYZ     -17.3513
      XXZZ   -1052.4479   XYZZ     -58.4122   YYZZ    -124.7373
      XZZZ    -540.6472   YZZZ     -29.6452   ZZZZ    -491.4816
 -----------------------------------------------------------------
 Calculating analytic gradient of the SCF energy
 Gradient of CDS energy
            1           2           3           4           5           6
    1  -0.0014969   0.0007264   0.0022779  -0.0015290  -0.0009613  -0.0001519
    2  -0.0014757   0.0017116   0.0034807   0.0022345  -0.0054304  -0.0000080
    3   0.0000856  -0.0003818  -0.0038150   0.0030990   0.0005719   0.0001446
            7           8           9          10          11          12
    1  -0.0002029   0.0036002  -0.0030227   0.0000661   0.0002724   0.0001937
    2  -0.0000801   0.0003756  -0.0002662  -0.0000384   0.0000207  -0.0000369
    3   0.0004040   0.0004236  -0.0017830   0.0010658   0.0002346  -0.0002255
           13          14          15          16          17
    1  -0.0002154  -0.0000834   0.0000402   0.0004229   0.0000639
    2  -0.0003722   0.0000161  -0.0000297   0.0000593  -0.0001608
    3   0.0002723   0.0000420   0.0001685   0.0000025  -0.0003090
 Gradient of SCF Energy
            1           2           3           4           5           6
    1   0.0019623   0.0005297  -0.0009769   0.0020302  -0.0008095   0.0065716
    2   0.0017083   0.0011298   0.0015018  -0.0003652  -0.0035462   0.0020013
    3  -0.0077965  -0.0063834  -0.0057470  -0.0034712  -0.0008824  -0.0033288
            7           8           9          10          11          12
    1   0.0022144  -0.0040199  -0.0081333   0.0048708  -0.0017617   0.0018415
    2   0.0028954  -0.0027906  -0.0001312   0.0031409  -0.0014575   0.0021483
    3  -0.0123423   0.0026081  -0.0056559   0.0072954   0.0057054   0.0047303
           13          14          15          16          17
    1   0.0001286  -0.0084633   0.0006387   0.0093569  -0.0059800
    2  -0.0016607  -0.0021255  -0.0013956   0.0010575  -0.0021110
    3   0.0083261   0.0089940   0.0062065   0.0005207   0.0012210
 Max gradient component =       1.234E-02
 RMS gradient           =       4.612E-03
 Computing fast CPCM-SWIG gradient
 Updating gradient with PCM contributions...
 -- total gradient after adding PCM contribution --
---------------------------------------------------
  Atom         X              Y              Z     
---------------------------------------------------
   1      -0.002583       0.007587      -0.004448
   2       0.001598       0.000997       0.016040
   3      -0.002399      -0.002344       0.000779
   4       0.002313       0.004265       0.001160
   5      -0.001614      -0.005622      -0.000085
   6       0.007246       0.000368       0.005152
   7      -0.007618       0.000118      -0.002131
   8      -0.001506      -0.000352      -0.001370
   9       0.002597       0.001819      -0.015451
  10       0.007342       0.000232       0.015490
  11       0.001362      -0.005057      -0.003640
  12       0.002812      -0.000257       0.004710
  13      -0.001795      -0.000894      -0.011078
  14       0.003465       0.000983      -0.004495
  15      -0.001310       0.001199      -0.006136
  16      -0.005820      -0.001447       0.007227
  17      -0.004090      -0.001595      -0.001724
---------------------------------------------------
 Number of fixed atoms: 0
 Gradient time:  CPU 344.29 s  wall 27.54 s
 Geometry Optimization Parameters
   NAtoms,    NIC,     NZ,  NCons,   NDum,   NFix, NCnnct, MaxDiis
       17     105       0       0       0       0       0       0

 Cartesian Hessian Update
 Hessian updated using BFGS update


** GEOMETRY OPTIMIZATION IN DELOCALIZED INTERNAL COORDINATES **
   Searching for a Minimum

   Optimization Cycle:   3

                       Coordinates (Angstroms)
     ATOM                X               Y               Z
      1  C         1.0402687459    0.0862188231    0.3680458085
      2  O         0.7079324614   -1.2678540713    0.5785283156
      3  C         2.5729422546    0.3001551707    0.2783007849
      4  O         3.0543027676   -0.4807528877   -0.7785154405
      5  O         2.7898674090    1.6249055464    0.1261966407
      6  C         3.2081641596    0.0065553083    1.6428250604
      7  C         4.4809674076   -0.0398563303    1.9864382676
      8  C         5.6709833658    0.1895124376    1.1496073503
      9  O         6.7707612679    0.2778250638    1.8879098450
     10  O         5.7110542123    0.2934281474   -0.0538333785
     11  H         0.6601488389    0.7070424049    1.1646779790
     12  H         0.6194429661    0.3960930164   -0.5758565665
     13  H         0.7830916476   -1.5049803494    1.4979956985
     14  H         2.4826593200   -0.1344134589    2.4234002762
     15  H         4.7078383522   -0.2545723240    3.0127959356
     16  H         7.5358914320    0.4366126662    1.3293110958
     17  H         4.0134153916   -0.3629139630   -0.8315320725
   Point Group: c1    Number of degrees of freedom:    45


   Energy is   -570.826957998

 Hessian updated using BFGS update

 45 Hessian modes will be used to form the next step
  Hessian Eigenvalues:
     0.002001    0.006646    0.012012    0.014074    0.014756    0.015083
     0.017322    0.022835    0.024057    0.035877    0.049384    0.060277
     0.063553    0.081804    0.103550    0.113308    0.138972    0.156341
     0.159908    0.159994    0.160019    0.162017    0.188848    0.217868
     0.219646    0.221280    0.243791    0.251282    0.272362    0.283169
     0.341868    0.344668    0.345289    0.350638    0.354384    0.438408
     0.450892    0.488130    0.508965    0.522815    0.527508    0.546131
     0.579438    0.673085    0.916528

 Minimum search - taking simple RFO step
 Searching for Lamda that Minimizes Along All modes
 Value Taken    Lamda =  -0.00396409
 Step Taken.  Stepsize is  0.118794

                             Maximum     Tolerance    Cnvgd?
         Gradient           0.028517      0.000300      NO
         Displacement       0.049939      0.001200      NO
         Energy change      0.001773      0.000001      NO


 New Cartesian Coordinates Obtained by Inverse Iteration

 Displacement from previous Coordinates is:  0.457686
 ----------------------------------------------------------------
             Standard Nuclear Orientation (Angstroms)
    I     Atom           X                Y                Z
 ----------------------------------------------------------------
    1      C       1.0507195938     0.0831571032     0.3473359294
    2      O       0.7282882464    -1.2773815103     0.5282291485
    3      C       2.5866395895     0.3091558963     0.3047366165
    4      O       3.0929875703    -0.4875422056    -0.7296407000
    5      O       2.8156070148     1.6390122752     0.1587851233
    6      C       3.1941256110     0.0102794719     1.6849190053
    7      C       4.4783424748    -0.0447136784     2.0212702971
    8      C       5.6393860494     0.1775230760     1.1354369019
    9      O       6.7684853615     0.2700886670     1.8376649436
   10      O       5.6185795087     0.2946437612    -0.0763529707
   11      H       0.6372624609     0.7096702462     1.1348242761
   12      H       0.6531529729     0.3903785744    -0.6161529505
   13      H       0.7893498768    -1.4965926493     1.4639726460
   14      H       2.4612326217    -0.1233396998     2.4706942617
   15      H       4.7307274503    -0.2581746136     3.0505237221
   16      H       7.5058839060     0.4330398642     1.2287204578
   17      H       4.0589616913    -0.3561993784    -0.7386711081
 ----------------------------------------------------------------
 Nuclear Repulsion Energy =         552.64159163 hartrees
 There are       39 alpha and       38 beta electrons
 Discretize the solute cavity surface with Lebedev spheres
	Using 110 Lebedev grid points for each H atom
	Using 194 Lebedev grid points for other atoms
	Atomic van der Waals radii will be scaled by 1.20
 Remove points where switching function is < 1.0e-08
 Keep 1368 surface tesserae and discard 1342 interior tesserae
 Molecular Surface Area = 156.597 Angst**2
 Applying Cartesian multipole field
    Component          Value
    ---------          -----
     (2,0,0)        1.00000E-12
     (0,2,0)        2.00000E-11
     (0,0,2)       -3.00000E-11
 Nucleus-field energy     =    -0.0000000037 hartrees
 Requested basis set is 6-311++G(2df,2p)
 There are 122 shells and 410 basis functions
 A cutoff of  1.0D-12 yielded   6514 shell pairs
 There are     73789 function pairs (     92457 Cartesian)
 Smallest overlap matrix eigenvalue = 3.55E-06
 Guess MOs from SCF MO coefficient file

 -----------------------------------------------------------------------
  General SCF calculation program by
  Eric Jon Sundstrom, Paul Horn, Yuezhi Mao, Dmitri Zuev, Alec White,
  David Stuck, Shaama M.S., Shane Yost, Joonho Lee, David Small,
  Daniel Levine, Susi Lehtola, Hugh Burton, Evgeny Epifanovsky,
  Bang C. Huynh
 -----------------------------------------------------------------------
 Exchange:     0.1500 Hartree-Fock + 1.0000 wB97M-V + LR-HF
 Correlation:  1.0000 wB97M-V
 Using SG-2 standard quadrature grid
 Nonlocal Correlation:  VV10 with C = 0.0100 and b = 6.00 and scale = 1.00000
 Grid used for NLC:  SG-1 standard quadrature
 
 Citation of the SMD model:
 Marenich, A.V.; Cramer, C.J.; Truhlar, D.G.
 J. Phys. Chem. B 2009, 113, 6378-6396.
 iSolventCode=           1
 Solvent: water                                                           
 
 vradii
            1           2           3           4           5           6
    1   1.8500000   1.5200000   1.8500000   1.5200000   1.5200000   1.8500000
            7           8           9          10          11          12
    1   1.8500000   1.8500000   1.5200000   1.5200000   1.2000000   1.2000000
           13          14          15          16          17
    1   1.2000000   1.2000000   1.2000000   1.2000000   1.2000000
 -------------------------------------------------------
 OpenMP BLAS3 based DFT computing Module                
[...]
     14 H                     0.301659       0.001847
     15 H                     0.300206       0.002019
     16 H                     0.363236      -0.000191
     17 H                     0.362407       0.000586
  --------------------------------------------------------
  Sum of atomic charges =    -0.000000
  Sum of spin   charges =     1.000000

 -----------------------------------------------------------------
                    Cartesian Multipole Moments
 -----------------------------------------------------------------
    Charge (ESU x 10^10)
                -0.0000
    Dipole Moment (Debye)
         X       1.4568      Y      -0.1429      Z       6.4777
       Tot       6.6411
    Quadrupole Moments (Debye-Ang)
        XX     -33.3272     XY      -3.0756     YY     -66.0626
        XZ      18.7372     YZ      -3.8377     ZZ     -49.6052
    Octopole Moments (Debye-Ang^2)
       XXX    -351.6117    XXY      -7.0586    XYY    -225.3406
       YYY     -20.7639    XXZ      35.3715    XYZ      -3.8663
       YYZ     -39.9868    XZZ    -194.3917    YZZ     -12.9410
       ZZZ    -104.3515
    Hexadecapole Moments (Debye-Ang^3)
      XXXX   -3289.9066   XXXY     -39.6691   XXYY   -1046.4182
      XYYY    -135.6098   YYYY    -261.3842   XXXZ    -140.7640
      XXYZ       5.8732   XYYZ    -190.2824   YYYZ     -18.9713
      XXZZ   -1050.9536   XYZZ     -55.7850   YYZZ    -126.5807
      XZZZ    -527.5329   YZZZ     -29.1886   ZZZZ    -482.0107
 -----------------------------------------------------------------
 Calculating analytic gradient of the SCF energy
 Gradient of CDS energy
            1           2           3           4           5           6
    1  -0.0013739   0.0006278   0.0023808  -0.0016507  -0.0009371  -0.0001579
    2  -0.0013787   0.0016027   0.0040554   0.0021635  -0.0059508   0.0000116
    3   0.0000106  -0.0003253  -0.0036818   0.0030274   0.0005076   0.0001443
            7           8           9          10          11          12
    1  -0.0001943   0.0037933  -0.0032744   0.0001047   0.0002537   0.0001918
    2  -0.0000691   0.0003124  -0.0002402  -0.0000228   0.0000401  -0.0000458
    3   0.0004256   0.0003426  -0.0017876   0.0011265   0.0002542  -0.0002381
           13          14          15          16          17
    1  -0.0002133  -0.0000967   0.0000534   0.0004272   0.0000656
    2  -0.0003776   0.0000136  -0.0000293   0.0000494  -0.0001344
    3   0.0002631   0.0000535   0.0001774  -0.0000151  -0.0002848
 Gradient of SCF Energy
            1           2           3           4           5           6
    1   0.0043401   0.0000714   0.0013402   0.0019657   0.0006362  -0.0010340
    2  -0.0054162  -0.0010011   0.0042807  -0.0046228   0.0018362   0.0011479
    3  -0.0037854  -0.0223846  -0.0061455  -0.0051068  -0.0008668  -0.0086895
            7           8           9          10          11          12
    1   0.0097253  -0.0023562  -0.0102383  -0.0032815  -0.0034896  -0.0008855
    2   0.0030250  -0.0024036  -0.0015400   0.0023186   0.0035725   0.0021700
    3  -0.0101114   0.0038497   0.0111831  -0.0085472   0.0090710   0.0005846
           13          14          15          16          17
    1   0.0009578  -0.0120005   0.0023849   0.0151574  -0.0032934
    2   0.0002193  -0.0028104  -0.0023845   0.0020536  -0.0004451
    3   0.0193950   0.0133872   0.0127424  -0.0079325   0.0033566
 Max gradient component =       2.238E-02
 RMS gradient           =       7.173E-03
 Computing fast CPCM-SWIG gradient
 Updating gradient with PCM contributions...
 -- total gradient after adding PCM contribution --
---------------------------------------------------
  Atom         X              Y              Z     
---------------------------------------------------
   1      -0.000091      -0.000044      -0.000019
   2       0.000039       0.000004       0.000021
   3       0.000093       0.000036       0.000001
   4      -0.000031      -0.000000      -0.000008
   5      -0.000041      -0.000063      -0.000013
   6      -0.000013       0.000011      -0.000008
   7       0.000004      -0.000002      -0.000006
   8       0.000023       0.000027       0.000097
   9      -0.000031       0.000022      -0.000019
  10      -0.000005      -0.000004      -0.000056
  11       0.000011      -0.000012      -0.000011
  12       0.000004      -0.000018      -0.000013
  13       0.000001       0.000008       0.000020
  14      -0.000007       0.000014      -0.000004
  15      -0.000003       0.000024       0.000006
  16       0.000003       0.000021       0.000005
  17       0.000044      -0.000025       0.000006
---------------------------------------------------
 Number of fixed atoms: 0
 Gradient time:  CPU 349.86 s  wall 27.97 s
 Geometry Optimization Parameters
   NAtoms,    NIC,     NZ,  NCons,   NDum,   NFix, NCnnct, MaxDiis
       17     105       0       0       0       0       0       0

 Cartesian Hessian Update
 Hessian updated using BFGS update


** GEOMETRY OPTIMIZATION IN DELOCALIZED INTERNAL COORDINATES **
   Searching for a Minimum

   Optimization Cycle:  12

                       Coordinates (Angstroms)
     ATOM                X               Y               Z
      1  C         1.0505187003    0.0607743420    0.3443880338
      2  O         0.7716834123   -1.3096786268    0.5288867014
      3  C         2.5783461204    0.3329542657    0.3049672237
      4  O         3.1064437403   -0.4340924396   -0.7399411393
      5  O         2.7759734055    1.6713103837    0.1805999062
      6  C         3.1891171345    0.0427279730    1.6863496669
      7  C         4.4732480372   -0.0269614463    2.0232627507
      8  C         5.6386714781    0.1603452579    1.1344953222
      9  O         6.7701976884    0.2367644669    1.8336242238
     10  O         5.6226179660    0.2397308428   -0.0809897235
     11  H         0.6146679978    0.6757432673    1.1292331521
     12  H         0.6467937758    0.3546307401   -0.6213279005
     13  H         0.8108601122   -1.5157689009    1.4692088676
     14  H         2.4558458349   -0.0666339880    2.4757547003
     15  H         4.7220324715   -0.2275540194    3.0562381968
     16  H         7.5112515042    0.3661000749    1.2200748964
     17  H         4.0714626206   -0.2873869930   -0.7385292783
   Point Group: c1    Number of degrees of freedom:    45


   Energy is   -570.829209006

 Hessian updated using BFGS update

 45 Hessian modes will be used to form the next step
  Hessian Eigenvalues:
     0.002152    0.005012    0.010528    0.012254    0.015489    0.017390
     0.023023    0.024051    0.045551    0.053621    0.056415    0.060703
     0.067430    0.075608    0.097485    0.113029    0.138736    0.155697
     0.160006    0.160064    0.160474    0.169623    0.178552    0.217506
     0.221564    0.228192    0.249394    0.254752    0.267086    0.290453
     0.343507    0.344830    0.346503    0.351322    0.358115    0.443124
     0.453534    0.488390    0.516568    0.518271    0.530477    0.558923
     0.584293    0.914862    0.937698

 Minimum search - taking simple RFO step
 Searching for Lamda that Minimizes Along All modes
 Value Taken    Lamda =  -0.00000020
 Step Taken.  Stepsize is  0.006653

                             Maximum     Tolerance    Cnvgd?
         Gradient           0.000048      0.000300     YES
         Displacement       0.002465      0.001200      NO
         Energy change     -0.000001      0.000001     YES

 Final energy is   -570.829209006072     


 ******************************
 **  OPTIMIZATION CONVERGED  **
 ******************************

                       Coordinates (Angstroms)
     ATOM                X               Y               Z
      1  C         1.0505187003    0.0607743420    0.3443880338
      2  O         0.7716834123   -1.3096786268    0.5288867014
      3  C         2.5783461204    0.3329542657    0.3049672237
      4  O         3.1064437403   -0.4340924396   -0.7399411393
      5  O         2.7759734055    1.6713103837    0.1805999062
      6  C         3.1891171345    0.0427279730    1.6863496669
      7  C         4.4732480372   -0.0269614463    2.0232627507
      8  C         5.6386714781    0.1603452579    1.1344953222
      9  O         6.7701976884    0.2367644669    1.8336242238
     10  O         5.6226179660    0.2397308428   -0.0809897235
     11  H         0.6146679978    0.6757432673    1.1292331521
     12  H         0.6467937758    0.3546307401   -0.6213279005
     13  H         0.8108601122   -1.5157689009    1.4692088676
     14  H         2.4558458349   -0.0666339880    2.4757547003
     15  H         4.7220324715   -0.2275540194    3.0562381968
     16  H         7.5112515042    0.3661000749    1.2200748964
     17  H         4.0714626206   -0.2873869930   -0.7385292783

Z-matrix Print:
$molecule
0 2
O 
H  1 0.976108
C  1 1.399672 2 106.832201
O  3 1.358573 1 114.622578 2 61.709572 0
C  3 1.538015 1 114.662068 2 -56.003425 0
H  5 1.082962 3 113.882708 1 -133.820646 0
C  5 1.329421 3 128.396423 1 49.438740 0
H  7 1.081281 5 118.299215 3 179.020330 0
C  7 1.477567 5 127.070002 3 -0.044031 0
O  9 1.218180 7 126.729891 5 -10.135533 0
O  9 1.332281 7 111.193374 5 169.917263 0
H  11 0.970737 9 108.925039 7 -179.568906 0
C  3 1.552383 1 107.109927 2 -177.804155 0
H  13 1.087176 3 107.189348 1 -59.613938 0
H  13 1.088179 3 108.265826 1 -178.036873 0
O  13 1.410649 3 111.604255 1 58.180553 0
H  16 0.963439 13 109.112859 3 83.576170 0
$end

 
 --------------------------------------------------------------
 
                    Orbital Energies (a.u.)
 --------------------------------------------------------------
 
 Alpha MOs
 -- Occupied --
-19.3968 -19.3922 -19.3493 -19.3466 -19.3400 -10.5057 -10.4701 -10.4014
-10.3912 -10.3746  -1.2603  -1.2197  -1.1696  -1.1677  -1.1368  -0.9448
 -0.8642  -0.8132  -0.7427  -0.6906  -0.6668  -0.6507  -0.6354  -0.6122
 -0.5890  -0.5804  -0.5670  -0.5538  -0.5365  -0.5246  -0.5077  -0.4858
 -0.4525  -0.4469  -0.4419  -0.4261  -0.4097  -0.3916  -0.3820
 -- Virtual --
  0.0096   0.0257   0.0367   0.0429   0.0558   0.0581   0.0640   0.0826
  0.0886   0.0999   0.1065   0.1116   0.1267   0.1293   0.1340   0.1393
  0.1490   0.1521   0.1611   0.1710   0.1759   0.1796   0.1819   0.1905
  0.1923   0.1991   0.2126   0.2226   0.2362   0.2463   0.2521   0.2593
  0.2608   0.2764   0.2837   0.2879   0.3007   0.3071   0.3102   0.3153
  0.3289   0.3307   0.3342   0.3382   0.3435   0.3465   0.3552   0.3623
  0.3634   0.3722   0.3782   0.3906   0.3960   0.3966   0.4061   0.4133
  0.4303   0.4368   0.4498   0.4590   0.4682   0.4855   0.4873   0.5105
  0.5422   0.5506   0.5856   0.5895   0.6029   0.6166   0.6298   0.6385
  0.6437   0.6507   0.6519   0.6591   0.6789   0.6829   0.6997   0.7140
  0.7274   0.7293   0.7429   0.7547   0.7584   0.7713   0.7925   0.8108
  0.8213   0.8351   0.8482   0.8635   0.8927   0.8979   0.9074   0.9283
  0.9503   0.9613   0.9914   1.0033   1.0180   1.0379   1.0698   1.0806
  1.0893   1.0969   1.1082   1.1227   1.1262   1.1382   1.1478   1.1656
  1.1734   1.1773   1.1804   1.1894   1.2103   1.2209   1.2276   1.2349
  1.2498   1.2550   1.2666   1.2823   1.2874   1.2972   1.3190   1.3324
  1.3561   1.3807   1.3856   1.4053   1.4183   1.4503   1.4579   1.4721
  1.4860   1.4940   1.5286   1.5388   1.5583   1.5674   1.5736   1.5971
  1.6070   1.6201   1.6274   1.6421   1.6540   1.6946   1.7187   1.7189
  1.7590   1.7993   1.8020   1.8235   1.8425   1.8864   1.9105   1.9176
  1.9496   1.9738   1.9927   2.0472   2.0579   2.0873   2.1389   2.1654
  2.2107   2.2421   2.2722   2.2741   2.3416   2.3833   2.3908   2.3996
  2.4289   2.4347   2.4736   2.5266   2.5662   2.5988   2.6142   2.6657
  2.7008   2.7168   2.7537   2.7841   2.7946   2.8076   2.8387   2.8463
  2.8561   2.8779   2.9241   2.9306   2.9390   2.9439   2.9845   3.0031
  3.0525   3.0711   3.1055   3.1476   3.1535   3.1724   3.1831   3.2133
  3.2276   3.2438   3.2634   3.2846   3.3031   3.3227   3.3438   3.3667
  3.3874   3.3900   3.4192   3.4274   3.4555   3.4854   3.4944   3.5048
  3.5155   3.5419   3.5489   3.5609   3.6076   3.6191   3.6457   3.6692
  3.6844   3.6890   3.7262   3.7322   3.7494   3.7747   3.7912   3.8095
  3.8307   3.8453   3.8632   3.8700   3.8747   3.9021   3.9127   3.9612
  3.9780   3.9898   4.0309   4.0654   4.0935   4.1241   4.1345   4.1551
  4.1818   4.2128   4.2347   4.2543   4.2710   4.2787   4.3100   4.3494
  4.3744   4.3893   4.3986   4.4191   4.4738   4.4926   4.5095   4.5341
  4.5819   4.6079   4.6302   4.7416   4.8183   4.8302   4.9083   5.0502
  5.1036   5.1193   5.1381   5.1637   5.2025   5.2142   5.2237   5.2305
  5.2431   5.2601   5.2619   5.2724   5.2900   5.2919   5.3055   5.3317
  5.3443   5.3692   5.3966   5.4060   5.4189   5.4374   5.4645   5.5380
  5.5507   5.5673   5.5747   5.5823   5.5916   5.6300   5.6343   5.6608
  5.6844   5.7141   5.7536   5.7964   5.8382   5.8605   5.9286   5.9889
  5.9993   6.0484   6.0633   6.1196   6.1820   6.3076   6.4089   6.5700
  6.6277   6.7455   6.8434   6.9350   6.9403   6.9547   7.0337   7.0944
  7.0998   7.1548   7.1960   7.2232   7.2674   7.2927   7.2990   7.3192
  7.3269   7.3435   7.3652   7.3731   7.3931   7.4378   7.4905   7.5945
  7.6394   7.6961   7.7129   7.7548   7.7685   7.8131   7.8607   7.8907
  7.9432  24.3886  24.7295  24.9044  25.0943  25.2585  50.5745  50.5834
 50.6029  50.6689  50.7597
 
 Beta MOs
 -- Occupied --
-19.3922 -19.3753 -19.3488 -19.3464 -19.3401 -10.5057 -10.4704 -10.4000
-10.3895 -10.3738  -1.2600  -1.2029  -1.1691  -1.1636  -1.1101  -0.9403
 -0.8556  -0.8101  -0.7365  -0.6883  -0.6609  -0.6438  -0.6331  -0.6005
 -0.5872  -0.5743  -0.5606  -0.5505  -0.5230  -0.5136  -0.5034  -0.4552
 -0.4512  -0.4283  -0.4228  -0.4094  -0.4060  -0.3787
 -- Virtual --
 -0.0793   0.0149   0.0261   0.0367   0.0433   0.0563   0.0585   0.0642
  0.0826   0.0892   0.1001   0.1066   0.1124   0.1271   0.1297   0.1342
  0.1398   0.1500   0.1530   0.1612   0.1712   0.1760   0.1800   0.1822
  0.1914   0.1934   0.2001   0.2132   0.2231   0.2367   0.2474   0.2531
  0.2603   0.2614   0.2775   0.2840   0.2881   0.3029   0.3096   0.3122
  0.3170   0.3295   0.3325   0.3349   0.3389   0.3444   0.3483   0.3558
  0.3638   0.3645   0.3731   0.3789   0.3917   0.3966   0.3983   0.4073
  0.4181   0.4353   0.4380   0.4521   0.4606   0.4687   0.4874   0.4882
  0.5118   0.5431   0.5521   0.5868   0.5905   0.6039   0.6179   0.6307
  0.6400   0.6449   0.6515   0.6530   0.6601   0.6794   0.6851   0.7004
  0.7152   0.7290   0.7304   0.7447   0.7555   0.7601   0.7723   0.7935
  0.8129   0.8233   0.8358   0.8491   0.8644   0.8933   0.8992   0.9081
  0.9294   0.9511   0.9641   0.9932   1.0056   1.0186   1.0386   1.0706
  1.0832   1.0920   1.0991   1.1098   1.1242   1.1272   1.1410   1.1494
  1.1681   1.1773   1.1792   1.1858   1.1935   1.2135   1.2218   1.2295
  1.2383   1.2530   1.2576   1.2714   1.2865   1.2912   1.3013   1.3205
  1.3341   1.3579   1.3824   1.3885   1.4101   1.4216   1.4527   1.4595
  1.4734   1.4872   1.4956   1.5322   1.5431   1.5623   1.5707   1.5748
  1.5997   1.6115   1.6218   1.6346   1.6456   1.6566   1.6984   1.7212
  1.7254   1.7645   1.8012   1.8042   1.8252   1.8581   1.9038   1.9159
  1.9301   1.9521   1.9813   1.9966   2.0522   2.0613   2.0949   2.1428
  2.1689   2.2130   2.2448   2.2732   2.2830   2.3446   2.3852   2.3915
  2.4018   2.4299   2.4355   2.4783   2.5334   2.5675   2.6021   2.6164
  2.6677   2.7043   2.7191   2.7561   2.7855   2.7963   2.8097   2.8419
  2.8487   2.8582   2.8799   2.9258   2.9327   2.9422   2.9467   2.9867
  3.0057   3.0568   3.0740   3.1088   3.1501   3.1568   3.1751   3.1853
  3.2154   3.2297   3.2458   3.2658   3.2869   3.3063   3.3252   3.3472
  3.3684   3.3901   3.3922   3.4215   3.4294   3.4583   3.4881   3.4971
  3.5066   3.5187   3.5450   3.5523   3.5628   3.6099   3.6217   3.6478
  3.6714   3.6864   3.6915   3.7269   3.7346   3.7514   3.7754   3.7933
  3.8114   3.8320   3.8472   3.8672   3.8725   3.8766   3.9042   3.9142
  3.9648   3.9795   3.9924   4.0333   4.0689   4.0954   4.1260   4.1363
  4.1583   4.1832   4.2154   4.2378   4.2556   4.2725   4.2802   4.3110
  4.3513   4.3761   4.3920   4.4021   4.4211   4.4760   4.4948   4.5119
  4.5364   4.5843   4.6108   4.6328   4.7455   4.8225   4.8336   4.9125
  5.0549   5.1384   5.1630   5.1716   5.1825   5.2051   5.2170   5.2300
  5.2491   5.2534   5.2709   5.2725   5.2878   5.2954   5.3116   5.3166
  5.3476   5.3562   5.3852   5.4099   5.4271   5.4384   5.4561   5.4760
  5.5422   5.5572   5.5744   5.5768   5.5895   5.5969   5.6308   5.6410
  5.6633   5.6868   5.7196   5.7636   5.7991   5.8417   5.8651   5.9360
  5.9924   6.0029   6.0638   6.0767   6.1344   6.1851   6.3169   6.4092
  6.5762   6.6309   6.7461   6.8596   6.9493   7.0210   7.0336   7.0441
  7.0994   7.1014   7.1618   7.1979   7.2252   7.2695   7.2995   7.3110
  7.3232   7.3296   7.3460   7.3736   7.3788   7.3970   7.4886   7.5000
  7.6112   7.6469   7.6976   7.7278   7.7630   7.7721   7.8146   7.8623
  7.9014   7.9469  24.3897  24.7308  24.9040  25.0948  25.2593  50.5806
 50.5864  50.6089  50.6692  50.7599
 --------------------------------------------------------------
 
          Ground-State Mulliken Net Atomic Charges

     Atom                 Charge (a.u.)    Spin (a.u.)
  --------------------------------------------------------
      1 C                    -0.263249       0.033139
      2 O                    -0.392354       0.015169
      3 C                    -0.328685       0.027829
      4 O                    -0.434580      -0.000524
      5 O                    -0.202543       0.821371
      6 C                     0.131935       0.040539
      7 C                     0.044788       0.055444
      8 C                     0.098869      -0.002466
      9 O                    -0.304624       0.002121
     10 O                    -0.494122       0.005862
     11 H                     0.254868      -0.002303
     12 H                     0.229989      -0.000072
     13 H                     0.332200      -0.000370
     14 H                     0.301659       0.001847
     15 H                     0.300206       0.002019
     16 H                     0.363236      -0.000191
     17 H                     0.362407       0.000586
  --------------------------------------------------------
  Sum of atomic charges =    -0.000000
  Sum of spin   charges =     1.000000

 -----------------------------------------------------------------
                    Cartesian Multipole Moments
 -----------------------------------------------------------------
    Charge (ESU x 10^10)
                -0.0000
    Dipole Moment (Debye)
         X       1.4568      Y      -0.1429      Z       6.4777
       Tot       6.6411
    Quadrupole Moments (Debye-Ang)
        XX     -33.3272     XY      -3.0756     YY     -66.0626
        XZ      18.7372     YZ      -3.8377     ZZ     -49.6052
    Octopole Moments (Debye-Ang^2)
       XXX    -351.6117    XXY      -7.0586    XYY    -225.3406
       YYY     -20.7639    XXZ      35.3715    XYZ      -3.8663
       YYZ     -39.9868    XZZ    -194.3917    YZZ     -12.9410
       ZZZ    -104.3515
    Hexadecapole Moments (Debye-Ang^3)
      XXXX   -3289.9066   XXXY     -39.6691   XXYY   -1046.4182
      XYYY    -135.6098   YYYY    -261.3842   XXXZ    -140.7640
      XXYZ       5.8732   XYYZ    -190.2824   YYYZ     -18.9713
      XXZZ   -1050.9536   XYZZ     -55.7850   YYZZ    -126.5807
      XZZZ    -527.5329   YZZZ     -29.1886   ZZZZ    -482.0107
 -----------------------------------------------------------------
 Total job time:  2716.21s(wall), 38919.93s(cpu) 
 Wed Aug 21 11:31:49 2024

        *************************************************************
        *                                                           *
        *  Thank you very much for using Q-Chem.  Have a nice day.  *
        *                                                           *
        *************************************************************


