
Running Job 1 of 2 Q_in.in
qchem Q_in.in_128532.0 /scratch/ari.fischer/qChem1647373.hpc-mn1/qchem128532/ 0
/usr/local/qchem-5.4.1/exe/qcprog.exe_s Q_in.in_128532.0 /scratch/ari.fischer/qChem1647373.hpc-mn1/qchem128532/
                  Welcome to Q-Chem
     A Quantum Leap Into The Future Of Chemistry


 Q-Chem 5.4, Q-Chem, Inc., Pleasanton, CA (2021)

 License issued to: Nanyang Technological University (site)

 E. Epifanovsky,  A. T. B. Gilbert,  Xintian Feng,  Joonho Lee,  Yuezhi Mao,  
 N. Mardirossian,  P. Pokhilko,  A. White,  M. Wormit,  M. P. Coons,  
 A. L. Dempwolff,  Zhengting Gan,  D. Hait,  P. R. Horn,  L. D. Jacobson,  
 I. Kaliman,  J. Kussmann,  A. W. Lange,  Ka Un Lao,  D. S. Levine,  Jie Liu,  
 S. C. McKenzie,  A. F. Morrison,  K. Nanda,  F. Plasser,  D. R. Rehn,  
 M. L. Vidal,  Zhi-Qiang You,  Ying Zhu,  B. Alam,  B. Albrecht,  
 A. Aldossary,  E. Alguire,  J. H. Andersen,  D. Barton,  K. Begam,  A. Behn,  
 Y. A. Bernard,  E. J. Berquist,  H. Burton,  A. Carreras,  K. Carter-Fenk,  
 R. Chakraborty,  A. D. Chien,  K. D. Closser,  V. Cofer-Shabica,  
 S. Dasgupta,  Jia Deng,  M. de Wergifosse,  M. Diedenhofen,  Hainam Do,  
 S. Ehlert,  Po-Tung Fang,  S. Fatehi,  Qingguo Feng,  T. Friedhoff,  
 J. Gayvert,  Qinghui Ge,  G. Gidofalvi,  M. Goldey,  J. Gomes,  
 C. Gonzalez-Espinoza,  S. Gulania,  A. Gunina,  M. W. D. Hanson-Heine,  
 P. H. P. Harbach,  A. W. Hauser,  M. F. Herbst,  M. Hernandez Vera,  
 M. Hodecker,  Z. C. Holden,  S. Houck,  Xunkun Huang,  Kerwin Hui,  
 B. C. Huynh,  M. Ivanov,  Hyunjun Ji,  Hanjie Jiang,  B. Kaduk,  S. Kaehler,  
 K. Khistyaev,  Jaehoon Kim,  P. Klunzinger,  Z. Koczor-Benda,  
 Joong Hoon Koh,  D. Kosenkov,  L. Koulias,  T. Kowalczyk,  C. M. Krauter,  
 K. Kue,  A. Kunitsa,  T. Kus,  A. Landau,  K. V. Lawler,  D. Lefrancois,  
 S. Lehtola,  Rain Li,  Yi-Pei Li,  Jiashu Liang,  M. Liebenthal,  
 Hung-Hsuan Lin,  You-Sheng Lin,  Fenglai Liu,  Kuan-Yu Liu,  
 M. Loipersberger,  A. Luenser,  A. Manjanath,  P. Manohar,  E. Mansoor,  
 S. F. Manzer,  Shan-Ping Mao,  A. V. Marenich,  T. Markovich,  S. Mason,  
 S. A. Maurer,  P. F. McLaughlin,  M. F. S. J. Menger,  J.-M. Mewes,  
 S. A. Mewes,  P. Morgante,  J. W. Mullinax,  K. J. Oosterbaan,  G. Paran,  
 Alexander C. Paul,  Suranjan K. Paul,  F. Pavosevic,  Zheng Pei,  S. Prager,  
 E. I. Proynov,  E. Ramos,  B. Rana,  A. E. Rask,  A. Rettig,  R. M. Richard,  
 F. Rob,  E. Rossomme,  T. Scheele,  M. Scheurer,  M. Schneider,  
 N. Sergueev,  S. M. Sharada,  W. Skomorowski,  D. W. Small,  C. J. Stein,  
 Yu-Chuan Su,  E. J. Sundstrom,  Zhen Tao,  J. Thirman,  T. Tsuchimochi,  
 N. M. Tubman,  S. P. Veccham,  O. Vydrov,  J. Wenzel,  J. Witte,  A. Yamada,  
 Kun Yao,  S. Yeganeh,  S. R. Yost,  A. Zech,  Igor Ying Zhang,  Xing Zhang,  
 Yu Zhang,  D. Zuev,  A. Aspuru-Guzik,  A. T. Bell,  N. A. Besley,  
 K. B. Bravaya,  B. R. Brooks,  D. Casanova,  Jeng-Da Chai,  S. Coriani,  
 C. J. Cramer,  A. E. DePrince, III,  R. A. DiStasio Jr.,  A. Dreuw,  
 B. D. Dunietz,  T. R. Furlani,  W. A. Goddard III,  S. Grimme,  
 S. Hammes-Schiffer,  T. Head-Gordon,  W. J. Hehre,  Chao-Ping Hsu,  
 T.-C. Jagau,  Yousung Jung,  A. Klamt,  Jing Kong,  D. S. Lambrecht,  
 WanZhen Liang,  N. J. Mayhall,  C. W. McCurdy,  J. B. Neaton,  
 C. Ochsenfeld,  J. A. Parkhill,  R. Peverati,  V. A. Rassolov,  Yihan Shao,  
 L. V. Slipchenko,  T. Stauch,  R. P. Steele,  J. E. Subotnik,  
 A. J. W. Thom,  A. Tkatchenko,  D. G. Truhlar,  T. Van Voorhis,  
 T. A. Wesolowski,  K. B. Whaley,  H. L. Woodcock III,  P. M. Zimmerman,  
 S. Faraji,  P. M. W. Gill,  M. Head-Gordon,  J. M. Herbert,  A. I. Krylov

 Additional authors for Version 5.4.1: 
 S. Kotaru,  Shaozhi Li,  Xiangyuan Li,  F. Matz,  A. Molle,  Haisheng Ren,  
 Yingli Su,  Hung-Yi Tsai,  C. Utku,  Fang Wang

 Contributors to earlier versions of Q-Chem not listed above: 
 R. D. Adamson,  B. Austin,  R. Baer,  J. Baker,  G. J. O. Beran,  
 K. Brandhorst,  S. T. Brown,  E. F. C. Byrd,  A. K. Chakraborty,  
 G. K. L. Chan,  Chun-Min Chang,  Yunqing Chen,  C.-L. Cheng,  
 Siu Hung Chien,  D. M. Chipman,  D. L. Crittenden,  H. Dachsel,  
 R. J. Doerksen,  A. D. Dutoi,  R. G. Edgar,  J. Fosso-Tande,  
 L. Fusti-Molnar,  D. Ghosh,  A. Ghysels,  A. Golubeva-Zadorozhnaya,  
 J. Gonthier,  M. S. Gordon,  S. R. Gwaltney,  G. Hawkins,  J. E. Herr,  
 A. Heyden,  S. Hirata,  E. G. Hohenstein,  G. Kedziora,  F. J. Keil,  
 C. Kelley,  Jihan Kim,  R. A. King,  R. Z. Khaliullin,  P. P. Korambath,  
 W. Kurlancheek,  A. Laurent,  A. M. Lee,  M. S. Lee,  S. V. Levchenko,  
 Ching Yeh Lin,  D. Liotard,  E. Livshits,  R. C. Lochan,  I. Lotan,  
 L. A. Martinez-Martinez,  P. E. Maslen,  N. Nair,  D. P. O'Neill,  
 D. Neuhauser,  E. Neuscamman,  C. M. Oana,  R. Olivares-Amaya,  R. Olson,  
 T. M. Perrine,  B. Peters,  P. A. Pieniazek,  A. Prociuk,  Y. M. Rhee,  
 J. Ritchie,  M. A. Rohrdanz,  E. Rosta,  N. J. Russ,  H. F. Schaefer III,  
 M. W. Schmidt,  N. E. Schultz,  S. Sharma,  N. Shenvi,  C. D. Sherrill,  
 A. C. Simmonett,  A. Sodt,  T. Stein,  D. Stuck,  K. S. Thanthiriwatte,  
 V. Vanovschi,  L. Vogt,  Tao Wang,  A. Warshel,  M. A. Watson,  
 C. F. Williams,  Q. Wu,  X. Xu,  Jun Yang,  W. Zhang,  Yan Zhao

 Please cite Q-Chem as follows:
 Y. Shao et al., Mol. Phys. 113, 184-215 (2015)
 DOI: 10.1080/00268976.2014.952696

 Q-Chem 5.4.1 for Intel X86 EM64T Linux

 Parts of Q-Chem use Armadillo 9.800.1 (Horizon Scraper).
 http://arma.sourceforge.net/

 Q-Chem begins on Tue Jul 25 21:01:36 2023  

 Host: 
0

     Scratch files written to /scratch/ari.fischer/qChem1647373.hpc-mn1/qchem128532//
 Aug1521 |scratch|qcdevops|jenkins|workspace|build_RNUM 8249   
 Processing $rem in /usr/local/qchem-5.4.1/config/preferences:
 Processing $rem in /home/ari.fischer/.qchemrc:
 Symmetry turned off for PCM/SM12/SMD calculation


!!********************************************.
!!******************Warning*******************.
!!Desired Analytical derivatives not available.
!!Finite difference job might take a long time.
!!********************************************.
!!********************************************.


 2-order derivative to be evaluated numerically with 1-order analytical derivatives

 Checking the input file for inconsistencies... 	...done.

--------------------------------------------------------------
User input:
--------------------------------------------------------------
$molecule
0 2
C         1.4200034624   -0.2579976046   -0.3644810182
O         2.0152369936   -0.9222759067   -1.4637621480
C        -0.0766918770   -0.1000323415   -0.5950827876
O        -0.6873034121   -1.3359526123   -0.6079251737
O        -0.3487189096    0.6944704493   -1.6902116310
O         2.0266563211    0.9900973459   -0.2292224782
H         1.5894440899   -0.8112642556    0.5582744064
H         1.6787244355   -1.8265186906   -1.4939771350
H        -1.5804943930   -1.2446208289   -0.9674115810
H        -1.1239249765    1.2487190576   -1.4851617510
H         1.7149694416    1.5545012763   -0.9502637065
O        -1.2447290818    1.3719533684    1.0631001051
O        -2.1050861248    1.8961379872    0.0984816611
H        -0.5372817056    0.5695647917    0.4009323266
H        -2.8690442638    1.2992997637    0.1182491111
$end

$rem
BASIS = 6-311++G(2df,2p)
GUI = 2
JOB_TYPE = Frequency
METHOD = wB97M-V
SOLVENT_METHOD = SMD
SCF_ALGORITHM = DIIS_GDM
MAX_SCF_CYCLES = 400
SCF_CONVERGENCE = 7
THRESH = 12
UNRESTRICTED = 1
SYMMETRY_IGNORE = 1
$end

--------------------------------------------------------------
 ----------------------------------------------------------------
             Standard Nuclear Orientation (Angstroms)
    I     Atom           X                Y                Z
 ----------------------------------------------------------------
    1      C       1.4200034624    -0.2579976046    -0.3644810182
    2      O       2.0152369936    -0.9222759067    -1.4637621480
    3      C      -0.0766918770    -0.1000323415    -0.5950827876
    4      O      -0.6873034121    -1.3359526123    -0.6079251737
    5      O      -0.3487189096     0.6944704493    -1.6902116310
    6      O       2.0266563211     0.9900973459    -0.2292224782
    7      H       1.5894440899    -0.8112642556     0.5582744064
    8      H       1.6787244355    -1.8265186906    -1.4939771350
    9      H      -1.5804943930    -1.2446208289    -0.9674115810
   10      H      -1.1239249765     1.2487190576    -1.4851617510
   11      H       1.7149694416     1.5545012763    -0.9502637065
   12      O      -1.2447290818     1.3719533684     1.0631001051
   13      O      -2.1050861248     1.8961379872     0.0984816611
   14      H      -0.5372817056     0.5695647917     0.4009323266
   15      H      -2.8690442638     1.2992997637     0.1182491111
 ----------------------------------------------------------------
 Nuclear Repulsion Energy =         434.71381378 hartrees
 There are       34 alpha and       33 beta electrons
 Requested basis set is 6-311++G(2df,2p)
 There are 106 shells and 342 basis functions

 Total QAlloc Memory Limit 288000 MB
 Mega-Array Size       188 MB
 MEM_STATIC part       192 MB
 
 Citation of the SMD model:
 Marenich, A.V.; Cramer, C.J.; Truhlar, D.G.
 J. Phys. Chem. B 2009, 113, 6378-6396.
 iSolventCode=           1
 Solvent: water                                                           
 
 vradii
            1           2           3           4           5           6
    1   1.8500000   1.5200000   1.8500000   1.5200000   1.5200000   1.5200000
            7           8           9          10          11          12
    1   1.2000000   1.2000000   1.2000000   1.2000000   1.2000000   1.5200000
           13          14          15
    1   1.5200000   1.2000000   1.2000000
 Changing PCM_VDW_RADII to SMD_RADIUS
 Discretize the solute cavity surface with Lebedev spheres
	Using 110 Lebedev grid points for each H atom
	Using 194 Lebedev grid points for other atoms
	Atomic van der Waals radii will be scaled by 1.20
 Remove points where switching function is < 1.0e-08
 Keep 1234 surface tesserae and discard 1088 interior tesserae
 Molecular Surface Area = 137.451 Angst**2

                       Distance Matrix (Angstroms)
             C (  1)   O (  2)   C (  3)   O (  4)   O (  5)   O (  6)
   O (  2)  1.415623
   C (  3)  1.522573  2.409742
   O (  4)  2.379495  2.864840  1.378590
   O (  5)  2.406893  2.872879  1.380051  2.325640
   O (  6)  1.394297  2.276267  2.397146  3.594371  2.804335
   H (  7)  1.089170  2.069361  2.147578  2.611302  3.328574  2.014003
   H (  8)  1.950117  0.965302  2.621117  2.573680  3.241052  3.107087
   H (  9)  3.215577  3.644112  1.926171  0.967141  2.408274  4.307020
   H ( 10)  3.161913  3.816807  1.925634  2.764183  0.974772  3.401534
   H ( 11)  1.927511  2.547208  2.464485  3.773968  2.354992  0.967265
   O ( 12)  3.434462  4.719735  2.506117  3.230449  2.973641  3.538061
   O ( 13)  4.157029  5.230786  2.929183  3.599379  2.779974  4.242593
   H ( 14)  2.258690  3.495429  1.285515  2.161318  2.103340  2.673522
   H ( 15)  4.588478  5.594136  3.203780  3.497410  3.160441  4.917746
             H (  7)   H (  8)   H (  9)   H ( 10)   H ( 11)   O ( 12)
   H (  8)  2.291386
   H (  9)  3.544577  3.352370
   H ( 10)  3.972598  4.160770  2.587134
   H ( 11)  2.808610  3.424651  4.323825  2.904985
   O ( 12)  3.613008  5.031446  3.328990  2.554098  3.584240
   O ( 13)  4.603367  5.541780  3.357930  1.972246  3.976105  1.394802
   H ( 14)  2.540553  3.773934  2.500385  2.088720  2.805079  1.258084
   H ( 15)  4.952395  5.749106  3.051320  2.370427  4.713813  1.880538
             O ( 13)   H ( 14)
   H ( 14)  2.075881
   H ( 15)  0.969659  2.459581
 
 A cutoff of  1.0D-12 yielded   5133 shell pairs
 There are     53007 function pairs (     65771 Cartesian)
 Smallest overlap matrix eigenvalue = 4.63E-05
 Guess from superposition of atomic densities
 Warning:  Energy on first SCF cycle will be non-variational
 SAD guess density has 67.000000 electrons

 -----------------------------------------------------------------------
  General SCF calculation program by
  Eric Jon Sundstrom, Paul Horn, Yuezhi Mao, Dmitri Zuev, Alec White,
  David Stuck, Shaama M.S., Shane Yost, Joonho Lee, David Small,
  Daniel Levine, Susi Lehtola, Hugh Burton, Evgeny Epifanovsky,
  Bang C. Huynh
 -----------------------------------------------------------------------
 Exchange:     0.1500 Hartree-Fock + 1.0000 wB97M-V + LR-HF
 Correlation:  1.0000 wB97M-V
 Using SG-2 standard quadrature grid
 Nonlocal Correlation:  VV10 with C = 0.0100 and b = 6.00 and scale = 1.00000
 Grid used for NLC:  SG-1 standard quadrature
 using 8 threads for integral computing
 -------------------------------------------------------
 OpenMP Integral computing Module                
 Release: version 1.0, May 2013, Q-Chem Inc. Pittsburgh 
 -------------------------------------------------------
 
 Citation of the SMD model:
 Marenich, A.V.; Cramer, C.J.; Truhlar, D.G.
 J. Phys. Chem. B 2009, 113, 6378-6396.
 iSolventCode=           1
 Solvent: water                                                           
 
 vradii
            1           2           3           4           5           6
    1   1.8500000   1.5200000   1.8500000   1.5200000   1.5200000   1.5200000
            7           8           9          10          11          12
    1   1.2000000   1.2000000   1.2000000   1.2000000   1.2000000   1.5200000
           13          14          15
    1   1.5200000   1.2000000   1.2000000
 -------------------------------------------------------
 OpenMP BLAS3 based DFT computing Module                
 Release: version 1.0, May 2013, Q-Chem Inc. Pittsburgh 
 -------------------------------------------------------
 A unrestricted SCF calculation will be
 performed using DIIS, GDM
 SCF converges when RMS gradient is below 1.0e-07
 ---------------------------------------
  Cycle       Energy         DIIS error
 ---------------------------------------
    1    -532.8636230880      1.31e-02  
    2    -531.5004200911      1.87e-03  Done DIIS. Switching to GDM
 ---------------------------------------
  Cycle       Energy        RMS Gradient
 ---------------------------------------
    1    -531.5004200911      7.33e-02   Descent step
    2    -531.6428915240      2.34e-02   Normal BFGS step
    3    -531.6617906659      1.52e-02   Normal BFGS step
    4    -531.6631679165      7.00e-03   Normal BFGS step
    5    -531.6634395276      5.82e-03   Normal BFGS step
    6    -531.6636167067      3.52e-03   Normal BFGS step
    7    -531.6636470643      1.75e-03   Normal BFGS step
    8    -531.6636557253      7.95e-04   Normal BFGS step
    9    -531.6636580656      4.12e-04   Normal BFGS step
   10    -531.6636586683      1.58e-04   Normal BFGS step
   11    -531.6636587978      4.01e-05   Normal BFGS step
   12    -531.6636588124      1.52e-05   Normal BFGS step
   13    -531.6636588142      5.37e-06   Normal BFGS step
   14    -531.6636588145      3.22e-06   Normal BFGS step
   15    -531.6636588146      2.34e-06   Normal BFGS step
   16    -531.6636588146      1.40e-06   Normal BFGS step
   17    -531.6636588146      7.76e-07   Normal BFGS step
   18    -531.6636588146      3.79e-07   Normal BFGS step
   19    -531.6636588146      1.06e-07   Normal BFGS step
   20    -531.6636588146      3.60e-08  Convergence criterion met
 ---------------------------------------
 SCF time:   CPU 1260.47s  wall 159.00s 
<S^2> =          0.756744381
(3)  G-ENP(liq) elect-nuc-pol free energy of system     -531.663658815 a.u.
(4)  G-CDS(liq) cavity-dispersion-solvent structure 
     free energy                                                3.3897 kcal/mol
(6)  G-S(liq) free energy of system                     -531.658257015 a.u.
 SCF   energy in the final basis set =     -531.6582570150
 Total energy in the final basis set =     -531.6582570150
 
 --------------------------------------------------------------
 
                    Orbital Energies (a.u.)
 --------------------------------------------------------------
 
 Alpha MOs
 -- Occupied --
-19.4117 -19.4036 -19.3711 -19.3653 -19.3531 -19.3482 -10.4669 -10.4558
 -1.2767  -1.2366  -1.2012  -1.1615  -1.1402  -1.0047  -0.8611  -0.7556
 -0.7021  -0.6794  -0.6501  -0.6418  -0.6392  -0.5840  -0.5660  -0.5551
 -0.5329  -0.5194  -0.4904  -0.4831  -0.4409  -0.4369  -0.4323  -0.4144
 -0.4029  -0.3281
 -- Virtual --
  0.0248   0.0390   0.0460   0.0506   0.0678   0.0740   0.0832   0.1066
  0.1200   0.1276   0.1338   0.1431   0.1459   0.1514   0.1690   0.1768
  0.2098   0.2170   0.2289   0.2303   0.2365   0.2418   0.2524   0.2572
  0.2690   0.2765   0.2850   0.2889   0.2975   0.2983   0.3137   0.3152
  0.3217   0.3279   0.3396   0.3405   0.3569   0.3628   0.3649   0.3759
  0.3799   0.3879   0.3954   0.4040   0.4099   0.4201   0.4306   0.4460
  0.4564   0.4688   0.4911   0.5007   0.5674   0.5785   0.6037   0.6100
  0.6193   0.6332   0.6688   0.6774   0.6884   0.6894   0.7333   0.7457
  0.7486   0.7527   0.7731   0.8204   0.8426   0.8513   0.8594   0.9106
  0.9197   0.9308   0.9489   0.9753   1.0078   1.0175   1.0568   1.0605
  1.0727   1.0820   1.1031   1.1220   1.1317   1.1468   1.1574   1.1709
  1.1790   1.1939   1.1985   1.2094   1.2207   1.2366   1.2458   1.2524
  1.2686   1.2844   1.2923   1.3167   1.3427   1.3551   1.3807   1.3951
  1.4083   1.4331   1.4808   1.4827   1.5167   1.5332   1.5482   1.5693
  1.5799   1.6086   1.6167   1.6336   1.6654   1.6857   1.6980   1.7138
  1.7394   1.7647   1.8100   1.8347   1.8705   1.8855   1.8915   1.9462
  1.9888   2.0012   2.0418   2.0735   2.0925   2.1517   2.1680   2.2032
  2.2513   2.2710   2.2967   2.3089   2.3506   2.3604   2.3818   2.4134
  2.4380   2.4485   2.4544   2.4950   2.5064   2.5645   2.5748   2.6754
  2.7143   2.7548   2.8112   2.8540   2.8953   2.9159   2.9686   3.0397
  3.0843   3.1068   3.1904   3.2552   3.3156   3.3322   3.3734   3.4236
  3.4623   3.4645   3.5289   3.5520   3.6019   3.6212   3.6263   3.6537
  3.6730   3.6847   3.7420   3.7802   3.7934   3.8225   3.8323   3.8475
  3.8529   3.8837   3.8996   3.9076   3.9304   3.9774   4.0568   4.0791
  4.1086   4.1659   4.1917   4.2171   4.2347   4.2691   4.2733   4.2921
  4.3079   4.3580   4.3640   4.3672   4.4163   4.4855   4.5864   4.6114
  4.6543   4.7133   4.7476   4.7882   4.8307   4.9969   5.1356   5.1740
  5.1955   5.2027   5.2108   5.2258   5.2281   5.2523   5.2582   5.2746
  5.2808   5.2874   5.2923   5.3007   5.3246   5.3381   5.3515   5.3793
  5.4107   5.4160   5.4414   5.4527   5.4701   5.4812   5.5077   5.5526
  5.6062   5.6195   5.6301   5.6527   5.6612   5.6684   5.6823   5.7052
  5.7295   5.7685   5.8861   5.9640   5.9933   6.0230   6.0648   6.0884
  6.1205   6.1769   6.2964   6.3412   6.4854   6.5510   6.7640   6.8135
  6.9174   6.9363   6.9757   6.9938   7.0298   7.0537   7.0862   7.1104
  7.1147   7.2072   7.2304   7.2412   7.2502   7.2729   7.3186   7.3255
  7.3411   7.3473   7.3705   7.3997   7.4297   7.4422   7.4835   7.5469
  7.5639   7.5935   7.6227   7.6934   7.7159   7.7407   7.8108   7.8203
  7.8707   7.9036   7.9284   8.0456  24.7409  24.8666  50.4627  50.4992
 50.5673  50.5897  50.6122  50.6598
 
 Beta MOs
 -- Occupied --
-19.4097 -19.3901 -19.3684 -19.3636 -19.3531 -19.3475 -10.4596 -10.4554
 -1.2633  -1.2314  -1.1992  -1.1565  -1.1391  -0.9838  -0.8532  -0.7513
 -0.6906  -0.6655  -0.6464  -0.6350  -0.6310  -0.5826  -0.5570  -0.5320
 -0.5177  -0.5037  -0.4887  -0.4754  -0.4371  -0.4314  -0.4061  -0.4012
 -0.3856
 -- Virtual --
 -0.0475   0.0253   0.0393   0.0462   0.0508   0.0686   0.0741   0.0836
  0.1067   0.1202   0.1274   0.1346   0.1438   0.1509   0.1519   0.1706
  0.1777   0.2116   0.2180   0.2307   0.2339   0.2392   0.2428   0.2533
  0.2583   0.2702   0.2771   0.2861   0.2910   0.2996   0.3003   0.3156
  0.3175   0.3235   0.3299   0.3416   0.3433   0.3575   0.3634   0.3669
  0.3781   0.3805   0.3885   0.3990   0.4078   0.4126   0.4258   0.4411
  0.4470   0.4600   0.4712   0.4941   0.5045   0.5695   0.5814   0.6050
  0.6119   0.6242   0.6342   0.6723   0.6797   0.6909   0.6916   0.7357
  0.7498   0.7519   0.7557   0.7745   0.8215   0.8446   0.8525   0.8611
  0.9120   0.9210   0.9320   0.9502   0.9771   1.0089   1.0230   1.0597
  1.0632   1.0748   1.0841   1.1087   1.1239   1.1366   1.1482   1.1613
  1.1733   1.1842   1.1984   1.2028   1.2106   1.2228   1.2422   1.2495
  1.2563   1.2718   1.2875   1.2971   1.3182   1.3456   1.3577   1.3838
  1.3980   1.4121   1.4362   1.4825   1.4857   1.5197   1.5354   1.5516
  1.5713   1.5852   1.6105   1.6190   1.6394   1.6718   1.6895   1.7022
  1.7172   1.7440   1.7714   1.8170   1.8379   1.8768   1.8928   1.8940
  1.9521   1.9946   2.0047   2.0472   2.0794   2.0960   2.1535   2.1721
  2.2073   2.2564   2.2746   2.2999   2.3109   2.3541   2.3650   2.3851
  2.4181   2.4411   2.4509   2.4589   2.5006   2.5141   2.5685   2.5792
  2.6799   2.7199   2.7618   2.8160   2.8584   2.8993   2.9190   2.9679
  3.0470   3.0911   3.1166   3.1993   3.2594   3.3181   3.3383   3.3798
  3.4327   3.4699   3.4745   3.5378   3.5643   3.6066   3.6241   3.6374
  3.6661   3.6860   3.7058   3.7516   3.7858   3.8035   3.8257   3.8368
  3.8494   3.8576   3.8898   3.9037   3.9104   3.9383   3.9891   4.0615
  4.0837   4.1157   4.1701   4.1955   4.2196   4.2352   4.2728   4.2797
  4.2955   4.3064   4.3616   4.3665   4.3710   4.4176   4.4863   4.5916
  4.6262   4.6602   4.7208   4.7589   4.8028   4.8435   5.0078   5.1566
  5.1785   5.2074   5.2105   5.2235   5.2337   5.2417   5.2585   5.2645
  5.2817   5.2846   5.2904   5.2983   5.3092   5.3301   5.3445   5.3563
  5.4066   5.4190   5.4223   5.4458   5.4570   5.4788   5.4850   5.5142
  5.5566   5.6097   5.6211   5.6382   5.6583   5.6643   5.6736   5.6875
  5.7084   5.7330   5.7732   5.8891   5.9672   5.9963   6.0424   6.0681
  6.0934   6.1286   6.1823   6.3170   6.3482   6.4968   6.5533   6.7657
  6.8212   6.9309   6.9588   6.9897   7.0154   7.0421   7.0743   7.0934
  7.1146   7.1271   7.2132   7.2341   7.2455   7.2567   7.2761   7.3209
  7.3278   7.3524   7.3583   7.3737   7.4178   7.4335   7.4513   7.4990
  7.5622   7.5775   7.6093   7.6255   7.6970   7.7185   7.7458   7.8158
  7.8225   7.8727   7.9119   7.9549   8.0538  24.7440  24.8702  50.4665
 50.5074  50.5688  50.5906  50.6129  50.6608
 --------------------------------------------------------------
 
          Ground-State Mulliken Net Atomic Charges

     Atom                 Charge (a.u.)    Spin (a.u.)
  --------------------------------------------------------
      1 C                     0.007455       0.003316
      2 O                    -0.441757       0.021086
      3 C                    -0.261142       0.364769
      4 O                    -0.372565       0.083423
      5 O                    -0.402585       0.042955
      6 O                    -0.407082      -0.000775
      7 H                     0.288533      -0.000575
      8 H                     0.330651      -0.000041
      9 H                     0.370202      -0.002857
     10 H                     0.376237      -0.000177
     11 H                     0.329307      -0.000032
     12 O                    -0.388584       0.393847
     13 O                    -0.194230       0.071078
     14 H                     0.439249       0.025803
     15 H                     0.326311      -0.001818
  --------------------------------------------------------
  Sum of atomic charges =     0.000000
  Sum of spin   charges =     1.000000

 -----------------------------------------------------------------
                    Cartesian Multipole Moments
 -----------------------------------------------------------------
    Charge (ESU x 10^10)
                 0.0000
    Dipole Moment (Debye)
         X      -5.9849      Y      -2.6796      Z      -1.3361
       Tot       6.6921
    Quadrupole Moments (Debye-Ang)
        XX     -43.8842     XY      -1.1914     YY     -48.6427
        XZ       7.5264     YZ      -3.2997     ZZ     -53.4689
    Octopole Moments (Debye-Ang^2)
       XXX     -87.9801    XXY     -16.8895    XYY       7.3939
       YYY     -56.5997    XXZ      21.0916    XYZ      -0.8478
       YYZ       5.6011    XZZ     -10.7574    YZZ     -17.7293
       ZZZ      77.1297
    Hexadecapole Moments (Debye-Ang^3)
      XXXX    -631.3635   XXXY      71.2342   XXYY    -169.6519
      XYYY     107.8812   YYYY    -412.2009   XXXZ     116.3744
      XXYZ     -25.9083   XYYZ      20.7101   YYYZ     -46.8286
      XXZZ    -170.7856   XYZZ      35.4663   YYZZ    -105.1709
      XZZZ      96.1722   YZZZ     -46.3037   ZZZZ    -340.6571
 -----------------------------------------------------------------
 Calculating analytic gradient of the SCF energy
 Gradient of CDS energy
            1           2           3           4           5           6
    1   0.0029166  -0.0003540  -0.0032226   0.0023558   0.0009978  -0.0022497
    2   0.0041802   0.0005035  -0.0020609   0.0046712  -0.0028132  -0.0046086
    3   0.0004915   0.0003813  -0.0035431   0.0000923   0.0036705  -0.0005435
            7           8           9          10          11          12
    1  -0.0000630   0.0001608  -0.0002582  -0.0000984   0.0001576   0.0000447
    2  -0.0001057  -0.0004112  -0.0004316   0.0003128   0.0004292   0.0001215
    3   0.0000981  -0.0002609  -0.0001645  -0.0002954  -0.0001494   0.0000129
           13          14          15
    1   0.0002793  -0.0001013  -0.0005654
    2  -0.0000533   0.0001152   0.0001507
    3   0.0001967  -0.0000729   0.0000864
 Gradient of SCF Energy
            1           2           3           4           5           6
    1  -0.0019202   0.0077361   0.0023565   0.0188603   0.0153732   0.0055598
    2   0.0018334   0.0126795  -0.0024946  -0.0040082  -0.0080295  -0.0011793
    3  -0.0052486  -0.0026553  -0.0021791   0.0086865  -0.0057903   0.0059165
            7           8           9          10          11          12
    1  -0.0010385  -0.0045479  -0.0225058  -0.0152174  -0.0030808   0.0023797
    2  -0.0041507  -0.0106654   0.0037246   0.0048826   0.0026717   0.0014971
    3   0.0032862   0.0014787  -0.0069469   0.0020531  -0.0031785   0.0028934
           13          14          15
    1   0.0168190  -0.0059396  -0.0148343
    2   0.0197772   0.0011477  -0.0176861
    3   0.0076651   0.0005120  -0.0064928
 Max gradient component =       2.251E-02
 RMS gradient           =       8.831E-03
 Computing fast CPCM-SWIG gradient
 Updating gradient with PCM contributions...
 -- total gradient after adding PCM contribution --
---------------------------------------------------
  Atom         X              Y              Z     
---------------------------------------------------
   1       0.000000       0.000020      -0.000003
   2       0.000032      -0.000025       0.000014
   3       0.000010       0.000026       0.000008
   4      -0.000008      -0.000002      -0.000019
   5       0.000022      -0.000029      -0.000006
   6      -0.000039       0.000029       0.000072
   7      -0.000001       0.000000      -0.000003
   8      -0.000031       0.000035      -0.000027
   9       0.000010      -0.000009      -0.000030
  10       0.000004       0.000014       0.000006
  11       0.000035      -0.000019      -0.000006
  12      -0.000035       0.000007      -0.000021
  13      -0.000007      -0.000013       0.000025
  14       0.000013      -0.000035      -0.000001
  15      -0.000006       0.000001      -0.000009
---------------------------------------------------
 Number of fixed atoms: 0
 Gradient time:  CPU 166.34 s  wall 24.98 s
 ######################################################
 ######################################################
 # Starting finite difference calculation for IDERIV  #
 Finite diff step size:  1.88973e-03 a.u.
 ----------------------------------------------------------------
             Standard Nuclear Orientation (Angstroms)
    I     Atom           X                Y                Z
 ----------------------------------------------------------------
    1      C       1.4210034624    -0.2579976046    -0.3644810182
    2      O       2.0152369936    -0.9222759067    -1.4637621480
    3      C      -0.0766918770    -0.1000323415    -0.5950827876
    4      O      -0.6873034121    -1.3359526123    -0.6079251737
    5      O      -0.3487189096     0.6944704493    -1.6902116310
    6      O       2.0266563211     0.9900973459    -0.2292224782
    7      H       1.5894440899    -0.8112642556     0.5582744064
    8      H       1.6787244355    -1.8265186906    -1.4939771350
    9      H      -1.5804943930    -1.2446208289    -0.9674115810
   10      H      -1.1239249765     1.2487190576    -1.4851617510
   11      H       1.7149694416     1.5545012763    -0.9502637065
   12      O      -1.2447290818     1.3719533684     1.0631001051
   13      O      -2.1050861248     1.8961379872     0.0984816611
   14      H      -0.5372817056     0.5695647917     0.4009323266
   15      H      -2.8690442638     1.2992997637     0.1182491111
 ----------------------------------------------------------------
 Nuclear Repulsion Energy =         434.70607557 hartrees
 There are       34 alpha and       33 beta electrons
 Discretize the solute cavity surface with Lebedev spheres
	Using 110 Lebedev grid points for each H atom
	Using 194 Lebedev grid points for other atoms
	Atomic van der Waals radii will be scaled by 1.20
 Remove points where switching function is < 1.0e-08
 Keep 1234 surface tesserae and discard 1088 interior tesserae
 Molecular Surface Area = 137.453 Angst**2

                       Distance Matrix (Angstroms)
             C (  1)   O (  2)   C (  3)   O (  4)   O (  5)   O (  6)
   O (  2)  1.415203
   C (  3)  1.523556  2.409742
   O (  4)  2.380380  2.864840  1.378590
   O (  5)  2.407628  2.872879  1.380051  2.325640
   O (  6)  1.393862  2.276267  2.397146  3.594371  2.804335
   H (  7)  1.089015  2.069361  2.147578  2.611302  3.328574  2.014003
   H (  8)  1.949985  0.965302  2.621117  2.573680  3.241052  3.107087
   H (  9)  3.216511  3.644112  1.926171  0.967141  2.408274  4.307020
   H ( 10)  3.162717  3.816807  1.925634  2.764183  0.974772  3.401534
   H ( 11)  1.927358  2.547208  2.464485  3.773968  2.354992  0.967265
   O ( 12)  3.435238  4.719735  2.506117  3.230449  2.973641  3.538061
   O ( 13)  4.157877  5.230786  2.929183  3.599379  2.779974  4.242593
   H ( 14)  2.259557  3.495429  1.285515  2.161318  2.103340  2.673522
   H ( 15)  4.589413  5.594136  3.203780  3.497410  3.160441  4.917746
             H (  7)   H (  8)   H (  9)   H ( 10)   H ( 11)   O ( 12)
   H (  8)  2.291386
   H (  9)  3.544577  3.352370
   H ( 10)  3.972598  4.160770  2.587134
   H ( 11)  2.808610  3.424651  4.323825  2.904985
   O ( 12)  3.613008  5.031446  3.328990  2.554098  3.584240
   O ( 13)  4.603367  5.541780  3.357930  1.972246  3.976105  1.394802
   H ( 14)  2.540553  3.773934  2.500385  2.088720  2.805079  1.258084
   H ( 15)  4.952395  5.749106  3.051320  2.370427  4.713813  1.880538
             O ( 13)   H ( 14)
   H ( 14)  2.075881
   H ( 15)  0.969659  2.459581
 
 Requested basis set is 6-311++G(2df,2p)
 There are 106 shells and 342 basis functions
 A cutoff of  1.0D-12 yielded   5133 shell pairs
 There are     53007 function pairs (     65771 Cartesian)
 Smallest overlap matrix eigenvalue = 4.64E-05
 Guess MOs from SCF MO coefficient file

 -----------------------------------------------------------------------
  General SCF calculation program by
  Eric Jon Sundstrom, Paul Horn, Yuezhi Mao, Dmitri Zuev, Alec White,
  David Stuck, Shaama M.S., Shane Yost, Joonho Lee, David Small,
  Daniel Levine, Susi Lehtola, Hugh Burton, Evgeny Epifanovsky,
  Bang C. Huynh
 -----------------------------------------------------------------------
 Exchange:     0.1500 Hartree-Fock + 1.0000 wB97M-V + LR-HF
 Correlation:  1.0000 wB97M-V
 Using SG-2 standard quadrature grid
 Nonlocal Correlation:  VV10 with C = 0.0100 and b = 6.00 and scale = 1.00000
 Grid used for NLC:  SG-1 standard quadrature
 
 Citation of the SMD model:
 Marenich, A.V.; Cramer, C.J.; Truhlar, D.G.
 J. Phys. Chem. B 2009, 113, 6378-6396.
 iSolventCode=           1
 Solvent: water                                                           
 
 vradii
            1           2           3           4           5           6
    1   1.8500000   1.5200000   1.8500000   1.5200000   1.5200000   1.5200000
            7           8           9          10          11          12
    1   1.2000000   1.2000000   1.2000000   1.2000000   1.2000000   1.5200000
           13          14          15
    1   1.5200000   1.2000000   1.2000000
 -------------------------------------------------------
 OpenMP BLAS3 based DFT computing Module                
 Release: version 1.0, May 2013, Q-Chem Inc. Pittsburgh 
 -------------------------------------------------------
 A unrestricted SCF calculation will be
 performed using Roothaan-Hall, DIIS, GDM
 SCF converges when RMS gradient is below 1.0e-07
 ---------------------------------------
  Cycle       Energy         DIIS error
 ---------------------------------------
    1    -531.6095480090      3.20e-04  Roothaan Step
 ---------------------------------------
  Cycle       Energy         DIIS error
 ---------------------------------------
    1    -531.6531803463      3.52e-04  
    2    -531.6607336325      2.64e-04  Done DIIS. Switching to GDM
 ---------------------------------------
  Cycle       Energy        RMS Gradient
 ---------------------------------------
    1    -531.6607336325      1.32e-02   Normal BFGS step
    2    -531.6603960348      1.68e-02  Line search: overstep
    3    -531.6634074232      3.13e-03   Normal BFGS step
    4    -531.6636114924      1.01e-03   Normal BFGS step
    5    -531.6636509107      1.22e-03   Normal BFGS step
    6    -531.6636621502      3.10e-04   Normal BFGS step
    7    -531.6636630937      1.76e-04   Normal BFGS step
    8    -531.6636633516      1.26e-04   Normal BFGS step
    9    -531.6636634330      9.84e-05   Normal BFGS step
   10    -531.6636634589      1.64e-05   Normal BFGS step
   11    -531.6636634657      1.72e-05   Normal BFGS step
   12    -531.6636634670      9.29e-06   Normal BFGS step
   13    -531.6636634673      3.57e-06   Normal BFGS step
   14    -531.6636634674      2.14e-06   Normal BFGS step
   15    -531.6636634674      1.31e-06   Normal BFGS step
   16    -531.6636634674      6.38e-07   Normal BFGS step
   17    -531.6636634674      2.87e-07   Normal BFGS step
   18    -531.6636634674      1.21e-07   Normal BFGS step
   19    -531.6636634674      2.28e-08  Convergence criterion met
 ---------------------------------------
 SCF time:   CPU 1279.35s  wall 162.00s 
<S^2> =          0.756741634
(3)  G-ENP(liq) elect-nuc-pol free energy of system     -531.663663467 a.u.
(4)  G-CDS(liq) cavity-dispersion-solvent structure 
     free energy                                                3.3932 kcal/mol
(6)  G-S(liq) free energy of system                     -531.658256109 a.u.
 SCF   energy in the final basis set =     -531.6582561087
 Total energy in the final basis set =     -531.6582561087
 
 --------------------------------------------------------------
 
                    Orbital Energies (a.u.)
 --------------------------------------------------------------
 
 Alpha MOs
 -- Occupied --
-19.4117 -19.4035 -19.3711 -19.3653 -19.3531 -19.3482 -10.4669 -10.4558
 -1.2767  -1.2366  -1.2013  -1.1615  -1.1404  -1.0046  -0.8608  -0.7557
 -0.7020  -0.6793  -0.6502  -0.6418  -0.6392  -0.5841  -0.5660  -0.5551
 -0.5329  -0.5194  -0.4904  -0.4831  -0.4409  -0.4369  -0.4323  -0.4143
 -0.4028  -0.3281
 -- Virtual --
  0.0248   0.0390   0.0460   0.0506   0.0678   0.0740   0.0832   0.1066
  0.1200   0.1276   0.1338   0.1431   0.1460   0.1514   0.1690   0.1768
  0.2098   0.2170   0.2289   0.2304   0.2366   0.2418   0.2524   0.2572
  0.2690   0.2765   0.2850   0.2889   0.2975   0.2984   0.3137   0.3152
  0.3217   0.3280   0.3394   0.3405   0.3569   0.3627   0.3648   0.3759
  0.3799   0.3879   0.3954   0.4040   0.4098   0.4202   0.4307   0.4460
  0.4564   0.4688   0.4911   0.5007   0.5675   0.5784   0.6037   0.6099
  0.6193   0.6332   0.6688   0.6774   0.6885   0.6894   0.7333   0.7457
  0.7487   0.7526   0.7730   0.8203   0.8426   0.8513   0.8593   0.9106
  0.9197   0.9308   0.9489   0.9753   1.0078   1.0176   1.0568   1.0605
  1.0727   1.0820   1.1031   1.1220   1.1317   1.1468   1.1574   1.1709
  1.1790   1.1939   1.1985   1.2093   1.2206   1.2366   1.2458   1.2524
  1.2686   1.2844   1.2923   1.3166   1.3428   1.3552   1.3807   1.3949
  1.4082   1.4330   1.4806   1.4826   1.5168   1.5333   1.5482   1.5692
  1.5799   1.6086   1.6167   1.6336   1.6654   1.6857   1.6980   1.7136
  1.7395   1.7647   1.8100   1.8347   1.8705   1.8855   1.8915   1.9461
  1.9889   2.0011   2.0417   2.0735   2.0926   2.1516   2.1681   2.2033
  2.2513   2.2711   2.2969   2.3089   2.3505   2.3605   2.3819   2.4134
  2.4381   2.4486   2.4544   2.4949   2.5064   2.5643   2.5746   2.6754
  2.7143   2.7548   2.8112   2.8540   2.8954   2.9159   2.9684   3.0396
  3.0845   3.1069   3.1901   3.2552   3.3155   3.3325   3.3738   3.4235
  3.4625   3.4646   3.5285   3.5520   3.6016   3.6213   3.6265   3.6536
  3.6731   3.6848   3.7422   3.7802   3.7934   3.8226   3.8324   3.8476
  3.8529   3.8838   3.8996   3.9076   3.9303   3.9773   4.0562   4.0790
  4.1079   4.1657   4.1915   4.2170   4.2346   4.2691   4.2731   4.2921
  4.3079   4.3574   4.3640   4.3670   4.4164   4.4855   4.5861   4.6112
  4.6543   4.7133   4.7476   4.7877   4.8307   4.9969   5.1357   5.1740
  5.1955   5.2027   5.2108   5.2258   5.2280   5.2523   5.2583   5.2746
  5.2808   5.2873   5.2922   5.3006   5.3247   5.3380   5.3514   5.3793
  5.4108   5.4162   5.4413   5.4527   5.4701   5.4812   5.5077   5.5526
  5.6061   5.6194   5.6301   5.6527   5.6613   5.6684   5.6822   5.7052
  5.7297   5.7685   5.8867   5.9643   5.9939   6.0229   6.0661   6.0888
  6.1207   6.1769   6.2964   6.3412   6.4853   6.5515   6.7651   6.8134
  6.9174   6.9364   6.9757   6.9938   7.0298   7.0536   7.0862   7.1104
  7.1148   7.2072   7.2304   7.2413   7.2502   7.2729   7.3186   7.3256
  7.3411   7.3473   7.3706   7.3998   7.4298   7.4422   7.4835   7.5469
  7.5639   7.5935   7.6229   7.6933   7.7160   7.7407   7.8108   7.8205
  7.8708   7.9035   7.9284   8.0457  24.7420  24.8657  50.4627  50.4992
 50.5672  50.5898  50.6123  50.6599
 
 Beta MOs
 -- Occupied --
-19.4096 -19.3901 -19.3684 -19.3636 -19.3531 -19.3476 -10.4596 -10.4554
 -1.2633  -1.2314  -1.1993  -1.1565  -1.1392  -0.9838  -0.8529  -0.7513
 -0.6905  -0.6655  -0.6465  -0.6350  -0.6310  -0.5827  -0.5570  -0.5320
 -0.5177  -0.5037  -0.4887  -0.4754  -0.4371  -0.4314  -0.4060  -0.4012
 -0.3855
 -- Virtual --
 -0.0474   0.0253   0.0393   0.0462   0.0508   0.0686   0.0741   0.0836
  0.1067   0.1202   0.1274   0.1346   0.1438   0.1509   0.1519   0.1706
  0.1777   0.2116   0.2180   0.2308   0.2340   0.2392   0.2428   0.2533
  0.2583   0.2702   0.2771   0.2861   0.2910   0.2996   0.3004   0.3156
  0.3175   0.3235   0.3299   0.3416   0.3432   0.3575   0.3634   0.3668
  0.3781   0.3805   0.3885   0.3990   0.4078   0.4126   0.4259   0.4412
  0.4470   0.4600   0.4712   0.4941   0.5045   0.5696   0.5813   0.6050
  0.6118   0.6241   0.6342   0.6723   0.6797   0.6909   0.6916   0.7357
  0.7498   0.7520   0.7557   0.7745   0.8214   0.8445   0.8525   0.8610
  0.9120   0.9210   0.9320   0.9502   0.9772   1.0089   1.0231   1.0597
  1.0632   1.0749   1.0841   1.1087   1.1239   1.1366   1.1482   1.1613
  1.1732   1.1842   1.1984   1.2028   1.2106   1.2228   1.2422   1.2495
  1.2563   1.2718   1.2874   1.2971   1.3181   1.3456   1.3578   1.3837
  1.3978   1.4120   1.4361   1.4823   1.4856   1.5197   1.5354   1.5515
  1.5712   1.5852   1.6105   1.6190   1.6394   1.6718   1.6895   1.7022
  1.7171   1.7440   1.7714   1.8170   1.8379   1.8768   1.8928   1.8941
  1.9521   1.9947   2.0046   2.0472   2.0794   2.0961   2.1535   2.1722
  2.2074   2.2565   2.2746   2.3001   2.3109   2.3541   2.3651   2.3851
  2.4181   2.4412   2.4509   2.4589   2.5006   2.5140   2.5684   2.5790
  2.6799   2.7198   2.7617   2.8160   2.8584   2.8995   2.9190   2.9677
  3.0469   3.0913   3.1167   3.1989   3.2594   3.3180   3.3385   3.3802
  3.4326   3.4701   3.4745   3.5374   3.5643   3.6064   3.6241   3.6377
  3.6661   3.6861   3.7058   3.7517   3.7858   3.8035   3.8259   3.8369
  3.8495   3.8576   3.8899   3.9037   3.9104   3.9382   3.9891   4.0609
  4.0836   4.1150   4.1699   4.1953   4.2196   4.2351   4.2729   4.2794
  4.2954   4.3064   4.3610   4.3664   4.3709   4.4177   4.4863   4.5912
  4.6260   4.6602   4.7208   4.7589   4.8024   4.8436   5.0078   5.1566
  5.1785   5.2074   5.2105   5.2235   5.2337   5.2417   5.2585   5.2646
  5.2816   5.2845   5.2903   5.2983   5.3091   5.3302   5.3444   5.3563
  5.4067   5.4191   5.4223   5.4457   5.4569   5.4789   5.4850   5.5142
  5.5566   5.6096   5.6210   5.6381   5.6583   5.6643   5.6736   5.6875
  5.7084   5.7331   5.7732   5.8898   5.9675   5.9970   6.0424   6.0693
  6.0938   6.1288   6.1823   6.3170   6.3482   6.4967   6.5538   6.7668
  6.8212   6.9310   6.9588   6.9897   7.0154   7.0420   7.0743   7.0935
  7.1146   7.1272   7.2132   7.2340   7.2456   7.2567   7.2761   7.3209
  7.3279   7.3524   7.3583   7.3738   7.4178   7.4335   7.4513   7.4990
  7.5622   7.5775   7.6093   7.6257   7.6970   7.7186   7.7458   7.8157
  7.8228   7.8727   7.9119   7.9549   8.0538  24.7450  24.8693  50.4665
 50.5075  50.5688  50.5907  50.6130  50.6609
 --------------------------------------------------------------
 
          Ground-State Mulliken Net Atomic Charges

     Atom                 Charge (a.u.)    Spin (a.u.)
  --------------------------------------------------------
      1 C                     0.007329       0.003390
      2 O                    -0.441556       0.021052
      3 C                    -0.261223       0.364853
      4 O                    -0.372598       0.083432
      5 O                    -0.402607       0.042952
      6 O                    -0.406898      -0.000776
      7 H                     0.288535      -0.000579
      8 H                     0.330709      -0.000040
      9 H                     0.370182      -0.002858
     10 H                     0.376216      -0.000174
     11 H                     0.329347      -0.000030
     12 O                    -0.388718       0.393709
     13 O                    -0.194310       0.071015
     14 H                     0.439289       0.025870
     15 H                     0.326302      -0.001816
  --------------------------------------------------------
  Sum of atomic charges =     0.000000
  Sum of spin   charges =     1.000000

 -----------------------------------------------------------------
                    Cartesian Multipole Moments
 -----------------------------------------------------------------
    Charge (ESU x 10^10)
                 0.0000
    Dipole Moment (Debye)
         X      -5.9783      Y      -2.6812      Z      -1.3384
       Tot       6.6873
    Quadrupole Moments (Debye-Ang)
        XX     -43.8777     XY      -1.1892     YY     -48.6432
        XZ       7.5227     YZ      -3.2992     ZZ     -53.4684
    Octopole Moments (Debye-Ang^2)
       XXX     -87.9584    XXY     -16.8972    XYY       7.4017
       YYY     -56.6070    XXZ      21.0815    XYZ      -0.8435
       YYZ       5.5959    XZZ     -10.7532    YZZ     -17.7345
       ZZZ      77.1231
    Hexadecapole Moments (Debye-Ang^3)
      XXXX    -631.4138   XXXY      71.2480   XXYY    -169.6731
      XYYY     107.8954   YYYY    -412.2039   XXXZ     116.3627
      XXYZ     -25.9069   XYYZ      20.7074   YYYZ     -46.8269
      XXZZ    -170.7964   XYZZ      35.4691   YYZZ    -105.1697
      XZZZ      96.1673   YZZZ     -46.2987   ZZZZ    -340.6526
 -----------------------------------------------------------------
 Calculating analytic gradient of the SCF energy
 Gradient of CDS energy
            1           2           3           4           5           6
    1   0.0029671  -0.0003839  -0.0032230   0.0023559   0.0009978  -0.0022666
    2   0.0041871   0.0005371  -0.0020610   0.0046712  -0.0028131  -0.0046504
    3   0.0004438   0.0004336  -0.0035429   0.0000923   0.0036705  -0.0005482
            7           8           9          10          11          12
    1  -0.0000656   0.0001607  -0.0002582  -0.0000984   0.0001572   0.0000445
    2  -0.0001037  -0.0004111  -0.0004316   0.0003128   0.0004286   0.0001214
    3   0.0000984  -0.0002611  -0.0001645  -0.0002954  -0.0001495   0.0000130
           13          14          15
    1   0.0002793  -0.0001014  -0.0005654
    2  -0.0000533   0.0001153   0.0001507
    3   0.0001967  -0.0000730   0.0000864
 Gradient of SCF Energy
            1           2           3           4           5           6
    1  -0.0009629   0.0075152   0.0020139   0.0188254   0.0153532   0.0053218
    2   0.0018719   0.0127684  -0.0024481  -0.0040202  -0.0080113  -0.0013866
    3  -0.0052442  -0.0024716  -0.0022310   0.0086882  -0.0057964   0.0058979
            7           8           9          10          11          12
    1  -0.0011701  -0.0045407  -0.0224963  -0.0152088  -0.0030702   0.0023652
    2  -0.0041073  -0.0106868   0.0037245   0.0048756   0.0026919   0.0015060
    3   0.0032088   0.0014534  -0.0069405   0.0020496  -0.0031796   0.0028802
           13          14          15
    1   0.0168284  -0.0059436  -0.0148305
    2   0.0197618   0.0011405  -0.0176803
    3   0.0076771   0.0004991  -0.0064911
 Max gradient component =       2.250E-02
 RMS gradient           =       8.816E-03
 Computing fast CPCM-SWIG gradient
 Updating gradient with PCM contributions...
 -- total gradient after adding PCM contribution --
---------------------------------------------------
  Atom         X              Y              Z     
---------------------------------------------------
   1       0.000959       0.000052       0.000008
   2      -0.000186       0.000052       0.000192
   3      -0.000337       0.000068      -0.000050
   4      -0.000033      -0.000017      -0.000016
   5       0.000012      -0.000016      -0.000014
   6      -0.000275      -0.000169       0.000046
   7      -0.000131       0.000045      -0.000083
   8      -0.000024       0.000023      -0.000050
   9       0.000011      -0.000007      -0.000025
  10       0.000004       0.000012       0.000004
  11       0.000044      -0.000002      -0.000001
  12      -0.000052       0.000017      -0.000037
  13       0.000010      -0.000019       0.000042
  14       0.000004      -0.000038      -0.000007
  15      -0.000008      -0.000002      -0.000009
---------------------------------------------------
 Number of fixed atoms: 0
 Gradient time:  CPU 172.59 s  wall 25.96 s
 ----------------------------------------------------------------
             Standard Nuclear Orientation (Angstroms)
    I     Atom           X                Y                Z
 ----------------------------------------------------------------
    1      C       1.4190034624    -0.2579976046    -0.3644810182
    2      O       2.0152369936    -0.9222759067    -1.4637621480
    3      C      -0.0766918770    -0.1000323415    -0.5950827876
    4      O      -0.6873034121    -1.3359526123    -0.6079251737
    5      O      -0.3487189096     0.6944704493    -1.6902116310
    6      O       2.0266563211     0.9900973459    -0.2292224782
    7      H       1.5894440899    -0.8112642556     0.5582744064
    8      H       1.6787244355    -1.8265186906    -1.4939771350
    9      H      -1.5804943930    -1.2446208289    -0.9674115810
   10      H      -1.1239249765     1.2487190576    -1.4851617510
   11      H       1.7149694416     1.5545012763    -0.9502637065
   12      O      -1.2447290818     1.3719533684     1.0631001051
   13      O      -2.1050861248     1.8961379872     0.0984816611
   14      H      -0.5372817056     0.5695647917     0.4009323266
   15      H      -2.8690442638     1.2992997637     0.1182491111
 ----------------------------------------------------------------
 Nuclear Repulsion Energy =         434.72155613 hartrees
 There are       34 alpha and       33 beta electrons
 Discretize the solute cavity surface with Lebedev spheres
	Using 110 Lebedev grid points for each H atom
	Using 194 Lebedev grid points for other atoms
	Atomic van der Waals radii will be scaled by 1.20
 Remove points where switching function is < 1.0e-08
 Keep 1234 surface tesserae and discard 1088 interior tesserae
 Molecular Surface Area = 137.449 Angst**2

                       Distance Matrix (Angstroms)
             C (  1)   O (  2)   C (  3)   O (  4)   O (  5)   O (  6)
   O (  2)  1.416043
   C (  3)  1.521590  2.409742
   O (  4)  2.378609  2.864840  1.378590
   O (  5)  2.406159  2.872879  1.380051  2.325640
   O (  6)  1.394732  2.276267  2.397146  3.594371  2.804335
   H (  7)  1.089326  2.069361  2.147578  2.611302  3.328574  2.014003
   H (  8)  1.950250  0.965302  2.621117  2.573680  3.241052  3.107087
   H (  9)  3.214644  3.644112  1.926171  0.967141  2.408274  4.307020
   H ( 10)  3.161108  3.816807  1.925634  2.764183  0.974772  3.401534
   H ( 11)  1.927664  2.547208  2.464485  3.773968  2.354992  0.967265
   O ( 12)  3.433686  4.719735  2.506117  3.230449  2.973641  3.538061
   O ( 13)  4.156181  5.230786  2.929183  3.599379  2.779974  4.242593
   H ( 14)  2.257824  3.495429  1.285515  2.161318  2.103340  2.673522
   H ( 15)  4.587544  5.594136  3.203780  3.497410  3.160441  4.917746
             H (  7)   H (  8)   H (  9)   H ( 10)   H ( 11)   O ( 12)
   H (  8)  2.291386
   H (  9)  3.544577  3.352370
   H ( 10)  3.972598  4.160770  2.587134
   H ( 11)  2.808610  3.424651  4.323825  2.904985
   O ( 12)  3.613008  5.031446  3.328990  2.554098  3.584240
   O ( 13)  4.603367  5.541780  3.357930  1.972246  3.976105  1.394802
   H ( 14)  2.540553  3.773934  2.500385  2.088720  2.805079  1.258084
   H ( 15)  4.952395  5.749106  3.051320  2.370427  4.713813  1.880538
             O ( 13)   H ( 14)
   H ( 14)  2.075881
   H ( 15)  0.969659  2.459581
 
 Requested basis set is 6-311++G(2df,2p)
 There are 106 shells and 342 basis functions
 A cutoff of  1.0D-12 yielded   5133 shell pairs
 There are     53007 function pairs (     65771 Cartesian)
 Smallest overlap matrix eigenvalue = 4.61E-05
 Guess MOs from SCF MO coefficient file

 -----------------------------------------------------------------------
  General SCF calculation program by
  Eric Jon Sundstrom, Paul Horn, Yuezhi Mao, Dmitri Zuev, Alec White,
  David Stuck, Shaama M.S., Shane Yost, Joonho Lee, David Small,
  Daniel Levine, Susi Lehtola, Hugh Burton, Evgeny Epifanovsky,
  Bang C. Huynh
 -----------------------------------------------------------------------
 Exchange:     0.1500 Hartree-Fock + 1.0000 wB97M-V + LR-HF
 Correlation:  1.0000 wB97M-V
 Using SG-2 standard quadrature grid
 Nonlocal Correlation:  VV10 with C = 0.0100 and b = 6.00 and scale = 1.00000
 Grid used for NLC:  SG-1 standard quadrature
 
 Citation of the SMD model:
 Marenich, A.V.; Cramer, C.J.; Truhlar, D.G.
 J. Phys. Chem. B 2009, 113, 6378-6396.
 iSolventCode=           1
 Solvent: water                                                           
 
 vradii
            1           2           3           4           5           6
    1   1.8500000   1.5200000   1.8500000   1.5200000   1.5200000   1.5200000
            7           8           9          10          11          12
    1   1.2000000   1.2000000   1.2000000   1.2000000   1.2000000   1.5200000
           13          14          15
    1   1.5200000   1.2000000   1.2000000
 -------------------------------------------------------
 OpenMP BLAS3 based DFT computing Module                
 Release: version 1.0, May 2013, Q-Chem Inc. Pittsburgh 
 -------------------------------------------------------
 A unrestricted SCF calculation will be
 performed using Roothaan-Hall, DIIS, GDM
 SCF converges when RMS gradient is below 1.0e-07
 ---------------------------------------
  Cycle       Energy         DIIS error
 ---------------------------------------
    1    -531.6095232119      3.20e-04  Roothaan Step
 ---------------------------------------
  Cycle       Energy         DIIS error
 ---------------------------------------
    1    -531.6531410639      3.53e-04  
    2    -531.6606901947      2.66e-04  Done DIIS. Switching to GDM
 ---------------------------------------
  Cycle       Energy        RMS Gradient
 ---------------------------------------
    1    -531.6606901947      1.33e-02   Normal BFGS step
    2    -531.6603418112      1.69e-02  Line search: overstep
    3    -531.6633961703      3.15e-03   Normal BFGS step
    4    -531.6636003632      1.01e-03   Normal BFGS step
    5    -531.6636398855      1.23e-03   Normal BFGS step
    6    -531.6636511590      2.85e-04   Normal BFGS step
    7    -531.6636520881      1.60e-04   Normal BFGS step
    8    -531.6636523369      1.15e-04   Normal BFGS step
    9    -531.6636524107      9.48e-05   Normal BFGS step
   10    -531.6636524354      1.76e-05   Normal BFGS step
   11    -531.6636524419      1.69e-05   Normal BFGS step
   12    -531.6636524432      9.51e-06   Normal BFGS step
   13    -531.6636524435      3.46e-06   Normal BFGS step
   14    -531.6636524436      2.06e-06   Normal BFGS step
   15    -531.6636524436      1.29e-06   Normal BFGS step
   16    -531.6636524436      6.32e-07   Normal BFGS step
   17    -531.6636524436      2.86e-07   Normal BFGS step
   18    -531.6636524436      1.30e-07   Normal BFGS step
   19    -531.6636524436      2.38e-08  Convergence criterion met
 ---------------------------------------
 SCF time:   CPU 1276.70s  wall 161.00s 
<S^2> =          0.756747135
(3)  G-ENP(liq) elect-nuc-pol free energy of system     -531.663652444 a.u.
(4)  G-CDS(liq) cavity-dispersion-solvent structure 
     free energy                                                3.3863 kcal/mol
(6)  G-S(liq) free energy of system                     -531.658256109 a.u.
 SCF   energy in the final basis set =     -531.6582561086
 Total energy in the final basis set =     -531.6582561086
 
 --------------------------------------------------------------
 
                    Orbital Energies (a.u.)
 --------------------------------------------------------------
 
 Alpha MOs
 -- Occupied --
-19.4118 -19.4036 -19.3711 -19.3653 -19.3531 -19.3482 -10.4670 -10.4558
 -1.2767  -1.2366  -1.2011  -1.1615  -1.1401  -1.0047  -0.8613  -0.7556
 -0.7021  -0.6794  -0.6500  -0.6418  -0.6393  -0.5838  -0.5660  -0.5551
 -0.5329  -0.5194  -0.4904  -0.4831  -0.4409  -0.4369  -0.4322  -0.4144
 -0.4030  -0.3282
 -- Virtual --
  0.0248   0.0390   0.0460   0.0506   0.0678   0.0740   0.0832   0.1066
  0.1200   0.1277   0.1338   0.1431   0.1459   0.1514   0.1690   0.1768
  0.2098   0.2170   0.2288   0.2303   0.2365   0.2418   0.2524   0.2572
  0.2690   0.2765   0.2850   0.2889   0.2975   0.2983   0.3137   0.3152
  0.3216   0.3279   0.3397   0.3405   0.3569   0.3628   0.3649   0.3759
  0.3800   0.3879   0.3953   0.4040   0.4099   0.4201   0.4305   0.4460
  0.4564   0.4688   0.4910   0.5007   0.5674   0.5786   0.6037   0.6100
  0.6194   0.6332   0.6688   0.6773   0.6883   0.6894   0.7333   0.7457
  0.7486   0.7527   0.7732   0.8204   0.8426   0.8513   0.8595   0.9106
  0.9197   0.9308   0.9490   0.9753   1.0078   1.0174   1.0567   1.0605
  1.0727   1.0820   1.1032   1.1219   1.1317   1.1468   1.1574   1.1710
  1.1790   1.1939   1.1984   1.2094   1.2207   1.2366   1.2459   1.2524
  1.2685   1.2845   1.2924   1.3167   1.3427   1.3551   1.3808   1.3952
  1.4084   1.4332   1.4809   1.4828   1.5167   1.5332   1.5483   1.5694
  1.5800   1.6086   1.6167   1.6336   1.6655   1.6857   1.6980   1.7139
  1.7394   1.7646   1.8100   1.8347   1.8704   1.8855   1.8915   1.9462
  1.9887   2.0013   2.0418   2.0734   2.0923   2.1518   2.1679   2.2032
  2.2512   2.2710   2.2964   2.3090   2.3506   2.3602   2.3817   2.4135
  2.4380   2.4485   2.4545   2.4950   2.5065   2.5646   2.5749   2.6754
  2.7144   2.7549   2.8112   2.8540   2.8951   2.9160   2.9689   3.0398
  3.0842   3.1066   3.1908   3.2552   3.3156   3.3319   3.3731   3.4236
  3.4621   3.4645   3.5292   3.5521   3.6021   3.6212   3.6262   3.6537
  3.6730   3.6847   3.7418   3.7802   3.7934   3.8224   3.8322   3.8474
  3.8529   3.8837   3.8996   3.9076   3.9304   3.9774   4.0574   4.0792
  4.1094   4.1662   4.1920   4.2172   4.2347   4.2692   4.2736   4.2921
  4.3080   4.3586   4.3641   4.3674   4.4162   4.4854   4.5868   4.6116
  4.6543   4.7133   4.7476   4.7886   4.8307   4.9969   5.1356   5.1740
  5.1954   5.2026   5.2108   5.2258   5.2281   5.2524   5.2582   5.2746
  5.2808   5.2875   5.2923   5.3007   5.3246   5.3381   5.3515   5.3793
  5.4107   5.4159   5.4414   5.4528   5.4701   5.4812   5.5077   5.5526
  5.6063   5.6196   5.6302   5.6527   5.6612   5.6683   5.6823   5.7052
  5.7293   5.7684   5.8854   5.9637   5.9927   6.0231   6.0635   6.0881
  6.1203   6.1768   6.2964   6.3411   6.4855   6.5505   6.7629   6.8135
  6.9174   6.9363   6.9757   6.9938   7.0298   7.0537   7.0862   7.1103
  7.1147   7.2072   7.2305   7.2411   7.2501   7.2729   7.3185   7.3254
  7.3411   7.3473   7.3704   7.3997   7.4297   7.4422   7.4835   7.5469
  7.5639   7.5935   7.6224   7.6934   7.7158   7.7407   7.8109   7.8200
  7.8706   7.9036   7.9283   8.0456  24.7399  24.8675  50.4626  50.4991
 50.5673  50.5896  50.6121  50.6597
 
 Beta MOs
 -- Occupied --
-19.4097 -19.3902 -19.3684 -19.3637 -19.3531 -19.3475 -10.4596 -10.4554
 -1.2634  -1.2314  -1.1991  -1.1565  -1.1390  -0.9838  -0.8534  -0.7512
 -0.6906  -0.6655  -0.6462  -0.6351  -0.6310  -0.5824  -0.5570  -0.5320
 -0.5178  -0.5037  -0.4887  -0.4753  -0.4371  -0.4313  -0.4061  -0.4013
 -0.3857
 -- Virtual --
 -0.0475   0.0253   0.0393   0.0462   0.0508   0.0686   0.0741   0.0836
  0.1067   0.1202   0.1274   0.1345   0.1438   0.1509   0.1519   0.1706
  0.1777   0.2115   0.2180   0.2307   0.2338   0.2391   0.2428   0.2533
  0.2583   0.2703   0.2771   0.2861   0.2909   0.2995   0.3003   0.3155
  0.3175   0.3235   0.3298   0.3417   0.3435   0.3575   0.3634   0.3670
  0.3781   0.3806   0.3885   0.3990   0.4078   0.4127   0.4258   0.4410
  0.4470   0.4600   0.4712   0.4941   0.5045   0.5695   0.5814   0.6050
  0.6120   0.6242   0.6342   0.6723   0.6797   0.6908   0.6916   0.7357
  0.7497   0.7519   0.7558   0.7746   0.8215   0.8446   0.8525   0.8611
  0.9119   0.9210   0.9320   0.9503   0.9771   1.0090   1.0229   1.0597
  1.0632   1.0748   1.0840   1.1088   1.1239   1.1365   1.1482   1.1613
  1.1733   1.1842   1.1984   1.2027   1.2106   1.2228   1.2421   1.2496
  1.2563   1.2718   1.2875   1.2971   1.3182   1.3455   1.3577   1.3839
  1.3981   1.4122   1.4363   1.4826   1.4858   1.5197   1.5354   1.5516
  1.5714   1.5853   1.6105   1.6190   1.6395   1.6718   1.6895   1.7022
  1.7173   1.7439   1.7713   1.8170   1.8379   1.8767   1.8928   1.8940
  1.9522   1.9945   2.0048   2.0472   2.0794   2.0958   2.1536   2.1720
  2.2073   2.2564   2.2746   2.2996   2.3110   2.3542   2.3648   2.3850
  2.4181   2.4410   2.4509   2.4589   2.5007   2.5141   2.5686   2.5794
  2.6799   2.7199   2.7618   2.8160   2.8584   2.8992   2.9191   2.9681
  3.0471   3.0910   3.1165   3.1996   3.2594   3.3181   3.3380   3.3794
  3.4328   3.4696   3.4745   3.5382   3.5644   3.6068   3.6241   3.6372
  3.6662   3.6858   3.7058   3.7514   3.7858   3.8034   3.8256   3.8367
  3.8493   3.8576   3.8897   3.9037   3.9104   3.9383   3.9892   4.0620
  4.0838   4.1164   4.1704   4.1958   4.2197   4.2352   4.2728   4.2801
  4.2956   4.3065   4.3622   4.3667   4.3711   4.4175   4.4863   4.5920
  4.6263   4.6602   4.7208   4.7589   4.8033   4.8435   5.0078   5.1566
  5.1785   5.2073   5.2105   5.2235   5.2337   5.2417   5.2586   5.2645
  5.2817   5.2846   5.2905   5.2983   5.3093   5.3301   5.3445   5.3564
  5.4065   5.4190   5.4223   5.4458   5.4570   5.4788   5.4850   5.5141
  5.5566   5.6098   5.6212   5.6382   5.6583   5.6643   5.6736   5.6875
  5.7084   5.7328   5.7732   5.8885   5.9669   5.9957   6.0425   6.0668
  6.0931   6.1285   6.1823   6.3170   6.3482   6.4969   6.5528   6.7646
  6.8213   6.9309   6.9587   6.9897   7.0154   7.0421   7.0744   7.0934
  7.1145   7.1271   7.2132   7.2341   7.2454   7.2567   7.2761   7.3208
  7.3277   7.3524   7.3583   7.3737   7.4177   7.4334   7.4513   7.4990
  7.5622   7.5774   7.6092   7.6252   7.6971   7.7185   7.7457   7.8159
  7.8222   7.8726   7.9120   7.9549   8.0538  24.7429  24.8712  50.4664
 50.5074  50.5688  50.5905  50.6129  50.6607
 --------------------------------------------------------------
 
          Ground-State Mulliken Net Atomic Charges

     Atom                 Charge (a.u.)    Spin (a.u.)
  --------------------------------------------------------
      1 C                     0.007581       0.003243
      2 O                    -0.441957       0.021121
      3 C                    -0.261062       0.364684
      4 O                    -0.372533       0.083414
      5 O                    -0.402563       0.042958
      6 O                    -0.407266      -0.000774
      7 H                     0.288532      -0.000572
      8 H                     0.330593      -0.000043
      9 H                     0.370221      -0.002856
     10 H                     0.376257      -0.000180
     11 H                     0.329268      -0.000034
     12 O                    -0.388451       0.393984
     13 O                    -0.194150       0.071141
     14 H                     0.439210       0.025735
     15 H                     0.326320      -0.001819
  --------------------------------------------------------
  Sum of atomic charges =     0.000000
  Sum of spin   charges =     1.000000

 -----------------------------------------------------------------
                    Cartesian Multipole Moments
 -----------------------------------------------------------------
    Charge (ESU x 10^10)
                 0.0000
    Dipole Moment (Debye)
         X      -5.9915      Y      -2.6779      Z      -1.3339
       Tot       6.6969
    Quadrupole Moments (Debye-Ang)
        XX     -43.8907     XY      -1.1935     YY     -48.6422
        XZ       7.5302     YZ      -3.3002     ZZ     -53.4694
    Octopole Moments (Debye-Ang^2)
       XXX     -88.0017    XXY     -16.8819    XYY       7.3861
       YYY     -56.5924    XXZ      21.1016    XYZ      -0.8522
       YYZ       5.6063    XZZ     -10.7616    YZZ     -17.7240
       ZZZ      77.1364
    Hexadecapole Moments (Debye-Ang^3)
      XXXX    -631.3130   XXXY      71.2205   XXYY    -169.6307
      XYYY     107.8670   YYYY    -412.1979   XXXZ     116.3860
      XXYZ     -25.9097   XYYZ      20.7128   YYYZ     -46.8304
      XXZZ    -170.7747   XYZZ      35.4637   YYZZ    -105.1721
      XZZZ      96.1771   YZZZ     -46.3088   ZZZZ    -340.6616
 -----------------------------------------------------------------
 Calculating analytic gradient of the SCF energy
 Gradient of CDS energy
            1           2           3           4           5           6
    1   0.0028670  -0.0003261  -0.0032222   0.0023558   0.0009978  -0.0022318
    2   0.0041689   0.0004722  -0.0020608   0.0046712  -0.0028132  -0.0045646
    3   0.0005352   0.0003328  -0.0035433   0.0000923   0.0036705  -0.0005386
            7           8           9          10          11          12
    1  -0.0000606   0.0001609  -0.0002582  -0.0000984   0.0001580   0.0000449
    2  -0.0001075  -0.0004113  -0.0004316   0.0003128   0.0004298   0.0001215
    3   0.0000979  -0.0002607  -0.0001645  -0.0002954  -0.0001492   0.0000129
           13          14          15
    1   0.0002793  -0.0001012  -0.0005654
    2  -0.0000533   0.0001151   0.0001507
    3   0.0001967  -0.0000729   0.0000864
 Gradient of SCF Energy
            1           2           3           4           5           6
    1  -0.0028792   0.0079550   0.0027014   0.0188953   0.0153932   0.0057988
    2   0.0017911   0.0125932  -0.0025412  -0.0039962  -0.0080477  -0.0009704
    3  -0.0052582  -0.0028348  -0.0021267   0.0086848  -0.0057841   0.0059354
            7           8           9          10          11          12
    1  -0.0009068  -0.0045551  -0.0225153  -0.0152260  -0.0030915   0.0023942
    2  -0.0041942  -0.0106440   0.0037246   0.0048896   0.0026515   0.0014883
    3   0.0033638   0.0015040  -0.0069534   0.0020566  -0.0031774   0.0029067
           13          14          15
    1   0.0168096  -0.0059355  -0.0148382
    2   0.0197926   0.0011548  -0.0176919
    3   0.0076532   0.0005247  -0.0064946
 Max gradient component =       2.252E-02
 RMS gradient           =       8.849E-03
 Computing fast CPCM-SWIG gradient
 Updating gradient with PCM contributions...
 -- total gradient after adding PCM contribution --
---------------------------------------------------
  Atom         X              Y              Z     
---------------------------------------------------
   1      -0.000960      -0.000017      -0.000020
   2       0.000248      -0.000101      -0.000160
   3       0.000359      -0.000015       0.000067
   4       0.000018       0.000013      -0.000022
   5       0.000032      -0.000043       0.000001
   6       0.000198       0.000228       0.000099
   7       0.000130      -0.000045       0.000078
   8      -0.000037       0.000048      -0.000003
   9       0.000009      -0.000012      -0.000034
  10       0.000003       0.000017       0.000008
  11       0.000027      -0.000035      -0.000012
  12      -0.000019      -0.000003      -0.000006
  13      -0.000024      -0.000007       0.000009
  14       0.000021      -0.000032       0.000006
  15      -0.000004       0.000003      -0.000010
---------------------------------------------------
 Number of fixed atoms: 0
 Gradient time:  CPU 171.02 s  wall 25.43 s
 ----------------------------------------------------------------
             Standard Nuclear Orientation (Angstroms)
    I     Atom           X                Y                Z
 ----------------------------------------------------------------
    1      C       1.4200034624    -0.2569976046    -0.3644810182
    2      O       2.0152369936    -0.9222759067    -1.4637621480
    3      C      -0.0766918770    -0.1000323415    -0.5950827876
    4      O      -0.6873034121    -1.3359526123    -0.6079251737
    5      O      -0.3487189096     0.6944704493    -1.6902116310
    6      O       2.0266563211     0.9900973459    -0.2292224782
    7      H       1.5894440899    -0.8112642556     0.5582744064
    8      H       1.6787244355    -1.8265186906    -1.4939771350
    9      H      -1.5804943930    -1.2446208289    -0.9674115810
   10      H      -1.1239249765     1.2487190576    -1.4851617510
   11      H       1.7149694416     1.5545012763    -0.9502637065
   12      O      -1.2447290818     1.3719533684     1.0631001051
   13      O      -2.1050861248     1.8961379872     0.0984816611
   14      H      -0.5372817056     0.5695647917     0.4009323266
   15      H      -2.8690442638     1.2992997637     0.1182491111
 ----------------------------------------------------------------
 Nuclear Repulsion Energy =         434.72101118 hartrees
 There are       34 alpha and       33 beta electrons
 Discretize the solute cavity surface with Lebedev spheres
	Using 110 Lebedev grid points for each H atom
	Using 194 Lebedev grid points for other atoms
	Atomic van der Waals radii will be scaled by 1.20
 Remove points where switching function is < 1.0e-08
 Keep 1234 surface tesserae and discard 1088 interior tesserae
 Molecular Surface Area = 137.451 Angst**2

                       Distance Matrix (Angstroms)
             C (  1)   O (  2)   C (  3)   O (  4)   O (  5)   O (  6)
   O (  2)  1.416092
   C (  3)  1.522469  2.409742
   O (  4)  2.379948  2.864840  1.378590
   O (  5)  2.406498  2.872879  1.380051  2.325640
   O (  6)  1.393402  2.276267  2.397146  3.594371  2.804335
   H (  7)  1.089678  2.069361  2.147578  2.611302  3.328574  2.014003
   H (  8)  1.950921  0.965302  2.621117  2.573680  3.241052  3.107087
   H (  9)  3.215884  3.644112  1.926171  0.967141  2.408274  4.307020
   H ( 10)  3.161436  3.816807  1.925634  2.764183  0.974772  3.401534
   H ( 11)  1.926571  2.547208  2.464485  3.773968  2.354992  0.967265
   O ( 12)  3.433987  4.719735  2.506117  3.230449  2.973641  3.538061
   O ( 13)  4.156511  5.230786  2.929183  3.599379  2.779974  4.242593
   H ( 14)  2.258324  3.495429  1.285515  2.161318  2.103340  2.673522
   H ( 15)  4.588139  5.594136  3.203780  3.497410  3.160441  4.917746
             H (  7)   H (  8)   H (  9)   H ( 10)   H ( 11)   O ( 12)
   H (  8)  2.291386
   H (  9)  3.544577  3.352370
   H ( 10)  3.972598  4.160770  2.587134
   H ( 11)  2.808610  3.424651  4.323825  2.904985
   O ( 12)  3.613008  5.031446  3.328990  2.554098  3.584240
   O ( 13)  4.603367  5.541780  3.357930  1.972246  3.976105  1.394802
   H ( 14)  2.540553  3.773934  2.500385  2.088720  2.805079  1.258084
   H ( 15)  4.952395  5.749106  3.051320  2.370427  4.713813  1.880538
             O ( 13)   H ( 14)
   H ( 14)  2.075881
   H ( 15)  0.969659  2.459581
 
 Requested basis set is 6-311++G(2df,2p)
 There are 106 shells and 342 basis functions
 A cutoff of  1.0D-12 yielded   5133 shell pairs
 There are     53007 function pairs (     65771 Cartesian)
 Smallest overlap matrix eigenvalue = 4.63E-05
 Guess MOs from SCF MO coefficient file

 -----------------------------------------------------------------------
  General SCF calculation program by
  Eric Jon Sundstrom, Paul Horn, Yuezhi Mao, Dmitri Zuev, Alec White,
  David Stuck, Shaama M.S., Shane Yost, Joonho Lee, David Small,
  Daniel Levine, Susi Lehtola, Hugh Burton, Evgeny Epifanovsky,
  Bang C. Huynh
 -----------------------------------------------------------------------
 Exchange:     0.1500 Hartree-Fock + 1.0000 wB97M-V + LR-HF
 Correlation:  1.0000 wB97M-V
 Using SG-2 standard quadrature grid
 Nonlocal Correlation:  VV10 with C = 0.0100 and b = 6.00 and scale = 1.00000
 Grid used for NLC:  SG-1 standard quadrature
 
 Citation of the SMD model:
 Marenich, A.V.; Cramer, C.J.; Truhlar, D.G.
 J. Phys. Chem. B 2009, 113, 6378-6396.
 iSolventCode=           1
 Solvent: water                                                           
 
 vradii
            1           2           3           4           5           6
    1   1.8500000   1.5200000   1.8500000   1.5200000   1.5200000   1.5200000
            7           8           9          10          11          12
    1   1.2000000   1.2000000   1.2000000   1.2000000   1.2000000   1.5200000
           13          14          15
    1   1.5200000   1.2000000   1.2000000
 -------------------------------------------------------
 OpenMP BLAS3 based DFT computing Module                
 Release: version 1.0, May 2013, Q-Chem Inc. Pittsburgh 
 -------------------------------------------------------
 A unrestricted SCF calculation will be
 performed using Roothaan-Hall, DIIS, GDM
 SCF converges when RMS gradient is below 1.0e-07
 ---------------------------------------
  Cycle       Energy         DIIS error
 ---------------------------------------
    1    -531.6095369212      3.20e-04  Roothaan Step
 ---------------------------------------
  Cycle       Energy         DIIS error
 ---------------------------------------
    1    -531.6531809958      3.52e-04  
    2    -531.6607362420      2.64e-04  Done DIIS. Switching to GDM
 ---------------------------------------
  Cycle       Energy        RMS Gradient
 ---------------------------------------
    1    -531.6607362420      1.32e-02   Normal BFGS step
    2    -531.6603988235      1.68e-02  Line search: overstep
    3    -531.6634096507      3.13e-03   Normal BFGS step
    4    -531.6636137442      1.01e-03   Normal BFGS step
    5    -531.6636531675      1.22e-03   Normal BFGS step
    6    -531.6636643936      3.10e-04   Normal BFGS step
    7    -531.6636653389      1.77e-04   Normal BFGS step
    8    -531.6636655972      1.26e-04   Normal BFGS step
    9    -531.6636656785      9.87e-05   Normal BFGS step
   10    -531.6636657044      1.65e-05   Normal BFGS step
   11    -531.6636657113      1.71e-05   Normal BFGS step
   12    -531.6636657126      9.28e-06   Normal BFGS step
   13    -531.6636657129      3.57e-06   Normal BFGS step
   14    -531.6636657130      2.14e-06   Normal BFGS step
   15    -531.6636657130      1.31e-06   Normal BFGS step
   16    -531.6636657130      6.37e-07   Normal BFGS step
   17    -531.6636657130      2.85e-07   Normal BFGS step
   18    -531.6636657131      1.23e-07   Normal BFGS step
   19    -531.6636657130      2.26e-08  Convergence criterion met
 ---------------------------------------
 SCF time:   CPU 1281.24s  wall 162.00s 
<S^2> =          0.756744589
(3)  G-ENP(liq) elect-nuc-pol free energy of system     -531.663665713 a.u.
(4)  G-CDS(liq) cavity-dispersion-solvent structure 
     free energy                                                3.3947 kcal/mol
(6)  G-S(liq) free energy of system                     -531.658255893 a.u.
 SCF   energy in the final basis set =     -531.6582558932
 Total energy in the final basis set =     -531.6582558932
 
 --------------------------------------------------------------
 
                    Orbital Energies (a.u.)
 --------------------------------------------------------------
 
 Alpha MOs
 -- Occupied --
-19.4117 -19.4035 -19.3711 -19.3653 -19.3532 -19.3481 -10.4669 -10.4558
 -1.2767  -1.2366  -1.2013  -1.1615  -1.1403  -1.0047  -0.8611  -0.7557
 -0.7021  -0.6793  -0.6501  -0.6418  -0.6393  -0.5840  -0.5660  -0.5551
 -0.5328  -0.5194  -0.4905  -0.4830  -0.4409  -0.4369  -0.4323  -0.4144
 -0.4029  -0.3281
 -- Virtual --
  0.0248   0.0390   0.0460   0.0506   0.0678   0.0740   0.0832   0.1066
  0.1200   0.1277   0.1338   0.1431   0.1459   0.1514   0.1690   0.1768
  0.2098   0.2170   0.2288   0.2303   0.2365   0.2418   0.2524   0.2572
  0.2690   0.2765   0.2850   0.2890   0.2975   0.2984   0.3137   0.3152
  0.3217   0.3279   0.3396   0.3405   0.3569   0.3628   0.3648   0.3760
  0.3799   0.3879   0.3953   0.4039   0.4099   0.4201   0.4306   0.4460
  0.4565   0.4688   0.4910   0.5007   0.5675   0.5785   0.6037   0.6100
  0.6193   0.6332   0.6688   0.6773   0.6884   0.6894   0.7333   0.7458
  0.7486   0.7526   0.7731   0.8204   0.8426   0.8513   0.8593   0.9106
  0.9197   0.9309   0.9490   0.9753   1.0078   1.0176   1.0568   1.0606
  1.0727   1.0820   1.1032   1.1220   1.1317   1.1468   1.1574   1.1709
  1.1789   1.1939   1.1984   1.2093   1.2207   1.2366   1.2458   1.2524
  1.2685   1.2845   1.2922   1.3166   1.3427   1.3552   1.3806   1.3951
  1.4083   1.4333   1.4808   1.4827   1.5167   1.5332   1.5483   1.5692
  1.5799   1.6084   1.6167   1.6336   1.6654   1.6856   1.6981   1.7139
  1.7394   1.7647   1.8100   1.8347   1.8705   1.8855   1.8916   1.9462
  1.9888   2.0012   2.0417   2.0735   2.0925   2.1517   2.1680   2.2035
  2.2513   2.2711   2.2969   2.3089   2.3506   2.3603   2.3818   2.4135
  2.4380   2.4486   2.4546   2.4948   2.5065   2.5646   2.5749   2.6754
  2.7145   2.7549   2.8113   2.8540   2.8955   2.9159   2.9689   3.0396
  3.0843   3.1068   3.1904   3.2552   3.3160   3.3319   3.3735   3.4236
  3.4623   3.4646   3.5289   3.5522   3.6022   3.6211   3.6265   3.6537
  3.6730   3.6845   3.7419   3.7802   3.7935   3.8223   3.8322   3.8474
  3.8529   3.8837   3.8997   3.9078   3.9302   3.9774   4.0569   4.0792
  4.1086   4.1657   4.1917   4.2171   4.2347   4.2694   4.2733   4.2921
  4.3079   4.3579   4.3638   4.3671   4.4162   4.4852   4.5862   4.6113
  4.6543   4.7133   4.7476   4.7881   4.8307   4.9969   5.1357   5.1740
  5.1955   5.2026   5.2107   5.2258   5.2281   5.2523   5.2582   5.2746
  5.2808   5.2873   5.2922   5.3005   5.3247   5.3381   5.3516   5.3793
  5.4108   5.4160   5.4413   5.4527   5.4701   5.4809   5.5078   5.5525
  5.6061   5.6196   5.6302   5.6527   5.6612   5.6684   5.6823   5.7054
  5.7294   5.7685   5.8855   5.9644   5.9937   6.0231   6.0655   6.0891
  6.1207   6.1769   6.2964   6.3412   6.4854   6.5508   6.7647   6.8136
  6.9174   6.9363   6.9757   6.9938   7.0299   7.0537   7.0862   7.1104
  7.1148   7.2072   7.2303   7.2412   7.2501   7.2729   7.3185   7.3256
  7.3411   7.3473   7.3704   7.3997   7.4299   7.4423   7.4835   7.5469
  7.5640   7.5935   7.6229   7.6933   7.7159   7.7408   7.8108   7.8205
  7.8707   7.9036   7.9284   8.0456  24.7410  24.8668  50.4627  50.4992
 50.5673  50.5897  50.6123  50.6598
 
 Beta MOs
 -- Occupied --
-19.4097 -19.3901 -19.3684 -19.3636 -19.3532 -19.3474 -10.4596 -10.4554
 -1.2633  -1.2314  -1.1993  -1.1565  -1.1391  -0.9838  -0.8532  -0.7513
 -0.6905  -0.6655  -0.6463  -0.6352  -0.6310  -0.5826  -0.5570  -0.5320
 -0.5177  -0.5037  -0.4888  -0.4753  -0.4371  -0.4314  -0.4060  -0.4012
 -0.3856
 -- Virtual --
 -0.0474   0.0253   0.0393   0.0462   0.0508   0.0686   0.0741   0.0836
  0.1067   0.1202   0.1274   0.1346   0.1438   0.1509   0.1519   0.1706
  0.1777   0.2116   0.2180   0.2307   0.2339   0.2392   0.2428   0.2533
  0.2583   0.2702   0.2771   0.2861   0.2910   0.2997   0.3004   0.3155
  0.3175   0.3235   0.3298   0.3416   0.3434   0.3575   0.3634   0.3669
  0.3782   0.3805   0.3885   0.3990   0.4077   0.4127   0.4258   0.4411
  0.4470   0.4601   0.4712   0.4941   0.5045   0.5696   0.5814   0.6051
  0.6120   0.6242   0.6342   0.6723   0.6797   0.6909   0.6916   0.7358
  0.7498   0.7519   0.7557   0.7746   0.8214   0.8445   0.8525   0.8610
  0.9119   0.9210   0.9321   0.9503   0.9771   1.0090   1.0231   1.0597
  1.0633   1.0748   1.0841   1.1088   1.1239   1.1366   1.1482   1.1613
  1.1733   1.1841   1.1985   1.2027   1.2106   1.2228   1.2422   1.2495
  1.2563   1.2717   1.2875   1.2971   1.3182   1.3455   1.3578   1.3837
  1.3981   1.4121   1.4364   1.4825   1.4858   1.5197   1.5353   1.5516
  1.5712   1.5853   1.6102   1.6190   1.6395   1.6718   1.6894   1.7023
  1.7173   1.7440   1.7714   1.8169   1.8378   1.8768   1.8928   1.8941
  1.9522   1.9946   2.0048   2.0472   2.0794   2.0960   2.1535   2.1721
  2.2076   2.2565   2.2746   2.3001   2.3109   2.3541   2.3649   2.3850
  2.4181   2.4411   2.4510   2.4590   2.5005   2.5141   2.5687   2.5793
  2.6799   2.7201   2.7618   2.8160   2.8584   2.8995   2.9190   2.9682
  3.0470   3.0911   3.1166   3.1992   3.2594   3.3185   3.3380   3.3799
  3.4328   3.4699   3.4746   3.5378   3.5645   3.6068   3.6240   3.6376
  3.6661   3.6860   3.7056   3.7514   3.7858   3.8035   3.8256   3.8367
  3.8493   3.8576   3.8898   3.9037   3.9106   3.9381   3.9891   4.0616
  4.0837   4.1157   4.1700   4.1955   4.2197   4.2351   4.2730   4.2799
  4.2955   4.3064   4.3614   4.3663   4.3709   4.4174   4.4860   4.5913
  4.6261   4.6602   4.7208   4.7589   4.8028   4.8435   5.0078   5.1566
  5.1785   5.2073   5.2105   5.2235   5.2337   5.2417   5.2585   5.2646
  5.2816   5.2846   5.2903   5.2982   5.3091   5.3302   5.3445   5.3564
  5.4065   5.4191   5.4222   5.4458   5.4570   5.4788   5.4848   5.5142
  5.5565   5.6096   5.6212   5.6382   5.6582   5.6643   5.6736   5.6875
  5.7085   5.7329   5.7732   5.8886   5.9676   5.9968   6.0425   6.0689
  6.0939   6.1289   6.1823   6.3170   6.3482   6.4968   6.5531   6.7664
  6.8214   6.9310   6.9588   6.9897   7.0154   7.0421   7.0744   7.0934
  7.1146   7.1271   7.2132   7.2340   7.2456   7.2567   7.2761   7.3208
  7.3279   7.3524   7.3584   7.3736   7.4178   7.4336   7.4514   7.4990
  7.5622   7.5775   7.6093   7.6257   7.6970   7.7185   7.7458   7.8158
  7.8227   7.8726   7.9119   7.9549   8.0538  24.7440  24.8705  50.4665
 50.5074  50.5689  50.5907  50.6130  50.6608
 --------------------------------------------------------------
 
          Ground-State Mulliken Net Atomic Charges

     Atom                 Charge (a.u.)    Spin (a.u.)
  --------------------------------------------------------
      1 C                     0.007431       0.003293
[...]
 Keep 1278 surface tesserae and discard 1044 interior tesserae
 Molecular Surface Area = 143.424 Angst**2

                       Distance Matrix (Angstroms)
             C (  1)   O (  2)   C (  3)   O (  4)   O (  5)   O (  6)
   O (  2)  1.415384
   C (  3)  1.521264  2.429930
   O (  4)  2.369151  2.783502  1.407069
   O (  5)  2.378347  2.856319  1.407699  2.326186
   O (  6)  1.398640  2.278806  2.390743  3.597748  2.744283
   H (  7)  1.090841  2.068018  2.144835  2.657543  3.316145  2.013109
   H (  8)  1.942727  0.965152  2.609174  2.438053  3.200958  3.107924
   H (  9)  3.209491  3.678026  1.932740  0.964482  2.526591  4.306065
   H ( 10)  3.146389  3.797949  1.944005  2.793611  0.964100  3.361319
   H ( 11)  1.924780  2.574405  2.430107  3.731260  2.252400  0.968046
   O ( 12)  4.120217  5.406577  3.155021  3.983415  3.498365  4.113203
   O ( 13)  4.431975  5.517487  3.195117  3.936618  3.058950  4.487918
   H ( 14)  2.124107  3.341686  1.086391  2.058444  2.054214  2.646806
   H ( 15)  4.699834  5.705371  3.300294  3.685692  3.282338  5.020242
             H (  7)   H (  8)   H (  9)   H ( 10)   H ( 11)   O ( 12)
   H (  8)  2.306254
   H (  9)  3.518440  3.342993
   H ( 10)  3.976639  4.111646  2.684630
   H ( 11)  2.799762  3.428370  4.310408  2.806683
   O ( 12)  4.298597  5.707314  3.805914  2.964120  4.039396
   O ( 13)  4.867590  5.791236  3.558537  2.253282  4.157307  1.312714
   H ( 14)  2.407194  3.560558  2.297489  2.140952  2.757713  2.154164
   H ( 15)  5.073472  5.819583  3.103848  2.506463  4.751531  1.842778
             O ( 13)   H ( 14)
   H ( 14)  2.494355
   H ( 15)  0.976339  2.678801
 
 Applying Cartesian multipole field
    Component          Value
    ---------          -----
     (2,0,0)        1.00000E-11
     (0,2,0)        2.00000E-11
     (0,0,2)       -3.00000E-11
 Nucleus-field energy     =     0.0000000060 hartrees
 Requested basis set is 6-311++G(2df,2p)
 There are 106 shells and 342 basis functions
 A cutoff of  1.0D-12 yielded   5037 shell pairs
 There are     51427 function pairs (     63575 Cartesian)
 Smallest overlap matrix eigenvalue = 4.78E-05
 Guess MOs from SCF MO coefficient file

 -----------------------------------------------------------------------
  General SCF calculation program by
  Eric Jon Sundstrom, Paul Horn, Yuezhi Mao, Dmitri Zuev, Alec White,
  David Stuck, Shaama M.S., Shane Yost, Joonho Lee, David Small,
  Daniel Levine, Susi Lehtola, Hugh Burton, Evgeny Epifanovsky,
  Bang C. Huynh
 -----------------------------------------------------------------------
 Exchange:     0.1500 Hartree-Fock + 1.0000 wB97M-V + LR-HF
 Correlation:  1.0000 wB97M-V
 Using SG-2 standard quadrature grid
 Nonlocal Correlation:  VV10 with C = 0.0100 and b = 6.00 and scale = 1.00000
 Grid used for NLC:  SG-1 standard quadrature
 
 Citation of the SMD model:
 Marenich, A.V.; Cramer, C.J.; Truhlar, D.G.
 J. Phys. Chem. B 2009, 113, 6378-6396.
 iSolventCode=           1
 Solvent: water                                                           
 
 vradii
            1           2           3           4           5           6
    1   1.8500000   1.5200000   1.8500000   1.5200000   1.5200000   1.5200000
            7           8           9          10          11          12
    1   1.2000000   1.2000000   1.2000000   1.2000000   1.2000000   1.5200000
           13          14          15
    1   1.5200000   1.2000000   1.2000000
 -------------------------------------------------------
 OpenMP BLAS3 based DFT computing Module                
 Release: version 1.0, May 2013, Q-Chem Inc. Pittsburgh 
 -------------------------------------------------------
 A unrestricted SCF calculation will be
 performed using Roothaan-Hall, DIIS, GDM
 SCF converges when RMS gradient is below 1.0e-07
 ---------------------------------------
  Cycle       Energy         DIIS error
 ---------------------------------------
    1    -531.6299393031      3.56e-04  Roothaan Step
 ---------------------------------------
  Cycle       Energy         DIIS error
 ---------------------------------------
    1    -531.6790085837      3.98e-04  
    2    -531.6883314723      3.21e-04  Done DIIS. Switching to GDM
 ---------------------------------------
  Cycle       Energy        RMS Gradient
 ---------------------------------------
    1    -531.6883314723      2.80e-02   Normal BFGS step
    2    -531.6874668929      4.73e-02  Line search: overstep
    3    -531.6921448904      7.50e-03   Normal BFGS step
    4    -531.6924097559      1.03e-03   Normal BFGS step
    5    -531.6924762272      2.15e-03   Normal BFGS step
    6    -531.6924877165      6.04e-04   Normal BFGS step
    7    -531.6924897676      4.79e-04   Normal BFGS step
    8    -531.6924904388      2.75e-04   Normal BFGS step
    9    -531.6924906471      4.62e-05   Normal BFGS step
   10    -531.6924906578      2.21e-05   Normal BFGS step
   11    -531.6924906657      2.05e-05   Normal BFGS step
   12    -531.6924906664      1.82e-05   Normal BFGS step
   13    -531.6924906672      1.32e-05   Normal BFGS step
   14    -531.6924906679      7.03e-06   Normal BFGS step
   15    -531.6924906683      2.06e-06   Normal BFGS step
   16    -531.6924906684      7.65e-07   Normal BFGS step
   17    -531.6924906684      2.79e-07   Normal BFGS step
   18    -531.6924906684      1.07e-07   Normal BFGS step
   19    -531.6924906684      6.14e-08  Convergence criterion met
 ---------------------------------------
 SCF time:   CPU 1177.61s  wall 148.00s 
<S^2> =          0.753691305
(3)  G-ENP(liq) elect-nuc-pol free energy of system     -531.692490668 a.u.
(4)  G-CDS(liq) cavity-dispersion-solvent structure 
     free energy                                                3.1461 kcal/mol
(6)  G-S(liq) free energy of system                     -531.687477015 a.u.
 SCF   energy in the final basis set =     -531.6874770148
 Total energy in the final basis set =     -531.6874770148
 
 --------------------------------------------------------------
 
                    Orbital Energies (a.u.)
 --------------------------------------------------------------
 
 Alpha MOs
 -- Occupied --
-19.4595 -19.4268 -19.3493 -19.3488 -19.3474 -19.3430 -10.4447 -10.4418
 -1.3421  -1.2195  -1.1871  -1.1432  -1.1316  -1.0021  -0.8522  -0.7476
 -0.6848  -0.6786  -0.6552  -0.6353  -0.6234  -0.6072  -0.6026  -0.5724
 -0.5148  -0.5082  -0.4854  -0.4731  -0.4302  -0.4260  -0.4198  -0.4158
 -0.4046  -0.3892
 -- Virtual --
  0.0247   0.0404   0.0460   0.0508   0.0687   0.0743   0.0837   0.1079
  0.1174   0.1278   0.1327   0.1413   0.1530   0.1639   0.1726   0.1898
  0.1994   0.2135   0.2285   0.2298   0.2339   0.2410   0.2427   0.2562
  0.2673   0.2719   0.2818   0.2838   0.2930   0.2949   0.3005   0.3147
  0.3177   0.3246   0.3365   0.3419   0.3495   0.3611   0.3655   0.3742
  0.3805   0.3838   0.3926   0.3989   0.4084   0.4186   0.4319   0.4459
  0.4519   0.4669   0.4819   0.4993   0.5680   0.5896   0.5971   0.6033
  0.6278   0.6303   0.6695   0.6820   0.6975   0.6985   0.7164   0.7486
  0.7558   0.7742   0.7912   0.8175   0.8267   0.8431   0.8546   0.9049
  0.9230   0.9293   0.9482   0.9561   0.9769   1.0037   1.0451   1.0741
  1.0755   1.0848   1.1024   1.1051   1.1282   1.1412   1.1450   1.1508
  1.1684   1.1743   1.1920   1.2007   1.2102   1.2214   1.2474   1.2530
  1.2614   1.2780   1.2888   1.3214   1.3427   1.3625   1.3722   1.3948
  1.4043   1.4153   1.4360   1.4739   1.4859   1.4925   1.5339   1.5409
  1.5617   1.5839   1.5920   1.6091   1.6149   1.6530   1.6552   1.6693
  1.7002   1.7206   1.7277   1.7838   1.8139   1.8729   1.8892   1.9110
  1.9251   1.9441   1.9799   2.0153   2.0668   2.1257   2.1467   2.1771
  2.2076   2.2419   2.2751   2.3014   2.3140   2.3411   2.3604   2.3762
  2.3868   2.4213   2.4592   2.4665   2.4881   2.5201   2.5569   2.6250
  2.6827   2.7206   2.7848   2.7971   2.8108   2.8721   2.9310   2.9813
  3.0977   3.1130   3.1810   3.2668   3.2959   3.3197   3.3568   3.3844
  3.4138   3.4837   3.5170   3.5374   3.5825   3.6073   3.6213   3.6534
  3.6922   3.7208   3.7403   3.7724   3.8150   3.8221   3.8342   3.8473
  3.8593   3.8748   3.9027   3.9104   3.9510   4.0323   4.0725   4.1115
  4.1446   4.1657   4.2076   4.2185   4.2659   4.2803   4.2850   4.3112
  4.3544   4.3885   4.4167   4.4255   4.4463   4.5361   4.5563   4.6498
  4.6695   4.7101   4.7283   4.7798   4.8729   5.0543   5.0643   5.1239
  5.1283   5.1914   5.1934   5.2110   5.2158   5.2347   5.2412   5.2452
  5.2621   5.2698   5.2800   5.2970   5.3055   5.3145   5.3313   5.3506
  5.3659   5.4061   5.4320   5.4335   5.4541   5.4758   5.4926   5.5521
  5.5775   5.6002   5.6139   5.6292   5.6367   5.6654   5.6836   5.7097
  5.7297   5.7334   5.8219   5.9071   5.9499   5.9780   6.0388   6.0699
  6.1399   6.1962   6.4167   6.4380   6.5191   6.5632   6.7342   6.7605
  6.7708   6.9038   6.9103   6.9764   6.9941   7.0541   7.0748   7.0871
  7.1166   7.1274   7.1333   7.2359   7.2466   7.2757   7.2861   7.3079
  7.3142   7.3309   7.3579   7.3685   7.3890   7.4070   7.4398   7.4724
  7.5675   7.6140   7.6149   7.7011   7.7091   7.7342   7.8047   7.8235
  7.8746   7.9135   7.9519   7.9869  24.7540  24.8675  50.3820  50.4595
 50.5837  50.5952  50.6094  50.6681
 
 Beta MOs
 -- Occupied --
-19.4504 -19.4069 -19.3491 -19.3488 -19.3474 -19.3430 -10.4446 -10.4416
 -1.3153  -1.2194  -1.1870  -1.1431  -1.1315  -0.9615  -0.8520  -0.7474
 -0.6775  -0.6674  -0.6527  -0.6306  -0.6226  -0.5857  -0.5723  -0.5348
 -0.5135  -0.5061  -0.4852  -0.4726  -0.4286  -0.4214  -0.4122  -0.3975
 -0.3902
 -- Virtual --
 -0.0359   0.0252   0.0408   0.0462   0.0515   0.0693   0.0748   0.0841
  0.1080   0.1178   0.1283   0.1338   0.1428   0.1533   0.1650   0.1755
  0.1945   0.2014   0.2149   0.2299   0.2318   0.2354   0.2434   0.2449
  0.2577   0.2710   0.2753   0.2828   0.2860   0.2944   0.2968   0.3024
  0.3156   0.3188   0.3290   0.3380   0.3423   0.3497   0.3619   0.3658
  0.3750   0.3814   0.3840   0.3949   0.3997   0.4089   0.4187   0.4327
  0.4472   0.4528   0.4672   0.4824   0.5002   0.5694   0.5901   0.5975
  0.6034   0.6283   0.6306   0.6699   0.6824   0.6978   0.6989   0.7170
  0.7488   0.7569   0.7747   0.7919   0.8180   0.8277   0.8448   0.8565
  0.9063   0.9232   0.9299   0.9494   0.9577   0.9816   1.0071   1.0469
  1.0751   1.0765   1.0866   1.1054   1.1187   1.1351   1.1468   1.1516
  1.1524   1.1722   1.1764   1.1952   1.2022   1.2145   1.2232   1.2525
  1.2543   1.2672   1.2902   1.2939   1.3234   1.3437   1.3645   1.3780
  1.3968   1.4080   1.4166   1.4439   1.4824   1.4883   1.4968   1.5360
  1.5473   1.5644   1.5921   1.6047   1.6118   1.6177   1.6575   1.6593
  1.6830   1.7029   1.7248   1.7283   1.7846   1.8165   1.8760   1.9031
  1.9118   1.9409   1.9467   1.9844   2.0159   2.0672   2.1280   2.1600
  2.1776   2.2126   2.2510   2.2780   2.3076   2.3167   2.3479   2.3639
  2.3780   2.3897   2.4227   2.4602   2.4674   2.4894   2.5213   2.5573
  2.6366   2.6836   2.7207   2.7856   2.7984   2.8157   2.8723   2.9311
  2.9815   3.0978   3.1132   3.1812   3.2669   3.2961   3.3199   3.3572
  3.3845   3.4141   3.4839   3.5173   3.5376   3.5826   3.6075   3.6214
  3.6537   3.6926   3.7213   3.7464   3.7729   3.8163   3.8226   3.8350
  3.8487   3.8603   3.8761   3.9028   3.9106   3.9511   4.0325   4.0726
  4.1117   4.1448   4.1710   4.2080   4.2189   4.2660   4.2804   4.2852
  4.3115   4.3551   4.3886   4.4169   4.4256   4.4487   4.5372   4.5848
  4.6517   4.6801   4.7199   4.7500   4.7922   4.8961   5.1086   5.1362
  5.1504   5.1877   5.1925   5.2116   5.2322   5.2389   5.2453   5.2595
  5.2637   5.2697   5.2787   5.2861   5.2991   5.3128   5.3166   5.3358
  5.3519   5.3697   5.4115   5.4324   5.4383   5.4645   5.4900   5.4950
  5.5527   5.5778   5.6003   5.6147   5.6294   5.6621   5.6657   5.6838
  5.7098   5.7310   5.7537   5.8222   5.9071   5.9500   5.9781   6.0389
  6.0702   6.1401   6.1964   6.4500   6.4644   6.5193   6.5633   6.7351
  6.7644   6.8499   6.9702   6.9883   7.0041   7.0387   7.0566   7.0798
  7.1175   7.1199   7.1302   7.1541   7.2363   7.2475   7.2777   7.2864
  7.3087   7.3145   7.3315   7.3753   7.3893   7.3943   7.4298   7.4531
  7.4764   7.5680   7.6149   7.6290   7.7013   7.7101   7.7345   7.8050
  7.8237   7.8747   7.9141   7.9660   8.0089  24.7540  24.8675  50.3941
 50.4695  50.5837  50.5953  50.6094  50.6682
 --------------------------------------------------------------
 
          Ground-State Mulliken Net Atomic Charges

     Atom                 Charge (a.u.)    Spin (a.u.)
  --------------------------------------------------------
      1 C                    -0.020196      -0.000395
      2 O                    -0.455733       0.000125
      3 C                    -0.158450       0.011856
      4 O                    -0.450228       0.000753
      5 O                    -0.452873      -0.001189
      6 O                    -0.414315      -0.000141
      7 H                     0.265065      -0.000259
      8 H                     0.324318       0.000035
      9 H                     0.355255      -0.000211
     10 H                     0.367740       0.005463
     11 H                     0.323239       0.000032
     12 O                    -0.273202       0.709591
     13 O                    -0.006612       0.284376
     14 H                     0.268048      -0.004225
     15 H                     0.327945      -0.005810
  --------------------------------------------------------
  Sum of atomic charges =    -0.000000
  Sum of spin   charges =     1.000000

 -----------------------------------------------------------------
                    Cartesian Multipole Moments
 -----------------------------------------------------------------
    Charge (ESU x 10^10)
                -0.0000
    Dipole Moment (Debye)
         X      -8.1633      Y      -0.7698      Z       0.4947
       Tot       8.2144
    Quadrupole Moments (Debye-Ang)
        XX     -42.1064     XY      -3.5340     YY     -48.4212
        XZ       7.3457     YZ      -4.4951     ZZ     -55.9450
    Octopole Moments (Debye-Ang^2)
       XXX     -99.9306    XXY     -12.5677    XYY       2.9779
       YYY     -54.6522    XXZ      24.4404    XYZ       0.6982
       YYZ       7.9293    XZZ     -10.3933    YZZ     -17.2359
       ZZZ      81.9619
    Hexadecapole Moments (Debye-Ang^3)
      XXXX    -684.9447   XXXY      90.1818   XXYY    -185.8756
      XYYY     131.5440   YYYY    -481.3586   XXXZ     143.7626
      XXYZ     -35.8103   XYYZ      28.8135   YYYZ     -75.6475
      XXZZ    -193.4817   XYZZ      44.5980   YYZZ    -127.3534
      XZZZ     121.2289   YZZZ     -73.2936   ZZZZ    -384.7618
 -----------------------------------------------------------------
 Calculating analytic gradient of the SCF energy
 Gradient of CDS energy
            1           2           3           4           5           6
    1   0.0026985  -0.0003922  -0.0013349   0.0010508   0.0004273  -0.0019922
    2   0.0036623   0.0005340  -0.0009895   0.0022327  -0.0014611  -0.0041768
    3   0.0003852   0.0003917  -0.0014364   0.0001856   0.0015544  -0.0004829
            7           8           9          10          11          12
    1  -0.0000542   0.0001366  -0.0002657  -0.0000681   0.0001372   0.0000539
    2  -0.0000578  -0.0004123  -0.0005332   0.0003452   0.0004437   0.0001020
    3   0.0001277  -0.0002801  -0.0001411  -0.0003215  -0.0001579   0.0000092
           13          14          15
    1   0.0002217  -0.0000135  -0.0006051
    2  -0.0000077   0.0001681   0.0001505
    3   0.0002192  -0.0001167   0.0000635
 Gradient of SCF Energy
            1           2           3           4           5           6
    1  -0.0041529   0.0060895   0.0042140   0.0199429   0.0192169   0.0066041
    2   0.0015256   0.0076868  -0.0049220  -0.0036859  -0.0142883  -0.0002859
    3  -0.0017345  -0.0044903  -0.0074556   0.0001201  -0.0072025   0.0041571
            7           8           9          10          11          12
    1  -0.0020241  -0.0022123  -0.0227444  -0.0192616  -0.0035735   0.0054425
    2  -0.0018649  -0.0055154   0.0068527   0.0081414   0.0024929  -0.0031304
    3   0.0021694   0.0030071  -0.0002747   0.0052293  -0.0011627   0.0036014
           13          14          15
    1   0.0167601  -0.0082040  -0.0160972
    2   0.0258506   0.0057900  -0.0246471
    3   0.0046828   0.0078042  -0.0084512
 Max gradient component =       2.585E-02
 RMS gradient           =       1.007E-02
 Computing fast CPCM-SWIG gradient
 Updating gradient with PCM contributions...
 -- total gradient after adding PCM contribution --
---------------------------------------------------
  Atom         X              Y              Z     
---------------------------------------------------
   1      -0.000895       0.000645      -0.000064
   2       0.000170       0.000034      -0.000194
   3      -0.001225       0.000388       0.000170
   4      -0.000997       0.000771       0.001090
   5      -0.000798      -0.000527       0.000437
   6      -0.000001       0.000397       0.000549
   7      -0.000306       0.000155       0.000599
   8       0.000050       0.000077       0.000571
   9       0.000225       0.000827      -0.001128
  10      -0.000290      -0.000365       0.000049
  11      -0.000154       0.000387      -0.000241
  12       0.001742      -0.002186      -0.000714
  13       0.001655      -0.001217      -0.000643
  14       0.000523       0.000520      -0.000302
  15       0.000302       0.000093      -0.000180
---------------------------------------------------
 Number of fixed atoms: 0
 Gradient time:  CPU 143.86 s  wall 22.45 s
rPathMan2.  file_steps = 952
 IRC --- Status = 4.  Checking bisector search.
 IRC --- Bisector search finished successfully.
 ------------------------------------------------------------------------
 Reaction path following.  The coordinates are cartesian              
 Step  20 E=    -531.687477 |G|=  0.004930 S_lin= 1.5144 S_tot= 1.6863
 ------------------------------------------------------------------------
  IRC -- convergence criterion reached.
 ----------------------------------------------------------------
             Standard Nuclear Orientation (Angstroms)
    I     Atom           X                Y                Z
 ----------------------------------------------------------------
    1      C       1.4200034624    -0.2579976046    -0.3644810182
    2      O       2.0152369936    -0.9222759067    -1.4637621480
    3      C      -0.0766918770    -0.1000323415    -0.5950827876
    4      O      -0.6873034121    -1.3359526123    -0.6079251737
    5      O      -0.3487189096     0.6944704493    -1.6902116310
    6      O       2.0266563211     0.9900973459    -0.2292224782
    7      H       1.5894440899    -0.8112642556     0.5582744064
    8      H       1.6787244355    -1.8265186906    -1.4939771350
    9      H      -1.5804943930    -1.2446208289    -0.9674115810
   10      H      -1.1239249765     1.2487190576    -1.4851617510
   11      H       1.7149694416     1.5545012763    -0.9502637065
   12      O      -1.2447290818     1.3719533684     1.0631001051
   13      O      -2.1050861248     1.8961379872     0.0984816611
   14      H      -0.5372817056     0.5695647917     0.4009323266
   15      H      -2.8690442638     1.2992997637     0.1182491111
 ----------------------------------------------------------------
 Nuclear Repulsion Energy =         434.71381378 hartrees
 There are       34 alpha and       33 beta electrons
 Here is where we should summarize the reaction path
 Total job time:  17124.42s(wall), 132405.94s(cpu) 
 Wed Jul 26 06:26:27 2023

        *************************************************************
        *                                                           *
        *  Thank you very much for using Q-Chem.  Have a nice day.  *
        *                                                           *
        *************************************************************


