
Running Job 1 of 2 Q_in.in
qchem Q_in.in_90695.0 /scratch/ari.fischer/qChem1641023.hpc-mn1/qchem90695/ 0
/usr/local/qchem-5.4.1/exe/qcprog.exe_s Q_in.in_90695.0 /scratch/ari.fischer/qChem1641023.hpc-mn1/qchem90695/
                  Welcome to Q-Chem
     A Quantum Leap Into The Future Of Chemistry


 Q-Chem 5.4, Q-Chem, Inc., Pleasanton, CA (2021)

 License issued to: Nanyang Technological University (site)

 E. Epifanovsky,  A. T. B. Gilbert,  Xintian Feng,  Joonho Lee,  Yuezhi Mao,  
 N. Mardirossian,  P. Pokhilko,  A. White,  M. Wormit,  M. P. Coons,  
 A. L. Dempwolff,  Zhengting Gan,  D. Hait,  P. R. Horn,  L. D. Jacobson,  
 I. Kaliman,  J. Kussmann,  A. W. Lange,  Ka Un Lao,  D. S. Levine,  Jie Liu,  
 S. C. McKenzie,  A. F. Morrison,  K. Nanda,  F. Plasser,  D. R. Rehn,  
 M. L. Vidal,  Zhi-Qiang You,  Ying Zhu,  B. Alam,  B. Albrecht,  
 A. Aldossary,  E. Alguire,  J. H. Andersen,  D. Barton,  K. Begam,  A. Behn,  
 Y. A. Bernard,  E. J. Berquist,  H. Burton,  A. Carreras,  K. Carter-Fenk,  
 R. Chakraborty,  A. D. Chien,  K. D. Closser,  V. Cofer-Shabica,  
 S. Dasgupta,  Jia Deng,  M. de Wergifosse,  M. Diedenhofen,  Hainam Do,  
 S. Ehlert,  Po-Tung Fang,  S. Fatehi,  Qingguo Feng,  T. Friedhoff,  
 J. Gayvert,  Qinghui Ge,  G. Gidofalvi,  M. Goldey,  J. Gomes,  
 C. Gonzalez-Espinoza,  S. Gulania,  A. Gunina,  M. W. D. Hanson-Heine,  
 P. H. P. Harbach,  A. W. Hauser,  M. F. Herbst,  M. Hernandez Vera,  
 M. Hodecker,  Z. C. Holden,  S. Houck,  Xunkun Huang,  Kerwin Hui,  
 B. C. Huynh,  M. Ivanov,  Hyunjun Ji,  Hanjie Jiang,  B. Kaduk,  S. Kaehler,  
 K. Khistyaev,  Jaehoon Kim,  P. Klunzinger,  Z. Koczor-Benda,  
 Joong Hoon Koh,  D. Kosenkov,  L. Koulias,  T. Kowalczyk,  C. M. Krauter,  
 K. Kue,  A. Kunitsa,  T. Kus,  A. Landau,  K. V. Lawler,  D. Lefrancois,  
 S. Lehtola,  Rain Li,  Yi-Pei Li,  Jiashu Liang,  M. Liebenthal,  
 Hung-Hsuan Lin,  You-Sheng Lin,  Fenglai Liu,  Kuan-Yu Liu,  
 M. Loipersberger,  A. Luenser,  A. Manjanath,  P. Manohar,  E. Mansoor,  
 S. F. Manzer,  Shan-Ping Mao,  A. V. Marenich,  T. Markovich,  S. Mason,  
 S. A. Maurer,  P. F. McLaughlin,  M. F. S. J. Menger,  J.-M. Mewes,  
 S. A. Mewes,  P. Morgante,  J. W. Mullinax,  K. J. Oosterbaan,  G. Paran,  
 Alexander C. Paul,  Suranjan K. Paul,  F. Pavosevic,  Zheng Pei,  S. Prager,  
 E. I. Proynov,  E. Ramos,  B. Rana,  A. E. Rask,  A. Rettig,  R. M. Richard,  
 F. Rob,  E. Rossomme,  T. Scheele,  M. Scheurer,  M. Schneider,  
 N. Sergueev,  S. M. Sharada,  W. Skomorowski,  D. W. Small,  C. J. Stein,  
 Yu-Chuan Su,  E. J. Sundstrom,  Zhen Tao,  J. Thirman,  T. Tsuchimochi,  
 N. M. Tubman,  S. P. Veccham,  O. Vydrov,  J. Wenzel,  J. Witte,  A. Yamada,  
 Kun Yao,  S. Yeganeh,  S. R. Yost,  A. Zech,  Igor Ying Zhang,  Xing Zhang,  
 Yu Zhang,  D. Zuev,  A. Aspuru-Guzik,  A. T. Bell,  N. A. Besley,  
 K. B. Bravaya,  B. R. Brooks,  D. Casanova,  Jeng-Da Chai,  S. Coriani,  
 C. J. Cramer,  A. E. DePrince, III,  R. A. DiStasio Jr.,  A. Dreuw,  
 B. D. Dunietz,  T. R. Furlani,  W. A. Goddard III,  S. Grimme,  
 S. Hammes-Schiffer,  T. Head-Gordon,  W. J. Hehre,  Chao-Ping Hsu,  
 T.-C. Jagau,  Yousung Jung,  A. Klamt,  Jing Kong,  D. S. Lambrecht,  
 WanZhen Liang,  N. J. Mayhall,  C. W. McCurdy,  J. B. Neaton,  
 C. Ochsenfeld,  J. A. Parkhill,  R. Peverati,  V. A. Rassolov,  Yihan Shao,  
 L. V. Slipchenko,  T. Stauch,  R. P. Steele,  J. E. Subotnik,  
 A. J. W. Thom,  A. Tkatchenko,  D. G. Truhlar,  T. Van Voorhis,  
 T. A. Wesolowski,  K. B. Whaley,  H. L. Woodcock III,  P. M. Zimmerman,  
 S. Faraji,  P. M. W. Gill,  M. Head-Gordon,  J. M. Herbert,  A. I. Krylov

 Additional authors for Version 5.4.1: 
 S. Kotaru,  Shaozhi Li,  Xiangyuan Li,  F. Matz,  A. Molle,  Haisheng Ren,  
 Yingli Su,  Hung-Yi Tsai,  C. Utku,  Fang Wang

 Contributors to earlier versions of Q-Chem not listed above: 
 R. D. Adamson,  B. Austin,  R. Baer,  J. Baker,  G. J. O. Beran,  
 K. Brandhorst,  S. T. Brown,  E. F. C. Byrd,  A. K. Chakraborty,  
 G. K. L. Chan,  Chun-Min Chang,  Yunqing Chen,  C.-L. Cheng,  
 Siu Hung Chien,  D. M. Chipman,  D. L. Crittenden,  H. Dachsel,  
 R. J. Doerksen,  A. D. Dutoi,  R. G. Edgar,  J. Fosso-Tande,  
 L. Fusti-Molnar,  D. Ghosh,  A. Ghysels,  A. Golubeva-Zadorozhnaya,  
 J. Gonthier,  M. S. Gordon,  S. R. Gwaltney,  G. Hawkins,  J. E. Herr,  
 A. Heyden,  S. Hirata,  E. G. Hohenstein,  G. Kedziora,  F. J. Keil,  
 C. Kelley,  Jihan Kim,  R. A. King,  R. Z. Khaliullin,  P. P. Korambath,  
 W. Kurlancheek,  A. Laurent,  A. M. Lee,  M. S. Lee,  S. V. Levchenko,  
 Ching Yeh Lin,  D. Liotard,  E. Livshits,  R. C. Lochan,  I. Lotan,  
 L. A. Martinez-Martinez,  P. E. Maslen,  N. Nair,  D. P. O'Neill,  
 D. Neuhauser,  E. Neuscamman,  C. M. Oana,  R. Olivares-Amaya,  R. Olson,  
 T. M. Perrine,  B. Peters,  P. A. Pieniazek,  A. Prociuk,  Y. M. Rhee,  
 J. Ritchie,  M. A. Rohrdanz,  E. Rosta,  N. J. Russ,  H. F. Schaefer III,  
 M. W. Schmidt,  N. E. Schultz,  S. Sharma,  N. Shenvi,  C. D. Sherrill,  
 A. C. Simmonett,  A. Sodt,  T. Stein,  D. Stuck,  K. S. Thanthiriwatte,  
 V. Vanovschi,  L. Vogt,  Tao Wang,  A. Warshel,  M. A. Watson,  
 C. F. Williams,  Q. Wu,  X. Xu,  Jun Yang,  W. Zhang,  Yan Zhao

 Please cite Q-Chem as follows:
 Y. Shao et al., Mol. Phys. 113, 184-215 (2015)
 DOI: 10.1080/00268976.2014.952696

 Q-Chem 5.4.1 for Intel X86 EM64T Linux

 Parts of Q-Chem use Armadillo 9.800.1 (Horizon Scraper).
 http://arma.sourceforge.net/

 Q-Chem begins on Fri Jul 21 21:26:20 2023  

 Host: 
0

     Scratch files written to /scratch/ari.fischer/qChem1641023.hpc-mn1/qchem90695//
 Aug1521 |scratch|qcdevops|jenkins|workspace|build_RNUM 8249   
 Processing $rem in /usr/local/qchem-5.4.1/config/preferences:
 Processing $rem in /home/ari.fischer/.qchemrc:
 Symmetry turned off for PCM/SM12/SMD calculation


!!********************************************.
!!******************Warning*******************.
!!Desired Analytical derivatives not available.
!!Finite difference job might take a long time.
!!********************************************.
!!********************************************.


 2-order derivative to be evaluated numerically with 1-order analytical derivatives

 Checking the input file for inconsistencies... 	...done.

--------------------------------------------------------------
User input:
--------------------------------------------------------------
$molecule
0 2
C    1.2946813   -0.1306123   -0.4106350
O    2.1171092   -0.7349785   -1.3785423
C   -0.1874899   -0.2463539   -0.7951645
O   -0.5438793   -1.6003373   -0.8723816
O   -0.4055921    0.3727419   -2.0349266
O    1.6600042    1.2154524   -0.2514392
H    1.4529005   -0.6268282    0.5749081
H    2.1207465   -1.7093450   -1.1883492
H   -1.5346954   -1.6280010   -0.8327439
H   -1.3803867    0.5490387   -2.0873820
H    1.6957058    1.6226557   -1.1562667
O   -1.8165179    0.8879198    1.0139535
O   -1.5381712    2.1708467    1.1276255
H   -0.9196065    0.3658325    0.2005060
H   -2.1430485    2.6180503    0.4823761
$end

$rem
BASIS = 6-311++G(2df,2p)
GUI = 2
JOB_TYPE = Frequency
METHOD = wB97M-V
SCF_ALGORITHM = DIIS_GDM
MAX_SCF_CYCLES = 400
SCF_CONVERGENCE = 6
THRESH = 11
SYMMETRY_IGNORE = 1
solvent_method = SMD
$end

--------------------------------------------------------------
 ----------------------------------------------------------------
             Standard Nuclear Orientation (Angstroms)
    I     Atom           X                Y                Z
 ----------------------------------------------------------------
    1      C       1.2946813000    -0.1306123000    -0.4106350000
    2      O       2.1171092000    -0.7349785000    -1.3785423000
    3      C      -0.1874899000    -0.2463539000    -0.7951645000
    4      O      -0.5438793000    -1.6003373000    -0.8723816000
    5      O      -0.4055921000     0.3727419000    -2.0349266000
    6      O       1.6600042000     1.2154524000    -0.2514392000
    7      H       1.4529005000    -0.6268282000     0.5749081000
    8      H       2.1207465000    -1.7093450000    -1.1883492000
    9      H      -1.5346954000    -1.6280010000    -0.8327439000
   10      H      -1.3803867000     0.5490387000    -2.0873820000
   11      H       1.6957058000     1.6226557000    -1.1562667000
   12      O      -1.8165179000     0.8879198000     1.0139535000
   13      O      -1.5381712000     2.1708467000     1.1276255000
   14      H      -0.9196065000     0.3658325000     0.2005060000
   15      H      -2.1430485000     2.6180503000     0.4823761000
 ----------------------------------------------------------------
 Nuclear Repulsion Energy =         422.88308252 hartrees
 There are       34 alpha and       33 beta electrons
 Requested basis set is 6-311++G(2df,2p)
 There are 106 shells and 342 basis functions

 Total QAlloc Memory Limit 288000 MB
 Mega-Array Size       188 MB
 MEM_STATIC part       192 MB
 
 Citation of the SMD model:
 Marenich, A.V.; Cramer, C.J.; Truhlar, D.G.
 J. Phys. Chem. B 2009, 113, 6378-6396.
 iSolventCode=           1
 Solvent: water                                                           
 
 vradii
            1           2           3           4           5           6
    1   1.8500000   1.5200000   1.8500000   1.5200000   1.5200000   1.5200000
            7           8           9          10          11          12
    1   1.2000000   1.2000000   1.2000000   1.2000000   1.2000000   1.5200000
           13          14          15
    1   1.5200000   1.2000000   1.2000000
 Changing PCM_VDW_RADII to SMD_RADIUS
 Discretize the solute cavity surface with Lebedev spheres
	Using 110 Lebedev grid points for each H atom
	Using 194 Lebedev grid points for other atoms
	Atomic van der Waals radii will be scaled by 1.20
 Remove points where switching function is < 1.0e-08
 Keep 1279 surface tesserae and discard 1043 interior tesserae
 Molecular Surface Area = 146.400 Angst**2

                       Distance Matrix (Angstroms)
             C (  1)   O (  2)   C (  3)   O (  4)   O (  5)   O (  6)
   O (  2)  1.406588
   C (  3)  1.535608  2.426986
   O (  4)  2.398668  2.843572  1.402229
   O (  5)  2.404708  2.832297  1.402804  2.294270
   O (  6)  1.403814  2.298584  2.417798  3.629235  2.856165
   H (  7)  1.114701  2.066117  2.170885  2.651320  3.356244  2.029714
   H (  8)  1.944124  0.992762  2.760959  2.685507  3.381444  3.105563
   H (  9)  3.228889  3.798824  1.930110  0.991994  2.592892  4.316161
   H ( 10)  3.229457  3.792576  1.930150  2.606873  0.991996  3.613692
   H ( 11)  1.946981  2.405291  2.677689  3.934973  2.598034  0.992876
   O ( 12)  3.570213  4.881727  2.685743  3.371838  3.398792  3.714122
   O ( 13)  3.960810  5.299601  3.371101  4.382975  3.810204  3.611499
   H ( 14)  2.350111  3.595389  1.379176  2.271141  2.293778  2.753271
   H ( 15)  4.491169  5.731907  3.696097  4.710361  3.794335  4.119342
             H (  7)   H (  8)   H (  9)   H ( 10)   H ( 11)   O ( 12)
   H (  8)  2.174152
   H (  9)  3.451023  3.673599
   H ( 10)  4.061769  4.262217  2.517425
   H ( 11)  2.848877  3.359154  4.594228  3.388506
   O ( 12)  3.629920  5.205571  3.133620  3.150132  4.193496
   O ( 13)  4.132674  5.814405  4.274846  3.604363  3.996828  1.317687
   H ( 14)  2.598912  3.934339  2.328371  2.341007  3.203170  1.318606
   H ( 15)  4.844445  6.300605  4.486489  3.386166  4.290920  1.839171
             O ( 13)   H ( 14)
   H ( 14)  2.121379
   H ( 15)  0.991067  2.578516
 
 A cutoff of  1.0D-11 yielded   4970 shell pairs
 There are     51111 function pairs (     63210 Cartesian)
 Smallest overlap matrix eigenvalue = 3.93E-05
 Guess from superposition of atomic densities
 Warning:  Energy on first SCF cycle will be non-variational
 SAD guess density has 67.000000 electrons

 -----------------------------------------------------------------------
  General SCF calculation program by
  Eric Jon Sundstrom, Paul Horn, Yuezhi Mao, Dmitri Zuev, Alec White,
  David Stuck, Shaama M.S., Shane Yost, Joonho Lee, David Small,
  Daniel Levine, Susi Lehtola, Hugh Burton, Evgeny Epifanovsky,
  Bang C. Huynh
 -----------------------------------------------------------------------
 Exchange:     0.1500 Hartree-Fock + 1.0000 wB97M-V + LR-HF
 Correlation:  1.0000 wB97M-V
 Using SG-2 standard quadrature grid
 Nonlocal Correlation:  VV10 with C = 0.0100 and b = 6.00 and scale = 1.00000
 Grid used for NLC:  SG-1 standard quadrature
 using 16 threads for integral computing
 -------------------------------------------------------
 OpenMP Integral computing Module                
 Release: version 1.0, May 2013, Q-Chem Inc. Pittsburgh 
 -------------------------------------------------------
 
 Citation of the SMD model:
 Marenich, A.V.; Cramer, C.J.; Truhlar, D.G.
 J. Phys. Chem. B 2009, 113, 6378-6396.
 iSolventCode=           1
 Solvent: water                                                           
 
 vradii
            1           2           3           4           5           6
    1   1.8500000   1.5200000   1.8500000   1.5200000   1.5200000   1.5200000
            7           8           9          10          11          12
    1   1.2000000   1.2000000   1.2000000   1.2000000   1.2000000   1.5200000
           13          14          15
    1   1.5200000   1.2000000   1.2000000
 -------------------------------------------------------
 OpenMP BLAS3 based DFT computing Module                
 Release: version 1.0, May 2013, Q-Chem Inc. Pittsburgh 
 -------------------------------------------------------
 A unrestricted SCF calculation will be
 performed using DIIS, GDM
 SCF converges when RMS gradient is below 1.0e-06
 ---------------------------------------
  Cycle       Energy         DIIS error
 ---------------------------------------
    1    -532.6663994835      1.28e-02  
    2    -531.4752432253      1.90e-03  Done DIIS. Switching to GDM
 ---------------------------------------
  Cycle       Energy        RMS Gradient
 ---------------------------------------
    1    -531.4752432253      7.22e-02   Descent step
    2    -531.6227498210      3.19e-02   Normal BFGS step
    3    -531.6440959476      2.27e-02   Normal BFGS step
    4    -531.6460122579      1.07e-02   Normal BFGS step
    5    -531.6464602938      9.19e-03   Normal BFGS step
    6    -531.6467249068      5.80e-03   Normal BFGS step
    7    -531.6467958370      1.43e-03   Normal BFGS step
    8    -531.6468233054      1.31e-03   Normal BFGS step
    9    -531.6468321428      5.90e-04   Normal BFGS step
   10    -531.6468340062      1.97e-04   Normal BFGS step
   11    -531.6468343568      2.00e-04   Normal BFGS step
   12    -531.6468344610      1.49e-04   Normal BFGS step
   13    -531.6468345218      7.19e-05   Normal BFGS step
   14    -531.6468345479      3.76e-05   Normal BFGS step
   15    -531.6468345595      1.67e-05   Normal BFGS step
   16    -531.6468345606      6.43e-06   Normal BFGS step
   17    -531.6468345611      1.29e-06   Normal BFGS step
   18    -531.6468345612      5.19e-07  Convergence criterion met
 ---------------------------------------
 SCF time:   CPU 1197.26s  wall 82.00s 
<S^2> =          0.759230169
(3)  G-ENP(liq) elect-nuc-pol free energy of system     -531.646834561 a.u.
(4)  G-CDS(liq) cavity-dispersion-solvent structure 
     free energy                                                3.5519 kcal/mol
(6)  G-S(liq) free energy of system                     -531.641174310 a.u.
 SCF   energy in the final basis set =     -531.6411743097
 Total energy in the final basis set =     -531.6411743097
 
 --------------------------------------------------------------
 
                    Orbital Energies (a.u.)
 --------------------------------------------------------------
 
 Alpha MOs
 -- Occupied --
-19.4241 -19.4141 -19.3583 -19.3583 -19.3521 -19.3512 -10.4611 -10.4535
 -1.3216  -1.2202  -1.1912  -1.1409  -1.1322  -0.9919  -0.8459  -0.7363
 -0.6900  -0.6684  -0.6501  -0.6353  -0.6155  -0.5871  -0.5844  -0.5761
 -0.5164  -0.5066  -0.4999  -0.4720  -0.4333  -0.4275  -0.4142  -0.4105
 -0.3958  -0.3369
 -- Virtual --
  0.0235   0.0379   0.0433   0.0526   0.0622   0.0707   0.0930   0.1051
  0.1095   0.1284   0.1328   0.1423   0.1506   0.1635   0.1674   0.1773
  0.2011   0.2113   0.2178   0.2191   0.2323   0.2444   0.2489   0.2558
  0.2615   0.2736   0.2806   0.2883   0.2903   0.3022   0.3043   0.3064
  0.3229   0.3295   0.3380   0.3421   0.3487   0.3531   0.3598   0.3696
  0.3808   0.3859   0.3881   0.3972   0.4036   0.4142   0.4212   0.4258
  0.4540   0.4598   0.4823   0.5059   0.5727   0.5854   0.5873   0.5980
  0.6123   0.6172   0.6265   0.6621   0.6782   0.6882   0.7190   0.7221
  0.7521   0.7544   0.7886   0.8274   0.8409   0.8482   0.8716   0.8945
  0.9163   0.9220   0.9486   0.9839   0.9880   1.0138   1.0263   1.0371
  1.0494   1.0769   1.0956   1.1125   1.1264   1.1473   1.1503   1.1538
  1.1643   1.1968   1.1983   1.2041   1.2150   1.2298   1.2415   1.2537
  1.2719   1.2766   1.2834   1.2924   1.3329   1.3522   1.3713   1.4161
  1.4312   1.4368   1.4534   1.4761   1.4830   1.5144   1.5281   1.5437
  1.5514   1.5717   1.5975   1.6194   1.6240   1.6396   1.6581   1.6722
  1.7210   1.7576   1.7894   1.8313   1.8469   1.8761   1.9181   1.9302
  1.9441   1.9767   2.0166   2.0502   2.0887   2.1116   2.1327   2.1807
  2.2316   2.2739   2.3118   2.3278   2.3382   2.3458   2.3582   2.3952
  2.4048   2.4237   2.4354   2.4583   2.5079   2.5441   2.5961   2.6379
  2.6781   2.7243   2.7486   2.7879   2.8714   2.8788   2.9413   3.0028
  3.0708   3.1397   3.1629   3.1902   3.2701   3.3087   3.3605   3.3846
  3.4223   3.4568   3.5140   3.5519   3.5678   3.6214   3.6328   3.6391
  3.6717   3.7208   3.7230   3.7516   3.7983   3.8099   3.8230   3.8333
  3.8489   3.8643   3.8742   3.8984   3.9407   3.9708   4.0262   4.0430
  4.0957   4.1391   4.1484   4.1584   4.1748   4.1927   4.2352   4.2392
  4.2649   4.2891   4.3031   4.3352   4.3719   4.4329   4.4938   4.5588
  4.6500   4.6884   4.7508   4.7742   4.8075   4.9251   5.1126   5.1285
  5.1698   5.1918   5.2140   5.2192   5.2322   5.2437   5.2492   5.2547
  5.2685   5.2785   5.2929   5.3043   5.3168   5.3329   5.3433   5.3477
  5.3759   5.3813   5.3915   5.4419   5.4654   5.4843   5.5083   5.5250
  5.5580   5.5828   5.5928   5.6050   5.6223   5.6333   5.6408   5.6870
  5.7048   5.8034   5.8685   5.9106   5.9292   5.9457   6.0045   6.0594
  6.1000   6.1597   6.4065   6.4180   6.4516   6.5368   6.7270   6.7648
  6.8847   6.9826   6.9949   7.0213   7.0532   7.0617   7.0808   7.0865
  7.1048   7.1278   7.1368   7.1406   7.1724   7.1789   7.2292   7.2593
  7.3031   7.3292   7.3445   7.3588   7.3802   7.4060   7.4195   7.5047
  7.5783   7.6045   7.6258   7.6680   7.6936   7.7297   7.7859   7.8082
  7.8692   7.8977   7.9797   8.0443  24.6498  24.7954  50.4296  50.4913
 50.5654  50.5729  50.6046  50.6470
 
 Beta MOs
 -- Occupied --
-19.4193 -19.3989 -19.3572 -19.3571 -19.3521 -19.3507 -10.4549 -10.4534
 -1.3032  -1.2176  -1.1894  -1.1386  -1.1308  -0.9658  -0.8405  -0.7329
 -0.6766  -0.6633  -0.6434  -0.6185  -0.6120  -0.5753  -0.5738  -0.5464
 -0.5098  -0.5008  -0.4982  -0.4693  -0.4295  -0.4117  -0.3989  -0.3934
 -0.3694
 -- Virtual --
 -0.0548   0.0240   0.0382   0.0436   0.0529   0.0625   0.0709   0.0938
  0.1057   0.1096   0.1283   0.1337   0.1430   0.1508   0.1641   0.1692
  0.1813   0.2026   0.2123   0.2191   0.2206   0.2343   0.2472   0.2501
  0.2597   0.2638   0.2743   0.2841   0.2907   0.2930   0.3038   0.3065
  0.3112   0.3254   0.3306   0.3395   0.3458   0.3496   0.3539   0.3613
  0.3743   0.3837   0.3865   0.3962   0.3991   0.4061   0.4182   0.4241
  0.4287   0.4558   0.4618   0.4832   0.5072   0.5753   0.5871   0.5889
  0.5990   0.6137   0.6185   0.6280   0.6643   0.6827   0.6892   0.7195
  0.7229   0.7540   0.7587   0.7899   0.8288   0.8420   0.8500   0.8730
  0.8960   0.9176   0.9237   0.9499   0.9900   0.9914   1.0163   1.0276
  1.0387   1.0522   1.0792   1.0973   1.1139   1.1287   1.1512   1.1545
  1.1574   1.1683   1.1999   1.2006   1.2084   1.2207   1.2326   1.2436
  1.2592   1.2791   1.2802   1.2884   1.2958   1.3360   1.3549   1.3738
  1.4188   1.4342   1.4407   1.4569   1.4786   1.4849   1.5152   1.5323
  1.5493   1.5543   1.5733   1.6023   1.6252   1.6299   1.6490   1.6653
  1.6763   1.7236   1.7651   1.7948   1.8357   1.8490   1.8790   1.9234
  1.9333   1.9458   1.9845   2.0205   2.0518   2.0910   2.1201   2.1355
  2.1832   2.2368   2.2797   2.3142   2.3310   2.3409   2.3514   2.3622
  2.4020   2.4089   2.4270   2.4413   2.4640   2.5138   2.5491   2.5981
  2.6490   2.6812   2.7279   2.7518   2.7910   2.8671   2.8803   2.9393
  3.0100   3.0690   3.1485   3.1646   3.1933   3.2750   3.3131   3.3661
  3.3932   3.4286   3.4628   3.5181   3.5582   3.5717   3.6246   3.6388
  3.6524   3.6897   3.7276   3.7409   3.7606   3.8056   3.8145   3.8265
  3.8353   3.8523   3.8684   3.8778   3.9050   3.9442   3.9820   4.0323
  4.0454   4.1007   4.1339   4.1448   4.1600   4.1761   4.1897   4.2283
  4.2415   4.2662   4.2956   4.3039   4.3387   4.3735   4.4330   4.5015
  4.5609   4.6609   4.7029   4.7667   4.7853   4.8168   4.9436   5.1450
  5.1551   5.1766   5.2058   5.2180   5.2343   5.2409   5.2492   5.2524
  5.2703   5.2729   5.2824   5.2945   5.3076   5.3187   5.3369   5.3514
  5.3728   5.3795   5.3920   5.4022   5.4447   5.4693   5.5008   5.5096
  5.5269   5.5624   5.5855   5.5955   5.6181   5.6266   5.6368   5.6468
  5.6922   5.7197   5.8103   5.8728   5.9207   5.9392   5.9488   6.0082
  6.0627   6.1029   6.1627   6.4148   6.4262   6.4819   6.5387   6.7317
  6.7669   6.9253   7.0016   7.0266   7.0535   7.0626   7.0648   7.0840
  7.1038   7.1180   7.1310   7.1378   7.1484   7.1747   7.1799   7.2331
  7.2658   7.3065   7.3433   7.3544   7.3853   7.3968   7.4122   7.4215
  7.5215   7.5894   7.6231   7.6389   7.6717   7.6988   7.7306   7.7877
  7.8098   7.8705   7.9019   7.9894   8.0692  24.6536  24.7973  50.4357
 50.5005  50.5660  50.5734  50.6054  50.6475
 --------------------------------------------------------------
 
          Ground-State Mulliken Net Atomic Charges

     Atom                 Charge (a.u.)    Spin (a.u.)
  --------------------------------------------------------
      1 C                     0.078860      -0.013240
      2 O                    -0.462298       0.014257
      3 C                    -0.286974       0.317339
      4 O                    -0.418205       0.033396
      5 O                    -0.416798       0.033910
      6 O                    -0.426369       0.000510
      7 H                     0.267106      -0.001539
      8 H                     0.348633      -0.000102
      9 H                     0.359446       0.000893
     10 H                     0.367100      -0.000112
     11 H                     0.339518       0.000539
     12 O                    -0.306124       0.472141
     13 O                    -0.162104       0.164330
     14 H                     0.387371      -0.017664
     15 H                     0.330838      -0.004656
  --------------------------------------------------------
  Sum of atomic charges =     0.000000
  Sum of spin   charges =     1.000000

 -----------------------------------------------------------------
                    Cartesian Multipole Moments
 -----------------------------------------------------------------
    Charge (ESU x 10^10)
                 0.0000
    Dipole Moment (Debye)
         X      -4.9281      Y       0.0459      Z      -1.3397
       Tot       5.1071
    Quadrupole Moments (Debye-Ang)
        XX     -41.9341     XY      -7.9468     YY     -39.9906
        XZ       8.4623     YZ      -5.8435     ZZ     -55.5747
    Octopole Moments (Debye-Ang^2)
       XXX     -45.6094    XXY      -9.4126    XYY     -15.8575
       YYY     -17.0281    XXZ      10.3196    XYZ      -0.7039
       YYZ      10.1954    XZZ      -9.4345    YZZ     -10.1679
       ZZZ      75.4196
    Hexadecapole Moments (Debye-Ang^3)
      XXXX    -616.2150   XXXY      25.3875   XXYY     -88.8107
      XYYY       5.8798   YYYY    -362.4161   XXXZ     139.7648
      XXYZ     -33.5037   XYYZ      19.7868   YYYZ     -94.3468
      XXZZ    -166.5488   XYZZ      32.5706   YYZZ    -144.1315
      XZZZ     136.0125   YZZZ    -105.4467   ZZZZ    -453.2716
 -----------------------------------------------------------------
 Calculating analytic gradient of the SCF energy
 Gradient of CDS energy
            1           2           3           4           5           6
    1   0.0027300  -0.0017097  -0.0014402   0.0009890   0.0006500  -0.0009417
    2   0.0021490   0.0012317  -0.0018924   0.0034434  -0.0016456  -0.0032463
    3  -0.0009821   0.0016411  -0.0027397   0.0000439   0.0028114  -0.0004120
            7           8           9          10          11          12
    1  -0.0000276   0.0002919  -0.0003046  -0.0002555   0.0001678   0.0000767
    2  -0.0001458  -0.0003916  -0.0004238   0.0002749   0.0004289   0.0000734
    3   0.0001195  -0.0001270   0.0000302  -0.0003653  -0.0001850   0.0002402
           13          14          15
    1   0.0000822  -0.0001021  -0.0002063
    2  -0.0002742   0.0000708   0.0003475
    3   0.0002187  -0.0000498  -0.0002441
 Gradient of SCF Energy
            1           2           3           4           5           6
    1   0.0029853   0.0001035   0.0116699   0.0435760   0.0487012  -0.0006919
    2   0.0059069   0.0352847  -0.0102127  -0.0078378  -0.0177189  -0.0041058
    3  -0.0236300  -0.0083118  -0.0111888  -0.0158013  -0.0142786   0.0323618
            7           8           9          10          11          12
    1   0.0047274  -0.0006861  -0.0420893  -0.0447750   0.0021194   0.0025171
    2  -0.0113250  -0.0337147   0.0055740   0.0065041   0.0111834   0.0371964
    3   0.0141027   0.0111217   0.0028793   0.0046793  -0.0255790   0.0049237
           13          14          15
    1   0.0208849  -0.0242761  -0.0247665
    2  -0.0507053   0.0217484   0.0122221
    3   0.0226075   0.0318081  -0.0256947
 Max gradient component =       5.071E-02
 RMS gradient           =       2.268E-02
 Computing fast CPCM-SWIG gradient
 Updating gradient with PCM contributions...
 -- total gradient after adding PCM contribution --
---------------------------------------------------
  Atom         X              Y              Z     
---------------------------------------------------
   1       0.007004       0.004139      -0.020479
   2      -0.001901       0.025106      -0.002107
   3       0.007136      -0.007686      -0.011017
   4       0.025112      -0.005847      -0.012948
   5       0.025766      -0.011803      -0.011490
   6      -0.002994      -0.004481       0.024960
   7       0.004588      -0.007699       0.012349
   8      -0.001030      -0.024639       0.006600
   9      -0.023304       0.003385       0.002500
  10      -0.023330       0.003160       0.002919
  11       0.003091       0.008382      -0.021514
  12       0.004372       0.036939       0.000922
  13       0.006909      -0.043158       0.009575
  14      -0.018906       0.019134       0.030981
  15      -0.012515       0.005068      -0.011251
---------------------------------------------------
 Number of fixed atoms: 0
 Gradient time:  CPU 153.36 s  wall 14.34 s
 ######################################################
 ######################################################
 # Starting finite difference calculation for IDERIV  #
 Finite diff step size:  1.88973e-03 a.u.
 ----------------------------------------------------------------
             Standard Nuclear Orientation (Angstroms)
    I     Atom           X                Y                Z
 ----------------------------------------------------------------
    1      C       1.2956813000    -0.1306123000    -0.4106350000
    2      O       2.1171092000    -0.7349785000    -1.3785423000
    3      C      -0.1874899000    -0.2463539000    -0.7951645000
    4      O      -0.5438793000    -1.6003373000    -0.8723816000
    5      O      -0.4055921000     0.3727419000    -2.0349266000
    6      O       1.6600042000     1.2154524000    -0.2514392000
    7      H       1.4529005000    -0.6268282000     0.5749081000
    8      H       2.1207465000    -1.7093450000    -1.1883492000
    9      H      -1.5346954000    -1.6280010000    -0.8327439000
   10      H      -1.3803867000     0.5490387000    -2.0873820000
   11      H       1.6957058000     1.6226557000    -1.1562667000
   12      O      -1.8165179000     0.8879198000     1.0139535000
   13      O      -1.5381712000     2.1708467000     1.1276255000
   14      H      -0.9196065000     0.3658325000     0.2005060000
   15      H      -2.1430485000     2.6180503000     0.4823761000
 ----------------------------------------------------------------
 Nuclear Repulsion Energy =         422.87647417 hartrees
 There are       34 alpha and       33 beta electrons
 Discretize the solute cavity surface with Lebedev spheres
	Using 110 Lebedev grid points for each H atom
	Using 194 Lebedev grid points for other atoms
	Atomic van der Waals radii will be scaled by 1.20
 Remove points where switching function is < 1.0e-08
 Keep 1279 surface tesserae and discard 1043 interior tesserae
 Molecular Surface Area = 146.401 Angst**2

                       Distance Matrix (Angstroms)
             C (  1)   O (  2)   C (  3)   O (  4)   O (  5)   O (  6)
   O (  2)  1.406004
   C (  3)  1.536573  2.426986
   O (  4)  2.399434  2.843572  1.402229
   O (  5)  2.405415  2.832297  1.402804  2.294270
   O (  6)  1.403554  2.298584  2.417798  3.629235  2.856165
   H (  7)  1.114560  2.066117  2.170885  2.651320  3.356244  2.029714
   H (  8)  1.943700  0.992762  2.760959  2.685507  3.381444  3.105563
   H (  9)  3.229765  3.798824  1.930110  0.991994  2.592892  4.316161
   H ( 10)  3.230286  3.792576  1.930150  2.606873  0.991996  3.613692
   H ( 11)  1.946776  2.405291  2.677689  3.934973  2.598034  0.992876
   O ( 12)  3.571084  4.881727  2.685743  3.371838  3.398792  3.714122
   O ( 13)  3.961525  5.299601  3.371101  4.382975  3.810204  3.611499
   H ( 14)  2.351053  3.595389  1.379176  2.271141  2.293778  2.753271
   H ( 15)  4.491935  5.731907  3.696097  4.710361  3.794335  4.119342
             H (  7)   H (  8)   H (  9)   H ( 10)   H ( 11)   O ( 12)
   H (  8)  2.174152
   H (  9)  3.451023  3.673599
   H ( 10)  4.061769  4.262217  2.517425
   H ( 11)  2.848877  3.359154  4.594228  3.388506
   O ( 12)  3.629920  5.205571  3.133620  3.150132  4.193496
   O ( 13)  4.132674  5.814405  4.274846  3.604363  3.996828  1.317687
   H ( 14)  2.598912  3.934339  2.328371  2.341007  3.203170  1.318606
   H ( 15)  4.844445  6.300605  4.486489  3.386166  4.290920  1.839171
             O ( 13)   H ( 14)
   H ( 14)  2.121379
   H ( 15)  0.991067  2.578516
 
 Requested basis set is 6-311++G(2df,2p)
 There are 106 shells and 342 basis functions
 A cutoff of  1.0D-11 yielded   4970 shell pairs
 There are     51111 function pairs (     63210 Cartesian)
 Smallest overlap matrix eigenvalue = 3.94E-05
 Guess MOs from SCF MO coefficient file

 -----------------------------------------------------------------------
  General SCF calculation program by
  Eric Jon Sundstrom, Paul Horn, Yuezhi Mao, Dmitri Zuev, Alec White,
  David Stuck, Shaama M.S., Shane Yost, Joonho Lee, David Small,
  Daniel Levine, Susi Lehtola, Hugh Burton, Evgeny Epifanovsky,
  Bang C. Huynh
 -----------------------------------------------------------------------
 Exchange:     0.1500 Hartree-Fock + 1.0000 wB97M-V + LR-HF
 Correlation:  1.0000 wB97M-V
 Using SG-2 standard quadrature grid
 Nonlocal Correlation:  VV10 with C = 0.0100 and b = 6.00 and scale = 1.00000
 Grid used for NLC:  SG-1 standard quadrature
 
 Citation of the SMD model:
 Marenich, A.V.; Cramer, C.J.; Truhlar, D.G.
 J. Phys. Chem. B 2009, 113, 6378-6396.
 iSolventCode=           1
 Solvent: water                                                           
 
 vradii
            1           2           3           4           5           6
    1   1.8500000   1.5200000   1.8500000   1.5200000   1.5200000   1.5200000
            7           8           9          10          11          12
    1   1.2000000   1.2000000   1.2000000   1.2000000   1.2000000   1.5200000
           13          14          15
    1   1.5200000   1.2000000   1.2000000
 -------------------------------------------------------
 OpenMP BLAS3 based DFT computing Module                
 Release: version 1.0, May 2013, Q-Chem Inc. Pittsburgh 
 -------------------------------------------------------
 A unrestricted SCF calculation will be
 performed using Roothaan-Hall, DIIS, GDM
 SCF converges when RMS gradient is below 1.0e-06
 ---------------------------------------
  Cycle       Energy         DIIS error
 ---------------------------------------
    1    -531.5893786230      3.13e-04  Roothaan Step
 ---------------------------------------
  Cycle       Energy         DIIS error
 ---------------------------------------
    1    -531.6367172812      3.44e-04  
    2    -531.6443123566      2.47e-04  Done DIIS. Switching to GDM
 ---------------------------------------
  Cycle       Energy        RMS Gradient
 ---------------------------------------
    1    -531.6443123566      7.98e-03   Normal BFGS step
    2    -531.6445632003      9.60e-03   Normal BFGS step
    3    -531.6467942061      1.32e-03   Normal BFGS step
    4    -531.6468142793      1.19e-03   Normal BFGS step
    5    -531.6468247723      3.91e-04   Normal BFGS step
    6    -531.6468251976      1.29e-04   Normal BFGS step
    7    -531.6468256435      4.50e-05   Normal BFGS step
    8    -531.6468256537      2.67e-05   Normal BFGS step
    9    -531.6468256583      2.05e-05   Normal BFGS step
   10    -531.6468256599      1.22e-05   Normal BFGS step
   11    -531.6468256606      6.73e-06   Normal BFGS step
   12    -531.6468256608      2.49e-06   Normal BFGS step
   13    -531.6468256608      2.62e-06   Normal BFGS step
   14    -531.6468256608      1.47e-06   Normal BFGS step
   15    -531.6468256607      5.46e-07  Convergence criterion met
 ---------------------------------------
 SCF time:   CPU 1060.74s  wall 73.00s 
<S^2> =          0.759230546
(3)  G-ENP(liq) elect-nuc-pol free energy of system     -531.646825661 a.u.
(4)  G-CDS(liq) cavity-dispersion-solvent structure 
     free energy                                                3.5552 kcal/mol
(6)  G-S(liq) free energy of system                     -531.641160160 a.u.
 SCF   energy in the final basis set =     -531.6411601602
 Total energy in the final basis set =     -531.6411601602
 
 --------------------------------------------------------------
 
                    Orbital Energies (a.u.)
 --------------------------------------------------------------
 
 Alpha MOs
 -- Occupied --
-19.4241 -19.4140 -19.3583 -19.3583 -19.3522 -19.3513 -10.4611 -10.4535
 -1.3216  -1.2203  -1.1913  -1.1409  -1.1323  -0.9918  -0.8457  -0.7363
 -0.6900  -0.6685  -0.6501  -0.6353  -0.6155  -0.5871  -0.5844  -0.5762
 -0.5164  -0.5066  -0.5000  -0.4721  -0.4333  -0.4275  -0.4142  -0.4105
 -0.3957  -0.3368
 -- Virtual --
  0.0235   0.0379   0.0433   0.0526   0.0622   0.0708   0.0930   0.1051
  0.1095   0.1284   0.1328   0.1423   0.1506   0.1635   0.1674   0.1774
  0.2011   0.2113   0.2178   0.2192   0.2323   0.2445   0.2489   0.2558
  0.2615   0.2736   0.2806   0.2883   0.2903   0.3022   0.3043   0.3065
  0.3228   0.3294   0.3380   0.3421   0.3487   0.3531   0.3597   0.3696
  0.3808   0.3859   0.3881   0.3972   0.4036   0.4143   0.4212   0.4259
  0.4540   0.4598   0.4823   0.5059   0.5727   0.5854   0.5873   0.5979
  0.6123   0.6172   0.6265   0.6621   0.6782   0.6882   0.7191   0.7221
  0.7520   0.7544   0.7886   0.8274   0.8409   0.8482   0.8716   0.8945
  0.9163   0.9220   0.9486   0.9840   0.9880   1.0138   1.0262   1.0371
  1.0494   1.0769   1.0957   1.1125   1.1264   1.1473   1.1503   1.1538
  1.1643   1.1968   1.1984   1.2041   1.2150   1.2299   1.2415   1.2538
  1.2719   1.2766   1.2834   1.2924   1.3329   1.3521   1.3712   1.4161
  1.4311   1.4367   1.4533   1.4758   1.4830   1.5143   1.5282   1.5436
  1.5514   1.5716   1.5975   1.6194   1.6241   1.6397   1.6581   1.6721
  1.7210   1.7576   1.7893   1.8313   1.8470   1.8761   1.9182   1.9301
  1.9441   1.9768   2.0166   2.0501   2.0888   2.1117   2.1328   2.1807
  2.2315   2.2739   2.3119   2.3279   2.3383   2.3458   2.3583   2.3953
  2.4049   2.4237   2.4354   2.4583   2.5078   2.5440   2.5962   2.6379
  2.6782   2.7243   2.7486   2.7879   2.8714   2.8789   2.9409   3.0027
  3.0708   3.1398   3.1633   3.1899   3.2699   3.3093   3.3607   3.3844
  3.4223   3.4571   3.5140   3.5517   3.5676   3.6215   3.6328   3.6390
  3.6716   3.7208   3.7231   3.7517   3.7986   3.8099   3.8230   3.8333
  3.8489   3.8644   3.8742   3.8984   3.9407   3.9708   4.0257   4.0429
  4.0950   4.1390   4.1483   4.1583   4.1747   4.1925   4.2351   4.2392
  4.2649   4.2890   4.3026   4.3350   4.3717   4.4328   4.4937   4.5584
  4.6500   4.6883   4.7508   4.7738   4.8075   4.9251   5.1126   5.1285
  5.1698   5.1918   5.2140   5.2193   5.2323   5.2438   5.2492   5.2547
  5.2685   5.2783   5.2929   5.3043   5.3168   5.3329   5.3433   5.3478
  5.3760   5.3813   5.3915   5.4419   5.4653   5.4843   5.5083   5.5251
  5.5578   5.5829   5.5928   5.6050   5.6223   5.6333   5.6409   5.6872
  5.7048   5.8035   5.8688   5.9107   5.9293   5.9463   6.0049   6.0594
  6.1006   6.1607   6.4064   6.4180   6.4517   6.5374   6.7274   6.7654
  6.8847   6.9827   6.9950   7.0213   7.0531   7.0617   7.0808   7.0865
  7.1048   7.1278   7.1368   7.1406   7.1724   7.1790   7.2293   7.2592
  7.3032   7.3293   7.3446   7.3589   7.3802   7.4059   7.4196   7.5047
  7.5785   7.6045   7.6259   7.6680   7.6936   7.7299   7.7860   7.8083
  7.8693   7.8977   7.9798   8.0443  24.6504  24.7950  50.4296  50.4914
 50.5654  50.5729  50.6047  50.6472
 
 Beta MOs
 -- Occupied --
-19.4193 -19.3988 -19.3572 -19.3571 -19.3521 -19.3508 -10.4549 -10.4534
 -1.3031  -1.2176  -1.1895  -1.1386  -1.1309  -0.9658  -0.8403  -0.7330
 -0.6766  -0.6633  -0.6434  -0.6185  -0.6119  -0.5754  -0.5738  -0.5464
 -0.5098  -0.5008  -0.4982  -0.4694  -0.4295  -0.4117  -0.3989  -0.3933
 -0.3693
 -- Virtual --
 -0.0548   0.0240   0.0382   0.0436   0.0529   0.0625   0.0709   0.0938
  0.1057   0.1096   0.1283   0.1337   0.1430   0.1507   0.1641   0.1692
  0.1813   0.2026   0.2124   0.2191   0.2206   0.2343   0.2472   0.2501
  0.2597   0.2638   0.2743   0.2841   0.2907   0.2930   0.3037   0.3066
  0.3112   0.3253   0.3306   0.3395   0.3458   0.3496   0.3539   0.3613
  0.3744   0.3836   0.3865   0.3962   0.3990   0.4060   0.4182   0.4242
  0.4288   0.4558   0.4618   0.4831   0.5072   0.5753   0.5871   0.5889
  0.5990   0.6137   0.6184   0.6280   0.6644   0.6827   0.6892   0.7195
  0.7229   0.7540   0.7586   0.7899   0.8288   0.8420   0.8500   0.8730
  0.8960   0.9177   0.9236   0.9499   0.9900   0.9914   1.0163   1.0276
  1.0387   1.0522   1.0792   1.0974   1.1139   1.1287   1.1512   1.1544
  1.1574   1.1683   1.1999   1.2006   1.2084   1.2207   1.2327   1.2437
  1.2593   1.2790   1.2801   1.2885   1.2958   1.3360   1.3548   1.3737
  1.4188   1.4341   1.4406   1.4568   1.4784   1.4849   1.5151   1.5323
  1.5492   1.5543   1.5732   1.6023   1.6252   1.6300   1.6491   1.6652
  1.6762   1.7236   1.7651   1.7948   1.8357   1.8492   1.8790   1.9235
  1.9333   1.9458   1.9846   2.0205   2.0517   2.0910   2.1202   2.1356
  2.1832   2.2367   2.2797   2.3143   2.3311   2.3410   2.3513   2.3624
  2.4021   2.4090   2.4269   2.4412   2.4639   2.5138   2.5491   2.5982
  2.6490   2.6813   2.7278   2.7517   2.7910   2.8671   2.8803   2.9389
  3.0099   3.0690   3.1487   3.1649   3.1931   3.2748   3.3136   3.3663
  3.3930   3.4286   3.4631   3.5180   3.5580   3.5716   3.6246   3.6389
  3.6524   3.6895   3.7276   3.7409   3.7607   3.8058   3.8146   3.8265
  3.8353   3.8523   3.8685   3.8778   3.9050   3.9442   3.9820   4.0319
  4.0453   4.1001   4.1338   4.1448   4.1599   4.1760   4.1895   4.2283
  4.2415   4.2663   4.2954   4.3035   4.3386   4.3732   4.4328   4.5013
  4.5606   4.6609   4.7028   4.7667   4.7848   4.8168   4.9436   5.1450
  5.1551   5.1766   5.2058   5.2182   5.2343   5.2409   5.2492   5.2524
  5.2703   5.2729   5.2824   5.2946   5.3076   5.3187   5.3369   5.3514
  5.3728   5.3795   5.3919   5.4022   5.4447   5.4693   5.5008   5.5096
  5.5270   5.5622   5.5856   5.5954   5.6181   5.6266   5.6368   5.6468
  5.6924   5.7197   5.8104   5.8731   5.9209   5.9393   5.9492   6.0086
  6.0628   6.1034   6.1636   6.4147   6.4262   6.4819   6.5392   6.7323
  6.7675   6.9254   7.0016   7.0267   7.0535   7.0626   7.0648   7.0840
  7.1038   7.1181   7.1310   7.1379   7.1484   7.1747   7.1800   7.2332
  7.2658   7.3066   7.3433   7.3545   7.3853   7.3968   7.4122   7.4216
  7.5215   7.5896   7.6231   7.6389   7.6717   7.6987   7.7307   7.7878
  7.8098   7.8706   7.9019   7.9894   8.0692  24.6542  24.7969  50.4357
 50.5006  50.5660  50.5734  50.6054  50.6476
 --------------------------------------------------------------
 
          Ground-State Mulliken Net Atomic Charges

     Atom                 Charge (a.u.)    Spin (a.u.)
  --------------------------------------------------------
      1 C                     0.078558      -0.013180
      2 O                    -0.461965       0.014227
      3 C                    -0.286843       0.317444
      4 O                    -0.418238       0.033420
      5 O                    -0.416814       0.033930
      6 O                    -0.426237       0.000505
      7 H                     0.267067      -0.001542
      8 H                     0.348687      -0.000100
      9 H                     0.359430       0.000891
     10 H                     0.367086      -0.000112
     11 H                     0.339522       0.000540
     12 O                    -0.306225       0.472040
     13 O                    -0.162231       0.164218
     14 H                     0.387369      -0.017628
     15 H                     0.330834      -0.004653
  --------------------------------------------------------
  Sum of atomic charges =     0.000000
  Sum of spin   charges =     1.000000

 -----------------------------------------------------------------
                    Cartesian Multipole Moments
 -----------------------------------------------------------------
    Charge (ESU x 10^10)
                 0.0000
    Dipole Moment (Debye)
         X      -4.9208      Y       0.0436      Z      -1.3428
       Tot       5.1009
    Quadrupole Moments (Debye-Ang)
        XX     -41.9265     XY      -7.9467     YY     -39.9920
        XZ       8.4577     YZ      -5.8433     ZZ     -55.5737
    Octopole Moments (Debye-Ang^2)
       XXX     -45.5834    XXY      -9.4244    XYY     -15.8490
       YYY     -17.0390    XXZ      10.3021    XYZ      -0.6959
       YYZ      10.1879    XZZ      -9.4256    YZZ     -10.1744
       ZZZ      75.4098
    Hexadecapole Moments (Debye-Ang^3)
      XXXX    -616.2452   XXXY      25.3843   XXYY     -88.8288
      XYYY       5.8854   YYYY    -362.4318   XXXZ     139.7482
      XXYZ     -33.5012   XYYZ      19.7856   YYYZ     -94.3520
      XXZZ    -166.5533   XYZZ      32.5693   YYZZ    -144.1322
      XZZZ     136.0009   YZZZ    -105.4423   ZZZZ    -453.2652
 -----------------------------------------------------------------
 Calculating analytic gradient of the SCF energy
 Gradient of CDS energy
            1           2           3           4           5           6
    1   0.0028249  -0.0017885  -0.0014406   0.0009890   0.0006499  -0.0009547
    2   0.0021447   0.0012909  -0.0018925   0.0034434  -0.0016456  -0.0033013
    3  -0.0010700   0.0017350  -0.0027397   0.0000439   0.0028114  -0.0004187
            7           8           9          10          11          12
    1  -0.0000295   0.0002915  -0.0003046  -0.0002555   0.0001676   0.0000767
    2  -0.0001455  -0.0003915  -0.0004238   0.0002749   0.0004288   0.0000734
    3   0.0001194  -0.0001267   0.0000302  -0.0003653  -0.0001849   0.0002402
           13          14          15
    1   0.0000820  -0.0001019  -0.0002063
    2  -0.0002742   0.0000708   0.0003475
    3   0.0002188  -0.0000495  -0.0002441
 Gradient of SCF Energy
            1           2           3           4           5           6
    1   0.0039558  -0.0002074   0.0113229   0.0435579   0.0486823  -0.0008655
    2   0.0059200   0.0354294  -0.0102021  -0.0078498  -0.0177089  -0.0042675
    3  -0.0237059  -0.0080826  -0.0112453  -0.0157990  -0.0142930   0.0323642
            7           8           9          10          11          12
    1   0.0046000  -0.0006889  -0.0420781  -0.0447637   0.0021214   0.0025176
    2  -0.0112984  -0.0337288   0.0055758   0.0065020   0.0111778   0.0372354
    3   0.0140387   0.0111250   0.0028800   0.0046803  -0.0255880   0.0049340
           13          14          15
    1   0.0208736  -0.0242649  -0.0247632
    2  -0.0507338   0.0217288   0.0122202
    3   0.0226019   0.0317803  -0.0256907
 Max gradient component =       5.073E-02
 RMS gradient           =       2.268E-02
 Computing fast CPCM-SWIG gradient
 Updating gradient with PCM contributions...
 -- total gradient after adding PCM contribution --
---------------------------------------------------
  Atom         X              Y              Z     
---------------------------------------------------
   1       0.007970       0.004153      -0.020550
   2      -0.002207       0.025236      -0.001880
   3       0.006800      -0.007686      -0.011084
   4       0.025106      -0.005859      -0.012948
   5       0.025758      -0.011796      -0.011504
   6      -0.003164      -0.004640       0.024952
   7       0.004459      -0.007671       0.012283
   8      -0.001038      -0.024639       0.006604
   9      -0.023302       0.003388       0.002503
  10      -0.023327       0.003160       0.002922
  11       0.003088       0.008376      -0.021516
  12       0.004370       0.036982       0.000934
  13       0.006904      -0.043194       0.009576
  14      -0.018899       0.019121       0.030962
  15      -0.012518       0.005069      -0.011253
---------------------------------------------------
 Number of fixed atoms: 0
 Gradient time:  CPU 145.66 s  wall 13.40 s
 ----------------------------------------------------------------
             Standard Nuclear Orientation (Angstroms)
    I     Atom           X                Y                Z
 ----------------------------------------------------------------
    1      C       1.2936813000    -0.1306123000    -0.4106350000
    2      O       2.1171092000    -0.7349785000    -1.3785423000
    3      C      -0.1874899000    -0.2463539000    -0.7951645000
    4      O      -0.5438793000    -1.6003373000    -0.8723816000
    5      O      -0.4055921000     0.3727419000    -2.0349266000
    6      O       1.6600042000     1.2154524000    -0.2514392000
    7      H       1.4529005000    -0.6268282000     0.5749081000
    8      H       2.1207465000    -1.7093450000    -1.1883492000
    9      H      -1.5346954000    -1.6280010000    -0.8327439000
   10      H      -1.3803867000     0.5490387000    -2.0873820000
   11      H       1.6957058000     1.6226557000    -1.1562667000
   12      O      -1.8165179000     0.8879198000     1.0139535000
   13      O      -1.5381712000     2.1708467000     1.1276255000
   14      H      -0.9196065000     0.3658325000     0.2005060000
   15      H      -2.1430485000     2.6180503000     0.4823761000
 ----------------------------------------------------------------
 Nuclear Repulsion Energy =         422.88969440 hartrees
 There are       34 alpha and       33 beta electrons
 Discretize the solute cavity surface with Lebedev spheres
	Using 110 Lebedev grid points for each H atom
	Using 194 Lebedev grid points for other atoms
	Atomic van der Waals radii will be scaled by 1.20
 Remove points where switching function is < 1.0e-08
 Keep 1279 surface tesserae and discard 1043 interior tesserae
 Molecular Surface Area = 146.398 Angst**2

                       Distance Matrix (Angstroms)
             C (  1)   O (  2)   C (  3)   O (  4)   O (  5)   O (  6)
   O (  2)  1.407173
   C (  3)  1.534642  2.426986
   O (  4)  2.397901  2.843572  1.402229
   O (  5)  2.404001  2.832297  1.402804  2.294270
   O (  6)  1.404075  2.298584  2.417798  3.629235  2.856165
   H (  7)  1.114844  2.066117  2.170885  2.651320  3.356244  2.029714
   H (  8)  1.944550  0.992762  2.760959  2.685507  3.381444  3.105563
   H (  9)  3.228012  3.798824  1.930110  0.991994  2.592892  4.316161
   H ( 10)  3.228629  3.792576  1.930150  2.606873  0.991996  3.613692
   H ( 11)  1.947187  2.405291  2.677689  3.934973  2.598034  0.992876
   O ( 12)  3.569342  4.881727  2.685743  3.371838  3.398792  3.714122
   O ( 13)  3.960094  5.299601  3.371101  4.382975  3.810204  3.611499
   H ( 14)  2.349169  3.595389  1.379176  2.271141  2.293778  2.753271
   H ( 15)  4.490404  5.731907  3.696097  4.710361  3.794335  4.119342
             H (  7)   H (  8)   H (  9)   H ( 10)   H ( 11)   O ( 12)
   H (  8)  2.174152
   H (  9)  3.451023  3.673599
   H ( 10)  4.061769  4.262217  2.517425
   H ( 11)  2.848877  3.359154  4.594228  3.388506
   O ( 12)  3.629920  5.205571  3.133620  3.150132  4.193496
   O ( 13)  4.132674  5.814405  4.274846  3.604363  3.996828  1.317687
   H ( 14)  2.598912  3.934339  2.328371  2.341007  3.203170  1.318606
   H ( 15)  4.844445  6.300605  4.486489  3.386166  4.290920  1.839171
             O ( 13)   H ( 14)
   H ( 14)  2.121379
   H ( 15)  0.991067  2.578516
 
 Requested basis set is 6-311++G(2df,2p)
 There are 106 shells and 342 basis functions
 A cutoff of  1.0D-11 yielded   4970 shell pairs
 There are     51111 function pairs (     63210 Cartesian)
 Smallest overlap matrix eigenvalue = 3.92E-05
 Guess MOs from SCF MO coefficient file

 -----------------------------------------------------------------------
  General SCF calculation program by
  Eric Jon Sundstrom, Paul Horn, Yuezhi Mao, Dmitri Zuev, Alec White,
  David Stuck, Shaama M.S., Shane Yost, Joonho Lee, David Small,
  Daniel Levine, Susi Lehtola, Hugh Burton, Evgeny Epifanovsky,
  Bang C. Huynh
 -----------------------------------------------------------------------
 Exchange:     0.1500 Hartree-Fock + 1.0000 wB97M-V + LR-HF
 Correlation:  1.0000 wB97M-V
 Using SG-2 standard quadrature grid
 Nonlocal Correlation:  VV10 with C = 0.0100 and b = 6.00 and scale = 1.00000
 Grid used for NLC:  SG-1 standard quadrature
 
 Citation of the SMD model:
 Marenich, A.V.; Cramer, C.J.; Truhlar, D.G.
 J. Phys. Chem. B 2009, 113, 6378-6396.
 iSolventCode=           1
 Solvent: water                                                           
 
 vradii
            1           2           3           4           5           6
    1   1.8500000   1.5200000   1.8500000   1.5200000   1.5200000   1.5200000
            7           8           9          10          11          12
    1   1.2000000   1.2000000   1.2000000   1.2000000   1.2000000   1.5200000
           13          14          15
    1   1.5200000   1.2000000   1.2000000
 -------------------------------------------------------
 OpenMP BLAS3 based DFT computing Module                
 Release: version 1.0, May 2013, Q-Chem Inc. Pittsburgh 
 -------------------------------------------------------
 A unrestricted SCF calculation will be
 performed using Roothaan-Hall, DIIS, GDM
 SCF converges when RMS gradient is below 1.0e-06
 ---------------------------------------
  Cycle       Energy         DIIS error
 ---------------------------------------
    1    -531.5893856695      3.13e-04  Roothaan Step
 ---------------------------------------
  Cycle       Energy         DIIS error
 ---------------------------------------
    1    -531.6367075923      3.44e-04  
    2    -531.6442999878      2.48e-04  Done DIIS. Switching to GDM
 ---------------------------------------
  Cycle       Energy        RMS Gradient
 ---------------------------------------
    1    -531.6442999878      7.98e-03   Normal BFGS step
    2    -531.6445446751      9.61e-03   Normal BFGS step
    3    -531.6468102693      1.31e-03   Normal BFGS step
    4    -531.6468304445      1.18e-03   Normal BFGS step
    5    -531.6468409108      3.92e-04   Normal BFGS step
    6    -531.6468413427      1.30e-04   Normal BFGS step
    7    -531.6468417918      6.57e-05   Normal BFGS step
    8    -531.6468418043      3.51e-05   Normal BFGS step
    9    -531.6468418108      2.43e-05   Normal BFGS step
   10    -531.6468418131      1.07e-05   Normal BFGS step
   11    -531.6468418138      5.55e-06   Normal BFGS step
   12    -531.6468418141      2.34e-06   Normal BFGS step
   13    -531.6468418140      1.92e-06   Normal BFGS step
   14    -531.6468418141      9.67e-07  Convergence criterion met
 ---------------------------------------
 SCF time:   CPU 1007.91s  wall 69.00s 
<S^2> =          0.759229869
(3)  G-ENP(liq) elect-nuc-pol free energy of system     -531.646841814 a.u.
(4)  G-CDS(liq) cavity-dispersion-solvent structure 
     free energy                                                3.5487 kcal/mol
(6)  G-S(liq) free energy of system                     -531.641186631 a.u.
 SCF   energy in the final basis set =     -531.6411866306
 Total energy in the final basis set =     -531.6411866306
 
 --------------------------------------------------------------
 
                    Orbital Energies (a.u.)
 --------------------------------------------------------------
 
 Alpha MOs
 -- Occupied --
-19.4242 -19.4141 -19.3583 -19.3583 -19.3521 -19.3512 -10.4611 -10.4535
 -1.3217  -1.2202  -1.1911  -1.1408  -1.1322  -0.9919  -0.8461  -0.7363
 -0.6900  -0.6683  -0.6501  -0.6352  -0.6156  -0.5871  -0.5844  -0.5760
 -0.5165  -0.5066  -0.4999  -0.4720  -0.4333  -0.4274  -0.4142  -0.4106
 -0.3960  -0.3369
 -- Virtual --
  0.0235   0.0379   0.0433   0.0526   0.0622   0.0707   0.0930   0.1051
  0.1095   0.1284   0.1328   0.1423   0.1506   0.1635   0.1674   0.1773
  0.2010   0.2112   0.2178   0.2191   0.2323   0.2444   0.2489   0.2557
  0.2614   0.2736   0.2806   0.2883   0.2902   0.3022   0.3043   0.3063
  0.3229   0.3295   0.3380   0.3421   0.3487   0.3531   0.3598   0.3696
  0.3809   0.3858   0.3881   0.3973   0.4037   0.4142   0.4211   0.4258
  0.4540   0.4598   0.4823   0.5059   0.5727   0.5854   0.5873   0.5980
  0.6123   0.6172   0.6265   0.6620   0.6782   0.6882   0.7190   0.7220
  0.7521   0.7545   0.7886   0.8274   0.8410   0.8482   0.8716   0.8945
  0.9163   0.9220   0.9486   0.9839   0.9880   1.0139   1.0263   1.0371
  1.0494   1.0769   1.0955   1.1124   1.1264   1.1473   1.1503   1.1538
  1.1643   1.1968   1.1982   1.2041   1.2150   1.2297   1.2415   1.2536
  1.2719   1.2767   1.2834   1.2924   1.3329   1.3522   1.3714   1.4162
  1.4313   1.4368   1.4535   1.4763   1.4830   1.5145   1.5281   1.5437
  1.5514   1.5717   1.5975   1.6194   1.6240   1.6396   1.6582   1.6722
  1.7210   1.7577   1.7894   1.8313   1.8467   1.8761   1.9180   1.9302
  1.9442   1.9766   2.0166   2.0504   2.0886   2.1116   2.1327   2.1807
  2.2316   2.2738   2.3117   2.3277   2.3381   2.3459   2.3580   2.3951
  2.4047   2.4237   2.4355   2.4584   2.5080   2.5441   2.5959   2.6379
  2.6781   2.7244   2.7487   2.7879   2.8714   2.8788   2.9418   3.0029
  3.0708   3.1396   3.1625   3.1904   3.2704   3.3082   3.3604   3.3848
  3.4223   3.4565   3.5141   3.5522   3.5680   3.6213   3.6327   3.6391
  3.6719   3.7209   3.7230   3.7514   3.7980   3.8098   3.8230   3.8333
  3.8489   3.8642   3.8742   3.8985   3.9407   3.9708   4.0267   4.0431
  4.0964   4.1392   4.1484   4.1585   4.1749   4.1929   4.2353   4.2392
  4.2648   4.2892   4.3035   4.3354   4.3722   4.4331   4.4939   4.5592
  4.6500   4.6884   4.7507   4.7746   4.8075   4.9251   5.1125   5.1284
  5.1698   5.1918   5.2139   5.2191   5.2322   5.2436   5.2492   5.2547
  5.2685   5.2786   5.2928   5.3044   5.3168   5.3329   5.3433   5.3477
  5.3759   5.3814   5.3915   5.4419   5.4654   5.4843   5.5083   5.5249
  5.5582   5.5828   5.5928   5.6050   5.6222   5.6334   5.6408   5.6868
  5.7048   5.8033   5.8682   5.9105   5.9291   5.9452   6.0040   6.0593
  6.0995   6.1588   6.4067   6.4180   6.4516   6.5363   6.7265   6.7641
  6.8846   6.9826   6.9949   7.0213   7.0532   7.0616   7.0808   7.0864
  7.1048   7.1278   7.1367   7.1406   7.1725   7.1788   7.2292   7.2593
  7.3031   7.3292   7.3444   7.3587   7.3802   7.4060   7.4194   7.5047
  7.5782   7.6044   7.6258   7.6680   7.6936   7.7296   7.7858   7.8082
  7.8691   7.8977   7.9797   8.0443  24.6493  24.7958  50.4295  50.4913
 50.5653  50.5728  50.6046  50.6469
 
 Beta MOs
 -- Occupied --
-19.4194 -19.3989 -19.3572 -19.3572 -19.3521 -19.3507 -10.4550 -10.4534
 -1.3032  -1.2175  -1.1893  -1.1385  -1.1308  -0.9658  -0.8407  -0.7329
 -0.6766  -0.6633  -0.6434  -0.6185  -0.6120  -0.5752  -0.5738  -0.5464
 -0.5098  -0.5007  -0.4982  -0.4693  -0.4294  -0.4117  -0.3990  -0.3935
 -0.3695
 -- Virtual --
 -0.0548   0.0240   0.0382   0.0436   0.0529   0.0625   0.0709   0.0938
  0.1057   0.1096   0.1283   0.1337   0.1430   0.1508   0.1641   0.1692
  0.1813   0.2026   0.2123   0.2191   0.2205   0.2342   0.2472   0.2501
  0.2597   0.2638   0.2743   0.2840   0.2907   0.2930   0.3038   0.3065
  0.3111   0.3254   0.3306   0.3395   0.3458   0.3495   0.3539   0.3614
  0.3743   0.3837   0.3865   0.3962   0.3991   0.4062   0.4182   0.4241
  0.4287   0.4558   0.4618   0.4832   0.5072   0.5753   0.5871   0.5889
  0.5990   0.6137   0.6185   0.6280   0.6643   0.6827   0.6892   0.7195
  0.7228   0.7541   0.7587   0.7899   0.8288   0.8420   0.8500   0.8731
  0.8960   0.9176   0.9237   0.9499   0.9900   0.9913   1.0163   1.0276
  1.0387   1.0522   1.0792   1.0972   1.1139   1.1288   1.1512   1.1545
  1.1574   1.1683   1.1999   1.2006   1.2084   1.2206   1.2325   1.2436
  1.2591   1.2791   1.2802   1.2884   1.2958   1.3360   1.3549   1.3739
  1.4189   1.4343   1.4408   1.4570   1.4789   1.4848   1.5153   1.5322
  1.5494   1.5542   1.5734   1.6023   1.6252   1.6299   1.6490   1.6653
  1.6763   1.7236   1.7651   1.7949   1.8357   1.8489   1.8790   1.9233
  1.9333   1.9458   1.9845   2.0205   2.0519   2.0909   2.1201   2.1355
  2.1833   2.2368   2.2796   2.3141   2.3308   2.3408   2.3514   2.3621
  2.4018   2.4089   2.4270   2.4414   2.4640   2.5139   2.5492   2.5980
  2.6490   2.6812   2.7279   2.7518   2.7910   2.8672   2.8802   2.9397
  3.0101   3.0691   3.1484   3.1642   3.1935   3.2752   3.3125   3.3659
  3.3934   3.4286   3.4625   3.5182   3.5585   3.5719   3.6246   3.6388
  3.6524   3.6899   3.7276   3.7409   3.7605   3.8053   3.8144   3.8265
  3.8353   3.8523   3.8683   3.8778   3.9050   3.9442   3.9820   4.0327
  4.0455   4.1014   4.1340   4.1449   4.1601   4.1763   4.1900   4.2284
  4.2416   4.2662   4.2957   4.3043   4.3389   4.3739   4.4332   4.5016
  4.5613   4.6609   4.7030   4.7667   4.7857   4.8168   4.9435   5.1450
  5.1551   5.1766   5.2057   5.2178   5.2343   5.2409   5.2491   5.2524
  5.2704   5.2729   5.2825   5.2945   5.3077   5.3187   5.3369   5.3514
  5.3728   5.3795   5.3920   5.4022   5.4446   5.4694   5.5008   5.5095
  5.5268   5.5626   5.5855   5.5955   5.6180   5.6267   5.6369   5.6467
  5.6920   5.7197   5.8102   5.8726   5.9205   5.9391   5.9483   6.0078
  6.0626   6.1023   6.1618   6.4149   6.4262   6.4818   6.5382   6.7312
  6.7663   6.9253   7.0016   7.0266   7.0535   7.0625   7.0647   7.0840
  7.1038   7.1180   7.1310   7.1378   7.1484   7.1747   7.1798   7.2330
  7.2658   7.3065   7.3432   7.3542   7.3852   7.3968   7.4122   7.4215
  7.5215   7.5892   7.6231   7.6389   7.6717   7.6988   7.7304   7.7876
  7.8097   7.8704   7.9019   7.9894   8.0691  24.6530  24.7977  50.4357
 50.5005  50.5659  50.5734  50.6054  50.6473
 --------------------------------------------------------------
 
          Ground-State Mulliken Net Atomic Charges

     Atom                 Charge (a.u.)    Spin (a.u.)
  --------------------------------------------------------
      1 C                     0.079161      -0.013300
      2 O                    -0.462632       0.014287
      3 C                    -0.287107       0.317232
      4 O                    -0.418172       0.033372
      5 O                    -0.416782       0.033889
      6 O                    -0.426500       0.000516
      7 H                     0.267144      -0.001537
      8 H                     0.348580      -0.000104
      9 H                     0.359463       0.000894
     10 H                     0.367113      -0.000112
     11 H                     0.339513       0.000537
     12 O                    -0.306020       0.472245
     13 O                    -0.161976       0.164442
     14 H                     0.387373      -0.017702
     15 H                     0.330843      -0.004659
  --------------------------------------------------------
  Sum of atomic charges =     0.000000
  Sum of spin   charges =     1.000000

 -----------------------------------------------------------------
                    Cartesian Multipole Moments
 -----------------------------------------------------------------
    Charge (ESU x 10^10)
                 0.0000
    Dipole Moment (Debye)
         X      -4.9354      Y       0.0483      Z      -1.3364
       Tot       5.1133
    Quadrupole Moments (Debye-Ang)
        XX     -41.9416     XY      -7.9470     YY     -39.9891
        XZ       8.4668     YZ      -5.8437     ZZ     -55.5757
    Octopole Moments (Debye-Ang^2)
       XXX     -45.6355    XXY      -9.4009    XYY     -15.8662
       YYY     -17.0171    XXZ      10.3372    XYZ      -0.7118
       YYZ      10.2030    XZZ      -9.4434    YZZ     -10.1614
       ZZZ      75.4296
    Hexadecapole Moments (Debye-Ang^3)
      XXXX    -616.1845   XXXY      25.3907   XXYY     -88.7926
      XYYY       5.8739   YYYY    -362.4002   XXXZ     139.7813
      XXYZ     -33.5062   XYYZ      19.7880   YYYZ     -94.3415
      XXZZ    -166.5443   XYZZ      32.5719   YYZZ    -144.1308
      XZZZ     136.0240   YZZZ    -105.4511   ZZZZ    -453.2780
 -----------------------------------------------------------------
 Calculating analytic gradient of the SCF energy
 Gradient of CDS energy
            1           2           3           4           5           6
    1   0.0026334  -0.0016294  -0.0014397   0.0009890   0.0006502  -0.0009283
    2   0.0021535   0.0011716  -0.0018923   0.0034434  -0.0016456  -0.0031906
    3  -0.0008928   0.0015457  -0.0027397   0.0000439   0.0028114  -0.0004053
            7           8           9          10          11          12
    1  -0.0000257   0.0002923  -0.0003046  -0.0002556   0.0001680   0.0000767
    2  -0.0001460  -0.0003917  -0.0004238   0.0002749   0.0004291   0.0000734
    3   0.0001196  -0.0001273   0.0000302  -0.0003652  -0.0001850   0.0002402
           13          14          15
    1   0.0000824  -0.0001023  -0.0002063
    2  -0.0002742   0.0000709   0.0003475
    3   0.0002186  -0.0000500  -0.0002441
 Gradient of SCF Energy
            1           2           3           4           5           6
    1   0.0020108   0.0004154   0.0120193   0.0435940   0.0487201  -0.0005177
    2   0.0058932   0.0351396  -0.0102235  -0.0078255  -0.0177288  -0.0039431
    3  -0.0235546  -0.0085417  -0.0111319  -0.0158034  -0.0142639   0.0323595
            7           8           9          10          11          12
    1   0.0048548  -0.0006833  -0.0421004  -0.0447863   0.0021175   0.0025167
    2  -0.0113516  -0.0337006   0.0055723   0.0065063   0.0111890   0.0371573
    3   0.0141669   0.0111184   0.0028786   0.0046782  -0.0255701   0.0049131
           13          14          15
    1   0.0208962  -0.0242876  -0.0247696
    2  -0.0506766   0.0217681   0.0122240
    3   0.0226133   0.0318363  -0.0256988
 Max gradient component =       5.068E-02
 RMS gradient           =       2.268E-02
 Computing fast CPCM-SWIG gradient
 Updating gradient with PCM contributions...
 -- total gradient after adding PCM contribution --
---------------------------------------------------
  Atom         X              Y              Z     
---------------------------------------------------
   1       0.006035       0.004123      -0.020408
   2      -0.001594       0.024976      -0.002336
   3       0.007475      -0.007686      -0.010950
   4       0.025119      -0.005835      -0.012947
   5       0.025774      -0.011810      -0.011476
   6      -0.002824      -0.004321       0.024968
   7       0.004717      -0.007727       0.012415
   8      -0.001021      -0.024638       0.006596
   9      -0.023307       0.003382       0.002498
  10      -0.023332       0.003160       0.002917
  11       0.003094       0.008388      -0.021513
  12       0.004374       0.036897       0.000911
  13       0.006915      -0.043123       0.009575
  14      -0.018912       0.019147       0.031001
  15      -0.012512       0.005066      -0.011248
---------------------------------------------------
 Number of fixed atoms: 0
 Gradient time:  CPU 145.01 s  wall 13.23 s
 ----------------------------------------------------------------
             Standard Nuclear Orientation (Angstroms)
    I     Atom           X                Y                Z
 ----------------------------------------------------------------
    1      C       1.2946813000    -0.1296123000    -0.4106350000
    2      O       2.1171092000    -0.7349785000    -1.3785423000
    3      C      -0.1874899000    -0.2463539000    -0.7951645000
    4      O      -0.5438793000    -1.6003373000    -0.8723816000
    5      O      -0.4055921000     0.3727419000    -2.0349266000
    6      O       1.6600042000     1.2154524000    -0.2514392000
    7      H       1.4529005000    -0.6268282000     0.5749081000
    8      H       2.1207465000    -1.7093450000    -1.1883492000
    9      H      -1.5346954000    -1.6280010000    -0.8327439000
   10      H      -1.3803867000     0.5490387000    -2.0873820000
   11      H       1.6957058000     1.6226557000    -1.1562667000
   12      O      -1.8165179000     0.8879198000     1.0139535000
   13      O      -1.5381712000     2.1708467000     1.1276255000
   14      H      -0.9196065000     0.3658325000     0.2005060000
   15      H      -2.1430485000     2.6180503000     0.4823761000
 ----------------------------------------------------------------
 Nuclear Repulsion Energy =         422.88811770 hartrees
 There are       34 alpha and       33 beta electrons
 Discretize the solute cavity surface with Lebedev spheres
	Using 110 Lebedev grid points for each H atom
	Using 194 Lebedev grid points for other atoms
	Atomic van der Waals radii will be scaled by 1.20
 Remove points where switching function is < 1.0e-08
 Keep 1279 surface tesserae and discard 1043 interior tesserae
 Molecular Surface Area = 146.400 Angst**2

                       Distance Matrix (Angstroms)
             C (  1)   O (  2)   C (  3)   O (  4)   O (  5)   O (  6)
   O (  2)  1.407018
   C (  3)  1.535683  2.426986
   O (  4)  2.399281  2.843572  1.402229
   O (  5)  2.404498  2.832297  1.402804  2.294270
   O (  6)  1.402855  2.298584  2.417798  3.629235  2.856165
   H (  7)  1.115147  2.066117  2.170885  2.651320  3.356244  2.029714
   H (  8)  1.944937  0.992762  2.760959  2.685507  3.381444  3.105563
   H (  9)  3.229352  3.798824  1.930110  0.991994  2.592892  4.316161
   H ( 10)  3.229247  3.792576  1.930150  2.606873  0.991996  3.613692
   H ( 11)  1.946081  2.405291  2.677689  3.934973  2.598034  0.992876
   O ( 12)  3.569928  4.881727  2.685743  3.371838  3.398792  3.714122
   O ( 13)  3.960229  5.299601  3.371101  4.382975  3.810204  3.611499
   H ( 14)  2.349900  3.595389  1.379176  2.271141  2.293778  2.753271
   H ( 15)  4.490557  5.731907  3.696097  4.710361  3.794335  4.119342
             H (  7)   H (  8)   H (  9)   H ( 10)   H ( 11)   O ( 12)
   H (  8)  2.174152
   H (  9)  3.451023  3.673599
   H ( 10)  4.061769  4.262217  2.517425
   H ( 11)  2.848877  3.359154  4.594228  3.388506
   O ( 12)  3.629920  5.205571  3.133620  3.150132  4.193496
   O ( 13)  4.132674  5.814405  4.274846  3.604363  3.996828  1.317687
   H ( 14)  2.598912  3.934339  2.328371  2.341007  3.203170  1.318606
   H ( 15)  4.844445  6.300605  4.486489  3.386166  4.290920  1.839171
             O ( 13)   H ( 14)
   H ( 14)  2.121379
   H ( 15)  0.991067  2.578516
 
 Requested basis set is 6-311++G(2df,2p)
 There are 106 shells and 342 basis functions
 A cutoff of  1.0D-11 yielded   4970 shell pairs
 There are     51111 function pairs (     63210 Cartesian)
 Smallest overlap matrix eigenvalue = 3.93E-05
 Guess MOs from SCF MO coefficient file

 -----------------------------------------------------------------------
  General SCF calculation program by
  Eric Jon Sundstrom, Paul Horn, Yuezhi Mao, Dmitri Zuev, Alec White,
  David Stuck, Shaama M.S., Shane Yost, Joonho Lee, David Small,
  Daniel Levine, Susi Lehtola, Hugh Burton, Evgeny Epifanovsky,
  Bang C. Huynh
 -----------------------------------------------------------------------
 Exchange:     0.1500 Hartree-Fock + 1.0000 wB97M-V + LR-HF
 Correlation:  1.0000 wB97M-V
 Using SG-2 standard quadrature grid
 Nonlocal Correlation:  VV10 with C = 0.0100 and b = 6.00 and scale = 1.00000
 Grid used for NLC:  SG-1 standard quadrature
 
 Citation of the SMD model:
 Marenich, A.V.; Cramer, C.J.; Truhlar, D.G.
 J. Phys. Chem. B 2009, 113, 6378-6396.
 iSolventCode=           1
 Solvent: water                                                           
 
 vradii
            1           2           3           4           5           6
    1   1.8500000   1.5200000   1.8500000   1.5200000   1.5200000   1.5200000
            7           8           9          10          11          12
    1   1.2000000   1.2000000   1.2000000   1.2000000   1.2000000   1.5200000
           13          14          15
    1   1.5200000   1.2000000   1.2000000
 -------------------------------------------------------
 OpenMP BLAS3 based DFT computing Module                
 Release: version 1.0, May 2013, Q-Chem Inc. Pittsburgh 
 -------------------------------------------------------
 A unrestricted SCF calculation will be
 performed using Roothaan-Hall, DIIS, GDM
 SCF converges when RMS gradient is below 1.0e-06
 ---------------------------------------
  Cycle       Energy         DIIS error
 ---------------------------------------
    1    -531.5893711669      3.13e-04  Roothaan Step
 ---------------------------------------
  Cycle       Energy         DIIS error
 ---------------------------------------
    1    -531.6367200601      3.44e-04  
    2    -531.6443178428      2.47e-04  Done DIIS. Switching to GDM
 ---------------------------------------
  Cycle       Energy        RMS Gradient
 ---------------------------------------
    1    -531.6443178428      7.99e-03   Normal BFGS step
    2    -531.6445688679      9.62e-03   Normal BFGS step
    3    -531.6467983854      1.32e-03   Normal BFGS step
    4    -531.6468184594      1.19e-03   Normal BFGS step
    5    -531.6468289934      3.91e-04   Normal BFGS step
    6    -531.6468294169      1.28e-04   Normal BFGS step
    7    -531.6468298637      4.28e-05   Normal BFGS step
    8    -531.6468298738      2.66e-05   Normal BFGS step
    9    -531.6468298782      2.05e-05   Normal BFGS step
   10    -531.6468298798      1.23e-05   Normal BFGS step
   11    -531.6468298804      6.81e-06   Normal BFGS step
   12    -531.6468298807      2.58e-06   Normal BFGS step
   13    -531.6468298807      2.70e-06   Normal BFGS step
   14    -531.6468298807      1.53e-06   Normal BFGS step
   15    -531.6468298806      5.56e-07  Convergence criterion met
 ---------------------------------------
 SCF time:   CPU 1058.37s  wall 72.00s 
<S^2> =          0.759231669
(3)  G-ENP(liq) elect-nuc-pol free energy of system     -531.646829881 a.u.
(4)  G-CDS(liq) cavity-dispersion-solvent structure 
     free energy                                                3.5546 kcal/mol
(6)  G-S(liq) free energy of system                     -531.641165335 a.u.
 SCF   energy in the final basis set =     -531.6411653353
 Total energy in the final basis set =     -531.6411653353
 
 --------------------------------------------------------------
 
                    Orbital Energies (a.u.)
 --------------------------------------------------------------
 
 Alpha MOs
 -- Occupied --
-19.4241 -19.4140 -19.3583 -19.3583 -19.3523 -19.3511 -10.4611 -10.4536
 -1.3216  -1.2203  -1.1913  -1.1409  -1.1323  -0.9919  -0.8459  -0.7363
 -0.6900  -0.6684  -0.6501  -0.6353  -0.6156  -0.5871  -0.5844  -0.5761
 -0.5164  -0.5066  -0.5000  -0.4719  -0.4334  -0.4275  -0.4142  -0.4105
 -0.3958  -0.3369
 -- Virtual --
  0.0235   0.0379   0.0433   0.0526   0.0622   0.0707   0.0930   0.1051
  0.1095   0.1284   0.1328   0.1423   0.1506   0.1635   0.1674   0.1774
  0.2011   0.2112   0.2178   0.2192   0.2323   0.2444   0.2489   0.2558
  0.2615   0.2736   0.2806   0.2883   0.2903   0.3022   0.3043   0.3065
  0.3228   0.3295   0.3380   0.3421   0.3487   0.3531   0.3598   0.3697
  0.3808   0.3859   0.3881   0.3973   0.4036   0.4143   0.4212   0.4257
  0.4540   0.4598   0.4822   0.5059   0.5727   0.5854   0.5873   0.5979
  0.6123   0.6172   0.6264   0.6621   0.6782   0.6882   0.7191   0.7221
  0.7521   0.7544   0.7886   0.8274   0.8409   0.8482   0.8716   0.8944
  0.9163   0.9220   0.9486   0.9840   0.9880   1.0139   1.0264   1.0372
  1.0494   1.0769   1.0956   1.1125   1.1264   1.1473   1.1503   1.1538
  1.1643   1.1968   1.1983   1.2040   1.2150   1.2298   1.2415   1.2537
  1.2719   1.2766   1.2834   1.2924   1.3329   1.3522   1.3711   1.4162
  1.4312   1.4367   1.4535   1.4761   1.4829   1.5143   1.5282   1.5437
  1.5514   1.5716   1.5975   1.6194   1.6240   1.6396   1.6581   1.6722
  1.7211   1.7576   1.7893   1.8312   1.8468   1.8761   1.9181   1.9302
  1.9442   1.9768   2.0165   2.0502   2.0886   2.1116   2.1329   2.1808
  2.2317   2.2739   2.3118   2.3279   2.3384   2.3458   2.3582   2.3953
  2.4049   2.4237   2.4357   2.4583   2.5080   2.5441   2.5960   2.6379
  2.6782   2.7244   2.7486   2.7879   2.8717   2.8788   2.9415   3.0029
  3.0710   3.1396   3.1629   3.1901   3.2703   3.3085   3.3605   3.3846
  3.4223   3.4568   3.5141   3.5523   3.5679   3.6215   3.6328   3.6391
  3.6716   3.7208   3.7231   3.7514   3.7982   3.8100   3.8230   3.8332
  3.8489   3.8641   3.8743   3.8986   3.9407   3.9708   4.0261   4.0429
  4.0957   4.1391   4.1483   4.1584   4.1747   4.1928   4.2352   4.2393
  4.2648   4.2891   4.3030   4.3351   4.3715   4.4328   4.4937   4.5585
  4.6500   4.6884   4.7508   4.7742   4.8075   4.9251   5.1126   5.1285
  5.1698   5.1918   5.2138   5.2191   5.2324   5.2437   5.2493   5.2546
  5.2685   5.2786   5.2928   5.3041   5.3167   5.3329   5.3434   5.3477
  5.3760   5.3813   5.3914   5.4417   5.4653   5.4843   5.5084   5.5250
  5.5579   5.5828   5.5928   5.6051   5.6223   5.6333   5.6408   5.6871
  5.7049   5.8033   5.8681   5.9112   5.9299   5.9455   6.0046   6.0598
  6.1007   6.1603   6.4065   6.4180   6.4516   6.5370   6.7269   6.7655
  6.8847   6.9827   6.9950   7.0213   7.0532   7.0617   7.0808   7.0865
  7.1048   7.1278   7.1367   7.1406   7.1724   7.1791   7.2292   7.2593
  7.3030   7.3292   7.3446   7.3586   7.3802   7.4060   7.4198   7.5047
  7.5786   7.6046   7.6258   7.6680   7.6936   7.7297   7.7862   7.8083
  7.8692   7.8977   7.9798   8.0443  24.6499  24.7956  50.4296  50.4914
 50.5655  50.5729  50.6047  50.6471
 
 Beta MOs
 -- Occupied --
-19.4193 -19.3989 -19.3572 -19.3571 -19.3522 -19.3507 -10.4549 -10.4534
 -1.3031  -1.2176  -1.1894  -1.1386  -1.1309  -0.9658  -0.8405  -0.7330
 -0.6766  -0.6633  -0.6434  -0.6185  -0.6120  -0.5753  -0.5738  -0.5464
 -0.5098  -0.5008  -0.4983  -0.4692  -0.4295  -0.4117  -0.3989  -0.3934
 -0.3694
 -- Virtual --
 -0.0548   0.0240   0.0382   0.0436   0.0529   0.0625   0.0709   0.0938
  0.1057   0.1096   0.1283   0.1337   0.1430   0.1508   0.1641   0.1692
  0.1813   0.2026   0.2123   0.2191   0.2206   0.2342   0.2472   0.2501
  0.2597   0.2639   0.2744   0.2841   0.2907   0.2930   0.3037   0.3065
  0.3113   0.3253   0.3306   0.3395   0.3458   0.3496   0.3539   0.3613
  0.3744   0.3837   0.3865   0.3962   0.3991   0.4061   0.4183   0.4242
  0.4286   0.4558   0.4618   0.4831   0.5072   0.5753   0.5871   0.5889
  0.5990   0.6137   0.6185   0.6280   0.6644   0.6827   0.6892   0.7196
  0.7229   0.7540   0.7586   0.7899   0.8288   0.8420   0.8500   0.8730
  0.8960   0.9176   0.9237   0.9499   0.9900   0.9914   1.0163   1.0277
  1.0388   1.0522   1.0791   1.0973   1.1139   1.1287   1.1512   1.1545
  1.1574   1.1683   1.1998   1.2007   1.2083   1.2207   1.2325   1.2437
  1.2592   1.2791   1.2802   1.2884   1.2958   1.3360   1.3549   1.3736
  1.4189   1.4343   1.4406   1.4570   1.4787   1.4848   1.5152   1.5323
  1.5494   1.5543   1.5732   1.6022   1.6252   1.6299   1.6491   1.6653
  1.6763   1.7236   1.7651   1.7948   1.8356   1.8490   1.8791   1.9234
  1.9333   1.9458   1.9846   2.0205   2.0518   2.0909   2.1202   2.1357
  2.1834   2.2369   2.2797   2.3141   2.3311   2.3410   2.3513   2.3622
  2.4021   2.4090   2.4270   2.4416   2.4640   2.5139   2.5492   2.5981
  2.6490   2.6813   2.7279   2.7518   2.7910   2.8674   2.8803   2.9394
  3.0101   3.0692   3.1485   3.1645   3.1932   3.2752   3.3129   3.3661
  3.3932   3.4286   3.4628   3.5181   3.5586   3.5718   3.6246   3.6390
  3.6523   3.6896   3.7276   3.7409   3.7604   3.8054   3.8145   3.8265
  3.8352   3.8523   3.8683   3.8779   3.9051   3.9441   3.9819   4.0322
  4.0453   4.1007   4.1339   4.1448   4.1600   4.1760   4.1898   4.2283
  4.2417   4.2662   4.2955   4.3039   4.3386   4.3731   4.4328   4.5013
  4.5606   4.6609   4.7029   4.7667   4.7852   4.8168   4.9436   5.1450
  5.1552   5.1767   5.2058   5.2178   5.2345   5.2409   5.2491   5.2525
  5.2703   5.2729   5.2825   5.2945   5.3075   5.3186   5.3369   5.3514
  5.3728   5.3796   5.3920   5.4022   5.4445   5.4693   5.5008   5.5097
  5.5268   5.5623   5.5855   5.5955   5.6181   5.6267   5.6368   5.6467
  5.6924   5.7197   5.8102   5.8725   5.9217   5.9393   5.9486   6.0084
  6.0631   6.1036   6.1632   6.4148   6.4262   6.4819   6.5389   6.7317
  6.7676   6.9253   7.0016   7.0267   7.0535   7.0626   7.0648   7.0840
  7.1038   7.1181   7.1310   7.1378   7.1484   7.1747   7.1801   7.2331
  7.2658   7.3065   7.3434   7.3542   7.3853   7.3968   7.4122   7.4218
  7.5215   7.5898   7.6231   7.6390   7.6717   7.6988   7.7305   7.7880
  7.8098   7.8705   7.9019   7.9894   8.0692  24.6537  24.7975  50.4357
 50.5006  50.5661  50.5734  50.6054  50.6475
 --------------------------------------------------------------
 
          Ground-State Mulliken Net Atomic Charges

     Atom                 Charge (a.u.)    Spin (a.u.)
  --------------------------------------------------------
      1 C                     0.078861      -0.013240
      2 O                    -0.462709       0.014280
      3 C                    -0.286886       0.317418
      4 O                    -0.418236       0.033402
      5 O                    -0.416788       0.033910
      6 O                    -0.425800       0.000506
      7 H                     0.266932      -0.001537
      8 H                     0.348632      -0.000103
      9 H                     0.359469       0.000892
     10 H                     0.367105      -0.000110
     11 H                     0.339572       0.000540
     12 O                    -0.306184       0.472085
     13 O                    -0.162175       0.164268
     14 H                     0.387376      -0.017657
     15 H                     0.330830      -0.004654
  --------------------------------------------------------
  Sum of atomic charges =     0.000000
  Sum of spin   charges =     1.000000

 -----------------------------------------------------------------
                    Cartesian Multipole Moments
 -----------------------------------------------------------------
    Charge (ESU x 10^10)
                 0.0000
[...]
      9 H                     0.370202      -0.002857
     10 H                     0.376237      -0.000177
     11 H                     0.329307      -0.000032
     12 O                    -0.388584       0.393847
     13 O                    -0.194230       0.071078
     14 H                     0.439249       0.025803
     15 H                     0.326311      -0.001818
  --------------------------------------------------------
  Sum of atomic charges =     0.000000
  Sum of spin   charges =     1.000000

 -----------------------------------------------------------------
                    Cartesian Multipole Moments
 -----------------------------------------------------------------
    Charge (ESU x 10^10)
                 0.0000
    Dipole Moment (Debye)
         X      -5.9849      Y      -2.6796      Z      -1.3361
       Tot       6.6921
    Quadrupole Moments (Debye-Ang)
        XX     -43.8842     XY      -1.1914     YY     -48.6427
        XZ       7.5264     YZ      -3.2997     ZZ     -53.4689
    Octopole Moments (Debye-Ang^2)
       XXX     -87.9801    XXY     -16.8895    XYY       7.3939
       YYY     -56.5997    XXZ      21.0916    XYZ      -0.8478
       YYZ       5.6011    XZZ     -10.7574    YZZ     -17.7293
       ZZZ      77.1297
    Hexadecapole Moments (Debye-Ang^3)
      XXXX    -631.3635   XXXY      71.2342   XXYY    -169.6519
      XYYY     107.8812   YYYY    -412.2009   XXXZ     116.3744
      XXYZ     -25.9083   XYYZ      20.7101   YYYZ     -46.8286
      XXZZ    -170.7856   XYZZ      35.4663   YYZZ    -105.1709
      XZZZ      96.1722   YZZZ     -46.3037   ZZZZ    -340.6571
 -----------------------------------------------------------------
 Calculating analytic gradient of the SCF energy
 Gradient of CDS energy
            1           2           3           4           5           6
    1   0.0029166  -0.0003540  -0.0032226   0.0023558   0.0009978  -0.0022497
    2   0.0041802   0.0005035  -0.0020609   0.0046712  -0.0028132  -0.0046086
    3   0.0004915   0.0003813  -0.0035431   0.0000923   0.0036705  -0.0005435
            7           8           9          10          11          12
    1  -0.0000630   0.0001608  -0.0002582  -0.0000984   0.0001576   0.0000447
    2  -0.0001057  -0.0004112  -0.0004316   0.0003128   0.0004292   0.0001215
    3   0.0000981  -0.0002609  -0.0001645  -0.0002954  -0.0001494   0.0000129
           13          14          15
    1   0.0002793  -0.0001013  -0.0005654
    2  -0.0000533   0.0001152   0.0001507
    3   0.0001967  -0.0000729   0.0000864
 Gradient of SCF Energy
            1           2           3           4           5           6
    1  -0.0019202   0.0077361   0.0023565   0.0188603   0.0153732   0.0055598
    2   0.0018334   0.0126795  -0.0024946  -0.0040082  -0.0080295  -0.0011793
    3  -0.0052487  -0.0026553  -0.0021791   0.0086865  -0.0057903   0.0059165
            7           8           9          10          11          12
    1  -0.0010385  -0.0045479  -0.0225058  -0.0152174  -0.0030808   0.0023797
    2  -0.0041507  -0.0106654   0.0037246   0.0048826   0.0026717   0.0014971
    3   0.0032862   0.0014787  -0.0069469   0.0020531  -0.0031785   0.0028934
           13          14          15
    1   0.0168190  -0.0059396  -0.0148343
    2   0.0197772   0.0011477  -0.0176861
    3   0.0076652   0.0005119  -0.0064928
 Max gradient component =       2.251E-02
 RMS gradient           =       8.831E-03
 Computing fast CPCM-SWIG gradient
 Updating gradient with PCM contributions...
 -- total gradient after adding PCM contribution --
---------------------------------------------------
  Atom         X              Y              Z     
---------------------------------------------------
   1       0.000000       0.000020      -0.000003
   2       0.000032      -0.000025       0.000014
   3       0.000010       0.000026       0.000008
   4      -0.000008      -0.000002      -0.000019
   5       0.000022      -0.000029      -0.000006
   6      -0.000039       0.000029       0.000072
   7      -0.000001       0.000000      -0.000003
   8      -0.000031       0.000035      -0.000027
   9       0.000010      -0.000009      -0.000030
  10       0.000004       0.000014       0.000006
  11       0.000035      -0.000019      -0.000006
  12      -0.000035       0.000007      -0.000021
  13      -0.000007      -0.000013       0.000025
  14       0.000013      -0.000035      -0.000001
  15      -0.000006       0.000001      -0.000009
---------------------------------------------------
 Number of fixed atoms: 0
 Gradient time:  CPU 170.54 s  wall 14.85 s
 Geometry Optimization Parameters
   NAtoms,    NIC,     NZ,  NCons,   NDum,   NFix, NCnnct, MaxDiis
       15      89       0       0       0       0       0       0

 Cartesian Hessian Update
 Hessian updated using Powell/Murtagh-Sargent update
  Mixing factors:     0.966553 Powell                      0.033447 Murtagh-Sargent


** GEOMETRY OPTIMIZATION IN DELOCALIZED INTERNAL COORDINATES **
   Searching for a Transition State

   Optimization Cycle:  77

                       Coordinates (Angstroms)
     ATOM                X               Y               Z
      1  C         1.4200034624   -0.2579976046   -0.3644810182
      2  O         2.0152369936   -0.9222759067   -1.4637621480
      3  C        -0.0766918770   -0.1000323415   -0.5950827876
      4  O        -0.6873034121   -1.3359526123   -0.6079251737
      5  O        -0.3487189096    0.6944704493   -1.6902116310
      6  O         2.0266563211    0.9900973459   -0.2292224782
      7  H         1.5894440899   -0.8112642556    0.5582744064
      8  H         1.6787244355   -1.8265186906   -1.4939771350
      9  H        -1.5804943930   -1.2446208289   -0.9674115810
     10  H        -1.1239249765    1.2487190576   -1.4851617510
     11  H         1.7149694416    1.5545012763   -0.9502637065
     12  O        -1.2447290818    1.3719533684    1.0631001051
     13  O        -2.1050861248    1.8961379872    0.0984816611
     14  H        -0.5372817056    0.5695647917    0.4009323266
     15  H        -2.8690442638    1.2992997637    0.1182491111
   Point Group: c1    Number of degrees of freedom:    39


   Energy is   -531.658257015

 Hessian updated using Powell/Murtagh-Sargent update
  Mixing factors:     0.890287 Powell                      0.109713 Murtagh-Sargent

 39 Hessian modes will be used to form the next step
  Hessian Eigenvalues:
    -0.149312    0.001601    0.003410    0.007178    0.009133    0.010198
     0.012927    0.016568    0.020386    0.046163    0.052573    0.063986
     0.070425    0.078423    0.081317    0.106406    0.127940    0.150020
     0.163255    0.189821    0.202788    0.207248    0.210284    0.212404
     0.217120    0.221989    0.261807    0.277993    0.294017    0.388069
     0.423184    0.428132    0.431633    0.436707    0.438076    0.453846
     0.486375    0.520307    0.540761

 Transition state search - taking P-RFO step
 Searching for Lamda that Maximizes Along the Lowest mode
 Value Taken    Lamda =   0.00000001
 Searching for Lamda that Minimizes Along All other modes
 Value Taken    Lamda =  -0.00000157
 Step Taken.  Stepsize is  0.025183

                             Maximum     Tolerance    Cnvgd?
         Gradient           0.000067      0.000300     YES
         Displacement       0.015198      0.001200      NO
         Energy change     -0.000001      0.000001     YES


                       Distance Matrix (Angstroms)
             C (  1)   O (  2)   C (  3)   O (  4)   O (  5)   O (  6)
   O (  2)  1.415623
   C (  3)  1.522573  2.409742
   O (  4)  2.379495  2.864840  1.378590
   O (  5)  2.406893  2.872879  1.380051  2.325640
   O (  6)  1.394297  2.276267  2.397146  3.594371  2.804335
   H (  7)  1.089170  2.069361  2.147578  2.611302  3.328574  2.014003
   H (  8)  1.950117  0.965302  2.621117  2.573680  3.241052  3.107087
   H (  9)  3.215577  3.644112  1.926171  0.967141  2.408274  4.307020
   H ( 10)  3.161913  3.816807  1.925634  2.764183  0.974772  3.401534
   H ( 11)  1.927511  2.547208  2.464485  3.773968  2.354992  0.967265
   O ( 12)  3.434462  4.719735  2.506117  3.230449  2.973641  3.538061
   O ( 13)  4.157029  5.230786  2.929183  3.599379  2.779974  4.242593
   H ( 14)  2.258690  3.495429  1.285515  2.161318  2.103340  2.673522
   H ( 15)  4.588478  5.594136  3.203780  3.497410  3.160441  4.917746
             H (  7)   H (  8)   H (  9)   H ( 10)   H ( 11)   O ( 12)
   H (  8)  2.291386
   H (  9)  3.544577  3.352370
   H ( 10)  3.972598  4.160770  2.587134
   H ( 11)  2.808610  3.424651  4.323825  2.904985
   O ( 12)  3.613008  5.031446  3.328990  2.554098  3.584240
   O ( 13)  4.603367  5.541780  3.357930  1.972246  3.976105  1.394802
   H ( 14)  2.540553  3.773934  2.500385  2.088720  2.805079  1.258084
   H ( 15)  4.952395  5.749106  3.051320  2.370427  4.713813  1.880538
             O ( 13)   H ( 14)
   H ( 14)  2.075881
   H ( 15)  0.969659  2.459581
 
 Final energy is   -531.658257014885     


 ******************************
 **  OPTIMIZATION CONVERGED  **
 ******************************

                       Coordinates (Angstroms)
     ATOM                X               Y               Z
      1  C         1.4200034624   -0.2579976046   -0.3644810182
      2  O         2.0152369936   -0.9222759067   -1.4637621480
      3  C        -0.0766918770   -0.1000323415   -0.5950827876
      4  O        -0.6873034121   -1.3359526123   -0.6079251737
      5  O        -0.3487189096    0.6944704493   -1.6902116310
      6  O         2.0266563211    0.9900973459   -0.2292224782
      7  H         1.5894440899   -0.8112642556    0.5582744064
      8  H         1.6787244355   -1.8265186906   -1.4939771350
      9  H        -1.5804943930   -1.2446208289   -0.9674115810
     10  H        -1.1239249765    1.2487190576   -1.4851617510
     11  H         1.7149694416    1.5545012763   -0.9502637065
     12  O        -1.2447290818    1.3719533684    1.0631001051
     13  O        -2.1050861248    1.8961379872    0.0984816611
     14  H        -0.5372817056    0.5695647917    0.4009323266
     15  H        -2.8690442638    1.2992997637    0.1182491111

Z-matrix Print:
$molecule
0 2
O 
H  1 0.974772
C  1 1.380051 2 108.492072
H  3 1.285515 1 104.142745 2 -26.696762 0
O  4 1.258084 3 160.302311 1 27.316427 0
O  3 1.378590 1 114.924715 2 91.719010 0
H  6 0.967141 3 109.138835 1 -38.602261 0
O  5 1.394802 4 102.858582 3 -0.294802 0
H  8 0.969659 5 103.919688 4 90.463788 0
C  3 1.522573 1 111.942674 2 -141.702277 0
H  10 1.089170 3 109.508118 1 174.730932 0
O  10 1.394297 3 110.458172 1 56.219592 0
H  12 0.967265 10 108.047355 3 -47.792035 0
O  10 1.415623 3 110.145295 1 -63.255297 0
H  14 0.965302 10 108.499204 3 -66.183628 0
$end

 
 --------------------------------------------------------------
 
                    Orbital Energies (a.u.)
 --------------------------------------------------------------
 
 Alpha MOs
 -- Occupied --
-19.4117 -19.4036 -19.3711 -19.3653 -19.3531 -19.3482 -10.4669 -10.4558
 -1.2767  -1.2366  -1.2012  -1.1615  -1.1402  -1.0047  -0.8611  -0.7556
 -0.7021  -0.6794  -0.6501  -0.6418  -0.6392  -0.5840  -0.5660  -0.5551
 -0.5329  -0.5194  -0.4904  -0.4831  -0.4409  -0.4369  -0.4323  -0.4144
 -0.4029  -0.3281
 -- Virtual --
  0.0248   0.0390   0.0460   0.0506   0.0678   0.0740   0.0832   0.1066
  0.1200   0.1276   0.1338   0.1431   0.1459   0.1514   0.1690   0.1768
  0.2098   0.2170   0.2289   0.2303   0.2365   0.2418   0.2524   0.2572
  0.2690   0.2765   0.2850   0.2889   0.2975   0.2983   0.3137   0.3152
  0.3217   0.3279   0.3396   0.3405   0.3569   0.3628   0.3649   0.3759
  0.3799   0.3879   0.3954   0.4040   0.4099   0.4201   0.4306   0.4460
  0.4564   0.4688   0.4911   0.5007   0.5674   0.5785   0.6037   0.6100
  0.6193   0.6332   0.6688   0.6774   0.6884   0.6894   0.7333   0.7457
  0.7486   0.7527   0.7731   0.8204   0.8426   0.8513   0.8594   0.9106
  0.9197   0.9308   0.9489   0.9753   1.0078   1.0175   1.0568   1.0605
  1.0727   1.0820   1.1031   1.1220   1.1317   1.1468   1.1574   1.1709
  1.1790   1.1939   1.1985   1.2094   1.2207   1.2366   1.2458   1.2524
  1.2686   1.2844   1.2923   1.3167   1.3427   1.3551   1.3807   1.3951
  1.4083   1.4331   1.4808   1.4827   1.5167   1.5332   1.5482   1.5693
  1.5799   1.6086   1.6167   1.6336   1.6654   1.6857   1.6980   1.7138
  1.7394   1.7647   1.8100   1.8347   1.8705   1.8855   1.8915   1.9462
  1.9888   2.0012   2.0418   2.0735   2.0925   2.1517   2.1680   2.2032
  2.2513   2.2710   2.2967   2.3089   2.3506   2.3604   2.3818   2.4134
  2.4380   2.4485   2.4544   2.4950   2.5064   2.5645   2.5748   2.6754
  2.7143   2.7548   2.8112   2.8540   2.8953   2.9159   2.9686   3.0397
  3.0843   3.1068   3.1904   3.2552   3.3156   3.3322   3.3734   3.4236
  3.4623   3.4645   3.5289   3.5520   3.6019   3.6212   3.6263   3.6537
  3.6730   3.6847   3.7420   3.7802   3.7934   3.8225   3.8323   3.8475
  3.8529   3.8837   3.8996   3.9076   3.9304   3.9774   4.0568   4.0791
  4.1086   4.1659   4.1917   4.2171   4.2347   4.2691   4.2733   4.2921
  4.3079   4.3580   4.3640   4.3672   4.4163   4.4855   4.5864   4.6114
  4.6543   4.7133   4.7476   4.7882   4.8307   4.9969   5.1356   5.1740
  5.1955   5.2027   5.2108   5.2258   5.2281   5.2523   5.2582   5.2746
  5.2808   5.2874   5.2923   5.3007   5.3246   5.3381   5.3515   5.3793
  5.4107   5.4160   5.4414   5.4527   5.4701   5.4812   5.5077   5.5526
  5.6062   5.6195   5.6301   5.6527   5.6612   5.6684   5.6823   5.7052
  5.7295   5.7685   5.8861   5.9640   5.9933   6.0230   6.0648   6.0884
  6.1205   6.1769   6.2964   6.3412   6.4854   6.5510   6.7640   6.8135
  6.9174   6.9363   6.9757   6.9938   7.0298   7.0537   7.0862   7.1104
  7.1147   7.2072   7.2304   7.2412   7.2502   7.2729   7.3186   7.3255
  7.3411   7.3473   7.3705   7.3997   7.4297   7.4422   7.4835   7.5469
  7.5639   7.5935   7.6227   7.6934   7.7159   7.7407   7.8108   7.8203
  7.8707   7.9036   7.9284   8.0456  24.7409  24.8666  50.4627  50.4992
 50.5673  50.5897  50.6122  50.6598
 
 Beta MOs
 -- Occupied --
-19.4097 -19.3901 -19.3684 -19.3636 -19.3531 -19.3475 -10.4596 -10.4554
 -1.2633  -1.2314  -1.1992  -1.1565  -1.1391  -0.9838  -0.8532  -0.7513
 -0.6906  -0.6655  -0.6464  -0.6350  -0.6310  -0.5826  -0.5570  -0.5320
 -0.5177  -0.5037  -0.4887  -0.4754  -0.4371  -0.4314  -0.4061  -0.4012
 -0.3856
 -- Virtual --
 -0.0475   0.0253   0.0393   0.0462   0.0508   0.0686   0.0741   0.0836
  0.1067   0.1202   0.1274   0.1346   0.1438   0.1509   0.1519   0.1706
  0.1777   0.2116   0.2180   0.2307   0.2339   0.2392   0.2428   0.2533
  0.2583   0.2702   0.2771   0.2861   0.2910   0.2996   0.3003   0.3156
  0.3175   0.3235   0.3299   0.3416   0.3433   0.3575   0.3634   0.3669
  0.3781   0.3805   0.3885   0.3990   0.4078   0.4126   0.4258   0.4411
  0.4470   0.4600   0.4712   0.4941   0.5045   0.5695   0.5814   0.6050
  0.6119   0.6242   0.6342   0.6723   0.6797   0.6909   0.6916   0.7357
  0.7498   0.7519   0.7557   0.7745   0.8215   0.8446   0.8525   0.8611
  0.9120   0.9210   0.9320   0.9502   0.9771   1.0089   1.0230   1.0597
  1.0632   1.0748   1.0841   1.1087   1.1239   1.1366   1.1482   1.1613
  1.1733   1.1842   1.1984   1.2028   1.2106   1.2228   1.2422   1.2495
  1.2563   1.2718   1.2875   1.2971   1.3182   1.3456   1.3577   1.3838
  1.3980   1.4121   1.4362   1.4825   1.4857   1.5197   1.5354   1.5516
  1.5713   1.5852   1.6105   1.6190   1.6394   1.6718   1.6895   1.7022
  1.7172   1.7440   1.7714   1.8170   1.8379   1.8768   1.8928   1.8940
  1.9521   1.9946   2.0047   2.0472   2.0794   2.0960   2.1535   2.1721
  2.2073   2.2564   2.2746   2.2999   2.3109   2.3541   2.3650   2.3851
  2.4181   2.4411   2.4509   2.4589   2.5006   2.5141   2.5685   2.5792
  2.6799   2.7199   2.7618   2.8160   2.8584   2.8993   2.9190   2.9679
  3.0470   3.0911   3.1166   3.1993   3.2594   3.3181   3.3383   3.3798
  3.4327   3.4699   3.4745   3.5378   3.5643   3.6066   3.6241   3.6374
  3.6661   3.6860   3.7058   3.7516   3.7858   3.8035   3.8257   3.8368
  3.8494   3.8576   3.8898   3.9037   3.9104   3.9383   3.9891   4.0615
  4.0837   4.1157   4.1701   4.1955   4.2196   4.2352   4.2728   4.2797
  4.2955   4.3064   4.3616   4.3665   4.3710   4.4176   4.4863   4.5916
  4.6262   4.6602   4.7208   4.7589   4.8028   4.8435   5.0078   5.1566
  5.1785   5.2074   5.2105   5.2235   5.2337   5.2417   5.2585   5.2645
  5.2817   5.2846   5.2904   5.2983   5.3092   5.3301   5.3445   5.3563
  5.4066   5.4190   5.4223   5.4458   5.4570   5.4788   5.4850   5.5142
  5.5566   5.6097   5.6211   5.6382   5.6583   5.6643   5.6736   5.6875
  5.7084   5.7330   5.7732   5.8891   5.9672   5.9963   6.0424   6.0681
  6.0934   6.1286   6.1823   6.3170   6.3482   6.4968   6.5533   6.7657
  6.8212   6.9309   6.9588   6.9897   7.0154   7.0421   7.0743   7.0934
  7.1146   7.1271   7.2132   7.2341   7.2455   7.2567   7.2761   7.3209
  7.3278   7.3524   7.3583   7.3737   7.4178   7.4335   7.4513   7.4990
  7.5622   7.5775   7.6093   7.6255   7.6970   7.7185   7.7458   7.8158
  7.8225   7.8727   7.9119   7.9549   8.0538  24.7440  24.8702  50.4665
 50.5074  50.5688  50.5906  50.6129  50.6608
 --------------------------------------------------------------
 
          Ground-State Mulliken Net Atomic Charges

     Atom                 Charge (a.u.)    Spin (a.u.)
  --------------------------------------------------------
      1 C                     0.007455       0.003316
      2 O                    -0.441757       0.021086
      3 C                    -0.261142       0.364769
      4 O                    -0.372565       0.083423
      5 O                    -0.402585       0.042955
      6 O                    -0.407082      -0.000775
      7 H                     0.288533      -0.000575
      8 H                     0.330651      -0.000041
      9 H                     0.370202      -0.002857
     10 H                     0.376237      -0.000177
     11 H                     0.329307      -0.000032
     12 O                    -0.388584       0.393847
     13 O                    -0.194230       0.071078
     14 H                     0.439249       0.025803
     15 H                     0.326311      -0.001818
  --------------------------------------------------------
  Sum of atomic charges =     0.000000
  Sum of spin   charges =     1.000000

 -----------------------------------------------------------------
                    Cartesian Multipole Moments
 -----------------------------------------------------------------
    Charge (ESU x 10^10)
                 0.0000
    Dipole Moment (Debye)
         X      -5.9849      Y      -2.6796      Z      -1.3361
       Tot       6.6921
    Quadrupole Moments (Debye-Ang)
        XX     -43.8842     XY      -1.1914     YY     -48.6427
        XZ       7.5264     YZ      -3.2997     ZZ     -53.4689
    Octopole Moments (Debye-Ang^2)
       XXX     -87.9801    XXY     -16.8895    XYY       7.3939
       YYY     -56.5997    XXZ      21.0916    XYZ      -0.8478
       YYZ       5.6011    XZZ     -10.7574    YZZ     -17.7293
       ZZZ      77.1297
    Hexadecapole Moments (Debye-Ang^3)
      XXXX    -631.3635   XXXY      71.2342   XXYY    -169.6519
      XYYY     107.8812   YYYY    -412.2009   XXXZ     116.3744
      XXYZ     -25.9083   XYYZ      20.7101   YYYZ     -46.8286
      XXZZ    -170.7856   XYZZ      35.4663   YYZZ    -105.1709
      XZZZ      96.1722   YZZZ     -46.3037   ZZZZ    -340.6571
 -----------------------------------------------------------------
 Total job time:  8218.59s(wall), 116418.31s(cpu) 
 Sat Jul 22 01:52:58 2023

        *************************************************************
        *                                                           *
        *  Thank you very much for using Q-Chem.  Have a nice day.  *
        *                                                           *
        *************************************************************


