
Running Job 1 of 1 Q_in.in
qchem Q_in.in_261969.0 /scratch/ari.fischer/qChem1516508.hpc-mn1/qchem261969/ 0
/usr/local/qchem-5.4.1/exe/qcprog.exe_s Q_in.in_261969.0 /scratch/ari.fischer/qChem1516508.hpc-mn1/qchem261969/
                  Welcome to Q-Chem
     A Quantum Leap Into The Future Of Chemistry


 Q-Chem 5.4, Q-Chem, Inc., Pleasanton, CA (2021)

 License issued to: Nanyang Technological University (site)

 E. Epifanovsky,  A. T. B. Gilbert,  Xintian Feng,  Joonho Lee,  Yuezhi Mao,  
 N. Mardirossian,  P. Pokhilko,  A. White,  M. Wormit,  M. P. Coons,  
 A. L. Dempwolff,  Zhengting Gan,  D. Hait,  P. R. Horn,  L. D. Jacobson,  
 I. Kaliman,  J. Kussmann,  A. W. Lange,  Ka Un Lao,  D. S. Levine,  Jie Liu,  
 S. C. McKenzie,  A. F. Morrison,  K. Nanda,  F. Plasser,  D. R. Rehn,  
 M. L. Vidal,  Zhi-Qiang You,  Ying Zhu,  B. Alam,  B. Albrecht,  
 A. Aldossary,  E. Alguire,  J. H. Andersen,  D. Barton,  K. Begam,  A. Behn,  
 Y. A. Bernard,  E. J. Berquist,  H. Burton,  A. Carreras,  K. Carter-Fenk,  
 R. Chakraborty,  A. D. Chien,  K. D. Closser,  V. Cofer-Shabica,  
 S. Dasgupta,  Jia Deng,  M. de Wergifosse,  M. Diedenhofen,  Hainam Do,  
 S. Ehlert,  Po-Tung Fang,  S. Fatehi,  Qingguo Feng,  T. Friedhoff,  
 J. Gayvert,  Qinghui Ge,  G. Gidofalvi,  M. Goldey,  J. Gomes,  
 C. Gonzalez-Espinoza,  S. Gulania,  A. Gunina,  M. W. D. Hanson-Heine,  
 P. H. P. Harbach,  A. W. Hauser,  M. F. Herbst,  M. Hernandez Vera,  
 M. Hodecker,  Z. C. Holden,  S. Houck,  Xunkun Huang,  Kerwin Hui,  
 B. C. Huynh,  M. Ivanov,  Hyunjun Ji,  Hanjie Jiang,  B. Kaduk,  S. Kaehler,  
 K. Khistyaev,  Jaehoon Kim,  P. Klunzinger,  Z. Koczor-Benda,  
 Joong Hoon Koh,  D. Kosenkov,  L. Koulias,  T. Kowalczyk,  C. M. Krauter,  
 K. Kue,  A. Kunitsa,  T. Kus,  A. Landau,  K. V. Lawler,  D. Lefrancois,  
 S. Lehtola,  Rain Li,  Yi-Pei Li,  Jiashu Liang,  M. Liebenthal,  
 Hung-Hsuan Lin,  You-Sheng Lin,  Fenglai Liu,  Kuan-Yu Liu,  
 M. Loipersberger,  A. Luenser,  A. Manjanath,  P. Manohar,  E. Mansoor,  
 S. F. Manzer,  Shan-Ping Mao,  A. V. Marenich,  T. Markovich,  S. Mason,  
 S. A. Maurer,  P. F. McLaughlin,  M. F. S. J. Menger,  J.-M. Mewes,  
 S. A. Mewes,  P. Morgante,  J. W. Mullinax,  K. J. Oosterbaan,  G. Paran,  
 Alexander C. Paul,  Suranjan K. Paul,  F. Pavosevic,  Zheng Pei,  S. Prager,  
 E. I. Proynov,  E. Ramos,  B. Rana,  A. E. Rask,  A. Rettig,  R. M. Richard,  
 F. Rob,  E. Rossomme,  T. Scheele,  M. Scheurer,  M. Schneider,  
 N. Sergueev,  S. M. Sharada,  W. Skomorowski,  D. W. Small,  C. J. Stein,  
 Yu-Chuan Su,  E. J. Sundstrom,  Zhen Tao,  J. Thirman,  T. Tsuchimochi,  
 N. M. Tubman,  S. P. Veccham,  O. Vydrov,  J. Wenzel,  J. Witte,  A. Yamada,  
 Kun Yao,  S. Yeganeh,  S. R. Yost,  A. Zech,  Igor Ying Zhang,  Xing Zhang,  
 Yu Zhang,  D. Zuev,  A. Aspuru-Guzik,  A. T. Bell,  N. A. Besley,  
 K. B. Bravaya,  B. R. Brooks,  D. Casanova,  Jeng-Da Chai,  S. Coriani,  
 C. J. Cramer,  A. E. DePrince, III,  R. A. DiStasio Jr.,  A. Dreuw,  
 B. D. Dunietz,  T. R. Furlani,  W. A. Goddard III,  S. Grimme,  
 S. Hammes-Schiffer,  T. Head-Gordon,  W. J. Hehre,  Chao-Ping Hsu,  
 T.-C. Jagau,  Yousung Jung,  A. Klamt,  Jing Kong,  D. S. Lambrecht,  
 WanZhen Liang,  N. J. Mayhall,  C. W. McCurdy,  J. B. Neaton,  
 C. Ochsenfeld,  J. A. Parkhill,  R. Peverati,  V. A. Rassolov,  Yihan Shao,  
 L. V. Slipchenko,  T. Stauch,  R. P. Steele,  J. E. Subotnik,  
 A. J. W. Thom,  A. Tkatchenko,  D. G. Truhlar,  T. Van Voorhis,  
 T. A. Wesolowski,  K. B. Whaley,  H. L. Woodcock III,  P. M. Zimmerman,  
 S. Faraji,  P. M. W. Gill,  M. Head-Gordon,  J. M. Herbert,  A. I. Krylov

 Additional authors for Version 5.4.1: 
 S. Kotaru,  Shaozhi Li,  Xiangyuan Li,  F. Matz,  A. Molle,  Haisheng Ren,  
 Yingli Su,  Hung-Yi Tsai,  C. Utku,  Fang Wang

 Contributors to earlier versions of Q-Chem not listed above: 
 R. D. Adamson,  B. Austin,  R. Baer,  J. Baker,  G. J. O. Beran,  
 K. Brandhorst,  S. T. Brown,  E. F. C. Byrd,  A. K. Chakraborty,  
 G. K. L. Chan,  Chun-Min Chang,  Yunqing Chen,  C.-L. Cheng,  
 Siu Hung Chien,  D. M. Chipman,  D. L. Crittenden,  H. Dachsel,  
 R. J. Doerksen,  A. D. Dutoi,  R. G. Edgar,  J. Fosso-Tande,  
 L. Fusti-Molnar,  D. Ghosh,  A. Ghysels,  A. Golubeva-Zadorozhnaya,  
 J. Gonthier,  M. S. Gordon,  S. R. Gwaltney,  G. Hawkins,  J. E. Herr,  
 A. Heyden,  S. Hirata,  E. G. Hohenstein,  G. Kedziora,  F. J. Keil,  
 C. Kelley,  Jihan Kim,  R. A. King,  R. Z. Khaliullin,  P. P. Korambath,  
 W. Kurlancheek,  A. Laurent,  A. M. Lee,  M. S. Lee,  S. V. Levchenko,  
 Ching Yeh Lin,  D. Liotard,  E. Livshits,  R. C. Lochan,  I. Lotan,  
 L. A. Martinez-Martinez,  P. E. Maslen,  N. Nair,  D. P. O'Neill,  
 D. Neuhauser,  E. Neuscamman,  C. M. Oana,  R. Olivares-Amaya,  R. Olson,  
 T. M. Perrine,  B. Peters,  P. A. Pieniazek,  A. Prociuk,  Y. M. Rhee,  
 J. Ritchie,  M. A. Rohrdanz,  E. Rosta,  N. J. Russ,  H. F. Schaefer III,  
 M. W. Schmidt,  N. E. Schultz,  S. Sharma,  N. Shenvi,  C. D. Sherrill,  
 A. C. Simmonett,  A. Sodt,  T. Stein,  D. Stuck,  K. S. Thanthiriwatte,  
 V. Vanovschi,  L. Vogt,  Tao Wang,  A. Warshel,  M. A. Watson,  
 C. F. Williams,  Q. Wu,  X. Xu,  Jun Yang,  W. Zhang,  Yan Zhao

 Please cite Q-Chem as follows:
 Y. Shao et al., Mol. Phys. 113, 184-215 (2015)
 DOI: 10.1080/00268976.2014.952696

 Q-Chem 5.4.1 for Intel X86 EM64T Linux

 Parts of Q-Chem use Armadillo 9.800.1 (Horizon Scraper).
 http://arma.sourceforge.net/

 Q-Chem begins on Fri Apr 21 21:43:38 2023  

 Host: 
0

     Scratch files written to /scratch/ari.fischer/qChem1516508.hpc-mn1/qchem261969//
 Aug1521 |scratch|qcdevops|jenkins|workspace|build_RNUM 8249   
 Processing $rem in /usr/local/qchem-5.4.1/config/preferences:
 Processing $rem in /home/ari.fischer/.qchemrc:
 Symmetry turned off for PCM/SM12/SMD calculation


!!********************************************.
!!******************Warning*******************.
!!Desired Analytical derivatives not available.
!!Finite difference job might take a long time.
!!********************************************.
!!********************************************.


 2-order derivative to be evaluated numerically with 1-order analytical derivatives

 Checking the input file for inconsistencies... 	...done.

--------------------------------------------------------------
User input:
--------------------------------------------------------------
$molecule
0 2
C        -0.0018404122   -0.2111117093    0.7850936061
C        -0.8543848161   -0.9918940042    1.7683029115
C        -1.5196683997   -2.2109419019    1.1227945149
C        -2.0055640006   -1.9339193494   -0.2641669056
C        -1.8515154361   -0.7350846070   -0.8087086325
C        -1.1496036673    0.3646171657   -0.0495378539
C        -0.7251521423    1.5393707568   -0.9154633142
H         0.5037786528    0.6071459078    1.3020086762
H        -0.3494812382   -1.2575758007    2.6940202745
H        -2.3275249030   -2.5552362610    1.7667101376
H        -2.5227452920   -2.7333165745   -0.7779470761
H        -2.2461336117   -0.5083249826   -1.7919990418
H        -1.5761696459    1.9429402106   -1.4647113596
O         0.3079241531    1.1226201974   -1.8034602674
H        -0.3097392532    2.3170653479   -0.2783353600
H        -0.0908969573    0.6657618793   -2.5524873272
O         0.9076945902   -1.0285596615    0.0903002229
H         1.2026554683   -0.5187483791   -0.6774832051
O        -1.8818546619   -0.0585635157    2.1034148666
O        -1.9996977120    0.8785907926    0.9829490540
O        -0.5706882397   -3.3225894704    1.0426109010
O        -0.3880468755   -3.8825907410    2.2045710782
$end

$rem
BASIS = 6-311++G(2df,2p)
GUI = 2
JOB_TYPE = Frequency
METHOD = wB97M-V
SOLVENT_METHOD = SMD
SCF_ALGORITHM = DIIS_GDM
MAX_SCF_CYCLES = 400
SCF_CONVERGENCE = 7
THRESH = 12
UNRESTRICTED = 1
SYMMETRY_IGNORE = 1
$end
--------------------------------------------------------------
 ----------------------------------------------------------------
             Standard Nuclear Orientation (Angstroms)
    I     Atom           X                Y                Z
 ----------------------------------------------------------------
    1      C      -0.0018404122    -0.2111117093     0.7850936061
    2      C      -0.8543848161    -0.9918940042     1.7683029115
    3      C      -1.5196683997    -2.2109419019     1.1227945149
    4      C      -2.0055640006    -1.9339193494    -0.2641669056
    5      C      -1.8515154361    -0.7350846070    -0.8087086325
    6      C      -1.1496036673     0.3646171657    -0.0495378539
    7      C      -0.7251521423     1.5393707568    -0.9154633142
    8      H       0.5037786528     0.6071459078     1.3020086762
    9      H      -0.3494812382    -1.2575758007     2.6940202745
   10      H      -2.3275249030    -2.5552362610     1.7667101376
   11      H      -2.5227452920    -2.7333165745    -0.7779470761
   12      H      -2.2461336117    -0.5083249826    -1.7919990418
   13      H      -1.5761696459     1.9429402106    -1.4647113596
   14      O       0.3079241531     1.1226201974    -1.8034602674
   15      H      -0.3097392532     2.3170653479    -0.2783353600
   16      H      -0.0908969573     0.6657618793    -2.5524873272
   17      O       0.9076945902    -1.0285596615     0.0903002229
   18      H       1.2026554683    -0.5187483791    -0.6774832051
   19      O      -1.8818546619    -0.0585635157     2.1034148666
   20      O      -1.9996977120     0.8785907926     0.9829490540
   21      O      -0.5706882397    -3.3225894704     1.0426109010
   22      O      -0.3880468755    -3.8825907410     2.2045710782
 ----------------------------------------------------------------
 Nuclear Repulsion Energy =         904.05422235 hartrees
 There are       50 alpha and       49 beta electrons
 Requested basis set is 6-311++G(2df,2p)
 There are 158 shells and 532 basis functions

 Total QAlloc Memory Limit 288000 MB
 Mega-Array Size       188 MB
 MEM_STATIC part       192 MB
 
 Citation of the SMD model:
 Marenich, A.V.; Cramer, C.J.; Truhlar, D.G.
 J. Phys. Chem. B 2009, 113, 6378-6396.
 iSolventCode=           1
 Solvent: water                                                           
 
 vradii
            1           2           3           4           5           6
    1   1.8500000   1.8500000   1.8500000   1.8500000   1.8500000   1.8500000
            7           8           9          10          11          12
    1   1.8500000   1.2000000   1.2000000   1.2000000   1.2000000   1.2000000
           13          14          15          16          17          18
    1   1.2000000   1.5200000   1.2000000   1.2000000   1.5200000   1.2000000
           19          20          21          22
    1   1.5200000   1.5200000   1.5200000   1.5200000
 Changing PCM_VDW_RADII to SMD_RADIUS
 Discretize the solute cavity surface with Lebedev spheres
	Using 110 Lebedev grid points for each H atom
	Using 194 Lebedev grid points for other atoms
	Atomic van der Waals radii will be scaled by 1.20
 Remove points where switching function is < 1.0e-08
 Keep 1612 surface tesserae and discard 1900 interior tesserae
 Molecular Surface Area = 180.364 Angst**2
 A cutoff of  1.0D-12 yielded  11012 shell pairs
 There are    125029 function pairs (    156639 Cartesian)
 Smallest overlap matrix eigenvalue = 1.80E-06
 Guess from superposition of atomic densities
 Warning:  Energy on first SCF cycle will be non-variational
 SAD guess density has 99.000000 electrons

 -----------------------------------------------------------------------
  General SCF calculation program by
  Eric Jon Sundstrom, Paul Horn, Yuezhi Mao, Dmitri Zuev, Alec White,
  David Stuck, Shaama M.S., Shane Yost, Joonho Lee, David Small,
  Daniel Levine, Susi Lehtola, Hugh Burton, Evgeny Epifanovsky,
  Bang C. Huynh
 -----------------------------------------------------------------------
 Exchange:     0.1500 Hartree-Fock + 1.0000 wB97M-V + LR-HF
 Correlation:  1.0000 wB97M-V
 Using SG-2 standard quadrature grid
 Nonlocal Correlation:  VV10 with C = 0.0100 and b = 6.00 and scale = 1.00000
 Grid used for NLC:  SG-1 standard quadrature
 using 8 threads for integral computing
 -------------------------------------------------------
 OpenMP Integral computing Module                
 Release: version 1.0, May 2013, Q-Chem Inc. Pittsburgh 
 -------------------------------------------------------
 
 Citation of the SMD model:
 Marenich, A.V.; Cramer, C.J.; Truhlar, D.G.
 J. Phys. Chem. B 2009, 113, 6378-6396.
 iSolventCode=           1
 Solvent: water                                                           
 
 vradii
            1           2           3           4           5           6
    1   1.8500000   1.8500000   1.8500000   1.8500000   1.8500000   1.8500000
            7           8           9          10          11          12
    1   1.8500000   1.2000000   1.2000000   1.2000000   1.2000000   1.2000000
           13          14          15          16          17          18
    1   1.2000000   1.5200000   1.2000000   1.2000000   1.5200000   1.2000000
           19          20          21          22
    1   1.5200000   1.5200000   1.5200000   1.5200000
 -------------------------------------------------------
 OpenMP BLAS3 based DFT computing Module                
 Release: version 1.0, May 2013, Q-Chem Inc. Pittsburgh 
 -------------------------------------------------------
 A unrestricted SCF calculation will be
 performed using DIIS, GDM
 SCF converges when RMS gradient is below 1.0e-07
 ---------------------------------------
  Cycle       Energy         DIIS error
 ---------------------------------------
    1    -726.6623261879      1.09e-02  
    2    -723.1268611310      1.14e-03  Done DIIS. Switching to GDM
 ---------------------------------------
  Cycle       Energy        RMS Gradient
 ---------------------------------------
    1    -723.1268611310      1.04e-01   Descent step
    2    -723.2580188467      4.03e-02   Normal BFGS step
    3    -723.2815765970      2.30e-02   Normal BFGS step
    4    -723.2854105681      8.36e-03   Normal BFGS step
    5    -723.2869766227      4.59e-03   Normal BFGS step
    6    -723.2872529311      3.47e-03   Normal BFGS step
    7    -723.2873457762      1.86e-03   Normal BFGS step
    8    -723.2873770277      1.24e-03   Normal BFGS step
    9    -723.2873842658      9.05e-04   Normal BFGS step
   10    -723.2873885499      6.04e-04   Normal BFGS step
   11    -723.2873913608      5.59e-04   Normal BFGS step
   12    -723.2873944157      3.26e-04   Normal BFGS step
   13    -723.2873952171      1.04e-04   Normal BFGS step
   14    -723.2873954355      2.40e-05   Normal BFGS step
   15    -723.2873954600      1.32e-05   Normal BFGS step
   16    -723.2873954637      4.46e-06   Normal BFGS step
   17    -723.2873954644      2.16e-06   Normal BFGS step
   18    -723.2873954645      9.31e-07   Normal BFGS step
   19    -723.2873954645      5.09e-07   Normal BFGS step
   20    -723.2873954646      3.36e-07   Normal BFGS step
   21    -723.2873954646      1.86e-07   Normal BFGS step
   22    -723.2873954645      8.54e-08  Convergence criterion met
 ---------------------------------------
 SCF time:   CPU 4539.29s  wall 577.00s 
<S^2> =          0.753997679
(3)  G-ENP(liq) elect-nuc-pol free energy of system     -723.287395464 a.u.
(4)  G-CDS(liq) cavity-dispersion-solvent structure 
     free energy                                                2.6238 kcal/mol
(6)  G-S(liq) free energy of system                     -723.283214236 a.u.
 SCF   energy in the final basis set =     -723.2832142364
 Total energy in the final basis set =     -723.2832142364
 
 --------------------------------------------------------------
 
                    Orbital Energies (a.u.)
 --------------------------------------------------------------
 
 Alpha MOs
 -- Occupied --
-19.4673 -19.4186 -19.4107 -19.4085 -19.3496 -19.3476 -10.4183 -10.4176
-10.4162 -10.4098 -10.3963 -10.3594 -10.3568  -1.3468  -1.2801  -1.1772
 -1.1638  -1.0797  -1.0314  -0.9603  -0.8917  -0.8541  -0.8145  -0.7557
 -0.7259  -0.6967  -0.6740  -0.6484  -0.6481  -0.6278  -0.6123  -0.6015
 -0.5844  -0.5749  -0.5613  -0.5454  -0.5337  -0.5254  -0.5191  -0.5005
 -0.4872  -0.4610  -0.4567  -0.4336  -0.4153  -0.4120  -0.3975  -0.3859
 -0.3738  -0.3634
 -- Virtual --
  0.0250   0.0353   0.0362   0.0410   0.0505   0.0549   0.0573   0.0679
  0.0732   0.0851   0.0868   0.0901   0.1059   0.1216   0.1222   0.1292
  0.1301   0.1341   0.1432   0.1467   0.1519   0.1544   0.1608   0.1643
  0.1701   0.1708   0.1740   0.1845   0.1880   0.1956   0.1979   0.2009
  0.2094   0.2111   0.2143   0.2211   0.2239   0.2328   0.2432   0.2473
  0.2610   0.2654   0.2740   0.2783   0.2860   0.2878   0.2929   0.3048
  0.3088   0.3112   0.3154   0.3188   0.3268   0.3380   0.3386   0.3436
  0.3462   0.3552   0.3603   0.3623   0.3685   0.3732   0.3764   0.3834
  0.3888   0.3941   0.3954   0.3986   0.4061   0.4156   0.4219   0.4282
  0.4327   0.4378   0.4489   0.4529   0.4625   0.4745   0.4772   0.4877
  0.4980   0.5119   0.5213   0.5288   0.5483   0.5570   0.5700   0.5931
  0.6045   0.6105   0.6190   0.6253   0.6418   0.6515   0.6593   0.6662
  0.6729   0.6797   0.6880   0.6936   0.7002   0.7150   0.7188   0.7279
  0.7299   0.7424   0.7517   0.7576   0.7698   0.7767   0.7847   0.8012
  0.8134   0.8192   0.8469   0.8632   0.8633   0.8830   0.8942   0.8991
  0.9119   0.9418   0.9619   0.9643   0.9867   1.0030   1.0274   1.0396
  1.0468   1.0549   1.0724   1.0813   1.0982   1.1118   1.1225   1.1286
  1.1379   1.1454   1.1592   1.1635   1.1732   1.1808   1.1914   1.1967
  1.2029   1.2153   1.2210   1.2274   1.2360   1.2425   1.2556   1.2584
  1.2670   1.2736   1.2886   1.2954   1.3071   1.3092   1.3253   1.3298
  1.3356   1.3566   1.3617   1.3676   1.3710   1.3823   1.3949   1.4033
  1.4159   1.4315   1.4377   1.4478   1.4591   1.4692   1.4865   1.4885
  1.4981   1.5043   1.5111   1.5200   1.5408   1.5559   1.5676   1.5775
  1.5880   1.5932   1.6038   1.6223   1.6337   1.6447   1.6505   1.6553
  1.6763   1.6881   1.6949   1.7103   1.7326   1.7455   1.7607   1.7701
  1.7987   1.8099   1.8139   1.8473   1.8747   1.8912   1.8983   1.9234
  1.9471   1.9760   1.9947   2.0172   2.0279   2.0395   2.0466   2.0878
  2.0971   2.1315   2.1699   2.1783   2.1911   2.2253   2.2547   2.2669
  2.2915   2.3221   2.3258   2.3491   2.3723   2.3953   2.4123   2.4316
  2.4722   2.4829   2.5083   2.5438   2.6595   2.6792   2.6982   2.7068
  2.7375   2.7485   2.7709   2.8004   2.8063   2.8314   2.8452   2.8560
  2.8808   2.8894   2.8979   2.9127   2.9321   2.9488   2.9563   2.9861
  2.9908   3.0088   3.0334   3.0366   3.0597   3.0698   3.1095   3.1166
  3.1430   3.1500   3.1661   3.2027   3.2117   3.2290   3.2474   3.2684
  3.2749   3.3160   3.3270   3.3434   3.3532   3.3750   3.3932   3.4148
  3.4281   3.4607   3.4660   3.4720   3.4947   3.4973   3.5278   3.5362
  3.5760   3.5768   3.5895   3.5946   3.6199   3.6448   3.6505   3.6605
  3.6689   3.6818   3.6986   3.7211   3.7254   3.7517   3.7638   3.7683
  3.7902   3.7992   3.8113   3.8278   3.8488   3.8634   3.8743   3.8876
  3.8923   3.9050   3.9134   3.9289   3.9446   3.9587   3.9624   3.9809
  4.0020   4.0106   4.0144   4.0492   4.0522   4.0963   4.1112   4.1189
  4.1481   4.1712   4.1858   4.2147   4.2201   4.2541   4.2748   4.2949
  4.3080   4.3115   4.3394   4.3525   4.3758   4.3935   4.4055   4.4154
  4.4177   4.4341   4.4528   4.4849   4.4916   4.5078   4.5238   4.5336
  4.5738   4.5791   4.6016   4.6125   4.6342   4.6447   4.6667   4.6898
  4.6993   4.7240   4.7404   4.7536   4.7635   4.7915   4.8208   4.8378
  4.8799   4.9142   4.9353   4.9895   4.9959   5.0510   5.0658   5.0903
  5.0984   5.1077   5.1195   5.1361   5.1889   5.2314   5.2452   5.2628
  5.2766   5.3004   5.3006   5.3141   5.3187   5.3267   5.3410   5.3568
  5.3825   5.3998   5.4153   5.4422   5.4453   5.4542   5.4753   5.5013
  5.5156   5.5329   5.5339   5.5646   5.5957   5.6151   5.6193   5.6426
  5.6593   5.6786   5.7013   5.7313   5.7479   5.7667   5.7757   5.7870
  5.8153   5.8274   5.8383   5.9078   5.9414   5.9801   6.0066   6.0341
  6.0496   6.0865   6.1322   6.2772   6.4683   6.4775   6.6036   6.6196
  6.6614   6.6868   6.7552   6.7675   6.8456   6.8980   6.9894   7.0430
  7.1099   7.1145   7.1470   7.2249   7.2757   7.2959   7.3110   7.3337
  7.3546   7.3775   7.4118   7.4176   7.4347   7.4472   7.4563   7.4802
  7.5100   7.5570   7.6522   7.6632   7.7211   7.7947   7.8202   7.8593
  7.9165   7.9799   8.0334   8.1109   8.2691  24.3960  24.6928  24.7466
 24.7855  24.8554  24.8990  25.2623  50.4357  50.5520  50.6075  50.6230
 50.6860  50.6934
 
 Beta MOs
 -- Occupied --
-19.4568 -19.4107 -19.4085 -19.4001 -19.3496 -19.3476 -10.4187 -10.4176
-10.4159 -10.4098 -10.3963 -10.3593 -10.3568  -1.3205  -1.2800  -1.1771
 -1.1638  -1.0793  -1.0103  -0.9491  -0.8903  -0.8497  -0.8102  -0.7547
 -0.7233  -0.6942  -0.6703  -0.6464  -0.6325  -0.6119  -0.6067  -0.5888
 -0.5786  -0.5612  -0.5522  -0.5407  -0.5330  -0.5180  -0.5123  -0.4987
 -0.4789  -0.4604  -0.4533  -0.4326  -0.4016  -0.3945  -0.3908  -0.3771
 -0.3619
 -- Virtual --
 -0.0336   0.0251   0.0355   0.0364   0.0413   0.0514   0.0553   0.0577
  0.0683   0.0735   0.0852   0.0870   0.0902   0.1067   0.1222   0.1228
  0.1294   0.1308   0.1345   0.1434   0.1476   0.1521   0.1548   0.1616
  0.1650   0.1703   0.1715   0.1741   0.1846   0.1883   0.1963   0.1984
  0.2020   0.2096   0.2116   0.2167   0.2223   0.2250   0.2337   0.2441
  0.2532   0.2627   0.2671   0.2744   0.2795   0.2864   0.2909   0.2944
  0.3062   0.3103   0.3123   0.3164   0.3200   0.3281   0.3382   0.3393
  0.3457   0.3472   0.3556   0.3607   0.3637   0.3696   0.3742   0.3773
  0.3839   0.3893   0.3951   0.3956   0.3988   0.4065   0.4173   0.4234
  0.4285   0.4337   0.4389   0.4495   0.4536   0.4633   0.4749   0.4777
  0.4880   0.4989   0.5123   0.5215   0.5296   0.5486   0.5577   0.5703
  0.5932   0.6054   0.6110   0.6195   0.6259   0.6422   0.6516   0.6595
  0.6663   0.6731   0.6803   0.6885   0.6938   0.7004   0.7152   0.7191
  0.7280   0.7301   0.7426   0.7527   0.7578   0.7701   0.7768   0.7852
  0.8014   0.8142   0.8197   0.8471   0.8634   0.8643   0.8831   0.8946
  0.9009   0.9120   0.9419   0.9623   0.9650   0.9878   1.0050   1.0281
  1.0403   1.0470   1.0557   1.0727   1.0818   1.0988   1.1132   1.1259
  1.1291   1.1399   1.1467   1.1618   1.1655   1.1768   1.1905   1.1982
  1.2013   1.2095   1.2184   1.2267   1.2324   1.2409   1.2486   1.2592
  1.2631   1.2695   1.2753   1.2908   1.2966   1.3088   1.3107   1.3266
  1.3301   1.3371   1.3585   1.3636   1.3689   1.3717   1.3826   1.3963
  1.4038   1.4180   1.4325   1.4388   1.4481   1.4599   1.4707   1.4871
  1.4896   1.4995   1.5061   1.5118   1.5258   1.5414   1.5583   1.5711
  1.5813   1.5884   1.5938   1.6070   1.6258   1.6369   1.6480   1.6562
  1.6611   1.6892   1.6959   1.6980   1.7155   1.7409   1.7507   1.7656
  1.7721   1.7999   1.8114   1.8153   1.8505   1.8774   1.8926   1.8990
  1.9310   1.9484   1.9775   1.9955   2.0186   2.0309   2.0444   2.0474
  2.0912   2.0982   2.1321   2.1755   2.1790   2.1918   2.2275   2.2634
  2.2711   2.2979   2.3249   2.3288   2.3574   2.3789   2.3965   2.4167
  2.4325   2.4740   2.4841   2.5086   2.5442   2.6603   2.6839   2.6994
  2.7089   2.7391   2.7491   2.7717   2.8010   2.8065   2.8317   2.8459
  2.8562   2.8810   2.8895   2.8981   2.9129   2.9325   2.9492   2.9565
  2.9862   2.9918   3.0092   3.0337   3.0369   3.0603   3.0702   3.1098
  3.1173   3.1433   3.1500   3.1666   3.2031   3.2118   3.2292   3.2475
  3.2686   3.2752   3.3163   3.3271   3.3436   3.3538   3.3751   3.3933
  3.4150   3.4284   3.4610   3.4661   3.4721   3.4950   3.4979   3.5281
  3.5368   3.5762   3.5770   3.5904   3.5947   3.6202   3.6450   3.6507
  3.6606   3.6694   3.6823   3.6989   3.7213   3.7254   3.7519   3.7641
  3.7686   3.7904   3.7997   3.8115   3.8279   3.8492   3.8636   3.8745
  3.8877   3.8928   3.9051   3.9136   3.9291   3.9449   3.9589   3.9629
  3.9810   4.0023   4.0111   4.0148   4.0496   4.0524   4.0964   4.1114
  4.1192   4.1483   4.1716   4.1865   4.2154   4.2205   4.2543   4.2753
  4.2951   4.3083   4.3124   4.3400   4.3529   4.3762   4.3942   4.4057
  4.4158   4.4182   4.4345   4.4534   4.4853   4.4932   4.5084   4.5250
  4.5352   4.5742   4.5812   4.6045   4.6276   4.6351   4.6553   4.6682
  4.6933   4.7002   4.7253   4.7438   4.7573   4.7718   4.7944   4.8223
  4.8399   4.8859   4.9254   4.9503   4.9929   4.9988   5.0619   5.0701
  5.1171   5.1317   5.1447   5.1545   5.1933   5.2164   5.2356   5.2724
  5.2875   5.2978   5.3016   5.3032   5.3148   5.3219   5.3379   5.3436
  5.3580   5.3982   5.4027   5.4160   5.4440   5.4484   5.4610   5.4891
  5.5058   5.5183   5.5341   5.5354   5.5764   5.5972   5.6158   5.6222
  5.6441   5.6633   5.6790   5.7015   5.7342   5.7486   5.7737   5.7781
  5.7922   5.8208   5.8325   5.8454   5.9086   5.9462   5.9803   6.0070
  6.0342   6.0497   6.0866   6.1326   6.2774   6.4852   6.5226   6.6109
  6.6241   6.6636   6.6874   6.7561   6.7679   6.9281   6.9763   7.0404
  7.0532   7.1145   7.1458   7.1522   7.2539   7.2916   7.3105   7.3260
  7.3355   7.3550   7.3789   7.4141   7.4310   7.4475   7.4539   7.4708
  7.5020   7.5125   7.5577   7.6526   7.6637   7.7215   7.7947   7.8338
  7.8597   7.9167   7.9801   8.0468   8.1303   8.2691  24.3960  24.6928
 24.7465  24.7855  24.8554  24.8991  25.2623  50.4485  50.5610  50.6080
 50.6230  50.6861  50.6935
 --------------------------------------------------------------
 
          Ground-State Mulliken Net Atomic Charges

     Atom                 Charge (a.u.)    Spin (a.u.)
  --------------------------------------------------------
      1 C                    -0.186036       0.002554
      2 C                    -0.159249       0.017047
      3 C                    -0.507376      -0.017774
      4 C                    -0.092352       0.016304
      5 C                    -0.475817      -0.006976
      6 C                     0.239534      -0.001913
      7 C                    -0.394994      -0.000319
      8 H                     0.327100       0.000466
      9 H                     0.292135      -0.001027
     10 H                     0.311866       0.004796
     11 H                     0.314504      -0.000869
     12 H                     0.315668       0.000015
     13 H                     0.253222       0.000006
     14 O                    -0.376187       0.000058
     15 H                     0.244462      -0.000012
     16 H                     0.327981       0.000048
     17 O                    -0.403993       0.002966
     18 H                     0.337405       0.000407
     19 O                    -0.108544       0.002164
     20 O                    -0.130549      -0.000455
     21 O                     0.088359       0.315660
     22 O                    -0.217143       0.666854
  --------------------------------------------------------
  Sum of atomic charges =     0.000000
  Sum of spin   charges =     1.000000

 -----------------------------------------------------------------
                    Cartesian Multipole Moments
 -----------------------------------------------------------------
    Charge (ESU x 10^10)
                 0.0000
    Dipole Moment (Debye)
         X      -1.6363      Y       2.7530      Z      -4.8580
       Tot       5.8187
    Quadrupole Moments (Debye-Ang)
        XX     -77.7614     XY       7.9148     YY     -89.7745
        XZ       9.2554     YZ       4.9472     ZZ     -72.2178
    Octopole Moments (Debye-Ang^2)
       XXX     209.4508    XXY      38.5105    XYY      45.1021
       YYY     239.3346    XXZ     -51.4693    XYZ      12.6559
       YYZ     -63.9118    XZZ      66.9430    YZZ      64.8137
       ZZZ    -129.2942
    Hexadecapole Moments (Debye-Ang^3)
      XXXX    -879.4856   XXXY    -114.7367   XXYY    -353.8039
      XYYY    -115.1486   YYYY   -1811.7757   XXXZ     163.0301
      XXYZ      91.2374   XYYZ      51.6763   YYYZ     460.9922
      XXZZ    -289.2013   XYZZ     -51.9654   YYZZ    -477.4178
      XZZZ     177.0265   YZZZ     336.1494   ZZZZ    -816.5131
 -----------------------------------------------------------------
 Calculating analytic gradient of the SCF energy
 Gradient of CDS energy
            1           2           3           4           5           6
    1   0.0016381  -0.0000470   0.0000853  -0.0001452  -0.0002147   0.0000526
    2  -0.0013306   0.0000858  -0.0001578  -0.0002390   0.0001050   0.0000680
    3  -0.0010646   0.0001770   0.0001124  -0.0001529  -0.0001598   0.0001563
            7           8           9          10          11          12
    1   0.0001083  -0.0000409   0.0000588  -0.0001158  -0.0000815  -0.0000476
    2   0.0009965   0.0002060  -0.0000968  -0.0000528  -0.0001791   0.0000790
    3  -0.0003411   0.0000990   0.0001623   0.0001725  -0.0000803  -0.0001135
           13          14          15          16          17          18
    1  -0.0002459  -0.0001723   0.0001362   0.0001909  -0.0016551   0.0003950
    2  -0.0002544  -0.0000949  -0.0001227  -0.0000686   0.0011995  -0.0001051
    3  -0.0000509   0.0002918   0.0002757  -0.0004707   0.0011845  -0.0002396
           19          20          21          22
    1  -0.0000216   0.0000477   0.0000588   0.0000159
    2   0.0000543  -0.0000869   0.0000240  -0.0000296
    3  -0.0000832   0.0000776   0.0000692  -0.0000216
 Gradient of SCF Energy
            1           2           3           4           5           6
    1   0.0002857  -0.0075352   0.0124834   0.0040679   0.0024344  -0.0029490
    2  -0.0064793   0.0056678  -0.0046280   0.0021906   0.0055359  -0.0002682
    3  -0.0050655  -0.0012962  -0.0039331   0.0106650   0.0063411   0.0014833
            7           8           9          10          11          12
    1   0.0104892   0.0040476   0.0024028  -0.0051454  -0.0051743  -0.0052485
    2  -0.0174414   0.0062292  -0.0003039  -0.0019372  -0.0067608   0.0036154
    3   0.0023399   0.0029848   0.0044119   0.0022891  -0.0048639  -0.0157969
           13          14          15          16          17          18
    1  -0.0098452   0.0085003   0.0025531  -0.0098272   0.0002069   0.0013303
    2   0.0038200   0.0159279   0.0067262  -0.0109695  -0.0093434   0.0057061
    3  -0.0079114   0.0153663   0.0055968  -0.0146264   0.0068525  -0.0073088
           19          20          21          22
    1  -0.0022381  -0.0012568   0.0006011  -0.0001832
    2   0.0021520   0.0007074   0.0004481  -0.0005948
    3   0.0013195   0.0013932  -0.0003995   0.0001581
 Max gradient component =       1.744E-02
 RMS gradient           =       6.735E-03
 Computing fast CPCM-SWIG gradient
 Updating gradient with PCM contributions...
 -- total gradient after adding PCM contribution --
---------------------------------------------------
  Atom         X              Y              Z     
---------------------------------------------------
   1      -0.000018       0.000009      -0.000029
   2       0.000004      -0.000039       0.000023
   3      -0.000004       0.000006      -0.000029
   4      -0.000004       0.000001       0.000000
   5       0.000001      -0.000011      -0.000004
   6       0.000038       0.000012       0.000007
   7       0.000016      -0.000022      -0.000037
   8       0.000001       0.000011       0.000025
   9       0.000004      -0.000000       0.000008
  10      -0.000013      -0.000000       0.000009
  11       0.000011      -0.000013      -0.000014
  12       0.000002       0.000002      -0.000017
  13      -0.000012       0.000020      -0.000007
  14      -0.000000       0.000041       0.000033
  15       0.000006       0.000006       0.000012
  16       0.000001      -0.000034      -0.000037
  17       0.000014      -0.000020       0.000061
  18       0.000002       0.000018      -0.000035
  19      -0.000033       0.000041      -0.000050
  20      -0.000016      -0.000030       0.000056
  21       0.000005      -0.000003       0.000055
  22      -0.000003       0.000008      -0.000029
---------------------------------------------------
 Number of fixed atoms: 0
 Gradient time:  CPU 730.59 s  wall 103.12 s
 ######################################################
 ######################################################
 # Starting finite difference calculation for IDERIV  #
 Finite diff step size:  1.88973e-03 a.u.
 ----------------------------------------------------------------
             Standard Nuclear Orientation (Angstroms)
    I     Atom           X                Y                Z
 ----------------------------------------------------------------
    1      C      -0.0008404122    -0.2111117093     0.7850936061
    2      C      -0.8543848161    -0.9918940042     1.7683029115
    3      C      -1.5196683997    -2.2109419019     1.1227945149
    4      C      -2.0055640006    -1.9339193494    -0.2641669056
    5      C      -1.8515154361    -0.7350846070    -0.8087086325
    6      C      -1.1496036673     0.3646171657    -0.0495378539
    7      C      -0.7251521423     1.5393707568    -0.9154633142
    8      H       0.5037786528     0.6071459078     1.3020086762
    9      H      -0.3494812382    -1.2575758007     2.6940202745
   10      H      -2.3275249030    -2.5552362610     1.7667101376
   11      H      -2.5227452920    -2.7333165745    -0.7779470761
   12      H      -2.2461336117    -0.5083249826    -1.7919990418
   13      H      -1.5761696459     1.9429402106    -1.4647113596
   14      O       0.3079241531     1.1226201974    -1.8034602674
   15      H      -0.3097392532     2.3170653479    -0.2783353600
   16      H      -0.0908969573     0.6657618793    -2.5524873272
   17      O       0.9076945902    -1.0285596615     0.0903002229
   18      H       1.2026554683    -0.5187483791    -0.6774832051
   19      O      -1.8818546619    -0.0585635157     2.1034148666
   20      O      -1.9996977120     0.8785907926     0.9829490540
   21      O      -0.5706882397    -3.3225894704     1.0426109010
   22      O      -0.3880468755    -3.8825907410     2.2045710782
 ----------------------------------------------------------------
 Nuclear Repulsion Energy =         904.03779156 hartrees
 There are       50 alpha and       49 beta electrons
 Discretize the solute cavity surface with Lebedev spheres
	Using 110 Lebedev grid points for each H atom
	Using 194 Lebedev grid points for other atoms
	Atomic van der Waals radii will be scaled by 1.20
 Remove points where switching function is < 1.0e-08
 Keep 1612 surface tesserae and discard 1900 interior tesserae
 Molecular Surface Area = 180.365 Angst**2
 Requested basis set is 6-311++G(2df,2p)
 There are 158 shells and 532 basis functions
 A cutoff of  1.0D-12 yielded  11012 shell pairs
 There are    125029 function pairs (    156639 Cartesian)
 Smallest overlap matrix eigenvalue = 1.80E-06
 Guess MOs from SCF MO coefficient file

 -----------------------------------------------------------------------
  General SCF calculation program by
  Eric Jon Sundstrom, Paul Horn, Yuezhi Mao, Dmitri Zuev, Alec White,
  David Stuck, Shaama M.S., Shane Yost, Joonho Lee, David Small,
  Daniel Levine, Susi Lehtola, Hugh Burton, Evgeny Epifanovsky,
  Bang C. Huynh
 -----------------------------------------------------------------------
 Exchange:     0.1500 Hartree-Fock + 1.0000 wB97M-V + LR-HF
 Correlation:  1.0000 wB97M-V
 Using SG-2 standard quadrature grid
 Nonlocal Correlation:  VV10 with C = 0.0100 and b = 6.00 and scale = 1.00000
 Grid used for NLC:  SG-1 standard quadrature
 
 Citation of the SMD model:
 Marenich, A.V.; Cramer, C.J.; Truhlar, D.G.
 J. Phys. Chem. B 2009, 113, 6378-6396.
 iSolventCode=           1
 Solvent: water                                                           
 
 vradii
            1           2           3           4           5           6
    1   1.8500000   1.8500000   1.8500000   1.8500000   1.8500000   1.8500000
            7           8           9          10          11          12
    1   1.8500000   1.2000000   1.2000000   1.2000000   1.2000000   1.2000000
           13          14          15          16          17          18
    1   1.2000000   1.5200000   1.2000000   1.2000000   1.5200000   1.2000000
           19          20          21          22
    1   1.5200000   1.5200000   1.5200000   1.5200000
 -------------------------------------------------------
 OpenMP BLAS3 based DFT computing Module                
 Release: version 1.0, May 2013, Q-Chem Inc. Pittsburgh 
 -------------------------------------------------------
 A unrestricted SCF calculation will be
 performed using Roothaan-Hall, DIIS, GDM
 SCF converges when RMS gradient is below 1.0e-07
 ---------------------------------------
  Cycle       Energy         DIIS error
 ---------------------------------------
    1    -723.2467931919      1.63e-04  Roothaan Step
 ---------------------------------------
  Cycle       Energy         DIIS error
 ---------------------------------------
    1    -723.2807381303      1.75e-04  
    2    -723.2855965810      1.29e-04  Done DIIS. Switching to GDM
 ---------------------------------------
  Cycle       Energy        RMS Gradient
 ---------------------------------------
    1    -723.2855965810      3.57e-03   Normal BFGS step
    2    -723.2857229612      7.19e-03   Normal BFGS step
    3    -723.2873666733      7.28e-04   Normal BFGS step
    4    -723.2873762671      1.71e-03   Normal BFGS step
    5    -723.2873962138      1.46e-04   Normal BFGS step
    6    -723.2873969808      1.84e-04   Normal BFGS step
    7    -723.2873974591      9.89e-05   Normal BFGS step
    8    -723.2873975600      5.16e-05   Normal BFGS step
    9    -723.2873975959      2.26e-05   Normal BFGS step
   10    -723.2873976035      1.92e-05   Normal BFGS step
   11    -723.2873976058      1.68e-05   Normal BFGS step
   12    -723.2873976073      1.34e-05   Normal BFGS step
   13    -723.2873976089      7.53e-06   Normal BFGS step
   14    -723.2873976098      2.07e-06   Normal BFGS step
   15    -723.2873976101      8.46e-07   Normal BFGS step
   16    -723.2873976101      3.25e-07   Normal BFGS step
   17    -723.2873976101      1.73e-07   Normal BFGS step
   18    -723.2873976100      8.05e-08  Convergence criterion met
 ---------------------------------------
 SCF time:   CPU 4435.78s  wall 565.00s 
<S^2> =          0.753997687
(3)  G-ENP(liq) elect-nuc-pol free energy of system     -723.287397610 a.u.
(4)  G-CDS(liq) cavity-dispersion-solvent structure 
     free energy                                                2.6258 kcal/mol
(6)  G-S(liq) free energy of system                     -723.283213207 a.u.
 SCF   energy in the final basis set =     -723.2832132065
 Total energy in the final basis set =     -723.2832132065
 
 --------------------------------------------------------------
 
                    Orbital Energies (a.u.)
 --------------------------------------------------------------
 
 Alpha MOs
 -- Occupied --
-19.4673 -19.4186 -19.4107 -19.4085 -19.3496 -19.3477 -10.4183 -10.4176
-10.4162 -10.4098 -10.3963 -10.3594 -10.3568  -1.3468  -1.2800  -1.1774
 -1.1639  -1.0796  -1.0314  -0.9602  -0.8917  -0.8541  -0.8145  -0.7557
 -0.7259  -0.6967  -0.6740  -0.6484  -0.6481  -0.6277  -0.6123  -0.6015
 -0.5845  -0.5749  -0.5614  -0.5454  -0.5337  -0.5254  -0.5191  -0.5005
 -0.4872  -0.4610  -0.4567  -0.4336  -0.4153  -0.4120  -0.3975  -0.3858
 -0.3738  -0.3634
 -- Virtual --
  0.0250   0.0353   0.0362   0.0410   0.0505   0.0549   0.0573   0.0679
  0.0732   0.0851   0.0868   0.0901   0.1059   0.1216   0.1222   0.1292
  0.1301   0.1341   0.1431   0.1467   0.1519   0.1544   0.1608   0.1643
  0.1701   0.1708   0.1740   0.1845   0.1880   0.1956   0.1979   0.2009
  0.2095   0.2111   0.2143   0.2211   0.2239   0.2328   0.2432   0.2473
  0.2610   0.2654   0.2740   0.2783   0.2861   0.2878   0.2929   0.3048
  0.3088   0.3113   0.3155   0.3188   0.3268   0.3380   0.3385   0.3436
  0.3462   0.3552   0.3604   0.3623   0.3684   0.3732   0.3764   0.3834
  0.3888   0.3941   0.3954   0.3986   0.4061   0.4157   0.4219   0.4281
  0.4327   0.4378   0.4489   0.4528   0.4625   0.4746   0.4772   0.4877
  0.4980   0.5119   0.5213   0.5288   0.5483   0.5570   0.5701   0.5931
  0.6045   0.6105   0.6191   0.6253   0.6417   0.6514   0.6593   0.6661
  0.6729   0.6797   0.6880   0.6936   0.7002   0.7150   0.7189   0.7279
  0.7299   0.7424   0.7517   0.7576   0.7698   0.7767   0.7847   0.8012
  0.8134   0.8192   0.8469   0.8632   0.8634   0.8830   0.8942   0.8991
  0.9119   0.9417   0.9618   0.9643   0.9867   1.0029   1.0275   1.0396
  1.0468   1.0549   1.0724   1.0813   1.0982   1.1118   1.1225   1.1286
  1.1379   1.1454   1.1591   1.1635   1.1732   1.1807   1.1914   1.1967
  1.2029   1.2153   1.2210   1.2274   1.2360   1.2425   1.2555   1.2583
  1.2670   1.2736   1.2886   1.2954   1.3071   1.3092   1.3253   1.3297
  1.3356   1.3566   1.3617   1.3676   1.3709   1.3823   1.3948   1.4033
  1.4157   1.4315   1.4377   1.4478   1.4591   1.4692   1.4864   1.4885
  1.4981   1.5043   1.5111   1.5200   1.5407   1.5559   1.5675   1.5776
  1.5881   1.5932   1.6038   1.6222   1.6337   1.6447   1.6506   1.6553
  1.6762   1.6881   1.6949   1.7103   1.7326   1.7454   1.7607   1.7701
  1.7988   1.8099   1.8138   1.8473   1.8747   1.8911   1.8982   1.9234
  1.9471   1.9760   1.9947   2.0173   2.0280   2.0395   2.0465   2.0878
  2.0971   2.1315   2.1699   2.1783   2.1910   2.2253   2.2547   2.2669
  2.2915   2.3221   2.3259   2.3492   2.3724   2.3953   2.4122   2.4317
  2.4721   2.4829   2.5083   2.5437   2.6594   2.6792   2.6982   2.7068
  2.7375   2.7485   2.7709   2.8003   2.8063   2.8314   2.8452   2.8559
  2.8807   2.8893   2.8979   2.9126   2.9320   2.9486   2.9563   2.9860
  2.9907   3.0087   3.0333   3.0366   3.0596   3.0699   3.1095   3.1163
  3.1429   3.1500   3.1660   3.2027   3.2116   3.2290   3.2474   3.2684
  3.2749   3.3159   3.3270   3.3435   3.3532   3.3751   3.3932   3.4147
  3.4282   3.4606   3.4660   3.4720   3.4947   3.4973   3.5278   3.5362
  3.5761   3.5767   3.5895   3.5947   3.6198   3.6448   3.6505   3.6605
  3.6689   3.6817   3.6986   3.7212   3.7254   3.7517   3.7638   3.7683
  3.7901   3.7993   3.8112   3.8279   3.8488   3.8633   3.8742   3.8875
  3.8923   3.9047   3.9134   3.9289   3.9445   3.9586   3.9623   3.9808
  4.0016   4.0106   4.0144   4.0492   4.0521   4.0963   4.1111   4.1187
  4.1480   4.1711   4.1858   4.2147   4.2201   4.2539   4.2746   4.2947
  4.3079   4.3115   4.3392   4.3524   4.3756   4.3934   4.4055   4.4154
  4.4178   4.4340   4.4528   4.4850   4.4915   4.5081   4.5239   4.5336
  4.5737   4.5791   4.6016   4.6124   4.6339   4.6445   4.6667   4.6898
  4.6992   4.7239   4.7403   4.7534   4.7634   4.7914   4.8205   4.8378
  4.8797   4.9142   4.9353   4.9895   4.9960   5.0510   5.0658   5.0903
  5.0984   5.1076   5.1194   5.1359   5.1889   5.2313   5.2452   5.2627
  5.2765   5.3001   5.3006   5.3141   5.3187   5.3267   5.3410   5.3567
  5.3825   5.3996   5.4153   5.4420   5.4453   5.4542   5.4752   5.5013
  5.5155   5.5329   5.5338   5.5646   5.5957   5.6153   5.6193   5.6426
  5.6596   5.6786   5.7013   5.7315   5.7481   5.7668   5.7758   5.7872
  5.8154   5.8277   5.8383   5.9079   5.9415   5.9801   6.0069   6.0343
  6.0500   6.0869   6.1325   6.2772   6.4683   6.4775   6.6036   6.6196
  6.6614   6.6867   6.7561   6.7679   6.8456   6.8980   6.9894   7.0431
  7.1099   7.1145   7.1470   7.2249   7.2757   7.2959   7.3110   7.3337
  7.3546   7.3775   7.4119   7.4176   7.4347   7.4473   7.4563   7.4804
  7.5100   7.5570   7.6522   7.6632   7.7212   7.7947   7.8203   7.8593
  7.9165   7.9799   8.0334   8.1109   8.2690  24.3959  24.6927  24.7468
 24.7857  24.8547  24.8986  25.2623  50.4357  50.5520  50.6074  50.6230
 50.6861  50.6934
 
 Beta MOs
 -- Occupied --
-19.4568 -19.4107 -19.4085 -19.4001 -19.3496 -19.3476 -10.4187 -10.4176
-10.4159 -10.4098 -10.3963 -10.3593 -10.3568  -1.3205  -1.2799  -1.1773
 -1.1638  -1.0793  -1.0103  -0.9490  -0.8902  -0.8497  -0.8102  -0.7547
 -0.7232  -0.6942  -0.6703  -0.6464  -0.6325  -0.6119  -0.6067  -0.5887
 -0.5787  -0.5612  -0.5522  -0.5407  -0.5330  -0.5179  -0.5123  -0.4987
 -0.4789  -0.4604  -0.4533  -0.4326  -0.4016  -0.3945  -0.3908  -0.3770
 -0.3618
 -- Virtual --
 -0.0336   0.0251   0.0355   0.0364   0.0413   0.0514   0.0553   0.0577
  0.0683   0.0736   0.0852   0.0870   0.0902   0.1068   0.1222   0.1228
  0.1294   0.1308   0.1346   0.1434   0.1476   0.1522   0.1548   0.1616
  0.1650   0.1703   0.1715   0.1741   0.1846   0.1884   0.1963   0.1985
  0.2020   0.2096   0.2116   0.2167   0.2223   0.2250   0.2337   0.2441
  0.2531   0.2627   0.2671   0.2744   0.2795   0.2864   0.2908   0.2944
  0.3062   0.3104   0.3123   0.3164   0.3200   0.3281   0.3382   0.3393
  0.3457   0.3472   0.3556   0.3607   0.3637   0.3696   0.3742   0.3773
  0.3839   0.3893   0.3951   0.3956   0.3988   0.4065   0.4173   0.4234
  0.4284   0.4336   0.4389   0.4495   0.4536   0.4633   0.4749   0.4777
  0.4880   0.4989   0.5123   0.5215   0.5296   0.5485   0.5577   0.5703
  0.5932   0.6054   0.6110   0.6195   0.6259   0.6422   0.6515   0.6595
  0.6662   0.6731   0.6804   0.6885   0.6938   0.7004   0.7152   0.7192
  0.7280   0.7301   0.7426   0.7527   0.7578   0.7701   0.7768   0.7851
  0.8014   0.8141   0.8197   0.8471   0.8634   0.8643   0.8832   0.8946
  0.9010   0.9120   0.9419   0.9623   0.9649   0.9878   1.0049   1.0281
  1.0403   1.0470   1.0557   1.0727   1.0818   1.0988   1.1132   1.1259
  1.1291   1.1399   1.1467   1.1617   1.1655   1.1768   1.1905   1.1982
  1.2013   1.2095   1.2184   1.2267   1.2324   1.2408   1.2487   1.2592
  1.2630   1.2695   1.2753   1.2908   1.2966   1.3089   1.3107   1.3266
  1.3301   1.3371   1.3585   1.3636   1.3689   1.3716   1.3826   1.3963
  1.4038   1.4179   1.4325   1.4388   1.4481   1.4598   1.4707   1.4870
  1.4895   1.4995   1.5061   1.5118   1.5258   1.5413   1.5584   1.5711
  1.5813   1.5884   1.5938   1.6070   1.6258   1.6369   1.6480   1.6563
  1.6612   1.6892   1.6959   1.6980   1.7154   1.7409   1.7506   1.7656
  1.7721   1.7999   1.8113   1.8152   1.8505   1.8774   1.8926   1.8989
  1.9310   1.9484   1.9774   1.9955   2.0187   2.0310   2.0444   2.0473
  2.0913   2.0982   2.1321   2.1755   2.1790   2.1918   2.2275   2.2634
  2.2711   2.2979   2.3250   2.3288   2.3575   2.3790   2.3965   2.4167
  2.4325   2.4739   2.4842   2.5087   2.5442   2.6603   2.6839   2.6994
  2.7089   2.7390   2.7490   2.7717   2.8009   2.8065   2.8317   2.8458
  2.8561   2.8809   2.8894   2.8981   2.9128   2.9325   2.9491   2.9565
  2.9862   2.9918   3.0091   3.0337   3.0369   3.0601   3.0702   3.1098
  3.1170   3.1432   3.1500   3.1665   3.2030   3.2118   3.2291   3.2475
  3.2686   3.2752   3.3162   3.3271   3.3436   3.3538   3.3751   3.3933
  3.4150   3.4285   3.4610   3.4661   3.4721   3.4950   3.4979   3.5281
  3.5367   3.5763   3.5769   3.5903   3.5948   3.6201   3.6450   3.6507
  3.6606   3.6695   3.6822   3.6989   3.7213   3.7254   3.7520   3.7641
  3.7686   3.7903   3.7998   3.8113   3.8279   3.8492   3.8635   3.8744
  3.8876   3.8928   3.9049   3.9136   3.9292   3.9448   3.9588   3.9627
  3.9809   4.0019   4.0112   4.0147   4.0496   4.0523   4.0965   4.1113
  4.1190   4.1482   4.1715   4.1865   4.2154   4.2205   4.2542   4.2752
  4.2949   4.3082   4.3124   4.3398   4.3529   4.3760   4.3941   4.4058
  4.4158   4.4182   4.4345   4.4534   4.4854   4.4931   4.5087   4.5251
  4.5352   4.5742   4.5812   4.6045   4.6275   4.6349   4.6551   4.6682
  4.6933   4.7001   4.7252   4.7438   4.7571   4.7718   4.7943   4.8220
  4.8399   4.8857   4.9254   4.9502   4.9928   4.9989   5.0619   5.0700
  5.1170   5.1315   5.1447   5.1544   5.1933   5.2164   5.2355   5.2723
  5.2875   5.2978   5.3015   5.3030   5.3148   5.3219   5.3378   5.3436
  5.3580   5.3982   5.4026   5.4160   5.4439   5.4483   5.4611   5.4890
  5.5057   5.5182   5.5341   5.5353   5.5764   5.5973   5.6160   5.6222
  5.6441   5.6635   5.6790   5.7015   5.7344   5.7487   5.7737   5.7782
  5.7924   5.8208   5.8327   5.8454   5.9087   5.9463   5.9804   6.0073
  6.0343   6.0501   6.0870   6.1328   6.2774   6.4852   6.5226   6.6109
  6.6241   6.6636   6.6873   6.7570   6.7684   6.9281   6.9763   7.0404
  7.0532   7.1145   7.1458   7.1522   7.2539   7.2917   7.3105   7.3260
  7.3356   7.3550   7.3789   7.4142   7.4311   7.4475   7.4541   7.4708
  7.5020   7.5125   7.5577   7.6526   7.6637   7.7215   7.7947   7.8338
  7.8597   7.9167   7.9801   8.0468   8.1303   8.2691  24.3959  24.6927
 24.7467  24.7857  24.8546  24.8988  25.2623  50.4485  50.5610  50.6080
 50.6230  50.6862  50.6935
 --------------------------------------------------------------
 
          Ground-State Mulliken Net Atomic Charges

     Atom                 Charge (a.u.)    Spin (a.u.)
  --------------------------------------------------------
      1 C                    -0.186304       0.002543
      2 C                    -0.158926       0.017054
      3 C                    -0.507407      -0.017777
      4 C                    -0.092538       0.016308
      5 C                    -0.475439      -0.006979
      6 C                     0.238892      -0.001908
      7 C                    -0.395028      -0.000318
      8 H                     0.327272       0.000464
      9 H                     0.292118      -0.001027
     10 H                     0.311874       0.004796
     11 H                     0.314488      -0.000869
     12 H                     0.315692       0.000015
     13 H                     0.253192       0.000006
     14 O                    -0.376181       0.000058
     15 H                     0.244464      -0.000012
     16 H                     0.327979       0.000048
     17 O                    -0.403610       0.002967
     18 H                     0.337406       0.000407
     19 O                    -0.108555       0.002165
     20 O                    -0.130592      -0.000455
     21 O                     0.088360       0.315664
     22 O                    -0.217157       0.666852
  --------------------------------------------------------
  Sum of atomic charges =     0.000000
  Sum of spin   charges =     1.000000

 -----------------------------------------------------------------
                    Cartesian Multipole Moments
 -----------------------------------------------------------------
    Charge (ESU x 10^10)
                -0.0000
    Dipole Moment (Debye)
         X      -1.6323      Y       2.7520      Z      -4.8590
       Tot       5.8179
    Quadrupole Moments (Debye-Ang)
        XX     -77.7624     XY       7.9128     YY     -89.7767
        XZ       9.2569     YZ       4.9505     ZZ     -72.2230
    Octopole Moments (Debye-Ang^2)
       XXX     209.4481    XXY      38.5095    XYY      45.1058
       YYY     239.3339    XXZ     -51.4691    XYZ      12.6534
       YYZ     -63.9139    XZZ      66.9460    YZZ      64.8184
       ZZZ    -129.3068
    Hexadecapole Moments (Debye-Ang^3)
      XXXX    -879.5004   XXXY    -114.7396   XXYY    -353.8143
      XYYY    -115.1538   YYYY   -1811.8060   XXXZ     163.0208
      XXYZ      91.2395   XYYZ      51.6724   YYYZ     461.0108
      XXZZ    -289.2107   XYZZ     -51.9697   YYZZ    -477.4340
      XZZZ     177.0264   YZZZ     336.1751   ZZZZ    -816.5679
 -----------------------------------------------------------------
 Calculating analytic gradient of the SCF energy
 Gradient of CDS energy
            1           2           3           4           5           6
    1   0.0017223  -0.0000476   0.0000853  -0.0001453  -0.0002147   0.0000523
    2  -0.0014061   0.0000856  -0.0001578  -0.0002390   0.0001050   0.0000682
    3  -0.0011287   0.0001773   0.0001124  -0.0001529  -0.0001598   0.0001560
            7           8           9          10          11          12
    1   0.0001082  -0.0000416   0.0000588  -0.0001158  -0.0000815  -0.0000476
    2   0.0009965   0.0002058  -0.0000968  -0.0000528  -0.0001791   0.0000790
    3  -0.0003411   0.0000987   0.0001622   0.0001725  -0.0000803  -0.0001135
           13          14          15          16          17          18
    1  -0.0002459  -0.0001723   0.0001362   0.0001909  -0.0017367   0.0003945
    2  -0.0002544  -0.0000949  -0.0001227  -0.0000686   0.0012751  -0.0001049
    3  -0.0000509   0.0002919   0.0002757  -0.0004707   0.0012487  -0.0002395
           19          20          21          22
    1  -0.0000216   0.0000477   0.0000586   0.0000159
    2   0.0000543  -0.0000869   0.0000239  -0.0000296
    3  -0.0000832   0.0000776   0.0000693  -0.0000216
 Gradient of SCF Energy
            1           2           3           4           5           6
    1   0.0014002  -0.0077110   0.0124549   0.0040708   0.0024012  -0.0031561
    2  -0.0064600   0.0055751  -0.0046525   0.0021940   0.0055272  -0.0002473
    3  -0.0051537  -0.0012377  -0.0039176   0.0106637   0.0063065   0.0013893
            7           8           9          10          11          12
    1   0.0105105   0.0038294   0.0024282  -0.0051431  -0.0051717  -0.0052480
    2  -0.0174382   0.0060507  -0.0002931  -0.0019380  -0.0067592   0.0036137
    3   0.0023357   0.0028737   0.0043884   0.0022853  -0.0048630  -0.0157931
           13          14          15          16          17          18
    1  -0.0098435   0.0084926   0.0025544  -0.0098257  -0.0001358   0.0013065
    2   0.0038106   0.0159374   0.0067233  -0.0109714  -0.0091641   0.0057329
    3  -0.0079012   0.0153642   0.0055971  -0.0146266   0.0070561  -0.0072961
           19          20          21          22
    1  -0.0023061  -0.0013247   0.0006007  -0.0001837
    2   0.0021681   0.0007361   0.0004471  -0.0005927
    3   0.0013489   0.0014208  -0.0003991   0.0001582
 Max gradient component =       1.744E-02
 RMS gradient           =       6.734E-03
 Computing fast CPCM-SWIG gradient
 Updating gradient with PCM contributions...
 -- total gradient after adding PCM contribution --
---------------------------------------------------
  Atom         X              Y              Z     
---------------------------------------------------
   1       0.001108       0.000029      -0.000121
   2      -0.000183      -0.000125       0.000082
   3      -0.000024      -0.000019      -0.000015
   4      -0.000003       0.000004       0.000002
   5      -0.000031      -0.000014      -0.000033
   6      -0.000179       0.000032      -0.000089
   7       0.000043      -0.000023      -0.000041
   8      -0.000216      -0.000175      -0.000091
   9       0.000029       0.000010      -0.000011
  10      -0.000014      -0.000001       0.000008
  11       0.000012      -0.000013      -0.000014
  12       0.000001       0.000000      -0.000016
  13      -0.000014       0.000014      -0.000001
  14      -0.000004       0.000046       0.000032
  15       0.000007       0.000005       0.000013
  16       0.000000      -0.000034      -0.000038
  17      -0.000319       0.000160       0.000256
  18      -0.000028       0.000043      -0.000013
  19      -0.000102       0.000059      -0.000021
  20      -0.000082      -0.000003       0.000085
  21       0.000004      -0.000003       0.000055
  22      -0.000003       0.000009      -0.000029
---------------------------------------------------
 Number of fixed atoms: 0
 Gradient time:  CPU 733.08 s  wall 103.68 s
 ----------------------------------------------------------------
             Standard Nuclear Orientation (Angstroms)
    I     Atom           X                Y                Z
 ----------------------------------------------------------------
    1      C      -0.0028404122    -0.2111117093     0.7850936061
    2      C      -0.8543848161    -0.9918940042     1.7683029115
    3      C      -1.5196683997    -2.2109419019     1.1227945149
    4      C      -2.0055640006    -1.9339193494    -0.2641669056
    5      C      -1.8515154361    -0.7350846070    -0.8087086325
    6      C      -1.1496036673     0.3646171657    -0.0495378539
    7      C      -0.7251521423     1.5393707568    -0.9154633142
    8      H       0.5037786528     0.6071459078     1.3020086762
    9      H      -0.3494812382    -1.2575758007     2.6940202745
   10      H      -2.3275249030    -2.5552362610     1.7667101376
   11      H      -2.5227452920    -2.7333165745    -0.7779470761
   12      H      -2.2461336117    -0.5083249826    -1.7919990418
   13      H      -1.5761696459     1.9429402106    -1.4647113596
   14      O       0.3079241531     1.1226201974    -1.8034602674
   15      H      -0.3097392532     2.3170653479    -0.2783353600
   16      H      -0.0908969573     0.6657618793    -2.5524873272
   17      O       0.9076945902    -1.0285596615     0.0903002229
   18      H       1.2026554683    -0.5187483791    -0.6774832051
   19      O      -1.8818546619    -0.0585635157     2.1034148666
   20      O      -1.9996977120     0.8785907926     0.9829490540
   21      O      -0.5706882397    -3.3225894704     1.0426109010
   22      O      -0.3880468755    -3.8825907410     2.2045710782
 ----------------------------------------------------------------
 Nuclear Repulsion Energy =         904.07066071 hartrees
 There are       50 alpha and       49 beta electrons
 Discretize the solute cavity surface with Lebedev spheres
	Using 110 Lebedev grid points for each H atom
	Using 194 Lebedev grid points for other atoms
	Atomic van der Waals radii will be scaled by 1.20
 Remove points where switching function is < 1.0e-08
 Keep 1612 surface tesserae and discard 1900 interior tesserae
 Molecular Surface Area = 180.363 Angst**2
 Requested basis set is 6-311++G(2df,2p)
 There are 158 shells and 532 basis functions
 A cutoff of  1.0D-12 yielded  11012 shell pairs
 There are    125029 function pairs (    156639 Cartesian)
 Smallest overlap matrix eigenvalue = 1.80E-06
 Guess MOs from SCF MO coefficient file

 -----------------------------------------------------------------------
  General SCF calculation program by
  Eric Jon Sundstrom, Paul Horn, Yuezhi Mao, Dmitri Zuev, Alec White,
  David Stuck, Shaama M.S., Shane Yost, Joonho Lee, David Small,
  Daniel Levine, Susi Lehtola, Hugh Burton, Evgeny Epifanovsky,
  Bang C. Huynh
 -----------------------------------------------------------------------
 Exchange:     0.1500 Hartree-Fock + 1.0000 wB97M-V + LR-HF
 Correlation:  1.0000 wB97M-V
 Using SG-2 standard quadrature grid
 Nonlocal Correlation:  VV10 with C = 0.0100 and b = 6.00 and scale = 1.00000
 Grid used for NLC:  SG-1 standard quadrature
 
 Citation of the SMD model:
 Marenich, A.V.; Cramer, C.J.; Truhlar, D.G.
 J. Phys. Chem. B 2009, 113, 6378-6396.
 iSolventCode=           1
 Solvent: water                                                           
 
 vradii
            1           2           3           4           5           6
    1   1.8500000   1.8500000   1.8500000   1.8500000   1.8500000   1.8500000
            7           8           9          10          11          12
    1   1.8500000   1.2000000   1.2000000   1.2000000   1.2000000   1.2000000
           13          14          15          16          17          18
    1   1.2000000   1.5200000   1.2000000   1.2000000   1.5200000   1.2000000
           19          20          21          22
    1   1.5200000   1.5200000   1.5200000   1.5200000
 -------------------------------------------------------
 OpenMP BLAS3 based DFT computing Module                
 Release: version 1.0, May 2013, Q-Chem Inc. Pittsburgh 
 -------------------------------------------------------
 A unrestricted SCF calculation will be
 performed using Roothaan-Hall, DIIS, GDM
 SCF converges when RMS gradient is below 1.0e-07
 ---------------------------------------
  Cycle       Energy         DIIS error
 ---------------------------------------
    1    -723.2467788010      1.63e-04  Roothaan Step
 ---------------------------------------
  Cycle       Energy         DIIS error
 ---------------------------------------
    1    -723.2807072987      1.76e-04  
    2    -723.2855636889      1.30e-04  Done DIIS. Switching to GDM
 ---------------------------------------
  Cycle       Energy        RMS Gradient
 ---------------------------------------
    1    -723.2855636889      3.64e-03   Normal BFGS step
    2    -723.2856849952      7.17e-03   Normal BFGS step
    3    -723.2873603956      7.22e-04   Normal BFGS step
    4    -723.2873700776      1.70e-03   Normal BFGS step
    5    -723.2873899533      1.45e-04   Normal BFGS step
    6    -723.2873907190      1.84e-04   Normal BFGS step
    7    -723.2873911986      9.85e-05   Normal BFGS step
    8    -723.2873912989      5.17e-05   Normal BFGS step
    9    -723.2873913348      2.19e-05   Normal BFGS step
   10    -723.2873913423      1.85e-05   Normal BFGS step
   11    -723.2873913445      1.62e-05   Normal BFGS step
   12    -723.2873913459      1.31e-05   Normal BFGS step
   13    -723.2873913474      7.51e-06   Normal BFGS step
   14    -723.2873913484      2.04e-06   Normal BFGS step
   15    -723.2873913486      8.49e-07   Normal BFGS step
   16    -723.2873913487      3.27e-07   Normal BFGS step
   17    -723.2873913486      1.70e-07   Normal BFGS step
   18    -723.2873913486      7.87e-08  Convergence criterion met
 ---------------------------------------
 SCF time:   CPU 4700.31s  wall 601.00s 
<S^2> =          0.753997675
(3)  G-ENP(liq) elect-nuc-pol free energy of system     -723.287391349 a.u.
(4)  G-CDS(liq) cavity-dispersion-solvent structure 
     free energy                                                2.6219 kcal/mol
(6)  G-S(liq) free energy of system                     -723.283213135 a.u.
 SCF   energy in the final basis set =     -723.2832131350
 Total energy in the final basis set =     -723.2832131350
 
 --------------------------------------------------------------
 
                    Orbital Energies (a.u.)
 --------------------------------------------------------------
 
 Alpha MOs
 -- Occupied --
-19.4673 -19.4187 -19.4108 -19.4085 -19.3496 -19.3476 -10.4183 -10.4176
-10.4162 -10.4098 -10.3964 -10.3594 -10.3568  -1.3468  -1.2801  -1.1771
 -1.1637  -1.0797  -1.0314  -0.9604  -0.8918  -0.8541  -0.8146  -0.7557
 -0.7260  -0.6967  -0.6740  -0.6483  -0.6481  -0.6278  -0.6123  -0.6015
 -0.5843  -0.5749  -0.5613  -0.5453  -0.5337  -0.5254  -0.5191  -0.5004
 -0.4872  -0.4610  -0.4567  -0.4336  -0.4153  -0.4120  -0.3975  -0.3859
 -0.3738  -0.3634
 -- Virtual --
  0.0250   0.0353   0.0362   0.0410   0.0505   0.0549   0.0573   0.0678
  0.0732   0.0851   0.0868   0.0901   0.1059   0.1216   0.1222   0.1292
  0.1301   0.1341   0.1432   0.1466   0.1519   0.1544   0.1608   0.1643
  0.1701   0.1708   0.1740   0.1845   0.1880   0.1956   0.1978   0.2009
  0.2094   0.2111   0.2143   0.2212   0.2239   0.2329   0.2431   0.2473
  0.2609   0.2654   0.2740   0.2783   0.2860   0.2878   0.2929   0.3047
  0.3087   0.3112   0.3154   0.3188   0.3267   0.3380   0.3386   0.3436
  0.3462   0.3552   0.3602   0.3623   0.3685   0.3732   0.3764   0.3834
  0.3887   0.3941   0.3954   0.3986   0.4061   0.4156   0.4219   0.4282
  0.4327   0.4378   0.4489   0.4529   0.4625   0.4745   0.4772   0.4877
  0.4980   0.5118   0.5213   0.5288   0.5483   0.5571   0.5700   0.5931
  0.6045   0.6105   0.6190   0.6253   0.6418   0.6515   0.6593   0.6662
  0.6729   0.6796   0.6881   0.6936   0.7003   0.7150   0.7188   0.7279
  0.7299   0.7424   0.7517   0.7576   0.7698   0.7767   0.7847   0.8012
  0.8135   0.8192   0.8469   0.8632   0.8633   0.8830   0.8942   0.8991
  0.9119   0.9418   0.9619   0.9644   0.9867   1.0030   1.0274   1.0396
  1.0468   1.0550   1.0724   1.0812   1.0982   1.1118   1.1225   1.1286
  1.1379   1.1454   1.1592   1.1635   1.1732   1.1808   1.1914   1.1967
  1.2029   1.2153   1.2210   1.2274   1.2361   1.2425   1.2556   1.2584
  1.2670   1.2736   1.2886   1.2954   1.3070   1.3091   1.3253   1.3298
  1.3356   1.3566   1.3617   1.3677   1.3710   1.3823   1.3949   1.4033
  1.4160   1.4316   1.4378   1.4478   1.4592   1.4691   1.4866   1.4885
  1.4981   1.5044   1.5111   1.5200   1.5408   1.5559   1.5676   1.5775
  1.5880   1.5933   1.6038   1.6223   1.6336   1.6446   1.6505   1.6553
  1.6763   1.6880   1.6950   1.7104   1.7326   1.7456   1.7607   1.7701
  1.7987   1.8099   1.8140   1.8473   1.8747   1.8912   1.8983   1.9234
  1.9471   1.9761   1.9947   2.0171   2.0279   2.0395   2.0466   2.0878
  2.0972   2.1315   2.1699   2.1782   2.1911   2.2253   2.2546   2.2669
  2.2916   2.3221   2.3257   2.3490   2.3722   2.3953   2.4123   2.4316
  2.4722   2.4828   2.5082   2.5438   2.6595   2.6792   2.6982   2.7068
  2.7376   2.7485   2.7709   2.8004   2.8064   2.8314   2.8453   2.8561
  2.8809   2.8895   2.8979   2.9127   2.9322   2.9490   2.9563   2.9861
  2.9908   3.0088   3.0334   3.0367   3.0599   3.0698   3.1095   3.1169
  3.1430   3.1501   3.1662   3.2028   3.2117   3.2290   3.2474   3.2683
  3.2749   3.3161   3.3271   3.3434   3.3532   3.3750   3.3932   3.4148
  3.4280   3.4607   3.4660   3.4720   3.4947   3.4973   3.5278   3.5363
  3.5759   3.5769   3.5896   3.5946   3.6201   3.6449   3.6505   3.6605
  3.6689   3.6818   3.6986   3.7211   3.7254   3.7517   3.7638   3.7683
  3.7902   3.7990   3.8114   3.8278   3.8488   3.8635   3.8744   3.8877
  3.8923   3.9053   3.9134   3.9288   3.9448   3.9588   3.9626   3.9809
  4.0024   4.0105   4.0145   4.0492   4.0523   4.0963   4.1113   4.1192
  4.1482   4.1713   4.1858   4.2147   4.2201   4.2542   4.2749   4.2950
  4.3080   4.3116   4.3396   4.3525   4.3760   4.3936   4.4055   4.4154
  4.4177   4.4341   4.4528   4.4849   4.4917   4.5075   4.5238   4.5337
  4.5738   4.5790   4.6016   4.6126   4.6345   4.6448   4.6667   4.6898
  4.6993   4.7241   4.7405   4.7538   4.7635   4.7916   4.8211   4.8378
  4.8801   4.9142   4.9354   4.9896   4.9958   5.0510   5.0658   5.0904
  5.0984   5.1077   5.1196   5.1363   5.1889   5.2315   5.2452   5.2628
  5.2766   5.3005   5.3008   5.3142   5.3187   5.3267   5.3410   5.3568
  5.3825   5.4000   5.4153   5.4423   5.4453   5.4542   5.4754   5.5014
  5.5156   5.5329   5.5340   5.5646   5.5956   5.6150   5.6192   5.6426
  5.6591   5.6786   5.7013   5.7311   5.7478   5.7666   5.7756   5.7868
  5.8153   5.8271   5.8383   5.9077   5.9413   5.9800   6.0063   6.0339
  6.0493   6.0860   6.1320   6.2772   6.4683   6.4775   6.6036   6.6196
  6.6615   6.6868   6.7542   6.7671   6.8456   6.8980   6.9894   7.0430
  7.1099   7.1145   7.1469   7.2249   7.2757   7.2959   7.3110   7.3337
  7.3546   7.3775   7.4118   7.4176   7.4346   7.4470   7.4563   7.4800
  7.5101   7.5570   7.6522   7.6632   7.7211   7.7947   7.8202   7.8593
  7.9164   7.9799   8.0334   8.1109   8.2691  24.3960  24.6929  24.7464
 24.7853  24.8561  24.8994  25.2623  50.4357  50.5520  50.6075  50.6230
 50.6858  50.6934
 
 Beta MOs
 -- Occupied --
-19.4568 -19.4107 -19.4085 -19.4001 -19.3496 -19.3475 -10.4187 -10.4176
-10.4159 -10.4098 -10.3964 -10.3593 -10.3568  -1.3205  -1.2800  -1.1770
 -1.1637  -1.0793  -1.0103  -0.9492  -0.8903  -0.8498  -0.8103  -0.7547
 -0.7234  -0.6942  -0.6703  -0.6463  -0.6325  -0.6119  -0.6067  -0.5888
 -0.5785  -0.5612  -0.5522  -0.5406  -0.5330  -0.5180  -0.5123  -0.4986
 -0.4789  -0.4604  -0.4533  -0.4326  -0.4016  -0.3945  -0.3908  -0.3772
 -0.3619
 -- Virtual --
 -0.0336   0.0251   0.0355   0.0364   0.0413   0.0514   0.0553   0.0577
  0.0683   0.0735   0.0852   0.0870   0.0902   0.1067   0.1222   0.1228
  0.1294   0.1308   0.1345   0.1435   0.1476   0.1521   0.1548   0.1616
  0.1650   0.1703   0.1715   0.1741   0.1846   0.1883   0.1963   0.1984
  0.2020   0.2096   0.2117   0.2167   0.2223   0.2250   0.2337   0.2441
  0.2532   0.2627   0.2671   0.2744   0.2795   0.2863   0.2909   0.2944
  0.3062   0.3103   0.3123   0.3163   0.3200   0.3281   0.3382   0.3394
  0.3457   0.3472   0.3556   0.3606   0.3637   0.3697   0.3742   0.3773
  0.3839   0.3893   0.3951   0.3956   0.3988   0.4065   0.4172   0.4234
  0.4285   0.4337   0.4389   0.4495   0.4537   0.4633   0.4748   0.4777
  0.4880   0.4989   0.5123   0.5215   0.5296   0.5486   0.5578   0.5702
  0.5933   0.6054   0.6109   0.6195   0.6259   0.6422   0.6516   0.6595
  0.6663   0.6731   0.6803   0.6886   0.6938   0.7005   0.7152   0.7191
  0.7280   0.7302   0.7426   0.7527   0.7578   0.7701   0.7768   0.7852
  0.8014   0.8142   0.8197   0.8471   0.8634   0.8643   0.8831   0.8946
  0.9009   0.9120   0.9420   0.9623   0.9650   0.9878   1.0050   1.0280
  1.0403   1.0470   1.0557   1.0727   1.0818   1.0988   1.1132   1.1259
  1.1291   1.1399   1.1467   1.1618   1.1654   1.1768   1.1905   1.1983
  1.2013   1.2095   1.2184   1.2267   1.2324   1.2409   1.2486   1.2592
  1.2632   1.2695   1.2753   1.2908   1.2966   1.3088   1.3107   1.3266
  1.3302   1.3371   1.3585   1.3636   1.3689   1.3717   1.3826   1.3964
  1.4039   1.4181   1.4326   1.4389   1.4481   1.4599   1.4707   1.4872
  1.4896   1.4995   1.5061   1.5118   1.5258   1.5415   1.5583   1.5712
  1.5813   1.5884   1.5939   1.6071   1.6258   1.6369   1.6480   1.6561
  1.6611   1.6892   1.6959   1.6980   1.7155   1.7410   1.7508   1.7656
  1.7721   1.7999   1.8114   1.8153   1.8505   1.8774   1.8926   1.8991
  1.9309   1.9484   1.9776   1.9955   2.0185   2.0309   2.0444   2.0474
  2.0912   2.0983   2.1322   2.1755   2.1790   2.1918   2.2275   2.2634
  2.2710   2.2980   2.3249   2.3288   2.3573   2.3789   2.3965   2.4167
  2.4324   2.4741   2.4841   2.5086   2.5443   2.6604   2.6839   2.6994
  2.7089   2.7391   2.7491   2.7717   2.8010   2.8066   2.8318   2.8459
  2.8564   2.8811   2.8895   2.8981   2.9129   2.9326   2.9494   2.9565
  2.9862   2.9919   3.0092   3.0337   3.0370   3.0605   3.0702   3.1098
  3.1175   3.1433   3.1501   3.1667   3.2031   3.2119   3.2292   3.2475
  3.2685   3.2752   3.3164   3.3272   3.3435   3.3538   3.3750   3.3934
  3.4151   3.4283   3.4610   3.4661   3.4722   3.4949   3.4979   3.5281
  3.5369   3.5761   3.5771   3.5904   3.5947   3.6204   3.6451   3.6507
  3.6606   3.6694   3.6823   3.6989   3.7212   3.7254   3.7519   3.7641
  3.7686   3.7904   3.7995   3.8116   3.8278   3.8493   3.8637   3.8746
  3.8878   3.8928   3.9054   3.9137   3.9291   3.9450   3.9590   3.9630
  3.9810   4.0027   4.0111   4.0149   4.0495   4.0525   4.0964   4.1115
  4.1194   4.1483   4.1717   4.1865   4.2155   4.2206   4.2545   4.2755
  4.2952   4.3083   4.3125   4.3403   4.3530   4.3764   4.3943   4.4057
  4.4158   4.4182   4.4346   4.4534   4.4853   4.4933   4.5081   4.5250
  4.5353   4.5743   4.5812   4.6045   4.6276   4.6354   4.6554   4.6682
  4.6933   4.7003   4.7254   4.7439   4.7576   4.7719   4.7945   4.8226
  4.8400   4.8862   4.9254   4.9503   4.9929   4.9988   5.0620   5.0701
  5.1172   5.1318   5.1447   5.1545   5.1933   5.2164   5.2357   5.2725
  5.2875   5.2978   5.3017   5.3034   5.3149   5.3219   5.3379   5.3436
  5.3581   5.3983   5.4029   5.4160   5.4440   5.4486   5.4610   5.4891
  5.5058   5.5183   5.5341   5.5356   5.5765   5.5971   5.6157   5.6222
  5.6440   5.6630   5.6790   5.7014   5.7339   5.7485   5.7737   5.7779
  5.7920   5.8207   5.8323   5.8453   5.9085   5.9461   5.9803   6.0067
  6.0340   6.0494   6.0862   6.1323   6.2774   6.4852   6.5226   6.6109
  6.6241   6.6637   6.6874   6.7552   6.7674   6.9281   6.9763   7.0405
  7.0531   7.1145   7.1457   7.1522   7.2539   7.2916   7.3105   7.3260
  7.3355   7.3549   7.3789   7.4140   7.4310   7.4475   7.4538   7.4707
  7.5019   7.5125   7.5577   7.6526   7.6637   7.7214   7.7947   7.8338
  7.8596   7.9167   7.9801   8.0469   8.1303   8.2692  24.3960  24.6929
 24.7462  24.7853  24.8561  24.8995  25.2623  50.4485  50.5610  50.6080
 50.6230  50.6859  50.6935
 --------------------------------------------------------------
 
          Ground-State Mulliken Net Atomic Charges

     Atom                 Charge (a.u.)    Spin (a.u.)
  --------------------------------------------------------
      1 C                    -0.185768       0.002565
      2 C                    -0.159573       0.017039
      3 C                    -0.507344      -0.017770
      4 C                    -0.092167       0.016301
      5 C                    -0.476193      -0.006973
      6 C                     0.240174      -0.001919
      7 C                    -0.394959      -0.000319
      8 H                     0.326928       0.000468
      9 H                     0.292153      -0.001027
     10 H                     0.311859       0.004797
     11 H                     0.314520      -0.000869
     12 H                     0.315645       0.000015
     13 H                     0.253252       0.000006
     14 O                    -0.376192       0.000058
     15 H                     0.244460      -0.000012
     16 H                     0.327984       0.000048
     17 O                    -0.404373       0.002966
     18 H                     0.337404       0.000407
     19 O                    -0.108533       0.002163
     20 O                    -0.130505      -0.000454
     21 O                     0.088358       0.315657
     22 O                    -0.217128       0.666856
  --------------------------------------------------------
  Sum of atomic charges =     0.000000
  Sum of spin   charges =     1.000000

 -----------------------------------------------------------------
                    Cartesian Multipole Moments
 -----------------------------------------------------------------
    Charge (ESU x 10^10)
                 0.0000
    Dipole Moment (Debye)
         X      -1.6403      Y       2.7541      Z      -4.8571
       Tot       5.8196
    Quadrupole Moments (Debye-Ang)
        XX     -77.7603     XY       7.9168     YY     -89.7723
        XZ       9.2539     YZ       4.9439     ZZ     -72.2126
    Octopole Moments (Debye-Ang^2)
       XXX     209.4536    XXY      38.5115    XYY      45.0984
       YYY     239.3354    XXZ     -51.4696    XYZ      12.6585
       YYZ     -63.9097    XZZ      66.9399    YZZ      64.8089
       ZZZ    -129.2816
    Hexadecapole Moments (Debye-Ang^3)
      XXXX    -879.4708   XXXY    -114.7339   XXYY    -353.7935
      XYYY    -115.1435   YYYY   -1811.7453   XXXZ     163.0395
      XXYZ      91.2352   XYYZ      51.6803   YYYZ     460.9734
      XXZZ    -289.1918   XYZZ     -51.9612   YYZZ    -477.4015
      XZZZ     177.0266   YZZZ     336.1237   ZZZZ    -816.4583
 -----------------------------------------------------------------
 Calculating analytic gradient of the SCF energy
 Gradient of CDS energy
            1           2           3           4           5           6
    1   0.0015521  -0.0000465   0.0000853  -0.0001451  -0.0002146   0.0000530
    2  -0.0012537   0.0000860  -0.0001578  -0.0002390   0.0001050   0.0000679
    3  -0.0009993   0.0001766   0.0001124  -0.0001530  -0.0001598   0.0001565
            7           8           9          10          11          12
    1   0.0001083  -0.0000401   0.0000588  -0.0001158  -0.0000815  -0.0000476
    2   0.0009965   0.0002063  -0.0000968  -0.0000528  -0.0001791   0.0000790
    3  -0.0003411   0.0000994   0.0001623   0.0001725  -0.0000803  -0.0001135
           13          14          15          16          17          18
    1  -0.0002459  -0.0001723   0.0001361   0.0001909  -0.0015717   0.0003956
    2  -0.0002544  -0.0000949  -0.0001227  -0.0000686   0.0011225  -0.0001053
    3  -0.0000509   0.0002918   0.0002757  -0.0004707   0.0011192  -0.0002396
           19          20          21          22
    1  -0.0000216   0.0000477   0.0000591   0.0000159
    2   0.0000543  -0.0000869   0.0000241  -0.0000296
    3  -0.0000832   0.0000776   0.0000691  -0.0000216
 Gradient of SCF Energy
            1           2           3           4           5           6
    1  -0.0008312  -0.0073590   0.0125120   0.0040649   0.0024676  -0.0027409
    2  -0.0064974   0.0057609  -0.0046036   0.0021872   0.0055445  -0.0002895
    3  -0.0049770  -0.0013550  -0.0039486   0.0106662   0.0063758   0.0015781
            7           8           9          10          11          12
    1   0.0104679   0.0042658   0.0023774  -0.0051476  -0.0051768  -0.0052490
    2  -0.0174446   0.0064071  -0.0003148  -0.0019364  -0.0067623   0.0036171
    3   0.0023441   0.0030957   0.0044354   0.0022930  -0.0048647  -0.0158007
           13          14          15          16          17          18
    1  -0.0098468   0.0085080   0.0025519  -0.0098287   0.0005506   0.0013540
    2   0.0038294   0.0159183   0.0067292  -0.0109676  -0.0095234   0.0056794
    3  -0.0079215   0.0153684   0.0055965  -0.0146263   0.0066485  -0.0073213
           19          20          21          22
    1  -0.0021699  -0.0011887   0.0006015  -0.0001828
    2   0.0021360   0.0006784   0.0004491  -0.0005969
    3   0.0012900   0.0013656  -0.0003998   0.0001579
 Max gradient component =       1.744E-02
 RMS gradient           =       6.739E-03
 Computing fast CPCM-SWIG gradient
 Updating gradient with PCM contributions...
 -- total gradient after adding PCM contribution --
---------------------------------------------------
  Atom         X              Y              Z     
---------------------------------------------------
   1      -0.001147      -0.000009       0.000063
   2       0.000191       0.000048      -0.000036
   3       0.000015       0.000031      -0.000044
   4      -0.000005      -0.000003      -0.000001
   5       0.000033      -0.000009       0.000024
   6       0.000255      -0.000008       0.000104
   7      -0.000010      -0.000021      -0.000032
   8       0.000219       0.000196       0.000139
   9      -0.000021      -0.000011       0.000027
  10      -0.000013       0.000001       0.000010
  11       0.000009      -0.000014      -0.000014
  12       0.000003       0.000003      -0.000019
  13      -0.000009       0.000027      -0.000014
  14       0.000004       0.000036       0.000033
  15       0.000006       0.000007       0.000011
  16       0.000001      -0.000035      -0.000037
  17       0.000347      -0.000201      -0.000134
  18       0.000032      -0.000007      -0.000056
  19       0.000035       0.000022      -0.000079
  20       0.000051      -0.000057       0.000027
  21       0.000006      -0.000004       0.000055
  22      -0.000003       0.000007      -0.000029
---------------------------------------------------
 Number of fixed atoms: 0
 Gradient time:  CPU 786.51 s  wall 111.64 s
 ----------------------------------------------------------------
             Standard Nuclear Orientation (Angstroms)
    I     Atom           X                Y                Z
 ----------------------------------------------------------------
    1      C      -0.0018404122    -0.2101117093     0.7850936061
    2      C      -0.8543848161    -0.9918940042     1.7683029115
    3      C      -1.5196683997    -2.2109419019     1.1227945149
    4      C      -2.0055640006    -1.9339193494    -0.2641669056
    5      C      -1.8515154361    -0.7350846070    -0.8087086325
    6      C      -1.1496036673     0.3646171657    -0.0495378539
    7      C      -0.7251521423     1.5393707568    -0.9154633142
    8      H       0.5037786528     0.6071459078     1.3020086762
    9      H      -0.3494812382    -1.2575758007     2.6940202745
   10      H      -2.3275249030    -2.5552362610     1.7667101376
   11      H      -2.5227452920    -2.7333165745    -0.7779470761
   12      H      -2.2461336117    -0.5083249826    -1.7919990418
   13      H      -1.5761696459     1.9429402106    -1.4647113596
   14      O       0.3079241531     1.1226201974    -1.8034602674
   15      H      -0.3097392532     2.3170653479    -0.2783353600
   16      H      -0.0908969573     0.6657618793    -2.5524873272
   17      O       0.9076945902    -1.0285596615     0.0903002229
   18      H       1.2026554683    -0.5187483791    -0.6774832051
   19      O      -1.8818546619    -0.0585635157     2.1034148666
   20      O      -1.9996977120     0.8785907926     0.9829490540
   21      O      -0.5706882397    -3.3225894704     1.0426109010
[...]
 H          0.008  0.050 -0.008    0.026  0.025 -0.021    0.040  0.096  0.020
 H          0.034 -0.042 -0.014    0.024  0.022 -0.029   -0.078 -0.108  0.098
 O          0.006  0.004 -0.009    0.002  0.001 -0.000   -0.009 -0.001 -0.002
 H         -0.153 -0.178  0.228   -0.032 -0.039  0.051    0.055  0.092 -0.109
 H         -0.109  0.010  0.044   -0.042  0.005  0.019    0.143 -0.022 -0.068
 O          0.005 -0.009  0.037   -0.025  0.032  0.029    0.080 -0.110 -0.072
 H         -0.326  0.399  0.162   -0.042  0.040  0.029   -0.105  0.185  0.035
 O         -0.011  0.007  0.005   -0.005 -0.007  0.028    0.016  0.014 -0.053
 O          0.009 -0.026 -0.003    0.002  0.001 -0.004    0.002 -0.008  0.012
 O         -0.007  0.007 -0.002    0.095 -0.261  0.528   -0.004 -0.021  0.041
 O          0.001 -0.003  0.005   -0.077  0.241 -0.509   -0.005  0.017 -0.037
 TransDip  -0.131  0.139  0.108    0.018  0.026 -0.148   -0.154  0.202  0.067

 Mode:                40                     41                     42
 Frequency:      1289.59                1313.77                1327.80
 Force Cnst:      1.6428                 1.5739                 1.2902
 Red. Mass:       1.6766                 1.5477                 1.2420
 IR Active:          YES                    YES                    YES
 IR Intens:       16.741                 52.303                 36.271
 Raman Active:       YES                    YES                    YES
               X      Y      Z        X      Y      Z        X      Y      Z
 C          0.040 -0.047 -0.057   -0.049  0.019  0.038    0.002  0.028 -0.010
 C         -0.087 -0.006  0.058   -0.020 -0.036 -0.006   -0.066 -0.052  0.023
 C          0.028  0.046  0.014   -0.014 -0.034 -0.020    0.044 -0.040  0.060
 C          0.011  0.020 -0.004   -0.001  0.017 -0.021   -0.018 -0.005  0.010
 C         -0.019 -0.021 -0.026   -0.010  0.015 -0.027   -0.009 -0.020 -0.005
 C          0.043 -0.068  0.121    0.103  0.028  0.130   -0.014 -0.005 -0.015
 C         -0.022  0.013 -0.037   -0.041 -0.019 -0.056    0.004 -0.002  0.014
 H          0.356 -0.083 -0.317   -0.393  0.390 -0.199    0.301 -0.102 -0.109
 H          0.384 -0.377 -0.304    0.051  0.275  0.042    0.150  0.033 -0.069
 H          0.183 -0.257  0.043   -0.030  0.338  0.163   -0.428  0.758 -0.093
 H         -0.025  0.155 -0.174    0.024 -0.092  0.118   -0.008  0.103 -0.173
 H         -0.082 -0.172 -0.034   -0.131 -0.324 -0.060    0.061  0.115 -0.003
 H          0.154  0.177 -0.183    0.119  0.201 -0.131    0.014 -0.017 -0.012
 O          0.007  0.006  0.004    0.022  0.006  0.005   -0.005  0.001 -0.001
 H          0.021 -0.044  0.010   -0.053 -0.183  0.160    0.027  0.039 -0.051
 H         -0.154  0.032  0.073   -0.285  0.053  0.134    0.048 -0.006 -0.024
 O         -0.036  0.064  0.039    0.028 -0.042 -0.033    0.003  0.005  0.010
 H          0.060 -0.090 -0.018    0.012  0.011 -0.009   -0.045  0.057  0.025
 O          0.013  0.005 -0.046    0.008 -0.000  0.000    0.006  0.009 -0.010
 O         -0.022  0.018  0.001   -0.004  0.001 -0.009   -0.001 -0.001  0.004
 O         -0.015 -0.006  0.014    0.014 -0.000 -0.006    0.040 -0.011 -0.028
 O          0.000  0.002 -0.007   -0.001  0.001 -0.000   -0.007  0.008 -0.001
 TransDip   0.102 -0.030 -0.077   -0.137  0.093  0.162   -0.013 -0.147  0.125

 Mode:                43                     44                     45
 Frequency:      1343.67                1363.12                1381.40
 Force Cnst:      2.0930                 1.7368                 2.0865
 Red. Mass:       1.9676                 1.5865                 1.8558
 IR Active:          YES                    YES                    YES
 IR Intens:        5.203                 72.899                 80.473
 Raman Active:       YES                    YES                    YES
               X      Y      Z        X      Y      Z        X      Y      Z
 C         -0.063 -0.023  0.002    0.063 -0.059  0.055   -0.099  0.139 -0.047
 C          0.044  0.173  0.077   -0.064 -0.050  0.032   -0.002 -0.078  0.031
 C         -0.064 -0.129 -0.111   -0.039 -0.020 -0.094   -0.053  0.012 -0.113
 C          0.038  0.004  0.071    0.006  0.011 -0.028    0.042  0.028  0.038
 C         -0.018 -0.001 -0.037    0.037  0.051  0.038   -0.022 -0.034 -0.010
 C          0.012  0.007  0.021   -0.055 -0.015 -0.076    0.006 -0.086  0.034
 C         -0.008 -0.000 -0.015    0.020  0.014  0.041    0.007  0.025 -0.036
 H         -0.060 -0.190  0.267    0.119  0.061 -0.193    0.465 -0.349  0.141
 H          0.002 -0.594 -0.110    0.315  0.378 -0.054   -0.018  0.373  0.164
 H          0.032  0.399  0.302    0.255  0.185  0.384    0.321 -0.011  0.336
 H          0.017 -0.034  0.149    0.030 -0.225  0.317    0.016  0.094 -0.019
 H          0.070  0.200 -0.029   -0.047 -0.129  0.034    0.031  0.094  0.004
 H         -0.009  0.030  0.007    0.021 -0.070 -0.025   -0.106 -0.030  0.094
 O          0.007 -0.002  0.001   -0.022 -0.007 -0.009    0.014  0.002  0.010
 H         -0.020 -0.043  0.045   -0.062  0.100 -0.010    0.084 -0.025 -0.033
 H         -0.054  0.008  0.028    0.243 -0.054 -0.116   -0.148  0.032  0.074
 O          0.010  0.015 -0.020   -0.026  0.053  0.001    0.042 -0.047  0.000
 H          0.196 -0.240 -0.104    0.211 -0.278 -0.109   -0.191  0.251  0.093
 O          0.003 -0.012 -0.019    0.002  0.006 -0.003    0.013  0.002 -0.004
 O          0.001 -0.001 -0.005    0.000 -0.000  0.011   -0.002  0.010  0.002
 O          0.013 -0.001  0.015   -0.002  0.005  0.008   -0.011  0.011  0.009
 O         -0.001  0.005 -0.014    0.003 -0.003  0.001    0.006 -0.009  0.007
 TransDip  -0.029  0.044  0.051    0.198 -0.145 -0.120   -0.226  0.177  0.010

 Mode:                46                     47                     48
 Frequency:      1387.18                1404.29                1427.22
 Force Cnst:      1.4642                 1.5334                 2.1242
 Red. Mass:       1.2915                 1.3197                 1.7699
 IR Active:          YES                    YES                    YES
 IR Intens:        8.399                 22.179                 16.535
 Raman Active:       YES                    YES                    YES
               X      Y      Z        X      Y      Z        X      Y      Z
 C          0.021 -0.031  0.043   -0.025  0.006  0.019   -0.002 -0.057  0.066
 C         -0.014  0.003 -0.012    0.000  0.004 -0.016   -0.001 -0.033 -0.010
 C          0.008 -0.000  0.016    0.007  0.003  0.017   -0.022  0.040 -0.068
 C         -0.007 -0.000 -0.012    0.001  0.006  0.001    0.043 -0.043  0.126
 C          0.016  0.012  0.011   -0.005 -0.009 -0.012   -0.060 -0.101 -0.057
 C         -0.056  0.008 -0.032   -0.010 -0.014  0.056    0.032  0.113 -0.017
 C          0.008 -0.004 -0.097    0.089  0.082 -0.077   -0.011 -0.037  0.010
 H          0.062  0.035 -0.103    0.079  0.003 -0.081   -0.068  0.200 -0.269
 H          0.073  0.009 -0.059    0.003 -0.019 -0.026    0.086  0.268  0.022
 H         -0.033  0.003 -0.033   -0.040 -0.021 -0.053    0.107 -0.081  0.018
 H         -0.006 -0.035  0.040   -0.008  0.041 -0.044   -0.038  0.361 -0.409
 H          0.006  0.015  0.013   -0.017 -0.021 -0.011    0.182  0.559 -0.008
 H         -0.464 -0.099  0.531   -0.248 -0.165  0.254    0.041  0.087  0.018
 O          0.062  0.005  0.032   -0.026 -0.029 -0.013    0.002  0.000 -0.002
 H          0.171 -0.089 -0.116   -0.514 -0.159  0.632   -0.085  0.004  0.015
 H         -0.528  0.116  0.266    0.277 -0.086 -0.137   -0.006  0.000  0.002
 O         -0.007  0.021 -0.003    0.007  0.001 -0.006   -0.004  0.020 -0.010
 H          0.092 -0.122 -0.049    0.040 -0.048 -0.020    0.140 -0.173 -0.071
 O         -0.003  0.003  0.000    0.001  0.001 -0.005   -0.005  0.002  0.010
 O          0.005 -0.008  0.004    0.001 -0.002  0.000    0.006 -0.011 -0.000
 O          0.001 -0.002 -0.001    0.001 -0.001 -0.002   -0.009  0.009 -0.001
 O         -0.001  0.001 -0.001   -0.001  0.001 -0.000    0.004 -0.008  0.009
 TransDip  -0.082 -0.039  0.018    0.102  0.030 -0.107    0.066  0.098 -0.054

 Mode:                49                     50                     51
 Frequency:      1461.70                1486.73                1737.27
 Force Cnst:      2.6676                 1.4145                13.1247
 Red. Mass:       2.1191                 1.0861                 7.3808
 IR Active:          YES                    YES                    YES
 IR Intens:       27.800                  4.750                  1.089
 Raman Active:       YES                    YES                    YES
               X      Y      Z        X      Y      Z        X      Y      Z
 C          0.208 -0.032 -0.174   -0.000  0.009 -0.011   -0.005  0.024 -0.004
 C         -0.053 -0.032  0.079   -0.000  0.001  0.003    0.001 -0.019  0.009
 C         -0.007 -0.007 -0.056    0.000 -0.002  0.002    0.001  0.051 -0.051
 C          0.014 -0.006  0.033   -0.002  0.006 -0.009   -0.030 -0.454  0.281
 C         -0.007 -0.020 -0.014    0.003  0.004  0.005    0.092  0.494 -0.160
 C         -0.029  0.023  0.019   -0.000 -0.012 -0.000   -0.022 -0.088  0.021
 C          0.031  0.009 -0.029    0.032 -0.073 -0.009   -0.004 -0.000 -0.014
 H         -0.549  0.135  0.362    0.007 -0.028  0.035    0.059 -0.052  0.040
 H          0.152  0.029 -0.006   -0.009 -0.012  0.004    0.024  0.083  0.022
 H          0.094  0.163  0.163    0.001  0.004  0.007   -0.058 -0.004 -0.150
 H         -0.011  0.062 -0.047    0.004 -0.021  0.026   -0.185 -0.010 -0.402
 H          0.036  0.124 -0.002   -0.008 -0.032  0.004   -0.192 -0.237 -0.295
 H         -0.134 -0.102  0.139    0.085  0.589  0.364    0.007  0.035 -0.005
 O          0.000  0.000  0.002    0.005 -0.005 -0.002    0.001 -0.000  0.000
 H         -0.052 -0.057  0.106   -0.528  0.415 -0.220   -0.022 -0.005 -0.001
 H         -0.026  0.003  0.012   -0.010 -0.007  0.004   -0.017 -0.000  0.010
 O         -0.053 -0.007  0.049    0.001 -0.003  0.002    0.002 -0.003 -0.001
 H         -0.320  0.376  0.176   -0.029  0.032  0.012   -0.006  0.008  0.001
 O         -0.002  0.006 -0.009    0.000 -0.001  0.000    0.002  0.000 -0.002
 O         -0.013  0.003  0.005   -0.001  0.001  0.001   -0.000  0.004 -0.004
 O         -0.000  0.002  0.002    0.000 -0.000  0.000   -0.006  0.007 -0.010
 O          0.001 -0.002  0.001   -0.000  0.000 -0.000    0.001 -0.002  0.004
 TransDip   0.130  0.067 -0.085   -0.021  0.066  0.006   -0.019 -0.012  0.025

 Mode:                52                     53                     54
 Frequency:      3072.48                3075.36                3110.80
 Force Cnst:      6.0359                 5.9135                 6.1887
 Red. Mass:       1.0852                 1.0612                 1.0854
 IR Active:          YES                    YES                    YES
 IR Intens:       37.019                 56.374                  3.879
 Raman Active:       YES                    YES                    YES
               X      Y      Z        X      Y      Z        X      Y      Z
 C         -0.041 -0.061 -0.038    0.006  0.008  0.006    0.001  0.001  0.000
 C          0.002 -0.001  0.003   -0.000  0.000 -0.001   -0.004  0.002 -0.007
 C         -0.001  0.000  0.001    0.000 -0.000 -0.000   -0.061 -0.028  0.049
 C         -0.000 -0.000 -0.000    0.000  0.000  0.000    0.001  0.002  0.001
 C          0.000  0.001 -0.000    0.000 -0.000  0.000    0.000  0.000  0.000
 C         -0.000 -0.001 -0.000   -0.001 -0.000  0.000    0.000 -0.000  0.000
 C         -0.005  0.009 -0.001   -0.038  0.055 -0.014   -0.000 -0.000 -0.000
 H          0.473  0.730  0.460   -0.068 -0.103 -0.066   -0.005 -0.008 -0.005
 H         -0.029  0.015 -0.047    0.004 -0.002  0.007    0.047 -0.026  0.084
 H          0.013  0.006 -0.010   -0.003 -0.001  0.002    0.730  0.320 -0.588
 H          0.001  0.001  0.001   -0.000 -0.000 -0.001   -0.013 -0.024 -0.013
 H          0.003 -0.002  0.007   -0.001  0.003 -0.003   -0.004  0.002 -0.004
 H          0.094 -0.042  0.062    0.664 -0.309  0.444    0.001 -0.001  0.001
 O         -0.000  0.000  0.000   -0.001  0.000  0.001   -0.000 -0.000  0.000
 H         -0.032 -0.055 -0.049   -0.197 -0.345 -0.290    0.000  0.000  0.001
 H          0.000 -0.000  0.001    0.002  0.001  0.005    0.000  0.000 -0.000
 O          0.001 -0.000 -0.000   -0.000  0.000  0.000   -0.000 -0.000 -0.000
 H          0.004  0.001 -0.004    0.001 -0.001  0.000   -0.000 -0.000  0.000
 O         -0.000 -0.000  0.000    0.000  0.000 -0.000    0.000 -0.000 -0.000
 O         -0.000  0.000  0.000    0.000  0.000 -0.000    0.000 -0.000  0.000
 O         -0.000 -0.000  0.000   -0.000  0.000 -0.000   -0.001  0.000  0.000
 O         -0.000 -0.000 -0.000   -0.000  0.000  0.000    0.000  0.000 -0.000
 TransDip  -0.061 -0.144 -0.116   -0.124  0.206  0.003   -0.055  0.006  0.031

 Mode:                55                     56                     57
 Frequency:      3137.99                3139.70                3182.16
 Force Cnst:      6.3162                 6.4274                 6.4968
 Red. Mass:       1.0887                 1.1066                 1.0890
 IR Active:          YES                    YES                    YES
 IR Intens:        1.566                 26.382                  3.288
 Raman Active:       YES                    YES                    YES
               X      Y      Z        X      Y      Z        X      Y      Z
 C         -0.003 -0.004 -0.001   -0.000 -0.001 -0.000    0.001  0.000  0.000
 C         -0.038  0.020 -0.073   -0.003  0.001 -0.005    0.000 -0.000  0.000
 C          0.006  0.004 -0.005    0.001  0.000 -0.000    0.000  0.000 -0.000
 C         -0.000 -0.000  0.000   -0.000 -0.000  0.000    0.015  0.020  0.017
 C         -0.000  0.000 -0.001    0.000  0.000  0.000   -0.028  0.019 -0.073
 C          0.000 -0.001  0.001   -0.001 -0.001 -0.001    0.000  0.001  0.001
 C          0.004  0.003  0.004   -0.060 -0.037 -0.063   -0.000 -0.000 -0.001
 H          0.029  0.042  0.025    0.008  0.009  0.007   -0.003 -0.004 -0.003
 H          0.460 -0.234  0.842    0.031 -0.016  0.057   -0.002  0.001 -0.005
 H         -0.072 -0.034  0.057   -0.006 -0.003  0.005   -0.004 -0.002  0.004
 H          0.005  0.008  0.005    0.000  0.001  0.001   -0.177 -0.270 -0.177
 H          0.004 -0.002  0.008    0.000  0.002 -0.001    0.338 -0.193  0.840
 H         -0.025  0.013 -0.017    0.372 -0.184  0.250    0.001 -0.003  0.002
 O         -0.000 -0.000 -0.000    0.001  0.001  0.001   -0.000  0.000 -0.000
 H         -0.023 -0.042 -0.034    0.339  0.622  0.500    0.000 -0.001  0.001
 H          0.001  0.000  0.000   -0.013 -0.008 -0.005   -0.001  0.000  0.003
 O          0.000  0.000 -0.000    0.000  0.000 -0.000   -0.000  0.000 -0.000
 H          0.001 -0.000 -0.000   -0.000 -0.001  0.000   -0.000 -0.000  0.001
 O         -0.001  0.001  0.000   -0.000  0.000  0.000   -0.000  0.000  0.000
 O          0.000 -0.001  0.001    0.000 -0.000  0.000    0.000 -0.000 -0.000
 O         -0.000 -0.000 -0.000    0.000 -0.000  0.000    0.000  0.000  0.000
 O          0.000  0.000  0.000    0.000 -0.000  0.000    0.000 -0.000  0.000
 TransDip  -0.018  0.014 -0.033   -0.098 -0.065 -0.115   -0.021  0.026 -0.048

 Mode:                58                     59                     60
 Frequency:      3208.06                3749.75                3823.68
 Force Cnst:      6.6596                 8.8336                 9.1895
 Red. Mass:       1.0983                 1.0663                 1.0668
 IR Active:          YES                    YES                    YES
 IR Intens:        6.225                270.415                131.375
 Raman Active:       YES                    YES                    YES
               X      Y      Z        X      Y      Z        X      Y      Z
 C          0.001  0.000  0.000    0.000  0.001 -0.001   -0.000 -0.000 -0.000
 C          0.001  0.000  0.001   -0.000  0.000  0.000    0.000  0.000 -0.000
 C         -0.001 -0.001  0.003    0.000  0.000 -0.000   -0.000  0.000 -0.000
 C         -0.039 -0.065 -0.035    0.000 -0.000  0.000   -0.000 -0.000 -0.000
 C         -0.011  0.013 -0.031    0.000  0.000  0.000    0.000 -0.000  0.000
 C          0.000  0.001  0.001   -0.000 -0.000  0.000   -0.000  0.000 -0.000
 C         -0.000 -0.000 -0.000   -0.000  0.000  0.000   -0.002 -0.001 -0.001
 H         -0.003 -0.004 -0.002   -0.001  0.005  0.003    0.000  0.000  0.000
 H         -0.004  0.002 -0.007   -0.000 -0.000  0.000   -0.000 -0.000  0.000
 H          0.021  0.011 -0.020   -0.000 -0.000  0.000    0.000 -0.000  0.000
 H          0.444  0.684  0.440   -0.000 -0.000 -0.000   -0.000 -0.000  0.000
 H          0.132 -0.078  0.329   -0.000 -0.000 -0.001   -0.001  0.001 -0.002
 H          0.001 -0.001  0.001    0.001  0.000 -0.001   -0.000  0.001  0.005
 O         -0.000 -0.000  0.000   -0.000 -0.001 -0.002   -0.024 -0.030 -0.050
 H         -0.000 -0.001  0.001    0.000 -0.000 -0.001    0.004  0.009  0.009
 H         -0.000  0.000  0.001    0.013  0.014  0.024    0.404  0.471  0.781
 O         -0.000  0.000 -0.000    0.021  0.031 -0.050   -0.001 -0.001  0.002
 H         -0.000 -0.000  0.001   -0.326 -0.504  0.797    0.008  0.017 -0.025
 O          0.000 -0.000 -0.000   -0.000 -0.000  0.000   -0.000 -0.000  0.000
 O          0.000  0.000 -0.000   -0.000  0.000 -0.000   -0.000 -0.000  0.000
 O         -0.000  0.000 -0.000   -0.000 -0.000  0.000    0.000 -0.000  0.000
 O         -0.000  0.000 -0.000   -0.000 -0.000  0.000    0.000 -0.000  0.000
 TransDip  -0.046 -0.038 -0.054   -0.163 -0.238  0.441    0.071  0.149  0.328

 STANDARD THERMODYNAMIC QUANTITIES AT   298.15 K  AND     1.00 ATM

   This Molecule has  0 Imaginary Frequencies
   Zero point vibrational energy:      104.837 kcal/mol

   Atom    1 Element C  Has Mass   12.00000
   Atom    2 Element C  Has Mass   12.00000
   Atom    3 Element C  Has Mass   12.00000
   Atom    4 Element C  Has Mass   12.00000
   Atom    5 Element C  Has Mass   12.00000
   Atom    6 Element C  Has Mass   12.00000
   Atom    7 Element C  Has Mass   12.00000
   Atom    8 Element H  Has Mass    1.00783
   Atom    9 Element H  Has Mass    1.00783
   Atom   10 Element H  Has Mass    1.00783
   Atom   11 Element H  Has Mass    1.00783
   Atom   12 Element H  Has Mass    1.00783
   Atom   13 Element H  Has Mass    1.00783
   Atom   14 Element O  Has Mass   15.99491
   Atom   15 Element H  Has Mass    1.00783
   Atom   16 Element H  Has Mass    1.00783
   Atom   17 Element O  Has Mass   15.99491
   Atom   18 Element H  Has Mass    1.00783
   Atom   19 Element O  Has Mass   15.99491
   Atom   20 Element O  Has Mass   15.99491
   Atom   21 Element O  Has Mass   15.99491
   Atom   22 Element O  Has Mass   15.99491
   Molecular Mass:   189.039930 amu
   Principal axes and moments of inertia in amu*Bohr^2:
                             1           2           3
    Eigenvalues --     1225.38721  2748.54986  3075.91681
          X               0.03816     0.70258     0.71058
          Y               0.85961    -0.38567     0.33516
          Z              -0.50952    -0.59803     0.61866
   Rotational Symmetry Number is   1
   The Molecule is an Asymmetric Top
   Translational Enthalpy:        0.889 kcal/mol
   Rotational Enthalpy:           0.889 kcal/mol
   Vibrational Enthalpy:        110.389 kcal/mol
   gas constant (RT):             0.592 kcal/mol
   Translational Entropy:        41.616  cal/mol.K
   Rotational Entropy:           30.716  cal/mol.K
   Vibrational Entropy:          32.861  cal/mol.K

   Total Enthalpy:              112.759 kcal/mol
   Total Entropy:               105.194  cal/mol.K
 Total job time:  92884.21s(wall), 712500.87s(cpu) 
 Sat Apr 22 23:31:42 2023

        *************************************************************
        *                                                           *
        *  Thank you very much for using Q-Chem.  Have a nice day.  *
        *                                                           *
        *************************************************************


