
Running Job 1 of 1 Q_in.in
qchem Q_in.in_113498.0 /scratch/ari.fischer/qChem1469994.hpc-mn1/qchem113498/ 0
/usr/local/qchem-5.4.1/exe/qcprog.exe_s Q_in.in_113498.0 /scratch/ari.fischer/qChem1469994.hpc-mn1/qchem113498/
                  Welcome to Q-Chem
     A Quantum Leap Into The Future Of Chemistry


 Q-Chem 5.4, Q-Chem, Inc., Pleasanton, CA (2021)

 License issued to: Nanyang Technological University (site)

 E. Epifanovsky,  A. T. B. Gilbert,  Xintian Feng,  Joonho Lee,  Yuezhi Mao,  
 N. Mardirossian,  P. Pokhilko,  A. White,  M. Wormit,  M. P. Coons,  
 A. L. Dempwolff,  Zhengting Gan,  D. Hait,  P. R. Horn,  L. D. Jacobson,  
 I. Kaliman,  J. Kussmann,  A. W. Lange,  Ka Un Lao,  D. S. Levine,  Jie Liu,  
 S. C. McKenzie,  A. F. Morrison,  K. Nanda,  F. Plasser,  D. R. Rehn,  
 M. L. Vidal,  Zhi-Qiang You,  Ying Zhu,  B. Alam,  B. Albrecht,  
 A. Aldossary,  E. Alguire,  J. H. Andersen,  D. Barton,  K. Begam,  A. Behn,  
 Y. A. Bernard,  E. J. Berquist,  H. Burton,  A. Carreras,  K. Carter-Fenk,  
 R. Chakraborty,  A. D. Chien,  K. D. Closser,  V. Cofer-Shabica,  
 S. Dasgupta,  Jia Deng,  M. de Wergifosse,  M. Diedenhofen,  Hainam Do,  
 S. Ehlert,  Po-Tung Fang,  S. Fatehi,  Qingguo Feng,  T. Friedhoff,  
 J. Gayvert,  Qinghui Ge,  G. Gidofalvi,  M. Goldey,  J. Gomes,  
 C. Gonzalez-Espinoza,  S. Gulania,  A. Gunina,  M. W. D. Hanson-Heine,  
 P. H. P. Harbach,  A. W. Hauser,  M. F. Herbst,  M. Hernandez Vera,  
 M. Hodecker,  Z. C. Holden,  S. Houck,  Xunkun Huang,  Kerwin Hui,  
 B. C. Huynh,  M. Ivanov,  Hyunjun Ji,  Hanjie Jiang,  B. Kaduk,  S. Kaehler,  
 K. Khistyaev,  Jaehoon Kim,  P. Klunzinger,  Z. Koczor-Benda,  
 Joong Hoon Koh,  D. Kosenkov,  L. Koulias,  T. Kowalczyk,  C. M. Krauter,  
 K. Kue,  A. Kunitsa,  T. Kus,  A. Landau,  K. V. Lawler,  D. Lefrancois,  
 S. Lehtola,  Rain Li,  Yi-Pei Li,  Jiashu Liang,  M. Liebenthal,  
 Hung-Hsuan Lin,  You-Sheng Lin,  Fenglai Liu,  Kuan-Yu Liu,  
 M. Loipersberger,  A. Luenser,  A. Manjanath,  P. Manohar,  E. Mansoor,  
 S. F. Manzer,  Shan-Ping Mao,  A. V. Marenich,  T. Markovich,  S. Mason,  
 S. A. Maurer,  P. F. McLaughlin,  M. F. S. J. Menger,  J.-M. Mewes,  
 S. A. Mewes,  P. Morgante,  J. W. Mullinax,  K. J. Oosterbaan,  G. Paran,  
 Alexander C. Paul,  Suranjan K. Paul,  F. Pavosevic,  Zheng Pei,  S. Prager,  
 E. I. Proynov,  E. Ramos,  B. Rana,  A. E. Rask,  A. Rettig,  R. M. Richard,  
 F. Rob,  E. Rossomme,  T. Scheele,  M. Scheurer,  M. Schneider,  
 N. Sergueev,  S. M. Sharada,  W. Skomorowski,  D. W. Small,  C. J. Stein,  
 Yu-Chuan Su,  E. J. Sundstrom,  Zhen Tao,  J. Thirman,  T. Tsuchimochi,  
 N. M. Tubman,  S. P. Veccham,  O. Vydrov,  J. Wenzel,  J. Witte,  A. Yamada,  
 Kun Yao,  S. Yeganeh,  S. R. Yost,  A. Zech,  Igor Ying Zhang,  Xing Zhang,  
 Yu Zhang,  D. Zuev,  A. Aspuru-Guzik,  A. T. Bell,  N. A. Besley,  
 K. B. Bravaya,  B. R. Brooks,  D. Casanova,  Jeng-Da Chai,  S. Coriani,  
 C. J. Cramer,  A. E. DePrince, III,  R. A. DiStasio Jr.,  A. Dreuw,  
 B. D. Dunietz,  T. R. Furlani,  W. A. Goddard III,  S. Grimme,  
 S. Hammes-Schiffer,  T. Head-Gordon,  W. J. Hehre,  Chao-Ping Hsu,  
 T.-C. Jagau,  Yousung Jung,  A. Klamt,  Jing Kong,  D. S. Lambrecht,  
 WanZhen Liang,  N. J. Mayhall,  C. W. McCurdy,  J. B. Neaton,  
 C. Ochsenfeld,  J. A. Parkhill,  R. Peverati,  V. A. Rassolov,  Yihan Shao,  
 L. V. Slipchenko,  T. Stauch,  R. P. Steele,  J. E. Subotnik,  
 A. J. W. Thom,  A. Tkatchenko,  D. G. Truhlar,  T. Van Voorhis,  
 T. A. Wesolowski,  K. B. Whaley,  H. L. Woodcock III,  P. M. Zimmerman,  
 S. Faraji,  P. M. W. Gill,  M. Head-Gordon,  J. M. Herbert,  A. I. Krylov

 Additional authors for Version 5.4.1: 
 S. Kotaru,  Shaozhi Li,  Xiangyuan Li,  F. Matz,  A. Molle,  Haisheng Ren,  
 Yingli Su,  Hung-Yi Tsai,  C. Utku,  Fang Wang

 Contributors to earlier versions of Q-Chem not listed above: 
 R. D. Adamson,  B. Austin,  R. Baer,  J. Baker,  G. J. O. Beran,  
 K. Brandhorst,  S. T. Brown,  E. F. C. Byrd,  A. K. Chakraborty,  
 G. K. L. Chan,  Chun-Min Chang,  Yunqing Chen,  C.-L. Cheng,  
 Siu Hung Chien,  D. M. Chipman,  D. L. Crittenden,  H. Dachsel,  
 R. J. Doerksen,  A. D. Dutoi,  R. G. Edgar,  J. Fosso-Tande,  
 L. Fusti-Molnar,  D. Ghosh,  A. Ghysels,  A. Golubeva-Zadorozhnaya,  
 J. Gonthier,  M. S. Gordon,  S. R. Gwaltney,  G. Hawkins,  J. E. Herr,  
 A. Heyden,  S. Hirata,  E. G. Hohenstein,  G. Kedziora,  F. J. Keil,  
 C. Kelley,  Jihan Kim,  R. A. King,  R. Z. Khaliullin,  P. P. Korambath,  
 W. Kurlancheek,  A. Laurent,  A. M. Lee,  M. S. Lee,  S. V. Levchenko,  
 Ching Yeh Lin,  D. Liotard,  E. Livshits,  R. C. Lochan,  I. Lotan,  
 L. A. Martinez-Martinez,  P. E. Maslen,  N. Nair,  D. P. O'Neill,  
 D. Neuhauser,  E. Neuscamman,  C. M. Oana,  R. Olivares-Amaya,  R. Olson,  
 T. M. Perrine,  B. Peters,  P. A. Pieniazek,  A. Prociuk,  Y. M. Rhee,  
 J. Ritchie,  M. A. Rohrdanz,  E. Rosta,  N. J. Russ,  H. F. Schaefer III,  
 M. W. Schmidt,  N. E. Schultz,  S. Sharma,  N. Shenvi,  C. D. Sherrill,  
 A. C. Simmonett,  A. Sodt,  T. Stein,  D. Stuck,  K. S. Thanthiriwatte,  
 V. Vanovschi,  L. Vogt,  Tao Wang,  A. Warshel,  M. A. Watson,  
 C. F. Williams,  Q. Wu,  X. Xu,  Jun Yang,  W. Zhang,  Yan Zhao

 Please cite Q-Chem as follows:
 Y. Shao et al., Mol. Phys. 113, 184-215 (2015)
 DOI: 10.1080/00268976.2014.952696

 Q-Chem 5.4.1 for Intel X86 EM64T Linux

 Parts of Q-Chem use Armadillo 9.800.1 (Horizon Scraper).
 http://arma.sourceforge.net/

 Q-Chem begins on Tue Feb 14 15:21:25 2023  

 Host: 
0

     Scratch files written to /scratch/ari.fischer/qChem1469994.hpc-mn1/qchem113498//
 Aug1521 |scratch|qcdevops|jenkins|workspace|build_RNUM 8249   
 Processing $rem in /usr/local/qchem-5.4.1/config/preferences:
 Processing $rem in /home/ari.fischer/.qchemrc:
 Symmetry turned off for PCM/SM12/SMD calculation

 Checking the input file for inconsistencies... 	...done.

--------------------------------------------------------------
User input:
--------------------------------------------------------------
$molecule
0 2
C        -0.0097110143   -0.2118357545    0.7852818210
C        -0.8644308188   -0.9929424956    1.7711358461
C        -1.5212365788   -2.2167764371    1.1205269419
C        -2.0247332074   -1.9307255407   -0.2629746142
C        -1.8699678483   -0.7246224395   -0.8070380122
C        -1.1612151105    0.3729870842   -0.0436168709
C        -0.7080332558    1.5373949065   -0.9155792001
H         0.5036855200    0.6075227980    1.3053776055
H        -0.3623271623   -1.2605456609    2.7034883160
H        -2.3170715121   -2.5878150397    1.7720176531
H        -2.5489335726   -2.7309552859   -0.7782788950
H        -2.2771511337   -0.4926092659   -1.7893152176
H        -1.5409157994    1.9419139651   -1.5005596742
O         0.3531154943    1.0956133362   -1.7622316374
H        -0.3036719641    2.3255764907   -0.2762929626
H        -0.0421246127    0.5977367470   -2.4974703777
O         0.8857898166   -1.0270560515    0.0691390002
H         1.1287293682   -0.4925991404   -0.7126190582
O        -1.8989398097   -0.0626449977    2.1088720070
O        -2.0121436448    0.8910384696    0.9880069097
O        -0.5475013072   -3.3080692589    1.0131101985
O        -0.3098662470   -3.8409311292    2.1874961213
$end

$rem
BASIS = 6-311++G(2df,2p)
GUI = 2
JOB_TYPE = Optimization
METHOD = wB97M-V
SCF_ALGORITHM = DIIS_GDM
MAX_SCF_CYCLES = 400
GEOM_OPT_MAX_CYCLES = 150
SCF_CONVERGENCE = 7
THRESH = 12
UNRESTRICTED = 1
Solvent_method = SMD
$end
--------------------------------------------------------------
 ----------------------------------------------------------------
             Standard Nuclear Orientation (Angstroms)
    I     Atom           X                Y                Z
 ----------------------------------------------------------------
    1      C      -0.0097110143    -0.2118357545     0.7852818210
    2      C      -0.8644308188    -0.9929424956     1.7711358461
    3      C      -1.5212365788    -2.2167764371     1.1205269419
    4      C      -2.0247332074    -1.9307255407    -0.2629746142
    5      C      -1.8699678483    -0.7246224395    -0.8070380122
    6      C      -1.1612151105     0.3729870842    -0.0436168709
    7      C      -0.7080332558     1.5373949065    -0.9155792001
    8      H       0.5036855200     0.6075227980     1.3053776055
    9      H      -0.3623271623    -1.2605456609     2.7034883160
   10      H      -2.3170715121    -2.5878150397     1.7720176531
   11      H      -2.5489335726    -2.7309552859    -0.7782788950
   12      H      -2.2771511337    -0.4926092659    -1.7893152176
   13      H      -1.5409157994     1.9419139651    -1.5005596742
   14      O       0.3531154943     1.0956133362    -1.7622316374
   15      H      -0.3036719641     2.3255764907    -0.2762929626
   16      H      -0.0421246127     0.5977367470    -2.4974703777
   17      O       0.8857898166    -1.0270560515     0.0691390002
   18      H       1.1287293682    -0.4925991404    -0.7126190582
   19      O      -1.8989398097    -0.0626449977     2.1088720070
   20      O      -2.0121436448     0.8910384696     0.9880069097
   21      O      -0.5475013072    -3.3080692589     1.0131101985
   22      O      -0.3098662470    -3.8409311292     2.1874961213
 ----------------------------------------------------------------
 Nuclear Repulsion Energy =         904.08503038 hartrees
 There are       50 alpha and       49 beta electrons
 Requested basis set is 6-311++G(2df,2p)
 There are 158 shells and 532 basis functions

 Total QAlloc Memory Limit 288000 MB
 Mega-Array Size       188 MB
 MEM_STATIC part       192 MB
 
 Citation of the SMD model:
 Marenich, A.V.; Cramer, C.J.; Truhlar, D.G.
 J. Phys. Chem. B 2009, 113, 6378-6396.
 iSolventCode=           1
 Solvent: water                                                           
 
 vradii
            1           2           3           4           5           6
    1   1.8500000   1.8500000   1.8500000   1.8500000   1.8500000   1.8500000
            7           8           9          10          11          12
    1   1.8500000   1.2000000   1.2000000   1.2000000   1.2000000   1.2000000
           13          14          15          16          17          18
    1   1.2000000   1.5200000   1.2000000   1.2000000   1.5200000   1.2000000
           19          20          21          22
    1   1.5200000   1.5200000   1.5200000   1.5200000
 Changing PCM_VDW_RADII to SMD_RADIUS
 Discretize the solute cavity surface with Lebedev spheres
	Using 110 Lebedev grid points for each H atom
	Using 194 Lebedev grid points for other atoms
	Atomic van der Waals radii will be scaled by 1.20
 Remove points where switching function is < 1.0e-08
 Keep 1601 surface tesserae and discard 1911 interior tesserae
 Molecular Surface Area = 180.113 Angst**2
 A cutoff of  1.0D-12 yielded  11014 shell pairs
 There are    125050 function pairs (    156643 Cartesian)
 Smallest overlap matrix eigenvalue = 1.88E-06

 Scale SEOQF with 1.000000e-01/1.000000e-01/1.000000e-01

 Standard Electronic Orientation quadrupole field applied
 Nucleus-field energy     =     0.0000000105 hartrees
 Guess from superposition of atomic densities
 Warning:  Energy on first SCF cycle will be non-variational
 SAD guess density has 99.000000 electrons

 -----------------------------------------------------------------------
  General SCF calculation program by
  Eric Jon Sundstrom, Paul Horn, Yuezhi Mao, Dmitri Zuev, Alec White,
  David Stuck, Shaama M.S., Shane Yost, Joonho Lee, David Small,
  Daniel Levine, Susi Lehtola, Hugh Burton, Evgeny Epifanovsky,
  Bang C. Huynh
 -----------------------------------------------------------------------
 Exchange:     0.1500 Hartree-Fock + 1.0000 wB97M-V + LR-HF
 Correlation:  1.0000 wB97M-V
 Using SG-2 standard quadrature grid
 Nonlocal Correlation:  VV10 with C = 0.0100 and b = 6.00 and scale = 1.00000
 Grid used for NLC:  SG-1 standard quadrature
 
 Citation of the SMD model:
 Marenich, A.V.; Cramer, C.J.; Truhlar, D.G.
 J. Phys. Chem. B 2009, 113, 6378-6396.
 iSolventCode=           1
 Solvent: water                                                           
 
 vradii
            1           2           3           4           5           6
    1   1.8500000   1.8500000   1.8500000   1.8500000   1.8500000   1.8500000
            7           8           9          10          11          12
    1   1.8500000   1.2000000   1.2000000   1.2000000   1.2000000   1.2000000
           13          14          15          16          17          18
    1   1.2000000   1.5200000   1.2000000   1.2000000   1.5200000   1.2000000
           19          20          21          22
    1   1.5200000   1.5200000   1.5200000   1.5200000
 using 8 threads for integral computing
 -------------------------------------------------------
 OpenMP Integral computing Module                
 Release: version 1.0, May 2013, Q-Chem Inc. Pittsburgh 
 -------------------------------------------------------
 -------------------------------------------------------
 OpenMP BLAS3 based DFT computing Module                
 Release: version 1.0, May 2013, Q-Chem Inc. Pittsburgh 
 -------------------------------------------------------
 A unrestricted SCF calculation will be
 performed using DIIS, GDM
 SCF converges when RMS gradient is below 1.0e-07
 ---------------------------------------
  Cycle       Energy         DIIS error
 ---------------------------------------
    1    -726.5561256284      1.08e-02  
    2    -723.1265140269      1.13e-03  Done DIIS. Switching to GDM
 ---------------------------------------
  Cycle       Energy        RMS Gradient
 ---------------------------------------
    1    -723.1265140269      1.14e-01   Descent step
    2    -723.2569124486      3.98e-02   Normal BFGS step
    3    -723.2804618220      2.35e-02   Normal BFGS step
    4    -723.2844579914      7.92e-03   Normal BFGS step
    5    -723.2861158943      4.59e-03   Normal BFGS step
    6    -723.2864087505      3.55e-03   Normal BFGS step
    7    -723.2865100190      2.05e-03   Normal BFGS step
    8    -723.2865436649      1.28e-03   Normal BFGS step
    9    -723.2865515090      9.58e-04   Normal BFGS step
   10    -723.2865562708      6.21e-04   Normal BFGS step
   11    -723.2865591637      5.67e-04   Normal BFGS step
   12    -723.2865625947      3.40e-04   Normal BFGS step
   13    -723.2865634676      1.17e-04   Normal BFGS step
   14    -723.2865637291      2.61e-05   Normal BFGS step
   15    -723.2865637570      1.48e-05   Normal BFGS step
   16    -723.2865637614      5.40e-06   Normal BFGS step
   17    -723.2865637622      2.59e-06   Normal BFGS step
   18    -723.2865637623      8.02e-07   Normal BFGS step
   19    -723.2865637623      3.89e-07   Normal BFGS step
   20    -723.2865637624      2.96e-07   Normal BFGS step
   21    -723.2865637624      1.61e-07   Normal BFGS step
   22    -723.2865637623      7.43e-08  Convergence criterion met
 ---------------------------------------
 SCF time:   CPU 5731.00s  wall 736.00s 
<S^2> =          0.754044195
(3)  G-ENP(liq) elect-nuc-pol free energy of system     -723.286563762 a.u.
(4)  G-CDS(liq) cavity-dispersion-solvent structure 
     free energy                                                2.5919 kcal/mol
(6)  G-S(liq) free energy of system                     -723.282433236 a.u.
 SCF   energy in the final basis set =     -723.2824332356
 Total energy in the final basis set =     -723.2824332356
 
 --------------------------------------------------------------
 
                    Orbital Energies (a.u.)
 --------------------------------------------------------------
 
 Alpha MOs
 -- Occupied --
-19.4672 -19.4195 -19.4113 -19.4094 -19.3529 -19.3470 -10.4196 -10.4192
-10.4171 -10.4107 -10.3986 -10.3613 -10.3589  -1.3416  -1.2756  -1.1777
 -1.1626  -1.0796  -1.0305  -0.9588  -0.8897  -0.8541  -0.8126  -0.7540
 -0.7252  -0.6942  -0.6719  -0.6473  -0.6454  -0.6262  -0.6106  -0.6005
 -0.5826  -0.5732  -0.5593  -0.5449  -0.5340  -0.5250  -0.5197  -0.5000
 -0.4871  -0.4612  -0.4583  -0.4329  -0.4161  -0.4133  -0.3980  -0.3861
 -0.3736  -0.3646
 -- Virtual --
  0.0251   0.0352   0.0359   0.0399   0.0500   0.0548   0.0571   0.0667
  0.0736   0.0840   0.0852   0.0899   0.1052   0.1212   0.1226   0.1282
  0.1297   0.1338   0.1432   0.1462   0.1516   0.1547   0.1606   0.1647
  0.1698   0.1702   0.1741   0.1850   0.1877   0.1951   0.1980   0.2002
  0.2084   0.2111   0.2123   0.2205   0.2232   0.2325   0.2437   0.2448
  0.2597   0.2648   0.2730   0.2774   0.2848   0.2858   0.2916   0.3045
  0.3069   0.3113   0.3149   0.3187   0.3255   0.3361   0.3385   0.3433
  0.3448   0.3541   0.3599   0.3625   0.3675   0.3739   0.3744   0.3820
  0.3878   0.3925   0.3947   0.3990   0.4058   0.4152   0.4217   0.4277
  0.4334   0.4374   0.4479   0.4517   0.4614   0.4733   0.4773   0.4891
  0.4974   0.5109   0.5213   0.5295   0.5458   0.5529   0.5689   0.5937
  0.6034   0.6090   0.6191   0.6243   0.6431   0.6499   0.6590   0.6632
  0.6724   0.6793   0.6850   0.6925   0.6997   0.7127   0.7163   0.7268
  0.7294   0.7391   0.7483   0.7611   0.7718   0.7740   0.7814   0.7997
  0.8121   0.8135   0.8442   0.8619   0.8626   0.8839   0.8919   0.8993
  0.9115   0.9447   0.9585   0.9643   0.9874   1.0028   1.0222   1.0360
  1.0535   1.0652   1.0697   1.0832   1.0984   1.1113   1.1207   1.1247
  1.1377   1.1460   1.1572   1.1642   1.1734   1.1815   1.1912   1.1942
  1.2076   1.2155   1.2201   1.2305   1.2347   1.2421   1.2555   1.2615
  1.2667   1.2728   1.2873   1.2957   1.3051   1.3089   1.3211   1.3287
  1.3385   1.3552   1.3587   1.3625   1.3669   1.3825   1.3915   1.4029
  1.4158   1.4266   1.4387   1.4472   1.4586   1.4697   1.4821   1.4850
  1.4950   1.5015   1.5104   1.5200   1.5427   1.5514   1.5624   1.5708
  1.5849   1.5876   1.6017   1.6193   1.6299   1.6422   1.6518   1.6539
  1.6729   1.6853   1.6993   1.7107   1.7320   1.7445   1.7609   1.7756
  1.7958   1.8054   1.8093   1.8514   1.8684   1.8902   1.8908   1.9235
  1.9486   1.9711   1.9890   2.0155   2.0270   2.0456   2.0528   2.0841
  2.0956   2.1353   2.1683   2.1788   2.1895   2.2203   2.2482   2.2674
  2.2839   2.3189   2.3251   2.3463   2.3742   2.3929   2.4095   2.4333
  2.4749   2.4819   2.5117   2.5433   2.6614   2.6800   2.6962   2.7110
  2.7346   2.7485   2.7753   2.8012   2.8052   2.8290   2.8456   2.8533
  2.8796   2.8857   2.8949   2.9114   2.9364   2.9453   2.9540   2.9825
  2.9890   3.0071   3.0326   3.0365   3.0615   3.0717   3.1035   3.1104
  3.1410   3.1512   3.1614   3.1984   3.2094   3.2250   3.2442   3.2700
  3.2730   3.3106   3.3279   3.3396   3.3524   3.3741   3.3891   3.4099
  3.4255   3.4575   3.4646   3.4674   3.4859   3.4947   3.5291   3.5311
  3.5753   3.5761   3.5860   3.5968   3.6150   3.6462   3.6479   3.6597
  3.6696   3.6784   3.6956   3.7185   3.7201   3.7453   3.7552   3.7659
  3.7873   3.7949   3.8097   3.8276   3.8487   3.8568   3.8684   3.8774
  3.8883   3.8986   3.9128   3.9237   3.9433   3.9542   3.9602   3.9733
  3.9963   4.0040   4.0115   4.0455   4.0502   4.0977   4.1049   4.1155
  4.1382   4.1689   4.1828   4.2071   4.2146   4.2473   4.2665   4.2868
  4.2947   4.3069   4.3315   4.3437   4.3702   4.3882   4.4028   4.4050
  4.4114   4.4285   4.4429   4.4779   4.4875   4.5034   4.5144   4.5246
  4.5649   4.5719   4.5925   4.6041   4.6285   4.6367   4.6589   4.6814
  4.6936   4.7148   4.7312   4.7488   4.7591   4.7813   4.8110   4.8258
  4.8704   4.9029   4.9290   4.9816   4.9917   5.0449   5.0637   5.0908
  5.0994   5.1033   5.1157   5.1333   5.1882   5.2301   5.2414   5.2579
  5.2708   5.2942   5.2962   5.3136   5.3158   5.3208   5.3451   5.3645
  5.3848   5.3939   5.4131   5.4327   5.4449   5.4505   5.4753   5.4918
  5.5038   5.5234   5.5288   5.5578   5.5869   5.6013   5.6096   5.6325
  5.6443   5.6578   5.6910   5.7206   5.7418   5.7602   5.7681   5.7749
  5.7987   5.8167   5.8227   5.8941   5.9237   5.9667   5.9921   6.0125
  6.0307   6.0631   6.1107   6.2459   6.4412   6.4573   6.5736   6.6139
  6.6478   6.6744   6.7214   6.7551   6.8479   6.8963   6.9852   7.0332
  7.1026   7.1068   7.1521   7.2149   7.2478   7.2797   7.2919   7.3220
  7.3565   7.3857   7.4026   7.4144   7.4334   7.4454   7.4517   7.4849
  7.5041   7.5408   7.6432   7.6540   7.6949   7.7962   7.8167   7.8613
  7.9050   7.9663   8.0225   8.0913   8.2669  24.3850  24.6757  24.7290
 24.7661  24.8371  24.8789  25.2260  50.4267  50.5488  50.6020  50.6213
 50.6861  50.6935
 
 Beta MOs
 -- Occupied --
-19.4567 -19.4112 -19.4094 -19.4009 -19.3529 -19.3469 -10.4200 -10.4192
-10.4168 -10.4107 -10.3986 -10.3613 -10.3590  -1.3154  -1.2754  -1.1776
 -1.1626  -1.0793  -1.0086  -0.9478  -0.8883  -0.8497  -0.8087  -0.7530
 -0.7226  -0.6917  -0.6683  -0.6447  -0.6306  -0.6101  -0.6066  -0.5869
 -0.5768  -0.5591  -0.5507  -0.5411  -0.5332  -0.5179  -0.5116  -0.4981
 -0.4785  -0.4606  -0.4547  -0.4317  -0.4017  -0.3957  -0.3904  -0.3772
 -0.3628
 -- Virtual --
 -0.0353   0.0252   0.0354   0.0361   0.0403   0.0508   0.0551   0.0575
  0.0672   0.0739   0.0840   0.0854   0.0901   0.1061   0.1215   0.1234
  0.1283   0.1304   0.1344   0.1435   0.1472   0.1518   0.1550   0.1613
  0.1654   0.1700   0.1710   0.1742   0.1850   0.1880   0.1959   0.1986
  0.2015   0.2088   0.2115   0.2153   0.2214   0.2240   0.2335   0.2446
  0.2514   0.2615   0.2664   0.2734   0.2785   0.2852   0.2883   0.2931
  0.3059   0.3086   0.3123   0.3157   0.3200   0.3267   0.3362   0.3390
  0.3450   0.3458   0.3545   0.3603   0.3637   0.3690   0.3743   0.3756
  0.3828   0.3883   0.3932   0.3949   0.3992   0.4062   0.4169   0.4233
  0.4279   0.4341   0.4385   0.4484   0.4526   0.4620   0.4736   0.4778
  0.4894   0.4983   0.5113   0.5214   0.5303   0.5461   0.5534   0.5690
  0.5938   0.6041   0.6095   0.6199   0.6247   0.6435   0.6500   0.6591
  0.6634   0.6727   0.6798   0.6856   0.6927   0.6999   0.7128   0.7166
  0.7269   0.7297   0.7394   0.7492   0.7613   0.7722   0.7741   0.7819
  0.7999   0.8124   0.8144   0.8445   0.8625   0.8631   0.8841   0.8924
  0.9012   0.9116   0.9449   0.9589   0.9649   0.9886   1.0048   1.0227
  1.0367   1.0541   1.0655   1.0702   1.0838   1.0990   1.1125   1.1244
  1.1253   1.1394   1.1475   1.1594   1.1655   1.1769   1.1900   1.1958
  1.2034   1.2135   1.2184   1.2261   1.2357   1.2418   1.2461   1.2588
  1.2656   1.2697   1.2733   1.2911   1.2968   1.3070   1.3102   1.3224
  1.3291   1.3399   1.3567   1.3605   1.3641   1.3675   1.3828   1.3929
  1.4034   1.4180   1.4275   1.4397   1.4476   1.4594   1.4710   1.4829
  1.4862   1.4969   1.5032   1.5111   1.5255   1.5433   1.5543   1.5663
  1.5734   1.5852   1.5885   1.6048   1.6231   1.6329   1.6454   1.6572
  1.6587   1.6858   1.6924   1.7036   1.7160   1.7404   1.7498   1.7665
  1.7771   1.7970   1.8065   1.8112   1.8551   1.8708   1.8911   1.8918
  1.9311   1.9498   1.9723   1.9898   2.0183   2.0327   2.0466   2.0540
  2.0869   2.0976   2.1359   2.1736   2.1802   2.1898   2.2236   2.2562
  2.2722   2.2895   2.3234   2.3271   2.3554   2.3793   2.3949   2.4127
  2.4340   2.4761   2.4837   2.5120   2.5438   2.6621   2.6845   2.6969
  2.7135   2.7366   2.7489   2.7762   2.8019   2.8055   2.8292   2.8462
  2.8537   2.8798   2.8857   2.8951   2.9116   2.9368   2.9458   2.9542
  2.9826   2.9901   3.0075   3.0330   3.0366   3.0620   3.0720   3.1038
  3.1110   3.1409   3.1516   3.1619   3.1987   3.2096   3.2252   3.2443
  3.2702   3.2733   3.3109   3.3280   3.3397   3.3530   3.3742   3.3892
  3.4102   3.4257   3.4578   3.4647   3.4675   3.4862   3.4952   3.5295
  3.5316   3.5755   3.5763   3.5867   3.5969   3.6153   3.6465   3.6479
  3.6597   3.6701   3.6789   3.6958   3.7185   3.7202   3.7455   3.7555
  3.7664   3.7876   3.7953   3.8099   3.8277   3.8489   3.8573   3.8686
  3.8776   3.8886   3.8987   3.9130   3.9240   3.9436   3.9545   3.9605
  3.9734   3.9966   4.0045   4.0120   4.0458   4.0504   4.0978   4.1050
  4.1160   4.1384   4.1693   4.1833   4.2078   4.2150   4.2475   4.2670
  4.2869   4.2952   4.3077   4.3323   4.3441   4.3707   4.3888   4.4030
  4.4056   4.4116   4.4292   4.4433   4.4782   4.4890   4.5042   4.5151
  4.5262   4.5653   4.5741   4.5952   4.6176   4.6293   4.6488   4.6603
  4.6843   4.6950   4.7163   4.7348   4.7502   4.7688   4.7847   4.8127
  4.8279   4.8748   4.9134   4.9458   4.9843   4.9962   5.0561   5.0678
  5.1072   5.1293   5.1454   5.1548   5.1947   5.2155   5.2357   5.2693
  5.2809   5.2913   5.2964   5.2982   5.3158   5.3177   5.3342   5.3464
  5.3663   5.3954   5.4007   5.4144   5.4368   5.4456   5.4576   5.4887
  5.4969   5.5056   5.5244   5.5307   5.5694   5.5878   5.6049   5.6116
  5.6331   5.6477   5.6592   5.6911   5.7250   5.7434   5.7633   5.7714
  5.7798   5.8046   5.8207   5.8312   5.8945   5.9283   5.9674   5.9924
  6.0126   6.0308   6.0632   6.1111   6.2461   6.4721   6.4875   6.5847
  6.6144   6.6497   6.6749   6.7217   6.7561   6.9307   6.9752   7.0313
  7.0494   7.1045   7.1432   7.1541   7.2434   7.2488   7.2921   7.3206
  7.3271   7.3569   7.3865   7.4034   7.4349   7.4397   7.4525   7.4736
  7.5015   7.5061   7.5418   7.6434   7.6547   7.6953   7.7963   7.8307
  7.8617   7.9053   7.9666   8.0355   8.1107   8.2670  24.3850  24.6757
 24.7288  24.7661  24.8371  24.8790  25.2260  50.4395  50.5578  50.6025
 50.6213  50.6862  50.6936
 --------------------------------------------------------------
 
          Ground-State Mulliken Net Atomic Charges

     Atom                 Charge (a.u.)    Spin (a.u.)
  --------------------------------------------------------
      1 C                    -0.183423       0.001614
      2 C                    -0.162670       0.017476
      3 C                    -0.474030      -0.017625
      4 C                    -0.141712       0.017083
      5 C                    -0.423264      -0.007688
      6 C                     0.215820      -0.001697
      7 C                    -0.399642      -0.000302
      8 H                     0.325037       0.000506
      9 H                     0.291125      -0.001044
     10 H                     0.312791       0.004963
     11 H                     0.313228      -0.000901
     12 H                     0.317377       0.000038
     13 H                     0.250692      -0.000004
     14 O                    -0.367679       0.000090
     15 H                     0.243349      -0.000013
     16 H                     0.327491       0.000039
     17 O                    -0.408088       0.003062
     18 H                     0.337284       0.000311
     19 O                    -0.111576       0.002179
     20 O                    -0.135039      -0.000537
     21 O                     0.093144       0.312706
     22 O                    -0.220214       0.669744
  --------------------------------------------------------
  Sum of atomic charges =     0.000000
  Sum of spin   charges =     1.000000

 -----------------------------------------------------------------
                    Cartesian Multipole Moments
 -----------------------------------------------------------------
    Charge (ESU x 10^10)
                 0.0000
    Dipole Moment (Debye)
         X      -1.8201      Y       2.7095      Z      -4.8987
       Tot       5.8866
    Quadrupole Moments (Debye-Ang)
        XX     -78.3070     XY       8.4450     YY     -89.1537
        XZ       9.1248     YZ       4.5447     ZZ     -72.0634
    Octopole Moments (Debye-Ang^2)
       XXX     208.7318    XXY      37.8629    XYY      43.0919
       YYY     236.0309    XXZ     -51.3605    XYZ      13.5770
       YYZ     -62.1055    XZZ      66.7615    YZZ      63.1956
       ZZZ    -128.0745
    Hexadecapole Moments (Debye-Ang^3)
      XXXX    -889.4844   XXXY    -109.2962   XXYY    -351.5402
      XYYY    -103.0516   YYYY   -1780.5104   XXXZ     164.9876
      XXYZ      88.4463   XYYZ      47.2657   YYYZ     444.2394
      XXZZ    -289.1288   XYZZ     -47.5297   YYZZ    -468.1282
      XZZZ     173.8637   YZZZ     328.1630   ZZZZ    -811.3643
 -----------------------------------------------------------------
 Calculating analytic gradient of the SCF energy
 Gradient of CDS energy
            1           2           3           4           5           6
    1   0.0015799  -0.0000514   0.0000899  -0.0001491  -0.0002188   0.0000500
    2  -0.0012866   0.0000898  -0.0001572  -0.0002413   0.0001136   0.0000657
    3  -0.0010679   0.0001754   0.0001105  -0.0001533  -0.0001507   0.0001583
            7           8           9          10          11          12
    1   0.0000990  -0.0000366   0.0000602  -0.0001154  -0.0000871  -0.0000513
    2   0.0009907   0.0002092  -0.0000993  -0.0000622  -0.0001783   0.0000821
    3  -0.0003592   0.0001029   0.0001648   0.0001773  -0.0000856  -0.0001240
           13          14          15          16          17          18
    1  -0.0002426  -0.0001680   0.0001392   0.0001598  -0.0015814   0.0004156
    2  -0.0002500  -0.0002121  -0.0001167   0.0000318   0.0011469  -0.0000884
    3  -0.0000665   0.0002795   0.0002841  -0.0004980   0.0011809  -0.0001820
           19          20          21          22
    1  -0.0000204   0.0000493   0.0000651   0.0000142
    2   0.0000557  -0.0000910   0.0000285  -0.0000312
    3  -0.0000815   0.0000847   0.0000719  -0.0000218
 Gradient of SCF Energy
            1           2           3           4           5           6
    1   0.0036222  -0.0075038   0.0137517   0.0038231   0.0048561  -0.0035296
    2  -0.0078702   0.0054943  -0.0046126  -0.0020032   0.0105543   0.0004408
    3  -0.0088861  -0.0023900  -0.0034118   0.0130972   0.0040922   0.0026235
            7           8           9          10          11          12
    1   0.0121197   0.0051048   0.0033318  -0.0072786  -0.0067714  -0.0068741
    2  -0.0215631   0.0090179  -0.0012490  -0.0033210  -0.0094264   0.0042657
    3   0.0007225   0.0048804   0.0070848   0.0044868  -0.0063782  -0.0188855
           13          14          15          16          17          18
    1  -0.0126337   0.0148315   0.0037188  -0.0141509  -0.0005022   0.0000210
    2   0.0055766   0.0211495   0.0093430  -0.0160003  -0.0159817   0.0112503
    3  -0.0099716   0.0211608   0.0073517  -0.0187211   0.0120097  -0.0126587
           19          20          21          22
    1  -0.0037861  -0.0038654   0.0010378   0.0006772
    2   0.0006426   0.0045492   0.0021646  -0.0024212
    3   0.0054383  -0.0000143  -0.0085013   0.0068709
 Max gradient component =       2.156E-02
 RMS gradient           =       9.197E-03
 Computing fast CPCM-SWIG gradient
 Updating gradient with PCM contributions...
 -- total gradient after adding PCM contribution --
---------------------------------------------------
  Atom         X              Y              Z     
---------------------------------------------------
   1       0.002594      -0.001396      -0.003784
   2       0.000102       0.000208      -0.001539
   3       0.000860      -0.000187       0.000982
   4      -0.000208      -0.003833       0.002218
   5       0.001961       0.004787      -0.001846
   6       0.000012       0.000024       0.000677
   7       0.001161      -0.002701      -0.002306
   8       0.001321       0.002943       0.001928
   9       0.001137      -0.001064       0.002857
  10      -0.002096      -0.001163       0.002034
  11      -0.001472      -0.002551      -0.001472
  12      -0.001462       0.000549      -0.002931
  13      -0.002632       0.001608      -0.001510
  14       0.006185       0.003292       0.005966
  15       0.001235       0.002290       0.001692
  16      -0.004412      -0.003774      -0.004541
  17      -0.001486      -0.007000       0.005512
  18      -0.000135       0.005852      -0.005212
  19      -0.001572      -0.001519       0.004152
  20      -0.002529       0.003899      -0.001544
  21       0.000601       0.001813      -0.008411
  22       0.000835      -0.002078       0.007077
---------------------------------------------------
 Number of fixed atoms: 0
 Gradient time:  CPU 907.53 s  wall 129.96 s
 Geometry Optimization Parameters
   NAtoms,    NIC,     NZ,  NCons,   NDum,   NFix, NCnnct, MaxDiis
       22     176       0       0       0       0       0       0


** GEOMETRY OPTIMIZATION IN DELOCALIZED INTERNAL COORDINATES **
   Searching for a Minimum

   Optimization Cycle:   1

                       Coordinates (Angstroms)
     ATOM                X               Y               Z
      1  C        -0.0097110143   -0.2118357545    0.7852818210
      2  C        -0.8644308188   -0.9929424956    1.7711358461
      3  C        -1.5212365788   -2.2167764371    1.1205269419
      4  C        -2.0247332074   -1.9307255407   -0.2629746142
      5  C        -1.8699678483   -0.7246224395   -0.8070380122
      6  C        -1.1612151105    0.3729870842   -0.0436168709
      7  C        -0.7080332558    1.5373949065   -0.9155792001
      8  H         0.5036855200    0.6075227980    1.3053776055
      9  H        -0.3623271623   -1.2605456609    2.7034883160
     10  H        -2.3170715121   -2.5878150397    1.7720176531
     11  H        -2.5489335726   -2.7309552859   -0.7782788950
     12  H        -2.2771511337   -0.4926092659   -1.7893152176
     13  H        -1.5409157994    1.9419139651   -1.5005596742
     14  O         0.3531154943    1.0956133362   -1.7622316374
     15  H        -0.3036719641    2.3255764907   -0.2762929626
     16  H        -0.0421246127    0.5977367470   -2.4974703777
     17  O         0.8857898166   -1.0270560515    0.0691390002
     18  H         1.1287293682   -0.4925991404   -0.7126190582
     19  O        -1.8989398097   -0.0626449977    2.1088720070
     20  O        -2.0121436448    0.8910384696    0.9880069097
     21  O        -0.5475013072   -3.3080692589    1.0131101985
     22  O        -0.3098662470   -3.8409311292    2.1874961213
   Point Group: c1    Number of degrees of freedom:    60


   Energy is   -723.282433236


 Attempting to generate delocalized internal coordinates
 Initial Hessian constructed with Jon Baker's OPTIMIZE code

 60 Hessian modes will be used to form the next step
  Hessian Eigenvalues:
     0.006049    0.006849    0.008157    0.011995    0.013652    0.014622
     0.014733    0.019204    0.020132    0.027309    0.036998    0.044721
     0.047304    0.052823    0.054363    0.057025    0.059952    0.060138
     0.071362    0.072074    0.079897    0.082891    0.092496    0.103858
     0.110025    0.112393    0.136850    0.146503    0.153871    0.159896
     0.159953    0.160000    0.160000    0.186601    0.207998    0.220396
     0.250000    0.251157    0.269662    0.278397    0.300168    0.302035
     0.309048    0.330381    0.339134    0.342150    0.344258    0.345322
     0.345544    0.350045    0.352089    0.361626    0.364916    0.401933
     0.413368    0.444960    0.518429    0.529821    0.553161    0.641415

 Minimum search - taking simple RFO step
 Searching for Lamda that Minimizes Along All modes
 Value Taken    Lamda =  -0.00143019
 Step Taken.  Stepsize is  0.144857

                             Maximum     Tolerance    Cnvgd?
         Gradient           0.008227      0.000300      NO
         Displacement       0.050200      0.001200      NO
         Energy change     *********      0.000001      NO


 New Cartesian Coordinates Obtained by Inverse Iteration

 Displacement from previous Coordinates is:  0.310508
 ----------------------------------------------------------------
             Standard Nuclear Orientation (Angstroms)
    I     Atom           X                Y                Z
 ----------------------------------------------------------------
    1      C      -0.0014297603    -0.2113681350     0.7889752188
    2      C      -0.8569006445    -0.9935177935     1.7689913474
    3      C      -1.5203111514    -2.2126313258     1.1218501855
    4      C      -2.0132047069    -1.9311130362    -0.2618176056
    5      C      -1.8563375863    -0.7330575999    -0.8060879217
    6      C      -1.1496795990     0.3647199209    -0.0485315269
    7      C      -0.7210191252     1.5376308770    -0.9172033131
    8      H       0.4998216801     0.6072034352     1.3099667688
    9      H      -0.3583396747    -1.2570131858     2.6986623939
   10      H      -2.3239215486    -2.5659676637     1.7655634537
   11      H      -2.5390179374    -2.7260286482    -0.7733438931
   12      H      -2.2580136047    -0.5042222487    -1.7858706533
   13      H      -1.5669986200     1.9402320447    -1.4742555416
   14      O       0.3157397813     1.1205177060    -1.8043028190
   15      H      -0.3094555239     2.3174650128    -0.2803443318
   16      H      -0.0802389618     0.6476157333    -2.5461963694
   17      O       0.9159536501    -1.0216407550     0.0940358244
   18      H       1.1945941193    -0.5101681495    -0.6818598148
   19      O      -1.8864582791    -0.0617798902     2.1017992522
   20      O      -1.9996426225     0.8803258938     0.9803804987
   21      O      -0.5673190258    -3.3212238053     1.0319391517
   22      O      -0.3664752589    -3.8763230873     2.1961255956
 ----------------------------------------------------------------
 Nuclear Repulsion Energy =         903.72585582 hartrees
 There are       50 alpha and       49 beta electrons
 Discretize the solute cavity surface with Lebedev spheres
	Using 110 Lebedev grid points for each H atom
	Using 194 Lebedev grid points for other atoms
	Atomic van der Waals radii will be scaled by 1.20
 Remove points where switching function is < 1.0e-08
 Keep 1612 surface tesserae and discard 1900 interior tesserae
 Molecular Surface Area = 180.437 Angst**2
 Applying Cartesian multipole field
    Component          Value
    ---------          -----
     (2,0,0)        1.00000E-11
     (0,2,0)        2.00000E-11
     (0,0,2)       -3.00000E-11
 Nucleus-field energy     =     0.0000000105 hartrees
 Requested basis set is 6-311++G(2df,2p)
 There are 158 shells and 532 basis functions
 A cutoff of  1.0D-12 yielded  11010 shell pairs
 There are    125021 function pairs (    156628 Cartesian)
 Smallest overlap matrix eigenvalue = 1.81E-06
 Guess MOs from SCF MO coefficient file

 -----------------------------------------------------------------------
  General SCF calculation program by
  Eric Jon Sundstrom, Paul Horn, Yuezhi Mao, Dmitri Zuev, Alec White,
  David Stuck, Shaama M.S., Shane Yost, Joonho Lee, David Small,
  Daniel Levine, Susi Lehtola, Hugh Burton, Evgeny Epifanovsky,
  Bang C. Huynh
 -----------------------------------------------------------------------
 Exchange:     0.1500 Hartree-Fock + 1.0000 wB97M-V + LR-HF
 Correlation:  1.0000 wB97M-V
 Using SG-2 standard quadrature grid
 Nonlocal Correlation:  VV10 with C = 0.0100 and b = 6.00 and scale = 1.00000
 Grid used for NLC:  SG-1 standard quadrature
 
 Citation of the SMD model:
 Marenich, A.V.; Cramer, C.J.; Truhlar, D.G.
 J. Phys. Chem. B 2009, 113, 6378-6396.
 iSolventCode=           1
 Solvent: water                                                           
 
 vradii
            1           2           3           4           5           6
    1   1.8500000   1.8500000   1.8500000   1.8500000   1.8500000   1.8500000
            7           8           9          10          11          12
    1   1.8500000   1.2000000   1.2000000   1.2000000   1.2000000   1.2000000
           13          14          15          16          17          18
    1   1.2000000   1.5200000   1.2000000   1.2000000   1.5200000   1.2000000
           19          20          21          22
    1   1.5200000   1.5200000   1.5200000   1.5200000
 -------------------------------------------------------
 OpenMP BLAS3 based DFT computing Module                
 Release: version 1.0, May 2013, Q-Chem Inc. Pittsburgh 
 -------------------------------------------------------
 A unrestricted SCF calculation will be
 performed using Roothaan-Hall, DIIS, GDM
 SCF converges when RMS gradient is below 1.0e-07
 ---------------------------------------
  Cycle       Energy         DIIS error
 ---------------------------------------
    1    -723.2442114133      1.97e-04  Roothaan Step
 ---------------------------------------
  Cycle       Energy         DIIS error
 ---------------------------------------
    1    -723.2803076437      1.78e-04  
    2    -723.2854239393      1.31e-04  Done DIIS. Switching to GDM
 ---------------------------------------
  Cycle       Energy        RMS Gradient
 ---------------------------------------
    1    -723.2854239393      3.68e-03   Normal BFGS step
    2    -723.2855959680      6.64e-03   Normal BFGS step
    3    -723.2872891370      1.15e-03   Normal BFGS step
    4    -723.2873032439      1.74e-03   Normal BFGS step
    5    -723.2873217906      2.41e-04   Normal BFGS step
    6    -723.2873228712      2.13e-04   Normal BFGS step
    7    -723.2873235100      1.04e-04   Normal BFGS step
    8    -723.2873236486      4.61e-05   Normal BFGS step
    9    -723.2873236759      1.82e-05   Normal BFGS step
   10    -723.2873236838      1.28e-05   Normal BFGS step
   11    -723.2873236852      5.15e-06   Normal BFGS step
   12    -723.2873236858      3.86e-06   Normal BFGS step
   13    -723.2873236860      3.17e-06   Normal BFGS step
   14    -723.2873236861      2.60e-06   Normal BFGS step
   15    -723.2873236862      1.88e-06   Normal BFGS step
   16    -723.2873236863      9.73e-07   Normal BFGS step
   17    -723.2873236862      5.26e-07   Normal BFGS step
   18    -723.2873236862      1.65e-07   Normal BFGS step
   19    -723.2873236862      7.56e-08  Convergence criterion met
 ---------------------------------------
 SCF time:   CPU 5160.65s  wall 662.00s 
<S^2> =          0.754011463
(3)  G-ENP(liq) elect-nuc-pol free energy of system     -723.287323686 a.u.
(4)  G-CDS(liq) cavity-dispersion-solvent structure 
     free energy                                                2.6132 kcal/mol
(6)  G-S(liq) free energy of system                     -723.283159363 a.u.
 SCF   energy in the final basis set =     -723.2831593628
 Total energy in the final basis set =     -723.2831593628
 
 --------------------------------------------------------------
 
                    Orbital Energies (a.u.)
 --------------------------------------------------------------
 
 Alpha MOs
 -- Occupied --
-19.4672 -19.4190 -19.4110 -19.4088 -19.3500 -19.3479 -10.4184 -10.4182
-10.4164 -10.4103 -10.3968 -10.3593 -10.3568  -1.3451  -1.2794  -1.1766
 -1.1631  -1.0807  -1.0313  -0.9601  -0.8917  -0.8542  -0.8145  -0.7557
 -0.7259  -0.6962  -0.6739  -0.6478  -0.6476  -0.6275  -0.6118  -0.6013
 -0.5839  -0.5748  -0.5612  -0.5452  -0.5338  -0.5254  -0.5193  -0.5005
 -0.4874  -0.4607  -0.4575  -0.4333  -0.4155  -0.4125  -0.3978  -0.3860
 -0.3742  -0.3640
 -- Virtual --
  0.0250   0.0353   0.0362   0.0408   0.0504   0.0549   0.0572   0.0676
  0.0733   0.0848   0.0861   0.0900   0.1057   0.1216   0.1224   0.1289
  0.1300   0.1339   0.1433   0.1466   0.1518   0.1545   0.1608   0.1643
  0.1700   0.1706   0.1740   0.1845   0.1879   0.1956   0.1979   0.2007
  0.2093   0.2111   0.2137   0.2210   0.2238   0.2329   0.2434   0.2468
  0.2608   0.2651   0.2737   0.2785   0.2862   0.2870   0.2928   0.3046
  0.3085   0.3107   0.3155   0.3184   0.3264   0.3379   0.3382   0.3435
  0.3463   0.3547   0.3602   0.3624   0.3683   0.3735   0.3759   0.3833
  0.3887   0.3938   0.3950   0.3986   0.4060   0.4152   0.4214   0.4270
  0.4328   0.4378   0.4489   0.4530   0.4625   0.4745   0.4771   0.4876
  0.4974   0.5118   0.5211   0.5290   0.5478   0.5553   0.5696   0.5930
  0.6048   0.6100   0.6189   0.6250   0.6421   0.6517   0.6592   0.6656
  0.6740   0.6795   0.6876   0.6937   0.7005   0.7151   0.7185   0.7282
  0.7304   0.7419   0.7509   0.7583   0.7699   0.7767   0.7845   0.8012
  0.8134   0.8181   0.8467   0.8627   0.8639   0.8834   0.8938   0.8990
  0.9126   0.9427   0.9610   0.9640   0.9867   1.0025   1.0259   1.0387
  1.0492   1.0555   1.0718   1.0809   1.0980   1.1119   1.1219   1.1267
  1.1374   1.1455   1.1585   1.1635   1.1735   1.1807   1.1913   1.1959
  1.2033   1.2155   1.2205   1.2282   1.2359   1.2419   1.2554   1.2591
  1.2676   1.2737   1.2879   1.2942   1.3071   1.3098   1.3238   1.3305
  1.3347   1.3562   1.3618   1.3666   1.3695   1.3827   1.3943   1.4028
  1.4152   1.4299   1.4371   1.4477   1.4582   1.4694   1.4859   1.4878
  1.4976   1.5029   1.5114   1.5194   1.5415   1.5551   1.5666   1.5758
  1.5873   1.5914   1.6043   1.6228   1.6337   1.6439   1.6512   1.6555
  1.6759   1.6873   1.6956   1.7095   1.7324   1.7453   1.7610   1.7711
  1.7986   1.8114   1.8131   1.8481   1.8747   1.8914   1.8972   1.9231
  1.9479   1.9748   1.9943   2.0168   2.0282   2.0391   2.0473   2.0873
  2.0941   2.1297   2.1696   2.1799   2.1902   2.2231   2.2530   2.2662
  2.2908   2.3216   2.3265   2.3469   2.3715   2.3942   2.4097   2.4327
  2.4718   2.4829   2.5094   2.5437   2.6587   2.6801   2.6979   2.7078
  2.7363   2.7483   2.7711   2.7995   2.8055   2.8313   2.8448   2.8550
  2.8792   2.8885   2.8974   2.9120   2.9330   2.9469   2.9558   2.9864
  2.9920   3.0092   3.0320   3.0366   3.0604   3.0710   3.1072   3.1145
  3.1437   3.1491   3.1643   3.2010   3.2116   3.2291   3.2481   3.2687
  3.2740   3.3159   3.3273   3.3436   3.3521   3.3756   3.3920   3.4142
  3.4277   3.4602   3.4664   3.4705   3.4937   3.4975   3.5283   3.5365
  3.5759   3.5769   3.5893   3.5956   3.6186   3.6442   3.6496   3.6604
  3.6691   3.6811   3.6980   3.7207   3.7246   3.7516   3.7629   3.7678
  3.7898   3.7978   3.8103   3.8289   3.8490   3.8614   3.8733   3.8849
  3.8919   3.9040   3.9121   3.9279   3.9435   3.9570   3.9625   3.9797
  4.0013   4.0096   4.0142   4.0483   4.0504   4.0973   4.1103   4.1166
  4.1461   4.1715   4.1859   4.2134   4.2193   4.2533   4.2729   4.2935
  4.3063   4.3118   4.3381   4.3504   4.3757   4.3931   4.4048   4.4134
  4.4171   4.4347   4.4511   4.4843   4.4913   4.5072   4.5215   4.5322
  4.5750   4.5780   4.5997   4.6105   4.6348   4.6432   4.6657   4.6889
  4.6986   4.7224   4.7393   4.7539   4.7628   4.7901   4.8217   4.8377
  4.8810   4.9119   4.9354   4.9896   4.9980   5.0504   5.0660   5.0904
  5.0986   5.1076   5.1189   5.1370   5.1888   5.2317   5.2443   5.2612
  5.2753   5.2979   5.2995   5.3138   5.3184   5.3251   5.3411   5.3576
  5.3833   5.3984   5.4159   5.4415   5.4447   5.4543   5.4760   5.5004
  5.5142   5.5320   5.5327   5.5639   5.5937   5.6119   5.6181   5.6419
  5.6575   5.6732   5.6992   5.7280   5.7474   5.7643   5.7731   5.7860
  5.8135   5.8267   5.8358   5.9049   5.9384   5.9778   6.0050   6.0314
  6.0464   6.0826   6.1298   6.2696   6.4634   6.4696   6.5953   6.6150
  6.6617   6.6893   6.7468   6.7592   6.8462   6.8972   6.9878   7.0417
  7.1080   7.1123   7.1452   7.2214   7.2738   7.2887   7.3080   7.3313
  7.3555   7.3771   7.4109   7.4158   7.4344   7.4453   7.4547   7.4780
  7.5091   7.5537   7.6506   7.6618   7.7162   7.7933   7.8198   7.8582
  7.9123   7.9768   8.0297   8.1045   8.2700  24.3953  24.6922  24.7462
 24.7805  24.8503  24.8984  25.2643  50.4327  50.5506  50.6058  50.6218
 50.6842  50.6939
 
 Beta MOs
 -- Occupied --
-19.4567 -19.4110 -19.4088 -19.4004 -19.3500 -19.3478 -10.4188 -10.4182
-10.4160 -10.4103 -10.3968 -10.3593 -10.3569  -1.3189  -1.2792  -1.1765
 -1.1631  -1.0804  -1.0101  -0.9489  -0.8903  -0.8498  -0.8103  -0.7547
 -0.7233  -0.6937  -0.6703  -0.6458  -0.6322  -0.6114  -0.6068  -0.5886
 -0.5782  -0.5611  -0.5518  -0.5407  -0.5331  -0.5181  -0.5124  -0.4985
 -0.4790  -0.4601  -0.4541  -0.4322  -0.4016  -0.3949  -0.3910  -0.3775
 -0.3623
 -- Virtual --
 -0.0341   0.0251   0.0355   0.0364   0.0412   0.0513   0.0553   0.0576
  0.0681   0.0737   0.0849   0.0863   0.0902   0.1065   0.1222   0.1230
  0.1290   0.1307   0.1344   0.1436   0.1475   0.1520   0.1549   0.1616
  0.1650   0.1702   0.1713   0.1741   0.1846   0.1882   0.1963   0.1985
  0.2019   0.2096   0.2116   0.2163   0.2221   0.2248   0.2339   0.2443
  0.2528   0.2627   0.2668   0.2741   0.2797   0.2866   0.2899   0.2942
  0.3061   0.3100   0.3117   0.3164   0.3198   0.3276   0.3381   0.3389
  0.3455   0.3473   0.3551   0.3606   0.3639   0.3695   0.3744   0.3767
  0.3838   0.3892   0.3947   0.3952   0.3988   0.4065   0.4169   0.4229
  0.4273   0.4337   0.4389   0.4495   0.4537   0.4633   0.4748   0.4777
  0.4879   0.4983   0.5122   0.5213   0.5298   0.5481   0.5559   0.5698
  0.5931   0.6056   0.6106   0.6194   0.6256   0.6426   0.6518   0.6594
  0.6657   0.6742   0.6801   0.6881   0.6939   0.7007   0.7153   0.7188
  0.7283   0.7306   0.7421   0.7519   0.7584   0.7701   0.7768   0.7850
  0.8014   0.8140   0.8187   0.8468   0.8637   0.8641   0.8836   0.8941
  0.9010   0.9128   0.9429   0.9612   0.9648   0.9878   1.0044   1.0266
  1.0394   1.0494   1.0562   1.0721   1.0814   1.0985   1.1132   1.1253
  1.1272   1.1394   1.1469   1.1612   1.1652   1.1770   1.1898   1.1976
  1.2014   1.2100   1.2186   1.2267   1.2331   1.2407   1.2482   1.2590
  1.2639   1.2702   1.2751   1.2900   1.2955   1.3092   1.3111   1.3249
  1.3309   1.3363   1.3580   1.3634   1.3680   1.3703   1.3830   1.3957
  1.4034   1.4174   1.4308   1.4382   1.4481   1.4589   1.4708   1.4867
  1.4888   1.4993   1.5045   1.5120   1.5253   1.5422   1.5577   1.5701
  1.5794   1.5877   1.5920   1.6076   1.6263   1.6369   1.6473   1.6571
  1.6609   1.6892   1.6947   1.6984   1.7143   1.7409   1.7504   1.7662
  1.7732   1.7997   1.8129   1.8145   1.8514   1.8773   1.8927   1.8979
  1.9308   1.9491   1.9762   1.9951   2.0186   2.0313   2.0436   2.0480
  2.0907   2.0953   2.1303   2.1753   2.1806   2.1909   2.2254   2.2618
  2.2703   2.2973   2.3257   2.3284   2.3547   2.3782   2.3953   2.4140
  2.4334   2.4735   2.4843   2.5097   2.5442   2.6595   2.6849   2.6987
  2.7101   2.7378   2.7489   2.7720   2.8000   2.8057   2.8316   2.8454
  2.8553   2.8794   2.8886   2.8975   2.9122   2.9334   2.9473   2.9560
  2.9865   2.9931   3.0096   3.0323   3.0369   3.0610   3.0713   3.1075
  3.1151   3.1440   3.1492   3.1648   3.2013   3.2118   3.2293   3.2482
  3.2689   3.2742   3.3162   3.3274   3.3437   3.3527   3.3756   3.3922
  3.4145   3.4280   3.4605   3.4666   3.4706   3.4940   3.4980   3.5286
  3.5370   3.5762   3.5771   3.5901   3.5957   3.6189   3.6444   3.6498
  3.6604   3.6697   3.6817   3.6982   3.7209   3.7246   3.7519   3.7632
  3.7682   3.7900   3.7983   3.8105   3.8289   3.8494   3.8616   3.8735
  3.8850   3.8924   3.9041   3.9123   3.9282   3.9437   3.9572   3.9629
  3.9798   4.0016   4.0100   4.0148   4.0487   4.0505   4.0975   4.1105
  4.1170   4.1462   4.1719   4.1865   4.2142   4.2197   4.2536   4.2735
  4.2937   4.3067   4.3127   4.3388   4.3509   4.3761   4.3937   4.4051
  4.4137   4.4176   4.4352   4.4516   4.4847   4.4929   4.5078   4.5226
  4.5339   4.5755   4.5800   4.6024   4.6260   4.6355   4.6537   4.6671
  4.6925   4.6994   4.7240   4.7425   4.7569   4.7720   4.7931   4.8231
  4.8398   4.8869   4.9229   4.9507   4.9930   5.0009   5.0619   5.0698
  5.1165   5.1319   5.1450   5.1550   5.1934   5.2160   5.2362   5.2717
  5.2859   5.2965   5.2999   5.3013   5.3146   5.3213   5.3368   5.3436
  5.3589   5.3979   5.4024   5.4166   5.4438   5.4477   5.4607   5.4899
  5.5049   5.5168   5.5333   5.5340   5.5758   5.5952   5.6126   5.6210
  5.6433   5.6612   5.6739   5.6994   5.7315   5.7478   5.7717   5.7751
  5.7909   5.8190   5.8314   5.8430   5.9056   5.9430   5.9782   6.0054
  6.0315   6.0465   6.0827   6.1302   6.2698   6.4824   6.5124   6.6045
  6.6176   6.6638   6.6898   6.7473   6.7600   6.9288   6.9758   7.0391
  7.0518   7.1120   7.1431   7.1512   7.2502   7.2834   7.3079   7.3250
  7.3330   7.3558   7.3783   7.4126   7.4296   7.4462   7.4529   7.4703
  7.4993   7.5119   7.5545   7.6511   7.6622   7.7165   7.7933   7.8335
  7.8585   7.9126   7.9771   8.0430   8.1239   8.2700  24.3952  24.6922
 24.7460  24.7805  24.8503  24.8986  25.2643  50.4455  50.5596  50.6062
 50.6218  50.6843  50.6940
 --------------------------------------------------------------
 
          Ground-State Mulliken Net Atomic Charges

     Atom                 Charge (a.u.)    Spin (a.u.)
  --------------------------------------------------------
      1 C                    -0.190218       0.002438
      2 C                    -0.151875       0.017199
      3 C                    -0.506844      -0.017958
      4 C                    -0.106553       0.016755
      5 C                    -0.465189      -0.007379
      6 C                     0.243982      -0.001879
      7 C                    -0.397162      -0.000306
      8 H                     0.327791       0.000480
      9 H                     0.291851      -0.001044
     10 H                     0.312907       0.004852
     11 H                     0.314246      -0.000856
     12 H                     0.316397       0.000017
     13 H                     0.253824       0.000004
     14 O                    -0.376759       0.000065
     15 H                     0.244665      -0.000014
     16 H                     0.327580       0.000044
     17 O                    -0.407613       0.002922
     18 H                     0.337331       0.000350
     19 O                    -0.108744       0.002159
     20 O                    -0.130747      -0.000476
     21 O                     0.088540       0.314920
     22 O                    -0.217412       0.667705
  --------------------------------------------------------
  Sum of atomic charges =     0.000000
  Sum of spin   charges =     1.000000

 -----------------------------------------------------------------
                    Cartesian Multipole Moments
 -----------------------------------------------------------------
    Charge (ESU x 10^10)
                 0.0000
    Dipole Moment (Debye)
         X      -1.7264      Y       2.7251      Z      -4.8255
       Tot       5.8045
    Quadrupole Moments (Debye-Ang)
        XX     -77.8092     XY       8.0761     YY     -89.6972
        XZ       9.1628     YZ       4.9204     ZZ     -72.1688
    Octopole Moments (Debye-Ang^2)
       XXX     208.5878    XXY      38.2706    XYY      44.4491
       YYY     238.7865    XXZ     -51.4073    XYZ      12.9378
       YYZ     -63.1816    XZZ      66.6451    YZZ      64.1983
       ZZZ    -128.4089
    Hexadecapole Moments (Debye-Ang^3)
      XXXX    -881.4175   XXXY    -112.9744   XXYY    -353.2111
      XYYY    -112.2770   YYYY   -1806.5110   XXXZ     162.9884
      XXYZ      90.8426   XYYZ      50.1803   YYYZ     457.3956
      XXZZ    -289.1121   XYZZ     -50.9343   YYZZ    -475.3436
      XZZZ     175.5262   YZZZ     334.9483   ZZZZ    -814.5299
 -----------------------------------------------------------------
 Calculating analytic gradient of the SCF energy
 Gradient of CDS energy
            1           2           3           4           5           6
    1   0.0015275  -0.0000472   0.0000874  -0.0001466  -0.0002162   0.0000519
    2  -0.0012078   0.0000846  -0.0001553  -0.0002410   0.0001059   0.0000674
    3  -0.0009688   0.0001733   0.0001120  -0.0001522  -0.0001559   0.0001554
            7           8           9          10          11          12
    1   0.0001098  -0.0000421   0.0000570  -0.0001151  -0.0000844  -0.0000486
    2   0.0009964   0.0002061  -0.0000956  -0.0000562  -0.0001755   0.0000798
    3  -0.0003337   0.0000994   0.0001638   0.0001720  -0.0000815  -0.0001149
           13          14          15          16          17          18
    1  -0.0002410  -0.0001726   0.0001325   0.0001762  -0.0015404   0.0004074
    2  -0.0002553  -0.0001421  -0.0001215  -0.0000256   0.0010739  -0.0000989
    3  -0.0000601   0.0002808   0.0002771  -0.0004858   0.0010891  -0.0002168
           19          20          21          22
    1  -0.0000200   0.0000485   0.0000609   0.0000151
    2   0.0000544  -0.0000881   0.0000249  -0.0000303
    3  -0.0000816   0.0000791   0.0000709  -0.0000216
 Gradient of SCF Energy
            1           2           3           4           5           6
    1   0.0006594  -0.0072841   0.0122753   0.0039771   0.0022321  -0.0040293
    2  -0.0066021   0.0059280  -0.0040118   0.0025191   0.0055249  -0.0001413
    3  -0.0045764  -0.0014970  -0.0037562   0.0104817   0.0064423   0.0022765
            7           8           9          10          11          12
    1   0.0100667   0.0040978   0.0019474  -0.0050715  -0.0053578  -0.0054901
    2  -0.0172497   0.0061244  -0.0000921  -0.0023319  -0.0066126   0.0034668
    3   0.0034787   0.0031370   0.0046344   0.0020565  -0.0048581  -0.0156903
           13          14          15          16          17          18
    1  -0.0092882   0.0092319   0.0021748  -0.0099383   0.0011140   0.0014011
    2   0.0038784   0.0169285   0.0068747  -0.0119356  -0.0107396   0.0068213
    3  -0.0084692   0.0143562   0.0057819  -0.0152025   0.0083187  -0.0090125
           19          20          21          22
    1  -0.0020531  -0.0011619   0.0002314   0.0002653
    2   0.0009130   0.0011957   0.0010476  -0.0015058
    3   0.0025970  -0.0002864  -0.0024317   0.0022193
 Max gradient component =       1.725E-02
 RMS gradient           =       6.898E-03
 Computing fast CPCM-SWIG gradient
 Updating gradient with PCM contributions...
 -- total gradient after adding PCM contribution --
---------------------------------------------------
  Atom         X              Y              Z     
---------------------------------------------------
   1       0.000159      -0.000206       0.000435
   2       0.000237       0.000331      -0.000184
   3      -0.000383       0.000515       0.000287
   4      -0.000173       0.000469      -0.000265
   5      -0.000227      -0.000265       0.000122
   6      -0.001132       0.000136       0.000786
   7      -0.000440       0.000384       0.000901
   8       0.000144      -0.000042       0.000162
   9      -0.000395       0.000199       0.000197
  10       0.000141      -0.000302      -0.000297
  11      -0.000034       0.000175       0.000028
  12      -0.000100      -0.000144       0.000105
  13       0.000510       0.000095      -0.000424
  14       0.000784       0.000516      -0.000698
  15      -0.000316       0.000072       0.000156
  16      -0.000228      -0.000610      -0.000804
  17       0.000676      -0.001480       0.001507
  18       0.000371       0.001231      -0.001685
  19       0.000164      -0.001219       0.001264
  20       0.000134       0.000495      -0.001657
  21      -0.000328       0.000628      -0.002061
  22       0.000435      -0.000980       0.002125
---------------------------------------------------
 Number of fixed atoms: 0
 Gradient time:  CPU 923.37 s  wall 132.49 s
 Geometry Optimization Parameters
   NAtoms,    NIC,     NZ,  NCons,   NDum,   NFix, NCnnct, MaxDiis
       22     176       0       0       0       0       0       0

 Cartesian Hessian Update
 Hessian updated using BFGS update


** GEOMETRY OPTIMIZATION IN DELOCALIZED INTERNAL COORDINATES **
   Searching for a Minimum

   Optimization Cycle:   2

                       Coordinates (Angstroms)
     ATOM                X               Y               Z
      1  C        -0.0014297603   -0.2113681350    0.7889752188
      2  C        -0.8569006445   -0.9935177935    1.7689913474
      3  C        -1.5203111514   -2.2126313258    1.1218501855
      4  C        -2.0132047069   -1.9311130362   -0.2618176056
      5  C        -1.8563375863   -0.7330575999   -0.8060879217
      6  C        -1.1496795990    0.3647199209   -0.0485315269
      7  C        -0.7210191252    1.5376308770   -0.9172033131
      8  H         0.4998216801    0.6072034352    1.3099667688
      9  H        -0.3583396747   -1.2570131858    2.6986623939
     10  H        -2.3239215486   -2.5659676637    1.7655634537
     11  H        -2.5390179374   -2.7260286482   -0.7733438931
     12  H        -2.2580136047   -0.5042222487   -1.7858706533
     13  H        -1.5669986200    1.9402320447   -1.4742555416
     14  O         0.3157397813    1.1205177060   -1.8043028190
     15  H        -0.3094555239    2.3174650128   -0.2803443318
     16  H        -0.0802389618    0.6476157333   -2.5461963694
     17  O         0.9159536501   -1.0216407550    0.0940358244
     18  H         1.1945941193   -0.5101681495   -0.6818598148
     19  O        -1.8864582791   -0.0617798902    2.1017992522
     20  O        -1.9996426225    0.8803258938    0.9803804987
     21  O        -0.5673190258   -3.3212238053    1.0319391517
     22  O        -0.3664752589   -3.8763230873    2.1961255956
   Point Group: c1    Number of degrees of freedom:    60


   Energy is   -723.283159363

 Hessian updated using BFGS update

 60 Hessian modes will be used to form the next step
  Hessian Eigenvalues:
     0.006106    0.006830    0.008075    0.011959    0.013643    0.014613
     0.014680    0.019639    0.020145    0.027268    0.037102    0.045140
     0.047663    0.053149    0.054611    0.057267    0.059904    0.060408
     0.071356    0.072206    0.079874    0.083043    0.093078    0.104151
     0.110051    0.112416    0.136796    0.145806    0.152865    0.157345
     0.159906    0.159958    0.161986    0.186431    0.207990    0.224234
     0.248778    0.254189    0.270055    0.278103    0.295111    0.302134
     0.309896    0.317304    0.339239    0.342662    0.344691    0.345386
     0.346824    0.350642    0.353492    0.361395    0.365458    0.404780
     0.416032    0.446563    0.492979    0.527846    0.561850    0.628056

 Minimum search - taking simple RFO step
 Searching for Lamda that Minimizes Along All modes
 Value Taken    Lamda =  -0.00009778
 Step Taken.  Stepsize is  0.047124

                             Maximum     Tolerance    Cnvgd?
         Gradient           0.002058      0.000300      NO
         Displacement       0.020040      0.001200      NO
         Energy change     -0.000726      0.000001      NO


 New Cartesian Coordinates Obtained by Inverse Iteration

 Displacement from previous Coordinates is:  0.064716
 ----------------------------------------------------------------
             Standard Nuclear Orientation (Angstroms)
    I     Atom           X                Y                Z
 ----------------------------------------------------------------
    1      C      -0.0032969542    -0.2105038280     0.7852872502
    2      C      -0.8557736948    -0.9914435109     1.7677859022
    3      C      -1.5188735634    -2.2110064739     1.1223492802
    4      C      -2.0069826915    -1.9327068133    -0.2633030459
    5      C      -1.8529363463    -0.7340970885    -0.8075272165
    6      C      -1.1507888288     0.3653830954    -0.0488952151
    7      C      -0.7239910793     1.5387472524    -0.9145972388
    8      H       0.5013364658     0.6075435395     1.3026420094
    9      H      -0.3518765747    -1.2555577102     2.6941249484
   10      H      -2.3246897902    -2.5593368476     1.7659836138
   11      H      -2.5277032829    -2.7301742966    -0.7757918640
   12      H      -2.2500541253    -0.5063806067    -1.7892145548
   13      H      -1.5723640139     1.9406365098    -1.4682795889
   14      O       0.3138911094     1.1210493203    -1.7971180279
   15      H      -0.3106560794     2.3170765188    -0.2776470265
   16      H      -0.0806978828     0.6530774209    -2.5408934764
   17      O       0.9064449243    -1.0255947745     0.0881544318
   18      H       1.1901747979    -0.5194614617    -0.6859933495
   19      O      -1.8840951266    -0.0587319558     2.1018766592
   20      O      -2.0001636375     0.8803451856     0.9817864295
   21      O      -0.5670565469    -3.3202115677     1.0379975578
   22      O      -0.3785014793    -3.8789966077     2.1997484220
 ----------------------------------------------------------------
 Nuclear Repulsion Energy =         904.42415921 hartrees
 There are       50 alpha and       49 beta electrons
 Discretize the solute cavity surface with Lebedev spheres
	Using 110 Lebedev grid points for each H atom
	Using 194 Lebedev grid points for other atoms
	Atomic van der Waals radii will be scaled by 1.20
 Remove points where switching function is < 1.0e-08
 Keep 1609 surface tesserae and discard 1903 interior tesserae
 Molecular Surface Area = 180.190 Angst**2
 Applying Cartesian multipole field
    Component          Value
    ---------          -----
     (2,0,0)        1.00000E-11
     (0,2,0)        2.00000E-11
     (0,0,2)       -3.00000E-11
 Nucleus-field energy     =     0.0000000106 hartrees
 Requested basis set is 6-311++G(2df,2p)
 There are 158 shells and 532 basis functions
 A cutoff of  1.0D-12 yielded  11013 shell pairs
 There are    125070 function pairs (    156692 Cartesian)
 Smallest overlap matrix eigenvalue = 1.80E-06
 Guess MOs from SCF MO coefficient file

 -----------------------------------------------------------------------
  General SCF calculation program by
  Eric Jon Sundstrom, Paul Horn, Yuezhi Mao, Dmitri Zuev, Alec White,
  David Stuck, Shaama M.S., Shane Yost, Joonho Lee, David Small,
  Daniel Levine, Susi Lehtola, Hugh Burton, Evgeny Epifanovsky,
  Bang C. Huynh
 -----------------------------------------------------------------------
 Exchange:     0.1500 Hartree-Fock + 1.0000 wB97M-V + LR-HF
 Correlation:  1.0000 wB97M-V
 Using SG-2 standard quadrature grid
 Nonlocal Correlation:  VV10 with C = 0.0100 and b = 6.00 and scale = 1.00000
 Grid used for NLC:  SG-1 standard quadrature
 
 Citation of the SMD model:
 Marenich, A.V.; Cramer, C.J.; Truhlar, D.G.
 J. Phys. Chem. B 2009, 113, 6378-6396.
 iSolventCode=           1
 Solvent: water                                                           
 
 vradii
            1           2           3           4           5           6
    1   1.8500000   1.8500000   1.8500000   1.8500000   1.8500000   1.8500000
            7           8           9          10          11          12
    1   1.8500000   1.2000000   1.2000000   1.2000000   1.2000000   1.2000000
           13          14          15          16          17          18
    1   1.2000000   1.5200000   1.2000000   1.2000000   1.5200000   1.2000000
           19          20          21          22
    1   1.5200000   1.5200000   1.5200000   1.5200000
 -------------------------------------------------------
 OpenMP BLAS3 based DFT computing Module                
 Release: version 1.0, May 2013, Q-Chem Inc. Pittsburgh 
 -------------------------------------------------------
 A unrestricted SCF calculation will be
 performed using Roothaan-Hall, DIIS, GDM
 SCF converges when RMS gradient is below 1.0e-07
 ---------------------------------------
  Cycle       Energy         DIIS error
 ---------------------------------------
    1    -723.2465727286      1.66e-04  Roothaan Step
 ---------------------------------------
  Cycle       Energy         DIIS error
 ---------------------------------------
    1    -723.2806605213      1.75e-04  
    2    -723.2855666334      1.29e-04  Done DIIS. Switching to GDM
 ---------------------------------------
  Cycle       Energy        RMS Gradient
 ---------------------------------------
    1    -723.2855666334      3.65e-03   Normal BFGS step
    2    -723.2857094583      6.94e-03   Normal BFGS step
    3    -723.2873423982      6.34e-04   Normal BFGS step
    4    -723.2873529011      1.72e-03   Normal BFGS step
    5    -723.2873720168      2.39e-04   Normal BFGS step
    6    -723.2873728846      2.07e-04   Normal BFGS step
    7    -723.2873734384      1.47e-04   Normal BFGS step
    8    -723.2873736081      9.78e-05   Normal BFGS step
    9    -723.2873736869      7.12e-05   Normal BFGS step
   10    -723.2873737208      5.32e-05   Normal BFGS step
   11    -723.2873737451      3.63e-05   Normal BFGS step
   12    -723.2873737659      1.26e-05   Normal BFGS step
   13    -723.2873737735      8.22e-06   Normal BFGS step
   14    -723.2873737755      4.13e-06   Normal BFGS step
   15    -723.2873737758      1.88e-06   Normal BFGS step
   16    -723.2873737759      8.32e-07   Normal BFGS step
   17    -723.2873737758      2.32e-07   Normal BFGS step
   18    -723.2873737758      7.91e-08  Convergence criterion met
 ---------------------------------------
 SCF time:   CPU 5110.15s  wall 655.00s 
<S^2> =          0.753998720
(3)  G-ENP(liq) elect-nuc-pol free energy of system     -723.287373776 a.u.
(4)  G-CDS(liq) cavity-dispersion-solvent structure 
     free energy                                                2.6160 kcal/mol
(6)  G-S(liq) free energy of system                     -723.283204965 a.u.
 SCF   energy in the final basis set =     -723.2832049650
 Total energy in the final basis set =     -723.2832049650
 
 --------------------------------------------------------------
 
                    Orbital Energies (a.u.)
 --------------------------------------------------------------
 
 Alpha MOs
 -- Occupied --
-19.4673 -19.4186 -19.4108 -19.4086 -19.3498 -19.3474 -10.4182 -10.4175
-10.4161 -10.4097 -10.3963 -10.3593 -10.3567  -1.3467  -1.2801  -1.1774
 -1.1638  -1.0801  -1.0314  -0.9604  -0.8919  -0.8543  -0.8147  -0.7559
 -0.7261  -0.6968  -0.6742  -0.6484  -0.6481  -0.6279  -0.6123  -0.6018
 -0.5842  -0.5749  -0.5613  -0.5453  -0.5339  -0.5255  -0.5194  -0.5005
 -0.4873  -0.4610  -0.4572  -0.4334  -0.4152  -0.4120  -0.3976  -0.3860
 -0.3739  -0.3636
 -- Virtual --
  0.0251   0.0353   0.0362   0.0410   0.0505   0.0549   0.0573   0.0678
  0.0733   0.0851   0.0866   0.0901   0.1058   0.1216   0.1223   0.1292
  0.1301   0.1342   0.1432   0.1467   0.1519   0.1545   0.1608   0.1644
  0.1701   0.1707   0.1741   0.1846   0.1880   0.1956   0.1980   0.2009
  0.2094   0.2112   0.2141   0.2211   0.2240   0.2330   0.2433   0.2472
  0.2611   0.2654   0.2739   0.2786   0.2862   0.2877   0.2929   0.3050
  0.3089   0.3113   0.3157   0.3190   0.3267   0.3381   0.3388   0.3437
  0.3466   0.3551   0.3605   0.3625   0.3685   0.3735   0.3763   0.3833
  0.3889   0.3942   0.3955   0.3988   0.4061   0.4157   0.4223   0.4283
  0.4329   0.4379   0.4491   0.4530   0.4626   0.4745   0.4776   0.4882
  0.4979   0.5121   0.5215   0.5287   0.5483   0.5560   0.5700   0.5932
  0.6048   0.6103   0.6192   0.6255   0.6423   0.6520   0.6596   0.6661
  0.6735   0.6799   0.6880   0.6939   0.7005   0.7151   0.7188   0.7285
  0.7303   0.7423   0.7514   0.7588   0.7704   0.7768   0.7843   0.8011
  0.8135   0.8184   0.8469   0.8633   0.8644   0.8835   0.8940   0.8991
  0.9126   0.9426   0.9621   0.9643   0.9870   1.0030   1.0269   1.0392
  1.0491   1.0557   1.0724   1.0816   1.0984   1.1121   1.1223   1.1279
  1.1381   1.1459   1.1589   1.1639   1.1735   1.1807   1.1912   1.1965
  1.2039   1.2153   1.2210   1.2279   1.2362   1.2425   1.2560   1.2589
  1.2674   1.2744   1.2887   1.2956   1.3071   1.3093   1.3249   1.3303
  1.3359   1.3568   1.3614   1.3672   1.3707   1.3829   1.3947   1.4034
  1.4160   1.4311   1.4383   1.4483   1.4595   1.4697   1.4863   1.4887
  1.4986   1.5042   1.5115   1.5203   1.5419   1.5557   1.5676   1.5772
  1.5881   1.5927   1.6042   1.6231   1.6344   1.6445   1.6514   1.6557
  1.6762   1.6882   1.6965   1.7109   1.7328   1.7457   1.7613   1.7720
  1.7991   1.8108   1.8141   1.8480   1.8749   1.8917   1.8984   1.9236
  1.9481   1.9760   1.9954   2.0182   2.0289   2.0401   2.0485   2.0885
  2.0966   2.1326   2.1703   2.1799   2.1908   2.2257   2.2550   2.2679
  2.2916   2.3227   2.3263   2.3496   2.3728   2.3960   2.4121   2.4326
  2.4724   2.4831   2.5095   2.5443   2.6598   2.6796   2.6982   2.7073
  2.7372   2.7486   2.7716   2.8008   2.8063   2.8323   2.8457   2.8564
  2.8806   2.8900   2.8980   2.9137   2.9338   2.9488   2.9565   2.9864
  2.9915   3.0095   3.0339   3.0377   3.0608   3.0710   3.1096   3.1166
  3.1445   3.1507   3.1663   3.2020   3.2123   3.2298   3.2483   3.2694
  3.2755   3.3158   3.3278   3.3437   3.3536   3.3758   3.3934   3.4146
  3.4281   3.4612   3.4663   3.4720   3.4950   3.4978   3.5287   3.5374
  3.5767   3.5773   3.5901   3.5960   3.6200   3.6452   3.6508   3.6606
  3.6692   3.6818   3.6984   3.7216   3.7255   3.7519   3.7640   3.7683
  3.7907   3.7986   3.8117   3.8288   3.8498   3.8632   3.8751   3.8866
  3.8928   3.9055   3.9141   3.9290   3.9454   3.9592   3.9631   3.9811
  4.0030   4.0110   4.0155   4.0495   4.0527   4.0980   4.1120   4.1198
  4.1487   4.1730   4.1874   4.2151   4.2210   4.2546   4.2759   4.2959
  4.3082   4.3127   4.3407   4.3536   4.3768   4.3947   4.4071   4.4162
  4.4185   4.4351   4.4536   4.4859   4.4928   4.5087   4.5240   4.5342
  4.5752   4.5789   4.6020   4.6126   4.6361   4.6451   4.6674   4.6903
  4.6999   4.7239   4.7412   4.7543   4.7641   4.7919   4.8219   4.8385
  4.8810   4.9144   4.9357   4.9906   4.9979   5.0513   5.0666   5.0905
  5.0985   5.1079   5.1198   5.1371   5.1892   5.2321   5.2451   5.2630
  5.2763   5.2999   5.3004   5.3152   5.3191   5.3265   5.3423   5.3580
  5.3832   5.3998   5.4160   5.4425   5.4461   5.4548   5.4762   5.5020
  5.5159   5.5342   5.5355   5.5659   5.5968   5.6151   5.6204   5.6440
  5.6605   5.6790   5.7031   5.7309   5.7497   5.7675   5.7757   5.7887
  5.8157   5.8291   5.8384   5.9079   5.9414   5.9813   6.0075   6.0344
  6.0500   6.0879   6.1331   6.2761   6.4678   6.4769   6.6035   6.6205
  6.6621   6.6892   6.7546   6.7665   6.8461   6.8981   6.9896   7.0431
  7.1099   7.1134   7.1474   7.2248   7.2760   7.2960   7.3119   7.3363
  7.3554   7.3808   7.4127   7.4178   7.4358   7.4481   7.4566   7.4810
  7.5102   7.5572   7.6524   7.6629   7.7214   7.7952   7.8203   7.8594
  7.9159   7.9796   8.0331   8.1107   8.2695  24.3967  24.6941  24.7483
 24.7872  24.8580  24.9009  25.2644  50.4355  50.5522  50.6074  50.6238
 50.6869  50.6940
 
 Beta MOs
 -- Occupied --
-19.4568 -19.4107 -19.4086 -19.4000 -19.3498 -19.3473 -10.4186 -10.4175
-10.4158 -10.4097 -10.3963 -10.3592 -10.3567  -1.3205  -1.2800  -1.1773
 -1.1638  -1.0797  -1.0103  -0.9491  -0.8904  -0.8499  -0.8104  -0.7549
 -0.7235  -0.6942  -0.6705  -0.6464  -0.6326  -0.6118  -0.6071  -0.5888
 -0.5784  -0.5612  -0.5521  -0.5408  -0.5331  -0.5181  -0.5125  -0.4987
 -0.4790  -0.4604  -0.4538  -0.4324  -0.4015  -0.3946  -0.3908  -0.3772
 -0.3620
 -- Virtual --
 -0.0336   0.0251   0.0355   0.0364   0.0413   0.0514   0.0553   0.0577
  0.0683   0.0737   0.0852   0.0868   0.0902   0.1067   0.1221   0.1230
  0.1293   0.1307   0.1346   0.1435   0.1476   0.1521   0.1548   0.1616
  0.1651   0.1703   0.1715   0.1741   0.1847   0.1883   0.1963   0.1985
  0.2020   0.2096   0.2117   0.2166   0.2222   0.2250   0.2338   0.2441
  0.2532   0.2629   0.2671   0.2743   0.2797   0.2865   0.2907   0.2945
  0.3065   0.3105   0.3123   0.3166   0.3203   0.3281   0.3383   0.3395
  0.3458   0.3476   0.3555   0.3609   0.3639   0.3697   0.3745   0.3772
  0.3838   0.3894   0.3951   0.3957   0.3990   0.4065   0.4174   0.4238
  0.4286   0.4338   0.4389   0.4497   0.4537   0.4634   0.4749   0.4781
  0.4885   0.4988   0.5125   0.5217   0.5295   0.5486   0.5567   0.5702
  0.5933   0.6057   0.6107   0.6197   0.6261   0.6427   0.6521   0.6597
  0.6662   0.6737   0.6805   0.6885   0.6942   0.7007   0.7153   0.7191
  0.7286   0.7306   0.7426   0.7523   0.7590   0.7706   0.7769   0.7848
  0.8013   0.8141   0.8190   0.8471   0.8641   0.8647   0.8836   0.8943
  0.9010   0.9128   0.9428   0.9624   0.9651   0.9881   1.0050   1.0275
  1.0399   1.0493   1.0564   1.0728   1.0822   1.0990   1.1135   1.1258
  1.1284   1.1400   1.1473   1.1616   1.1657   1.1772   1.1901   1.1979
  1.2017   1.2104   1.2184   1.2270   1.2328   1.2412   1.2485   1.2594
  1.2636   1.2700   1.2758   1.2910   1.2968   1.3090   1.3108   1.3262
  1.3306   1.3374   1.3588   1.3631   1.3685   1.3713   1.3832   1.3961
  1.4040   1.4182   1.4321   1.4393   1.4486   1.4602   1.4712   1.4870
  1.4898   1.5003   1.5058   1.5122   1.5259   1.5425   1.5583   1.5712
  1.5809   1.5884   1.5933   1.6074   1.6267   1.6376   1.6479   1.6572
  1.6613   1.6894   1.6958   1.6997   1.7158   1.7413   1.7508   1.7663
  1.7738   1.8003   1.8123   1.8155   1.8512   1.8775   1.8931   1.8991
  1.9312   1.9493   1.9774   1.9961   2.0199   2.0321   2.0447   2.0492
  2.0920   2.0977   2.1332   2.1759   2.1806   2.1914   2.2280   2.2635
  2.2723   2.2979   2.3258   2.3292   2.3578   2.3794   2.3972   2.4165
  2.4334   2.4742   2.4845   2.5098   2.5447   2.6606   2.6843   2.6991
  2.7096   2.7387   2.7492   2.7724   2.8014   2.8065   2.8326   2.8463
  2.8567   2.8808   2.8901   2.8981   2.9138   2.9342   2.9493   2.9567
  2.9865   2.9926   3.0100   3.0342   3.0380   3.0613   3.0713   3.1099
  3.1173   3.1448   3.1508   3.1668   3.2024   3.2125   3.2300   3.2484
  3.2697   3.2758   3.3161   3.3279   3.3438   3.3542   3.3758   3.3935
  3.4149   3.4284   3.4615   3.4665   3.4721   3.4952   3.4983   3.5290
  3.5379   3.5770   3.5775   3.5909   3.5961   3.6203   3.6454   3.6509
  3.6607   3.6697   3.6824   3.6987   3.7217   3.7255   3.7521   3.7643
  3.7686   3.7909   3.7992   3.8119   3.8289   3.8503   3.8634   3.8753
  3.8867   3.8933   3.9057   3.9143   3.9293   3.9457   3.9594   3.9635
  3.9813   4.0033   4.0114   4.0159   4.0499   4.0528   4.0982   4.1122
  4.1201   4.1489   4.1734   4.1880   4.2159   4.2214   4.2548   4.2765
  4.2961   4.3085   4.3136   4.3415   4.3541   4.3772   4.3954   4.4073
  4.4166   4.4190   4.4356   4.4542   4.4863   4.4944   4.5093   4.5252
  4.5360   4.5756   4.5810   4.6051   4.6278   4.6369   4.6556   4.6689
  4.6937   4.7008   4.7252   4.7446   4.7582   4.7725   4.7948   4.8234
  4.8406   4.8872   4.9256   4.9506   4.9940   5.0008   5.0623   5.0708
  5.1174   5.1323   5.1449   5.1549   5.1934   5.2166   5.2364   5.2725
  5.2872   5.2977   5.3013   5.3030   5.3158   5.3219   5.3383   5.3447
  5.3593   5.3986   5.4029   5.4167   5.4448   5.4493   5.4613   5.4899
  5.5065   5.5186   5.5356   5.5369   5.5776   5.5982   5.6159   5.6233
  5.6455   5.6643   5.6794   5.7033   5.7339   5.7503   5.7744   5.7785
  5.7938   5.8213   5.8338   5.8455   5.9087   5.9461   5.9816   6.0079
  6.0345   6.0501   6.0880   6.1334   6.2763   6.4847   6.5220   6.6115
  6.6243   6.6644   6.6898   6.7554   6.7671   6.9286   6.9765   7.0405
  7.0535   7.1134   7.1460   7.1523   7.2538   7.2918   7.3112   7.3270
  7.3375   7.3557   7.3821   7.4151   7.4325   7.4476   7.4545   7.4718
  7.5022   7.5127   7.5579   7.6528   7.6634   7.7217   7.7952   7.8338
  7.8597   7.9161   7.9798   8.0466   8.1301   8.2695  24.3967  24.6941
 24.7482  24.7872  24.8580  24.9010  25.2644  50.4484  50.5612  50.6079
 50.6238  50.6870  50.6941
 --------------------------------------------------------------
 
          Ground-State Mulliken Net Atomic Charges

     Atom                 Charge (a.u.)    Spin (a.u.)
  --------------------------------------------------------
      1 C                    -0.185816       0.002420
      2 C                    -0.158313       0.017269
      3 C                    -0.505035      -0.017829
      4 C                    -0.100014       0.016386
      5 C                    -0.464319      -0.007038
      6 C                     0.232034      -0.001971
      7 C                    -0.395045      -0.000316
      8 H                     0.327314       0.000466
      9 H                     0.291900      -0.001037
     10 H                     0.312287       0.004785
     11 H                     0.314551      -0.000860
     12 H                     0.316236       0.000016
     13 H                     0.253361       0.000004
     14 O                    -0.375178       0.000065
     15 H                     0.244666      -0.000012
     16 H                     0.326936       0.000045
     17 O                    -0.404975       0.002978
     18 H                     0.337165       0.000378
     19 O                    -0.108428       0.002157
     20 O                    -0.130676      -0.000466
     21 O                     0.088849       0.315698
     22 O                    -0.217498       0.666861
  --------------------------------------------------------
  Sum of atomic charges =     0.000000
  Sum of spin   charges =     1.000000
[...]
   1      -0.000018       0.000009      -0.000029
   2       0.000004      -0.000039       0.000023
   3      -0.000004       0.000006      -0.000029
   4      -0.000004       0.000001       0.000000
   5       0.000001      -0.000011      -0.000004
   6       0.000038       0.000012       0.000007
   7       0.000016      -0.000022      -0.000037
   8       0.000001       0.000011       0.000025
   9       0.000004      -0.000000       0.000008
  10      -0.000013      -0.000000       0.000009
  11       0.000011      -0.000013      -0.000014
  12       0.000002       0.000002      -0.000017
  13      -0.000012       0.000020      -0.000007
  14      -0.000000       0.000041       0.000033
  15       0.000006       0.000006       0.000012
  16       0.000001      -0.000034      -0.000037
  17       0.000014      -0.000020       0.000061
  18       0.000002       0.000018      -0.000035
  19      -0.000033       0.000041      -0.000050
  20      -0.000016      -0.000030       0.000056
  21       0.000005      -0.000003       0.000055
  22      -0.000003       0.000008      -0.000029
---------------------------------------------------
 Number of fixed atoms: 0
 Gradient time:  CPU 905.12 s  wall 131.75 s
 Geometry Optimization Parameters
   NAtoms,    NIC,     NZ,  NCons,   NDum,   NFix, NCnnct, MaxDiis
       22     176       0       0       0       0       0       0

 Cartesian Hessian Update
 Hessian updated using BFGS update


** GEOMETRY OPTIMIZATION IN DELOCALIZED INTERNAL COORDINATES **
   Searching for a Minimum

   Optimization Cycle:   6

                       Coordinates (Angstroms)
     ATOM                X               Y               Z
      1  C        -0.0018404122   -0.2111117093    0.7850936061
      2  C        -0.8543848161   -0.9918940042    1.7683029115
      3  C        -1.5196683997   -2.2109419019    1.1227945149
      4  C        -2.0055640006   -1.9339193494   -0.2641669056
      5  C        -1.8515154361   -0.7350846070   -0.8087086325
      6  C        -1.1496036673    0.3646171657   -0.0495378539
      7  C        -0.7251521423    1.5393707568   -0.9154633142
      8  H         0.5037786528    0.6071459078    1.3020086762
      9  H        -0.3494812382   -1.2575758007    2.6940202745
     10  H        -2.3275249030   -2.5552362610    1.7667101376
     11  H        -2.5227452920   -2.7333165745   -0.7779470761
     12  H        -2.2461336117   -0.5083249826   -1.7919990418
     13  H        -1.5761696459    1.9429402106   -1.4647113596
     14  O         0.3079241531    1.1226201974   -1.8034602674
     15  H        -0.3097392532    2.3170653479   -0.2783353600
     16  H        -0.0908969573    0.6657618793   -2.5524873272
     17  O         0.9076945902   -1.0285596615    0.0903002229
     18  H         1.2026554683   -0.5187483791   -0.6774832051
     19  O        -1.8818546619   -0.0585635157    2.1034148666
     20  O        -1.9996977120    0.8785907926    0.9829490540
     21  O        -0.5706882397   -3.3225894704    1.0426109010
     22  O        -0.3880468755   -3.8825907410    2.2045710782
   Point Group: c1    Number of degrees of freedom:    60


   Energy is   -723.283214237

 Hessian updated using BFGS update

 60 Hessian modes will be used to form the next step
  Hessian Eigenvalues:
     0.004408    0.005917    0.006850    0.008777    0.013130    0.013617
     0.014553    0.020069    0.020814    0.027187    0.036783    0.045473
     0.047700    0.053064    0.054971    0.057980    0.059955    0.060998
     0.071325    0.071518    0.079253    0.083388    0.093956    0.104509
     0.110277    0.113952    0.139185    0.146266    0.152047    0.159389
     0.159739    0.161840    0.174669    0.188426    0.209285    0.230570
     0.250801    0.264315    0.270530    0.279234    0.300458    0.306810
     0.311264    0.331928    0.340112    0.342684    0.344641    0.345283
     0.347452    0.351014    0.358970    0.360997    0.364009    0.399224
     0.419530    0.465417    0.501390    0.529811    0.572107    0.618708

 Minimum search - taking simple RFO step
 Searching for Lamda that Minimizes Along All modes
 Value Taken    Lamda =  -0.00000024
 Step Taken.  Stepsize is  0.006115

                             Maximum     Tolerance    Cnvgd?
         Gradient           0.000045      0.000300     YES
         Displacement       0.002307      0.001200      NO
         Energy change     -0.000000      0.000001     YES

 Final energy is   -723.283214236587     


 ******************************
 **  OPTIMIZATION CONVERGED  **
 ******************************

                       Coordinates (Angstroms)
     ATOM                X               Y               Z
      1  C        -0.0018404122   -0.2111117093    0.7850936061
      2  C        -0.8543848161   -0.9918940042    1.7683029115
      3  C        -1.5196683997   -2.2109419019    1.1227945149
      4  C        -2.0055640006   -1.9339193494   -0.2641669056
      5  C        -1.8515154361   -0.7350846070   -0.8087086325
      6  C        -1.1496036673    0.3646171657   -0.0495378539
      7  C        -0.7251521423    1.5393707568   -0.9154633142
      8  H         0.5037786528    0.6071459078    1.3020086762
      9  H        -0.3494812382   -1.2575758007    2.6940202745
     10  H        -2.3275249030   -2.5552362610    1.7667101376
     11  H        -2.5227452920   -2.7333165745   -0.7779470761
     12  H        -2.2461336117   -0.5083249826   -1.7919990418
     13  H        -1.5761696459    1.9429402106   -1.4647113596
     14  O         0.3079241531    1.1226201974   -1.8034602674
     15  H        -0.3097392532    2.3170653479   -0.2783353600
     16  H        -0.0908969573    0.6657618793   -2.5524873272
     17  O         0.9076945902   -1.0285596615    0.0903002229
     18  H         1.2026554683   -0.5187483791   -0.6774832051
     19  O        -1.8818546619   -0.0585635157    2.1034148666
     20  O        -1.9996977120    0.8785907926    0.9829490540
     21  O        -0.5706882397   -3.3225894704    1.0426109010
     22  O        -0.3880468755   -3.8825907410    2.2045710782

Z-matrix Print:
$molecule
0 2
O 
C  1 1.432780
O  1 1.465465 2 105.893951
C  3 1.427971 1 107.241920 2 7.021298 0
H  4 1.087413 3 107.097651 1 146.060294 0
C  2 1.509425 1 110.357972 3 81.117131 0
H  6 1.083514 2 118.249913 1 103.881599 0
C  6 1.325693 2 120.416541 1 -74.454879 0
H  8 1.081888 6 121.915431 2 178.695675 0
C  8 1.495493 6 120.710999 2 1.566610 0
H  10 1.088944 8 111.465204 6 122.349381 0
O  10 1.463815 8 107.488006 6 -122.074300 0
O  12 1.302732 10 111.621937 8 -161.666032 0
C  4 1.517614 3 102.707868 1 24.999403 0
H  14 1.091969 4 109.813061 3 68.103509 0
O  14 1.406490 4 112.600455 3 -166.734765 0
H  16 0.967678 14 106.431113 4 163.178059 0
C  2 1.519879 1 107.396727 3 -154.093953 0
H  18 1.087800 2 108.998061 1 52.499248 0
H  18 1.090308 2 110.800962 1 -67.662078 0
O  18 1.424593 2 109.362196 1 169.516959 0
H  21 0.963753 18 108.846759 2 80.571271 0
$end

 
 --------------------------------------------------------------
 
                    Orbital Energies (a.u.)
 --------------------------------------------------------------
 
 Alpha MOs
 -- Occupied --
-19.4673 -19.4186 -19.4107 -19.4085 -19.3496 -19.3476 -10.4183 -10.4176
-10.4162 -10.4098 -10.3963 -10.3594 -10.3568  -1.3468  -1.2801  -1.1772
 -1.1638  -1.0797  -1.0314  -0.9603  -0.8917  -0.8541  -0.8145  -0.7557
 -0.7259  -0.6967  -0.6740  -0.6484  -0.6481  -0.6278  -0.6123  -0.6015
 -0.5844  -0.5749  -0.5613  -0.5454  -0.5337  -0.5254  -0.5191  -0.5005
 -0.4872  -0.4610  -0.4567  -0.4336  -0.4153  -0.4120  -0.3975  -0.3859
 -0.3738  -0.3634
 -- Virtual --
  0.0250   0.0353   0.0362   0.0410   0.0505   0.0549   0.0573   0.0679
  0.0732   0.0851   0.0868   0.0901   0.1059   0.1216   0.1222   0.1292
  0.1301   0.1341   0.1432   0.1467   0.1519   0.1544   0.1608   0.1643
  0.1701   0.1708   0.1740   0.1845   0.1880   0.1956   0.1979   0.2009
  0.2094   0.2111   0.2143   0.2211   0.2239   0.2328   0.2432   0.2473
  0.2610   0.2654   0.2740   0.2783   0.2860   0.2878   0.2929   0.3048
  0.3088   0.3112   0.3154   0.3188   0.3268   0.3380   0.3386   0.3436
  0.3462   0.3552   0.3603   0.3623   0.3685   0.3732   0.3764   0.3834
  0.3888   0.3941   0.3954   0.3986   0.4061   0.4156   0.4219   0.4282
  0.4327   0.4378   0.4489   0.4529   0.4625   0.4745   0.4772   0.4877
  0.4980   0.5119   0.5213   0.5288   0.5483   0.5570   0.5700   0.5931
  0.6045   0.6105   0.6190   0.6253   0.6418   0.6515   0.6593   0.6662
  0.6729   0.6797   0.6880   0.6936   0.7002   0.7150   0.7188   0.7279
  0.7299   0.7424   0.7517   0.7576   0.7698   0.7767   0.7847   0.8012
  0.8134   0.8192   0.8469   0.8632   0.8633   0.8830   0.8942   0.8991
  0.9119   0.9418   0.9619   0.9643   0.9867   1.0030   1.0274   1.0396
  1.0468   1.0549   1.0724   1.0813   1.0982   1.1118   1.1225   1.1286
  1.1379   1.1454   1.1592   1.1635   1.1732   1.1808   1.1914   1.1967
  1.2029   1.2153   1.2210   1.2274   1.2360   1.2425   1.2556   1.2584
  1.2670   1.2736   1.2886   1.2954   1.3071   1.3092   1.3253   1.3298
  1.3356   1.3566   1.3617   1.3676   1.3710   1.3823   1.3949   1.4033
  1.4159   1.4315   1.4377   1.4478   1.4591   1.4692   1.4865   1.4885
  1.4981   1.5043   1.5111   1.5200   1.5408   1.5559   1.5676   1.5775
  1.5880   1.5932   1.6038   1.6223   1.6337   1.6447   1.6505   1.6553
  1.6763   1.6881   1.6949   1.7103   1.7326   1.7455   1.7607   1.7701
  1.7987   1.8099   1.8139   1.8473   1.8747   1.8912   1.8983   1.9234
  1.9471   1.9760   1.9947   2.0172   2.0279   2.0395   2.0466   2.0878
  2.0971   2.1315   2.1699   2.1783   2.1911   2.2253   2.2547   2.2669
  2.2915   2.3221   2.3258   2.3491   2.3723   2.3953   2.4123   2.4316
  2.4722   2.4829   2.5083   2.5438   2.6595   2.6792   2.6982   2.7068
  2.7375   2.7485   2.7709   2.8004   2.8063   2.8314   2.8452   2.8560
  2.8808   2.8894   2.8979   2.9127   2.9321   2.9488   2.9563   2.9861
  2.9908   3.0088   3.0334   3.0366   3.0597   3.0698   3.1095   3.1166
  3.1430   3.1500   3.1661   3.2027   3.2117   3.2290   3.2474   3.2684
  3.2749   3.3160   3.3270   3.3434   3.3532   3.3750   3.3932   3.4148
  3.4281   3.4607   3.4660   3.4720   3.4947   3.4973   3.5278   3.5362
  3.5760   3.5768   3.5895   3.5946   3.6199   3.6448   3.6505   3.6605
  3.6689   3.6818   3.6986   3.7211   3.7254   3.7517   3.7638   3.7683
  3.7902   3.7992   3.8113   3.8278   3.8488   3.8634   3.8743   3.8876
  3.8923   3.9050   3.9134   3.9289   3.9446   3.9587   3.9624   3.9809
  4.0020   4.0106   4.0144   4.0492   4.0522   4.0963   4.1112   4.1189
  4.1481   4.1712   4.1858   4.2147   4.2201   4.2541   4.2748   4.2949
  4.3080   4.3115   4.3394   4.3525   4.3758   4.3935   4.4055   4.4154
  4.4177   4.4341   4.4528   4.4849   4.4916   4.5078   4.5238   4.5336
  4.5738   4.5791   4.6016   4.6125   4.6342   4.6447   4.6667   4.6898
  4.6993   4.7240   4.7404   4.7536   4.7635   4.7915   4.8208   4.8378
  4.8799   4.9142   4.9353   4.9895   4.9959   5.0510   5.0658   5.0903
  5.0984   5.1077   5.1195   5.1361   5.1889   5.2314   5.2452   5.2628
  5.2766   5.3004   5.3006   5.3141   5.3187   5.3267   5.3410   5.3568
  5.3825   5.3998   5.4153   5.4422   5.4453   5.4542   5.4753   5.5013
  5.5156   5.5329   5.5339   5.5646   5.5957   5.6151   5.6193   5.6426
  5.6593   5.6786   5.7013   5.7313   5.7479   5.7667   5.7757   5.7870
  5.8153   5.8274   5.8383   5.9078   5.9414   5.9801   6.0066   6.0341
  6.0496   6.0865   6.1322   6.2772   6.4683   6.4775   6.6036   6.6196
  6.6614   6.6868   6.7552   6.7675   6.8456   6.8980   6.9894   7.0430
  7.1099   7.1145   7.1470   7.2249   7.2757   7.2959   7.3110   7.3337
  7.3546   7.3775   7.4118   7.4176   7.4347   7.4472   7.4563   7.4802
  7.5100   7.5570   7.6522   7.6632   7.7211   7.7947   7.8202   7.8593
  7.9165   7.9799   8.0334   8.1109   8.2691  24.3960  24.6928  24.7466
 24.7855  24.8554  24.8990  25.2623  50.4357  50.5520  50.6075  50.6230
 50.6860  50.6934
 
 Beta MOs
 -- Occupied --
-19.4568 -19.4107 -19.4085 -19.4001 -19.3496 -19.3476 -10.4187 -10.4176
-10.4159 -10.4098 -10.3963 -10.3593 -10.3568  -1.3205  -1.2800  -1.1771
 -1.1638  -1.0793  -1.0103  -0.9491  -0.8903  -0.8497  -0.8102  -0.7547
 -0.7233  -0.6942  -0.6703  -0.6464  -0.6325  -0.6119  -0.6067  -0.5888
 -0.5786  -0.5612  -0.5522  -0.5407  -0.5330  -0.5180  -0.5123  -0.4987
 -0.4789  -0.4604  -0.4533  -0.4326  -0.4016  -0.3945  -0.3908  -0.3771
 -0.3619
 -- Virtual --
 -0.0336   0.0251   0.0355   0.0364   0.0413   0.0514   0.0553   0.0577
  0.0683   0.0735   0.0852   0.0870   0.0902   0.1067   0.1222   0.1228
  0.1294   0.1308   0.1345   0.1434   0.1476   0.1521   0.1548   0.1616
  0.1650   0.1703   0.1715   0.1741   0.1846   0.1883   0.1963   0.1984
  0.2020   0.2096   0.2116   0.2167   0.2223   0.2250   0.2337   0.2441
  0.2532   0.2627   0.2671   0.2744   0.2795   0.2864   0.2909   0.2944
  0.3062   0.3103   0.3123   0.3164   0.3200   0.3281   0.3382   0.3393
  0.3457   0.3472   0.3556   0.3607   0.3637   0.3696   0.3742   0.3773
  0.3839   0.3893   0.3951   0.3956   0.3988   0.4065   0.4173   0.4234
  0.4285   0.4337   0.4389   0.4495   0.4536   0.4633   0.4749   0.4777
  0.4880   0.4989   0.5123   0.5215   0.5296   0.5486   0.5577   0.5703
  0.5932   0.6054   0.6110   0.6195   0.6259   0.6422   0.6516   0.6595
  0.6663   0.6731   0.6803   0.6885   0.6938   0.7004   0.7152   0.7191
  0.7280   0.7301   0.7426   0.7527   0.7578   0.7701   0.7768   0.7852
  0.8014   0.8142   0.8197   0.8471   0.8634   0.8643   0.8831   0.8946
  0.9009   0.9120   0.9419   0.9623   0.9650   0.9878   1.0050   1.0281
  1.0403   1.0470   1.0557   1.0727   1.0818   1.0988   1.1132   1.1259
  1.1291   1.1399   1.1467   1.1618   1.1655   1.1768   1.1905   1.1982
  1.2013   1.2095   1.2184   1.2267   1.2324   1.2409   1.2486   1.2592
  1.2631   1.2695   1.2753   1.2908   1.2966   1.3088   1.3107   1.3266
  1.3301   1.3371   1.3585   1.3636   1.3689   1.3717   1.3826   1.3963
  1.4038   1.4180   1.4325   1.4388   1.4481   1.4599   1.4707   1.4871
  1.4896   1.4995   1.5061   1.5118   1.5258   1.5414   1.5583   1.5711
  1.5813   1.5884   1.5938   1.6070   1.6258   1.6369   1.6480   1.6562
  1.6611   1.6892   1.6959   1.6980   1.7155   1.7409   1.7507   1.7656
  1.7721   1.7999   1.8114   1.8153   1.8505   1.8774   1.8926   1.8990
  1.9310   1.9484   1.9775   1.9955   2.0186   2.0309   2.0444   2.0474
  2.0912   2.0982   2.1321   2.1755   2.1790   2.1918   2.2275   2.2634
  2.2711   2.2979   2.3249   2.3288   2.3574   2.3789   2.3965   2.4167
  2.4325   2.4740   2.4841   2.5086   2.5442   2.6603   2.6839   2.6994
  2.7089   2.7391   2.7491   2.7717   2.8010   2.8065   2.8317   2.8459
  2.8562   2.8810   2.8895   2.8981   2.9129   2.9325   2.9492   2.9565
  2.9862   2.9918   3.0092   3.0337   3.0369   3.0603   3.0702   3.1098
  3.1173   3.1433   3.1500   3.1666   3.2031   3.2118   3.2292   3.2475
  3.2686   3.2752   3.3163   3.3271   3.3436   3.3538   3.3751   3.3933
  3.4150   3.4284   3.4610   3.4661   3.4721   3.4950   3.4979   3.5281
  3.5368   3.5762   3.5770   3.5904   3.5947   3.6202   3.6450   3.6507
  3.6606   3.6694   3.6823   3.6989   3.7213   3.7254   3.7519   3.7641
  3.7686   3.7904   3.7997   3.8115   3.8279   3.8492   3.8636   3.8745
  3.8877   3.8928   3.9051   3.9136   3.9291   3.9449   3.9589   3.9629
  3.9810   4.0023   4.0111   4.0148   4.0496   4.0524   4.0964   4.1114
  4.1192   4.1483   4.1716   4.1865   4.2154   4.2205   4.2543   4.2753
  4.2951   4.3083   4.3124   4.3400   4.3529   4.3762   4.3942   4.4057
  4.4158   4.4182   4.4345   4.4534   4.4853   4.4932   4.5084   4.5250
  4.5352   4.5742   4.5812   4.6045   4.6276   4.6351   4.6553   4.6682
  4.6933   4.7002   4.7253   4.7438   4.7573   4.7718   4.7944   4.8223
  4.8399   4.8859   4.9254   4.9503   4.9929   4.9988   5.0619   5.0701
  5.1171   5.1317   5.1447   5.1545   5.1933   5.2164   5.2356   5.2724
  5.2875   5.2978   5.3016   5.3032   5.3148   5.3219   5.3379   5.3436
  5.3580   5.3982   5.4027   5.4160   5.4440   5.4484   5.4610   5.4891
  5.5058   5.5183   5.5341   5.5354   5.5764   5.5972   5.6158   5.6222
  5.6441   5.6633   5.6790   5.7015   5.7342   5.7486   5.7737   5.7781
  5.7922   5.8208   5.8325   5.8454   5.9086   5.9462   5.9803   6.0070
  6.0342   6.0497   6.0866   6.1326   6.2774   6.4852   6.5226   6.6109
  6.6241   6.6636   6.6874   6.7561   6.7679   6.9281   6.9763   7.0404
  7.0532   7.1145   7.1458   7.1522   7.2539   7.2916   7.3105   7.3260
  7.3355   7.3550   7.3789   7.4141   7.4310   7.4475   7.4539   7.4708
  7.5020   7.5125   7.5577   7.6526   7.6637   7.7215   7.7947   7.8338
  7.8597   7.9167   7.9801   8.0468   8.1303   8.2691  24.3960  24.6928
 24.7465  24.7855  24.8554  24.8991  25.2623  50.4485  50.5610  50.6080
 50.6230  50.6861  50.6935
 --------------------------------------------------------------
 
          Ground-State Mulliken Net Atomic Charges

     Atom                 Charge (a.u.)    Spin (a.u.)
  --------------------------------------------------------
      1 C                    -0.186036       0.002554
      2 C                    -0.159249       0.017047
      3 C                    -0.507376      -0.017774
      4 C                    -0.092352       0.016304
      5 C                    -0.475817      -0.006976
      6 C                     0.239535      -0.001913
      7 C                    -0.394994      -0.000319
      8 H                     0.327100       0.000466
      9 H                     0.292135      -0.001027
     10 H                     0.311866       0.004796
     11 H                     0.314504      -0.000869
     12 H                     0.315668       0.000015
     13 H                     0.253222       0.000006
     14 O                    -0.376187       0.000058
     15 H                     0.244462      -0.000012
     16 H                     0.327981       0.000048
     17 O                    -0.403992       0.002966
     18 H                     0.337405       0.000407
     19 O                    -0.108544       0.002164
     20 O                    -0.130549      -0.000455
     21 O                     0.088359       0.315660
     22 O                    -0.217143       0.666854
  --------------------------------------------------------
  Sum of atomic charges =     0.000000
  Sum of spin   charges =     1.000000

 -----------------------------------------------------------------
                    Cartesian Multipole Moments
 -----------------------------------------------------------------
    Charge (ESU x 10^10)
                 0.0000
    Dipole Moment (Debye)
         X      -1.6363      Y       2.7530      Z      -4.8580
       Tot       5.8187
    Quadrupole Moments (Debye-Ang)
        XX     -77.7614     XY       7.9148     YY     -89.7745
        XZ       9.2554     YZ       4.9472     ZZ     -72.2178
    Octopole Moments (Debye-Ang^2)
       XXX     209.4508    XXY      38.5105    XYY      45.1021
       YYY     239.3346    XXZ     -51.4693    XYZ      12.6559
       YYZ     -63.9118    XZZ      66.9430    YZZ      64.8137
       ZZZ    -129.2942
    Hexadecapole Moments (Debye-Ang^3)
      XXXX    -879.4856   XXXY    -114.7368   XXYY    -353.8039
      XYYY    -115.1487   YYYY   -1811.7756   XXXZ     163.0301
      XXYZ      91.2374   XYYZ      51.6763   YYYZ     460.9921
      XXZZ    -289.2013   XYZZ     -51.9654   YYZZ    -477.4177
      XZZZ     177.0265   YZZZ     336.1494   ZZZZ    -816.5131
 -----------------------------------------------------------------
 Total job time:  4810.40s(wall), 36764.65s(cpu) 
 Tue Feb 14 16:41:36 2023

        *************************************************************
        *                                                           *
        *  Thank you very much for using Q-Chem.  Have a nice day.  *
        *                                                           *
        *************************************************************


