
Running Job 1 of 1 Q_in.in
qchem Q_in.in_186436.0 /scratch/ari.fischer/qChem1518672.hpc-mn1/qchem186436/ 0
/usr/local/qchem-5.4.1/exe/qcprog.exe_s Q_in.in_186436.0 /scratch/ari.fischer/qChem1518672.hpc-mn1/qchem186436/
                  Welcome to Q-Chem
     A Quantum Leap Into The Future Of Chemistry


 Q-Chem 5.4, Q-Chem, Inc., Pleasanton, CA (2021)

 License issued to: Nanyang Technological University (site)

 E. Epifanovsky,  A. T. B. Gilbert,  Xintian Feng,  Joonho Lee,  Yuezhi Mao,  
 N. Mardirossian,  P. Pokhilko,  A. White,  M. Wormit,  M. P. Coons,  
 A. L. Dempwolff,  Zhengting Gan,  D. Hait,  P. R. Horn,  L. D. Jacobson,  
 I. Kaliman,  J. Kussmann,  A. W. Lange,  Ka Un Lao,  D. S. Levine,  Jie Liu,  
 S. C. McKenzie,  A. F. Morrison,  K. Nanda,  F. Plasser,  D. R. Rehn,  
 M. L. Vidal,  Zhi-Qiang You,  Ying Zhu,  B. Alam,  B. Albrecht,  
 A. Aldossary,  E. Alguire,  J. H. Andersen,  D. Barton,  K. Begam,  A. Behn,  
 Y. A. Bernard,  E. J. Berquist,  H. Burton,  A. Carreras,  K. Carter-Fenk,  
 R. Chakraborty,  A. D. Chien,  K. D. Closser,  V. Cofer-Shabica,  
 S. Dasgupta,  Jia Deng,  M. de Wergifosse,  M. Diedenhofen,  Hainam Do,  
 S. Ehlert,  Po-Tung Fang,  S. Fatehi,  Qingguo Feng,  T. Friedhoff,  
 J. Gayvert,  Qinghui Ge,  G. Gidofalvi,  M. Goldey,  J. Gomes,  
 C. Gonzalez-Espinoza,  S. Gulania,  A. Gunina,  M. W. D. Hanson-Heine,  
 P. H. P. Harbach,  A. W. Hauser,  M. F. Herbst,  M. Hernandez Vera,  
 M. Hodecker,  Z. C. Holden,  S. Houck,  Xunkun Huang,  Kerwin Hui,  
 B. C. Huynh,  M. Ivanov,  Hyunjun Ji,  Hanjie Jiang,  B. Kaduk,  S. Kaehler,  
 K. Khistyaev,  Jaehoon Kim,  P. Klunzinger,  Z. Koczor-Benda,  
 Joong Hoon Koh,  D. Kosenkov,  L. Koulias,  T. Kowalczyk,  C. M. Krauter,  
 K. Kue,  A. Kunitsa,  T. Kus,  A. Landau,  K. V. Lawler,  D. Lefrancois,  
 S. Lehtola,  Rain Li,  Yi-Pei Li,  Jiashu Liang,  M. Liebenthal,  
 Hung-Hsuan Lin,  You-Sheng Lin,  Fenglai Liu,  Kuan-Yu Liu,  
 M. Loipersberger,  A. Luenser,  A. Manjanath,  P. Manohar,  E. Mansoor,  
 S. F. Manzer,  Shan-Ping Mao,  A. V. Marenich,  T. Markovich,  S. Mason,  
 S. A. Maurer,  P. F. McLaughlin,  M. F. S. J. Menger,  J.-M. Mewes,  
 S. A. Mewes,  P. Morgante,  J. W. Mullinax,  K. J. Oosterbaan,  G. Paran,  
 Alexander C. Paul,  Suranjan K. Paul,  F. Pavosevic,  Zheng Pei,  S. Prager,  
 E. I. Proynov,  E. Ramos,  B. Rana,  A. E. Rask,  A. Rettig,  R. M. Richard,  
 F. Rob,  E. Rossomme,  T. Scheele,  M. Scheurer,  M. Schneider,  
 N. Sergueev,  S. M. Sharada,  W. Skomorowski,  D. W. Small,  C. J. Stein,  
 Yu-Chuan Su,  E. J. Sundstrom,  Zhen Tao,  J. Thirman,  T. Tsuchimochi,  
 N. M. Tubman,  S. P. Veccham,  O. Vydrov,  J. Wenzel,  J. Witte,  A. Yamada,  
 Kun Yao,  S. Yeganeh,  S. R. Yost,  A. Zech,  Igor Ying Zhang,  Xing Zhang,  
 Yu Zhang,  D. Zuev,  A. Aspuru-Guzik,  A. T. Bell,  N. A. Besley,  
 K. B. Bravaya,  B. R. Brooks,  D. Casanova,  Jeng-Da Chai,  S. Coriani,  
 C. J. Cramer,  A. E. DePrince, III,  R. A. DiStasio Jr.,  A. Dreuw,  
 B. D. Dunietz,  T. R. Furlani,  W. A. Goddard III,  S. Grimme,  
 S. Hammes-Schiffer,  T. Head-Gordon,  W. J. Hehre,  Chao-Ping Hsu,  
 T.-C. Jagau,  Yousung Jung,  A. Klamt,  Jing Kong,  D. S. Lambrecht,  
 WanZhen Liang,  N. J. Mayhall,  C. W. McCurdy,  J. B. Neaton,  
 C. Ochsenfeld,  J. A. Parkhill,  R. Peverati,  V. A. Rassolov,  Yihan Shao,  
 L. V. Slipchenko,  T. Stauch,  R. P. Steele,  J. E. Subotnik,  
 A. J. W. Thom,  A. Tkatchenko,  D. G. Truhlar,  T. Van Voorhis,  
 T. A. Wesolowski,  K. B. Whaley,  H. L. Woodcock III,  P. M. Zimmerman,  
 S. Faraji,  P. M. W. Gill,  M. Head-Gordon,  J. M. Herbert,  A. I. Krylov

 Additional authors for Version 5.4.1: 
 S. Kotaru,  Shaozhi Li,  Xiangyuan Li,  F. Matz,  A. Molle,  Haisheng Ren,  
 Yingli Su,  Hung-Yi Tsai,  C. Utku,  Fang Wang

 Contributors to earlier versions of Q-Chem not listed above: 
 R. D. Adamson,  B. Austin,  R. Baer,  J. Baker,  G. J. O. Beran,  
 K. Brandhorst,  S. T. Brown,  E. F. C. Byrd,  A. K. Chakraborty,  
 G. K. L. Chan,  Chun-Min Chang,  Yunqing Chen,  C.-L. Cheng,  
 Siu Hung Chien,  D. M. Chipman,  D. L. Crittenden,  H. Dachsel,  
 R. J. Doerksen,  A. D. Dutoi,  R. G. Edgar,  J. Fosso-Tande,  
 L. Fusti-Molnar,  D. Ghosh,  A. Ghysels,  A. Golubeva-Zadorozhnaya,  
 J. Gonthier,  M. S. Gordon,  S. R. Gwaltney,  G. Hawkins,  J. E. Herr,  
 A. Heyden,  S. Hirata,  E. G. Hohenstein,  G. Kedziora,  F. J. Keil,  
 C. Kelley,  Jihan Kim,  R. A. King,  R. Z. Khaliullin,  P. P. Korambath,  
 W. Kurlancheek,  A. Laurent,  A. M. Lee,  M. S. Lee,  S. V. Levchenko,  
 Ching Yeh Lin,  D. Liotard,  E. Livshits,  R. C. Lochan,  I. Lotan,  
 L. A. Martinez-Martinez,  P. E. Maslen,  N. Nair,  D. P. O'Neill,  
 D. Neuhauser,  E. Neuscamman,  C. M. Oana,  R. Olivares-Amaya,  R. Olson,  
 T. M. Perrine,  B. Peters,  P. A. Pieniazek,  A. Prociuk,  Y. M. Rhee,  
 J. Ritchie,  M. A. Rohrdanz,  E. Rosta,  N. J. Russ,  H. F. Schaefer III,  
 M. W. Schmidt,  N. E. Schultz,  S. Sharma,  N. Shenvi,  C. D. Sherrill,  
 A. C. Simmonett,  A. Sodt,  T. Stein,  D. Stuck,  K. S. Thanthiriwatte,  
 V. Vanovschi,  L. Vogt,  Tao Wang,  A. Warshel,  M. A. Watson,  
 C. F. Williams,  Q. Wu,  X. Xu,  Jun Yang,  W. Zhang,  Yan Zhao

 Please cite Q-Chem as follows:
 Y. Shao et al., Mol. Phys. 113, 184-215 (2015)
 DOI: 10.1080/00268976.2014.952696

 Q-Chem 5.4.1 for Intel X86 EM64T Linux

 Parts of Q-Chem use Armadillo 9.800.1 (Horizon Scraper).
 http://arma.sourceforge.net/

 Q-Chem begins on Thu Apr 27 21:38:47 2023  

 Host: 
0

     Scratch files written to /scratch/ari.fischer/qChem1518672.hpc-mn1/qchem186436//
 Aug1521 |scratch|qcdevops|jenkins|workspace|build_RNUM 8249   
 Processing $rem in /usr/local/qchem-5.4.1/config/preferences:
 Processing $rem in /home/ari.fischer/.qchemrc:
 Symmetry turned off for PCM/SM12/SMD calculation


!!********************************************.
!!******************Warning*******************.
!!Desired Analytical derivatives not available.
!!Finite difference job might take a long time.
!!********************************************.
!!********************************************.


 2-order derivative to be evaluated numerically with 1-order analytical derivatives

 Checking the input file for inconsistencies... 	...done.

--------------------------------------------------------------
User input:
--------------------------------------------------------------
$molecule
0 2
C        -0.7201402186    2.0448957642    4.0231699867
H        -1.4580268831    2.4599965653    3.3352469222
O        -1.1347987887    1.3968905963    5.0529047004
H        -1.0853854203    0.2580659415    4.6273189032
O        -0.4027132150    0.5053860992    2.9154369428
O        -0.7731511566   -0.4350421755    3.7013598647
C         0.6084382456    2.6835137113    4.0028404239
C         0.8919488057    3.6074948117    3.0021957041
H         0.1345503733    3.8483470080    2.2668357283
C         2.1370828179    4.2168942270    2.9571673580
H         2.3598071872    4.9374858780    2.1826387176
C         3.0943657437    3.9004296314    3.9119432417
H         4.0645910627    4.3774550585    3.8796403668
C         2.8107085943    2.9765454455    4.9127269910
H         3.5595736810    2.7357970539    5.6545137122
C         1.5686031113    2.3660706888    4.9603427378
H         1.3358794597    1.6493126947    5.7358770986
$end

$rem
BASIS = 6-311++G(2df,2p)
GUI = 2
JOB_TYPE = Frequency
METHOD = wB97M-V
SOLVENT_METHOD = SMD
SCF_ALGORITHM = DIIS_GDM
MAX_SCF_CYCLES = 400
SCF_CONVERGENCE = 7
THRESH = 12
UNRESTRICTED = 1
SYMMETRY_IGNORE = 1
$end
--------------------------------------------------------------
 ----------------------------------------------------------------
             Standard Nuclear Orientation (Angstroms)
    I     Atom           X                Y                Z
 ----------------------------------------------------------------
    1      C      -0.7201402186     2.0448957642     4.0231699867
    2      H      -1.4580268831     2.4599965653     3.3352469222
    3      O      -1.1347987887     1.3968905963     5.0529047004
    4      H      -1.0853854203     0.2580659415     4.6273189032
    5      O      -0.4027132150     0.5053860992     2.9154369428
    6      O      -0.7731511566    -0.4350421755     3.7013598647
    7      C       0.6084382456     2.6835137113     4.0028404239
    8      C       0.8919488057     3.6074948117     3.0021957041
    9      H       0.1345503733     3.8483470080     2.2668357283
   10      C       2.1370828179     4.2168942270     2.9571673580
   11      H       2.3598071872     4.9374858780     2.1826387176
   12      C       3.0943657437     3.9004296314     3.9119432417
   13      H       4.0645910627     4.3774550585     3.8796403668
   14      C       2.8107085943     2.9765454455     4.9127269910
   15      H       3.5595736810     2.7357970539     5.6545137122
   16      C       1.5686031113     2.3660706888     4.9603427378
   17      H       1.3358794597     1.6493126947     5.7358770986
 ----------------------------------------------------------------
 Nuclear Repulsion Energy =         502.54930885 hartrees
 There are       37 alpha and       36 beta electrons
 Requested basis set is 6-311++G(2df,2p)
 There are 122 shells and 410 basis functions

 Total QAlloc Memory Limit 288000 MB
 Mega-Array Size       188 MB
 MEM_STATIC part       192 MB
 
 Citation of the SMD model:
 Marenich, A.V.; Cramer, C.J.; Truhlar, D.G.
 J. Phys. Chem. B 2009, 113, 6378-6396.
 iSolventCode=           1
 Solvent: water                                                           
 
 vradii
            1           2           3           4           5           6
    1   1.8500000   1.2000000   1.5200000   1.2000000   1.5200000   1.5200000
            7           8           9          10          11          12
    1   1.8500000   1.8500000   1.2000000   1.8500000   1.2000000   1.8500000
           13          14          15          16          17
    1   1.2000000   1.8500000   1.2000000   1.8500000   1.2000000
 Changing PCM_VDW_RADII to SMD_RADIUS
 Discretize the solute cavity surface with Lebedev spheres
	Using 110 Lebedev grid points for each H atom
	Using 194 Lebedev grid points for other atoms
	Atomic van der Waals radii will be scaled by 1.20
 Remove points where switching function is < 1.0e-08
 Keep 1300 surface tesserae and discard 1410 interior tesserae
 Molecular Surface Area = 157.208 Angst**2
 A cutoff of  1.0D-12 yielded   6571 shell pairs
 There are     74641 function pairs (     93547 Cartesian)
 Smallest overlap matrix eigenvalue = 8.88E-07
 Linear dependence detected in AO basis
 Tighter screening thresholds may be required for diffuse basis sets
 Use S2THRESH > 14 and THRESH = 14 in case of SCF convergence issues
 Number of orthogonalized atomic orbitals = 409
 Maximum deviation from orthogonality = 1.659E-10
 Guess from superposition of atomic densities
 Warning:  Energy on first SCF cycle will be non-variational
 SAD guess density has 73.000000 electrons

 -----------------------------------------------------------------------
  General SCF calculation program by
  Eric Jon Sundstrom, Paul Horn, Yuezhi Mao, Dmitri Zuev, Alec White,
  David Stuck, Shaama M.S., Shane Yost, Joonho Lee, David Small,
  Daniel Levine, Susi Lehtola, Hugh Burton, Evgeny Epifanovsky,
  Bang C. Huynh
 -----------------------------------------------------------------------
 Exchange:     0.1500 Hartree-Fock + 1.0000 wB97M-V + LR-HF
 Correlation:  1.0000 wB97M-V
 Using SG-2 standard quadrature grid
 Nonlocal Correlation:  VV10 with C = 0.0100 and b = 6.00 and scale = 1.00000
 Grid used for NLC:  SG-1 standard quadrature
 using 8 threads for integral computing
 -------------------------------------------------------
 OpenMP Integral computing Module                
 Release: version 1.0, May 2013, Q-Chem Inc. Pittsburgh 
 -------------------------------------------------------
 
 Citation of the SMD model:
 Marenich, A.V.; Cramer, C.J.; Truhlar, D.G.
 J. Phys. Chem. B 2009, 113, 6378-6396.
 iSolventCode=           1
 Solvent: water                                                           
 
 vradii
            1           2           3           4           5           6
    1   1.8500000   1.2000000   1.5200000   1.2000000   1.5200000   1.5200000
            7           8           9          10          11          12
    1   1.8500000   1.8500000   1.2000000   1.8500000   1.2000000   1.8500000
           13          14          15          16          17
    1   1.2000000   1.8500000   1.2000000   1.8500000   1.2000000
 -------------------------------------------------------
 OpenMP BLAS3 based DFT computing Module                
 Release: version 1.0, May 2013, Q-Chem Inc. Pittsburgh 
 -------------------------------------------------------
 A unrestricted SCF calculation will be
 performed using DIIS, GDM
 SCF converges when RMS gradient is below 1.0e-07
 ---------------------------------------
  Cycle       Energy         DIIS error
 ---------------------------------------
    1    -499.2567329191      1.27e-02  
    2    -496.3715379708      1.22e-03  Done DIIS. Switching to GDM
 ---------------------------------------
  Cycle       Energy        RMS Gradient
 ---------------------------------------
    1    -496.3715379708      9.57e-02   Descent step
    2    -496.4659091810      3.39e-02   Normal BFGS step
    3    -496.4782497441      1.38e-02   Normal BFGS step
    4    -496.4803762792      1.04e-02   Normal BFGS step
    5    -496.4807842102      4.22e-03   Normal BFGS step
    6    -496.4809155506      2.26e-03   Normal BFGS step
    7    -496.4809519028      1.13e-03   Normal BFGS step
    8    -496.4809577440      3.57e-04   Normal BFGS step
    9    -496.4809591652      1.97e-04   Normal BFGS step
   10    -496.4809594590      2.14e-04   Normal BFGS step
   11    -496.4809595855      1.05e-04   Normal BFGS step
   12    -496.4809596262      4.35e-05   Normal BFGS step
   13    -496.4809596368      2.43e-05   Normal BFGS step
   14    -496.4809596414      1.50e-05   Normal BFGS step
   15    -496.4809596428      8.54e-06   Normal BFGS step
   16    -496.4809596432      4.05e-06   Normal BFGS step
   17    -496.4809596433      2.06e-06   Normal BFGS step
   18    -496.4809596433      1.26e-06   Normal BFGS step
   19    -496.4809596433      8.93e-07   Normal BFGS step
   20    -496.4809596434      2.86e-07   Normal BFGS step
   21    -496.4809596434      1.59e-07   Normal BFGS step
   22    -496.4809596434      5.77e-08  Convergence criterion met
 ---------------------------------------
 SCF time:   CPU 2306.44s  wall 292.00s 
<S^2> =          0.755790761
(3)  G-ENP(liq) elect-nuc-pol free energy of system     -496.480959643 a.u.
(4)  G-CDS(liq) cavity-dispersion-solvent structure 
     free energy                                                3.3802 kcal/mol
(6)  G-S(liq) free energy of system                     -496.475572906 a.u.
 SCF   energy in the final basis set =     -496.4755729062
 Total energy in the final basis set =     -496.4755729062
 
 --------------------------------------------------------------
 
                    Orbital Energies (a.u.)
 --------------------------------------------------------------
 
 Alpha MOs
 -- Occupied --
-19.4495 -19.4472 -19.3410 -10.4581 -10.3597 -10.3544 -10.3530 -10.3516
-10.3487 -10.3486  -1.3625  -1.1844  -0.9990  -0.9750  -0.8951  -0.8784
 -0.7809  -0.7318  -0.7089  -0.6973  -0.6465  -0.6261  -0.6196  -0.5939
 -0.5736  -0.5434  -0.5421  -0.5281  -0.5016  -0.4753  -0.4592  -0.4443
 -0.4302  -0.4159  -0.3836  -0.3541  -0.3482
 -- Virtual --
  0.0156   0.0252   0.0362   0.0391   0.0540   0.0542   0.0566   0.0699
  0.0848   0.0870   0.1013   0.1051   0.1094   0.1219   0.1365   0.1433
  0.1472   0.1537   0.1549   0.1594   0.1613   0.1696   0.1737   0.1744
  0.1825   0.1846   0.1868   0.1999   0.2034   0.2157   0.2189   0.2196
  0.2257   0.2408   0.2545   0.2640   0.2711   0.2718   0.2731   0.2795
  0.2880   0.2939   0.3036   0.3126   0.3225   0.3311   0.3430   0.3463
  0.3512   0.3521   0.3561   0.3710   0.3781   0.3866   0.3908   0.4048
  0.4145   0.4181   0.4291   0.4467   0.4565   0.4738   0.4788   0.5251
  0.5525   0.5629   0.5710   0.5883   0.5980   0.6014   0.6071   0.6140
  0.6204   0.6229   0.6308   0.6338   0.6527   0.6742   0.6936   0.6985
  0.7162   0.7210   0.7271   0.7327   0.7381   0.7453   0.7482   0.7568
  0.7619   0.7733   0.7786   0.7835   0.8006   0.8299   0.8364   0.8374
  0.8485   0.8578   0.8765   0.8906   0.8942   0.8991   0.9203   0.9404
  0.9617   0.9655   1.0209   1.0361   1.0386   1.0536   1.0724   1.0857
  1.0997   1.1019   1.1094   1.1206   1.1294   1.1432   1.1613   1.1760
  1.1909   1.1985   1.2072   1.2260   1.2332   1.2417   1.2522   1.2652
  1.2702   1.2749   1.2967   1.3120   1.3504   1.3717   1.3757   1.3946
  1.3999   1.4043   1.4089   1.4321   1.4403   1.4503   1.4634   1.4656
  1.4773   1.4994   1.5184   1.5329   1.5607   1.5638   1.5786   1.5820
  1.6043   1.6205   1.6735   1.6957   1.7121   1.7262   1.7523   1.7750
  1.7855   1.8056   1.8098   1.8315   1.8851   1.9014   1.9576   1.9631
  2.0268   2.0641   2.0848   2.0911   2.1032   2.1088   2.1570   2.2404
  2.2563   2.2987   2.3073   2.4111   2.4893   2.5410   2.5903   2.5973
  2.6248   2.6505   2.6672   2.6876   2.7197   2.7344   2.7687   2.7894
  2.7965   2.8083   2.8239   2.8291   2.8396   2.8641   2.8651   2.8894
  2.8948   2.9075   2.9096   2.9288   2.9443   2.9460   2.9636   2.9691
  2.9955   3.0090   3.0183   3.0488   3.0518   3.1009   3.1377   3.1621
  3.1664   3.2044   3.2066   3.2192   3.2316   3.2458   3.2561   3.2696
  3.2808   3.2856   3.3082   3.3159   3.3374   3.3614   3.3857   3.3902
  3.4198   3.4256   3.4492   3.4548   3.4846   3.4883   3.5147   3.5306
  3.5377   3.5514   3.5573   3.5783   3.5986   3.6143   3.6282   3.6422
  3.6670   3.6927   3.7271   3.7547   3.7799   3.8044   3.8232   3.8285
  3.8367   3.8493   3.8772   3.8815   3.8996   3.9089   3.9325   3.9451
  3.9528   3.9686   3.9967   4.0350   4.0739   4.0895   4.1193   4.1312
  4.1468   4.1600   4.1915   4.2223   4.2276   4.2465   4.3209   4.3465
  4.3646   4.4290   4.4400   4.4518   4.4597   4.4938   4.5182   4.5375
  4.5426   4.5560   4.5649   4.5759   4.5845   4.5983   4.6443   4.6891
  4.7007   4.7118   4.7370   4.7700   4.7927   4.8250   4.8298   4.8885
  4.9055   4.9943   5.0434   5.0578   5.0640   5.1411   5.1438   5.1611
  5.1797   5.1894   5.2038   5.2198   5.2314   5.2378   5.2733   5.3044
  5.3441   5.3474   5.3659   5.3765   5.4264   5.4682   5.5272   5.5617
  5.5796   5.6045   5.6286   5.7285   5.7608   5.7977   5.8379   5.8774
  5.8954   5.9435   6.1825   6.2819   6.4726   6.4996   6.5406   6.6834
  6.7016   6.8207   6.9409   7.0114   7.0703   7.0880   7.1183   7.1499
  7.2798   7.3554   7.4047   7.4980   7.5106   7.5519   7.7882   7.9952
  8.0410   8.1370  24.2087  24.7990  24.8138  24.9582  25.0694  25.0853
 25.5333  50.4775  50.5084  50.7285
 
 Beta MOs
 -- Occupied --
-19.4331 -19.4329 -19.3410 -10.4584 -10.3595 -10.3544 -10.3531 -10.3516
-10.3487 -10.3486  -1.3342  -1.1835  -0.9976  -0.9395  -0.8915  -0.8784
 -0.7794  -0.7314  -0.6990  -0.6964  -0.6398  -0.6056  -0.5953  -0.5741
 -0.5495  -0.5424  -0.5302  -0.5257  -0.4988  -0.4697  -0.4585  -0.4443
 -0.4164  -0.3943  -0.3542  -0.3445
 -- Virtual --
 -0.0331   0.0185   0.0253   0.0362   0.0392   0.0541   0.0544   0.0569
  0.0702   0.0853   0.0872   0.1021   0.1057   0.1099   0.1225   0.1369
  0.1442   0.1477   0.1542   0.1555   0.1597   0.1617   0.1700   0.1739
  0.1757   0.1829   0.1852   0.1870   0.2010   0.2049   0.2158   0.2195
  0.2202   0.2291   0.2431   0.2552   0.2656   0.2717   0.2731   0.2739
  0.2799   0.2888   0.2957   0.3066   0.3194   0.3233   0.3313   0.3441
  0.3475   0.3520   0.3529   0.3566   0.3742   0.3783   0.3877   0.3937
  0.4081   0.4155   0.4184   0.4293   0.4482   0.4576   0.4742   0.4792
  0.5256   0.5525   0.5632   0.5710   0.5890   0.5981   0.6017   0.6074
  0.6141   0.6210   0.6235   0.6313   0.6342   0.6528   0.6742   0.6940
  0.6985   0.7162   0.7210   0.7272   0.7328   0.7383   0.7461   0.7486
  0.7574   0.7619   0.7735   0.7793   0.7845   0.8005   0.8301   0.8367
  0.8380   0.8487   0.8579   0.8768   0.8910   0.8944   0.8992   0.9224
  0.9411   0.9626   0.9663   1.0230   1.0376   1.0430   1.0543   1.0740
  1.0880   1.1006   1.1041   1.1135   1.1281   1.1382   1.1490   1.1627
  1.1804   1.1935   1.2015   1.2116   1.2270   1.2377   1.2441   1.2546
  1.2671   1.2757   1.2926   1.2979   1.3134   1.3512   1.3734   1.3769
  1.3959   1.4007   1.4062   1.4099   1.4381   1.4411   1.4551   1.4641
  1.4679   1.4780   1.5033   1.5198   1.5370   1.5643   1.5662   1.5799
  1.5836   1.6205   1.6290   1.6741   1.6983   1.7207   1.7340   1.7551
  1.7795   1.7858   1.8098   1.8118   1.8324   1.8927   1.9025   1.9635
  1.9708   2.0326   2.0665   2.0853   2.0933   2.1063   2.1126   2.1635
  2.2476   2.2641   2.3142   2.3190   2.4144   2.4927   2.5443   2.5917
  2.5997   2.6252   2.6512   2.6686   2.6942   2.7199   2.7350   2.7687
  2.7899   2.7965   2.8083   2.8239   2.8291   2.8397   2.8644   2.8651
  2.8892   2.8947   2.9074   2.9094   2.9286   2.9443   2.9460   2.9635
  2.9690   2.9953   3.0086   3.0182   3.0486   3.0515   3.1004   3.1369
  3.1618   3.1663   3.2040   3.2066   3.2190   3.2315   3.2458   3.2562
  3.2699   3.2805   3.2854   3.3079   3.3158   3.3374   3.3611   3.3857
  3.3909   3.4197   3.4254   3.4491   3.4547   3.4846   3.4881   3.5147
  3.5305   3.5374   3.5514   3.5570   3.5779   3.5984   3.6140   3.6280
  3.6421   3.6669   3.6924   3.7269   3.7541   3.7795   3.8041   3.8231
  3.8287   3.8367   3.8480   3.8769   3.8820   3.8996   3.9088   3.9326
  3.9452   3.9529   3.9685   3.9964   4.0348   4.0733   4.0895   4.1191
  4.1311   4.1466   4.1598   4.1916   4.2219   4.2275   4.2462   4.3210
  4.3464   4.3648   4.4293   4.4403   4.4516   4.4597   4.4963   4.5183
  4.5387   4.5436   4.5641   4.5759   4.5821   4.5908   4.6025   4.6452
  4.7004   4.7167   4.7250   4.7384   4.7834   4.7976   4.8273   4.8309
  4.8888   4.9168   5.0000   5.0580   5.0695   5.1288   5.1445   5.1702
  5.1792   5.1961   5.2161   5.2201   5.2422   5.2480   5.2733   5.3086
  5.3187   5.3493   5.3561   5.3716   5.3866   5.4364   5.4739   5.5336
  5.5656   5.5867   5.6114   5.6562   5.7499   5.7607   5.7978   5.8379
  5.8771   5.8954   5.9436   6.1841   6.2818   6.4795   6.5007   6.5907
  6.6837   6.7138   6.8721   7.0034   7.0383   7.1129   7.1435   7.1566
  7.1670   7.3195   7.4018   7.4264   7.5039   7.5290   7.5595   7.7970
  7.9985   8.0534   8.1571  24.2087  24.7990  24.8138  24.9580  25.0693
 25.0853  25.5333  50.4891  50.5205  50.7287
 --------------------------------------------------------------
 
          Ground-State Mulliken Net Atomic Charges

     Atom                 Charge (a.u.)    Spin (a.u.)
  --------------------------------------------------------
      1 C                    -0.540814      -0.041680
      2 H                     0.327446       0.004333
      3 O                    -0.463222       0.001510
      4 H                     0.370963      -0.009321
      5 O                    -0.050678       0.555289
      6 O                    -0.129452       0.471022
      7 C                     0.873008       0.017394
      8 C                    -0.912217       0.002005
      9 H                     0.265975       0.000696
     10 C                    -0.371443      -0.000484
     11 H                     0.285462      -0.000249
     12 C                    -0.315636       0.000393
     13 H                     0.281150       0.000202
     14 C                    -0.405807      -0.000543
     15 H                     0.283266      -0.000151
     16 C                     0.224462      -0.000760
     17 H                     0.277536       0.000343
  --------------------------------------------------------
  Sum of atomic charges =     0.000000
  Sum of spin   charges =     1.000000

 -----------------------------------------------------------------
                    Cartesian Multipole Moments
 -----------------------------------------------------------------
    Charge (ESU x 10^10)
                 0.0000
    Dipole Moment (Debye)
         X       1.7272      Y       2.8456      Z      -0.9913
       Tot       3.4732
    Quadrupole Moments (Debye-Ang)
        XX     -50.9506     XY       6.6288     YY     -47.3565
        XZ      11.3069     YZ       2.4916     ZZ     -66.7474
    Octopole Moments (Debye-Ang^2)
       XXX    -111.9883    XXY    -102.9079    XYY     -19.0280
       YYY    -367.4026    XXZ    -197.4673    XYZ      30.7800
       YYZ    -223.0268    XZZ      22.0163    YZZ    -156.9544
       ZZZ    -747.0987
    Hexadecapole Moments (Debye-Ang^3)
      XXXX    -984.4827   XXXY    -484.4027   XXYY    -485.3682
      XYYY    -500.2496   YYYY   -2565.9965   XXXZ    -418.6151
      XXYZ    -398.8227   XYYZ    -106.7343   YYYZ   -1583.5113
      XXZZ    -992.1292   XYZZ     -51.5868   YYZZ   -1493.7475
      XZZZ    -164.8547   YZZZ   -1790.3301   ZZZZ   -6116.3177
 -----------------------------------------------------------------
 Calculating analytic gradient of the SCF energy
 Gradient of CDS energy
            1           2           3           4           5           6
    1  -0.0015576   0.0001249   0.0007809  -0.0001083   0.0000410   0.0001098
    2  -0.0008229  -0.0000030   0.0011052  -0.0002420  -0.0000831  -0.0000159
    3   0.0022265  -0.0003175  -0.0016627   0.0001903   0.0000220  -0.0002624
            7           8           9          10          11          12
    1   0.0000510  -0.0003029  -0.0001674   0.0000914   0.0000426   0.0004657
    2  -0.0003039   0.0000243   0.0000108   0.0003387   0.0001379   0.0002280
    3  -0.0002069  -0.0001417  -0.0000958  -0.0003747  -0.0001482  -0.0000185
           13          14          15          16          17
    1   0.0001859   0.0003402   0.0001434  -0.0001912  -0.0000495
    2   0.0000914  -0.0001274  -0.0000461  -0.0002066  -0.0000855
    3  -0.0000062   0.0003585   0.0001420   0.0002115   0.0000838
 Gradient of SCF Energy
            1           2           3           4           5           6
    1   0.0064481  -0.0052116  -0.0029105   0.0000075   0.0001980   0.0006767
    2  -0.0083860   0.0041438   0.0028974  -0.0006219   0.0001219  -0.0012460
    3   0.0077495  -0.0063311   0.0047659  -0.0001613   0.0001617  -0.0022416
            7           8           9          10          11          12
    1  -0.0038730   0.0093013  -0.0073913   0.0004242   0.0017646  -0.0051457
    2  -0.0002128  -0.0028596   0.0023623  -0.0033010   0.0057509  -0.0033560
    3  -0.0009719   0.0081258  -0.0067895   0.0041451  -0.0061715   0.0010607
           13          14          15          16          17
    1   0.0073463  -0.0060100   0.0049779  -0.0017118   0.0011092
    2   0.0036990   0.0001253  -0.0013469   0.0040704  -0.0018408
    3  -0.0002631  -0.0035073   0.0046302  -0.0063060   0.0021046
 Max gradient component =       9.301E-03
 RMS gradient           =       4.340E-03
 Computing fast CPCM-SWIG gradient
 Updating gradient with PCM contributions...
 -- total gradient after adding PCM contribution --
---------------------------------------------------
  Atom         X              Y              Z     
---------------------------------------------------
   1       0.000001       0.000002      -0.000001
   2       0.000002      -0.000001      -0.000004
   3       0.000001      -0.000007      -0.000008
   4      -0.000002       0.000013      -0.000001
   5      -0.000001      -0.000003       0.000008
   6      -0.000007       0.000011       0.000021
   7      -0.000003      -0.000001      -0.000000
   8       0.000003      -0.000005      -0.000004
   9       0.000005      -0.000006      -0.000007
  10       0.000004      -0.000006      -0.000005
  11       0.000006      -0.000010      -0.000007
  12       0.000001      -0.000003      -0.000001
  13       0.000002      -0.000004      -0.000001
  14      -0.000002       0.000002       0.000002
  15      -0.000004       0.000005       0.000005
  16      -0.000004       0.000004       0.000001
  17      -0.000005       0.000008       0.000005
---------------------------------------------------
 Number of fixed atoms: 0
 Gradient time:  CPU 324.41 s  wall 47.56 s
 ######################################################
 ######################################################
 # Starting finite difference calculation for IDERIV  #
 Finite diff step size:  1.88973e-03 a.u.
 ----------------------------------------------------------------
             Standard Nuclear Orientation (Angstroms)
    I     Atom           X                Y                Z
 ----------------------------------------------------------------
    1      C      -0.7191402186     2.0448957642     4.0231699867
    2      H      -1.4580268831     2.4599965653     3.3352469222
    3      O      -1.1347987887     1.3968905963     5.0529047004
    4      H      -1.0853854203     0.2580659415     4.6273189032
    5      O      -0.4027132150     0.5053860992     2.9154369428
    6      O      -0.7731511566    -0.4350421755     3.7013598647
    7      C       0.6084382456     2.6835137113     4.0028404239
    8      C       0.8919488057     3.6074948117     3.0021957041
    9      H       0.1345503733     3.8483470080     2.2668357283
   10      C       2.1370828179     4.2168942270     2.9571673580
   11      H       2.3598071872     4.9374858780     2.1826387176
   12      C       3.0943657437     3.9004296314     3.9119432417
   13      H       4.0645910627     4.3774550585     3.8796403668
   14      C       2.8107085943     2.9765454455     4.9127269910
   15      H       3.5595736810     2.7357970539     5.6545137122
   16      C       1.5686031113     2.3660706888     4.9603427378
   17      H       1.3358794597     1.6493126947     5.7358770986
 ----------------------------------------------------------------
 Nuclear Repulsion Energy =         502.56025250 hartrees
 There are       37 alpha and       36 beta electrons
 Discretize the solute cavity surface with Lebedev spheres
	Using 110 Lebedev grid points for each H atom
	Using 194 Lebedev grid points for other atoms
	Atomic van der Waals radii will be scaled by 1.20
 Remove points where switching function is < 1.0e-08
 Keep 1300 surface tesserae and discard 1410 interior tesserae
 Molecular Surface Area = 157.206 Angst**2
 Requested basis set is 6-311++G(2df,2p)
 There are 122 shells and 410 basis functions
 A cutoff of  1.0D-12 yielded   6571 shell pairs
 There are     74641 function pairs (     93547 Cartesian)
 Smallest overlap matrix eigenvalue = 8.88E-07
 Linear dependence detected in AO basis
 Tighter screening thresholds may be required for diffuse basis sets
 Use S2THRESH > 14 and THRESH = 14 in case of SCF convergence issues
 Number of orthogonalized atomic orbitals = 409
 Maximum deviation from orthogonality = 1.487E-10
 Guess MOs from SCF MO coefficient file

 -----------------------------------------------------------------------
  General SCF calculation program by
  Eric Jon Sundstrom, Paul Horn, Yuezhi Mao, Dmitri Zuev, Alec White,
  David Stuck, Shaama M.S., Shane Yost, Joonho Lee, David Small,
  Daniel Levine, Susi Lehtola, Hugh Burton, Evgeny Epifanovsky,
  Bang C. Huynh
 -----------------------------------------------------------------------
 Exchange:     0.1500 Hartree-Fock + 1.0000 wB97M-V + LR-HF
 Correlation:  1.0000 wB97M-V
 Using SG-2 standard quadrature grid
 Nonlocal Correlation:  VV10 with C = 0.0100 and b = 6.00 and scale = 1.00000
 Grid used for NLC:  SG-1 standard quadrature
 
 Citation of the SMD model:
 Marenich, A.V.; Cramer, C.J.; Truhlar, D.G.
 J. Phys. Chem. B 2009, 113, 6378-6396.
 iSolventCode=           1
 Solvent: water                                                           
 
 vradii
            1           2           3           4           5           6
    1   1.8500000   1.2000000   1.5200000   1.2000000   1.5200000   1.5200000
            7           8           9          10          11          12
    1   1.8500000   1.8500000   1.2000000   1.8500000   1.2000000   1.8500000
           13          14          15          16          17
    1   1.2000000   1.8500000   1.2000000   1.8500000   1.2000000
 -------------------------------------------------------
 OpenMP BLAS3 based DFT computing Module                
 Release: version 1.0, May 2013, Q-Chem Inc. Pittsburgh 
 -------------------------------------------------------
 A unrestricted SCF calculation will be
 performed using Roothaan-Hall, DIIS, GDM
 SCF converges when RMS gradient is below 1.0e-07
 ---------------------------------------
  Cycle       Energy         DIIS error
 ---------------------------------------
    1    -496.4640341650      1.28e-04  Roothaan Step
 ---------------------------------------
  Cycle       Energy         DIIS error
 ---------------------------------------
    1    -496.4783539261      1.45e-04  
    2    -496.4801026057      1.14e-04  Done DIIS. Switching to GDM
 ---------------------------------------
  Cycle       Energy        RMS Gradient
 ---------------------------------------
    1    -496.4801026057      5.21e-03   Normal BFGS step
    2    -496.4801441879      7.76e-03   Normal BFGS step
    3    -496.4809391104      8.65e-04   Normal BFGS step
    4    -496.4809459188      9.79e-04   Normal BFGS step
    5    -496.4809549828      2.81e-04   Normal BFGS step
    6    -496.4809551591      2.52e-04   Normal BFGS step
    7    -496.4809556603      5.70e-05   Normal BFGS step
    8    -496.4809556744      3.58e-05   Normal BFGS step
    9    -496.4809556805      8.99e-06   Normal BFGS step
   10    -496.4809556812      3.39e-06   Normal BFGS step
   11    -496.4809556813      2.71e-06   Normal BFGS step
   12    -496.4809556814      1.93e-06   Normal BFGS step
   13    -496.4809556814      9.52e-07   Normal BFGS step
   14    -496.4809556814      6.44e-07   Normal BFGS step
   15    -496.4809556814      3.21e-07   Normal BFGS step
   16    -496.4809556813      1.39e-07   Normal BFGS step
   17    -496.4809556814      7.89e-08  Convergence criterion met
 ---------------------------------------
 SCF time:   CPU 1953.08s  wall 247.00s 
<S^2> =          0.755792097
(3)  G-ENP(liq) elect-nuc-pol free energy of system     -496.480955681 a.u.
(4)  G-CDS(liq) cavity-dispersion-solvent structure 
     free energy                                                3.3784 kcal/mol
(6)  G-S(liq) free energy of system                     -496.475571889 a.u.
 SCF   energy in the final basis set =     -496.4755718892
 Total energy in the final basis set =     -496.4755718892
 
 --------------------------------------------------------------
 
                    Orbital Energies (a.u.)
 --------------------------------------------------------------
 
 Alpha MOs
 -- Occupied --
-19.4495 -19.4472 -19.3409 -10.4581 -10.3597 -10.3544 -10.3531 -10.3516
-10.3487 -10.3486  -1.3625  -1.1842  -0.9991  -0.9750  -0.8952  -0.8784
 -0.7809  -0.7318  -0.7088  -0.6972  -0.6465  -0.6261  -0.6196  -0.5939
 -0.5737  -0.5433  -0.5421  -0.5281  -0.5016  -0.4752  -0.4592  -0.4444
 -0.4302  -0.4159  -0.3836  -0.3541  -0.3482
 -- Virtual --
  0.0155   0.0252   0.0362   0.0391   0.0540   0.0542   0.0566   0.0700
  0.0848   0.0870   0.1013   0.1052   0.1095   0.1219   0.1365   0.1433
  0.1472   0.1537   0.1549   0.1594   0.1613   0.1696   0.1737   0.1744
  0.1825   0.1846   0.1868   0.1999   0.2034   0.2157   0.2190   0.2196
  0.2257   0.2408   0.2545   0.2640   0.2710   0.2718   0.2731   0.2795
  0.2880   0.2939   0.3036   0.3126   0.3224   0.3311   0.3430   0.3463
  0.3512   0.3521   0.3561   0.3710   0.3782   0.3867   0.3908   0.4048
  0.4145   0.4181   0.4291   0.4467   0.4566   0.4739   0.4788   0.5251
  0.5524   0.5629   0.5710   0.5883   0.5980   0.6014   0.6071   0.6140
  0.6204   0.6229   0.6307   0.6338   0.6527   0.6741   0.6936   0.6984
  0.7162   0.7210   0.7271   0.7327   0.7381   0.7453   0.7482   0.7568
  0.7619   0.7733   0.7786   0.7835   0.8006   0.8299   0.8364   0.8374
  0.8485   0.8578   0.8765   0.8907   0.8942   0.8990   0.9203   0.9404
  0.9618   0.9655   1.0209   1.0361   1.0387   1.0536   1.0723   1.0857
  1.0996   1.1020   1.1093   1.1206   1.1294   1.1432   1.1613   1.1760
  1.1909   1.1986   1.2072   1.2261   1.2332   1.2417   1.2522   1.2653
  1.2702   1.2750   1.2967   1.3120   1.3504   1.3717   1.3758   1.3946
  1.3999   1.4043   1.4089   1.4321   1.4403   1.4503   1.4634   1.4656
  1.4774   1.4993   1.5184   1.5329   1.5606   1.5638   1.5785   1.5819
  1.6043   1.6205   1.6735   1.6956   1.7121   1.7262   1.7524   1.7750
  1.7855   1.8056   1.8098   1.8314   1.8852   1.9016   1.9576   1.9632
  2.0269   2.0642   2.0848   2.0912   2.1032   2.1087   2.1570   2.2404
  2.2564   2.2986   2.3073   2.4110   2.4893   2.5409   2.5903   2.5973
  2.6249   2.6506   2.6673   2.6876   2.7198   2.7345   2.7691   2.7896
  2.7965   2.8082   2.8239   2.8291   2.8396   2.8640   2.8651   2.8893
  2.8948   2.9075   2.9095   2.9287   2.9444   2.9461   2.9635   2.9690
  2.9955   3.0093   3.0184   3.0489   3.0518   3.1009   3.1373   3.1621
  3.1664   3.2044   3.2066   3.2192   3.2315   3.2458   3.2561   3.2697
  3.2810   3.2856   3.3082   3.3160   3.3373   3.3615   3.3857   3.3901
  3.4197   3.4257   3.4491   3.4550   3.4846   3.4883   3.5146   3.5305
  3.5378   3.5514   3.5573   3.5784   3.5988   3.6143   3.6282   3.6421
  3.6671   3.6928   3.7270   3.7545   3.7796   3.8044   3.8234   3.8285
  3.8367   3.8493   3.8774   3.8816   3.8995   3.9090   3.9326   3.9451
  3.9529   3.9687   3.9967   4.0351   4.0740   4.0895   4.1193   4.1314
  4.1469   4.1600   4.1915   4.2223   4.2276   4.2470   4.3207   4.3464
  4.3645   4.4291   4.4399   4.4522   4.4599   4.4939   4.5182   4.5376
  4.5428   4.5561   4.5649   4.5759   4.5845   4.5983   4.6442   4.6892
  4.7008   4.7119   4.7371   4.7700   4.7929   4.8250   4.8299   4.8886
  4.9055   4.9943   5.0435   5.0578   5.0640   5.1411   5.1438   5.1611
  5.1797   5.1895   5.2039   5.2198   5.2314   5.2378   5.2733   5.3044
  5.3442   5.3474   5.3659   5.3766   5.4264   5.4680   5.5273   5.5617
  5.5795   5.6046   5.6286   5.7285   5.7598   5.7979   5.8379   5.8772
  5.8954   5.9435   6.1820   6.2820   6.4725   6.4991   6.5406   6.6833
  6.7016   6.8207   6.9408   7.0115   7.0701   7.0880   7.1184   7.1499
  7.2799   7.3553   7.4047   7.4979   7.5106   7.5519   7.7882   7.9952
  8.0410   8.1371  24.2088  24.7990  24.8139  24.9577  25.0699  25.0854
 25.5335  50.4776  50.5085  50.7283
 
 Beta MOs
 -- Occupied --
-19.4331 -19.4329 -19.3409 -10.4584 -10.3595 -10.3545 -10.3531 -10.3517
-10.3487 -10.3486  -1.3342  -1.1834  -0.9977  -0.9395  -0.8916  -0.8784
 -0.7794  -0.7314  -0.6990  -0.6964  -0.6398  -0.6056  -0.5953  -0.5741
 -0.5495  -0.5424  -0.5303  -0.5257  -0.4989  -0.4696  -0.4584  -0.4443
 -0.4164  -0.3943  -0.3542  -0.3445
 -- Virtual --
 -0.0331   0.0184   0.0253   0.0362   0.0392   0.0541   0.0543   0.0568
  0.0702   0.0853   0.0872   0.1021   0.1057   0.1099   0.1225   0.1369
  0.1443   0.1477   0.1542   0.1555   0.1597   0.1617   0.1700   0.1739
  0.1757   0.1829   0.1853   0.1870   0.2010   0.2049   0.2158   0.2195
  0.2202   0.2291   0.2431   0.2552   0.2656   0.2717   0.2731   0.2739
  0.2799   0.2888   0.2957   0.3066   0.3194   0.3232   0.3313   0.3441
  0.3475   0.3520   0.3529   0.3566   0.3742   0.3784   0.3877   0.3937
  0.4081   0.4155   0.4184   0.4293   0.4483   0.4577   0.4742   0.4791
  0.5256   0.5524   0.5632   0.5711   0.5890   0.5980   0.6016   0.6074
  0.6141   0.6209   0.6235   0.6313   0.6342   0.6528   0.6742   0.6940
  0.6985   0.7161   0.7209   0.7272   0.7329   0.7383   0.7460   0.7486
  0.7574   0.7619   0.7735   0.7794   0.7845   0.8005   0.8301   0.8367
  0.8380   0.8487   0.8579   0.8768   0.8910   0.8944   0.8992   0.9224
  0.9411   0.9626   0.9663   1.0231   1.0376   1.0431   1.0544   1.0739
  1.0880   1.1006   1.1041   1.1134   1.1281   1.1382   1.1490   1.1627
  1.1804   1.1935   1.2016   1.2117   1.2270   1.2377   1.2442   1.2546
  1.2672   1.2757   1.2926   1.2979   1.3134   1.3512   1.3734   1.3771
  1.3960   1.4008   1.4062   1.4099   1.4382   1.4411   1.4551   1.4642
  1.4680   1.4780   1.5032   1.5198   1.5370   1.5643   1.5661   1.5799
  1.5836   1.6205   1.6290   1.6741   1.6982   1.7208   1.7340   1.7551
  1.7795   1.7859   1.8098   1.8118   1.8324   1.8928   1.9026   1.9635
  1.9709   2.0327   2.0665   2.0853   2.0934   2.1063   2.1126   2.1635
  2.2477   2.2642   2.3142   2.3190   2.4143   2.4926   2.5442   2.5917
  2.5997   2.6252   2.6513   2.6686   2.6943   2.7200   2.7352   2.7690
  2.7900   2.7966   2.8083   2.8239   2.8291   2.8396   2.8643   2.8651
  2.8892   2.8947   2.9074   2.9094   2.9285   2.9443   2.9460   2.9635
  2.9690   2.9954   3.0089   3.0183   3.0487   3.0515   3.1005   3.1366
  3.1618   3.1662   3.2040   3.2066   3.2190   3.2314   3.2458   3.2563
  3.2701   3.2807   3.2854   3.3079   3.3159   3.3373   3.3611   3.3856
  3.3908   3.4196   3.4255   3.4490   3.4548   3.4845   3.4880   3.5146
  3.5304   3.5375   3.5513   3.5570   3.5780   3.5986   3.6141   3.6280
  3.6421   3.6670   3.6925   3.7268   3.7539   3.7792   3.8042   3.8233
  3.8287   3.8367   3.8480   3.8771   3.8821   3.8994   3.9089   3.9327
  3.9452   3.9530   3.9686   3.9964   4.0349   4.0733   4.0894   4.1192
  4.1313   4.1467   4.1598   4.1915   4.2219   4.2274   4.2468   4.3208
  4.3463   4.3648   4.4293   4.4401   4.4521   4.4599   4.4964   4.5183
  4.5388   4.5438   4.5642   4.5759   4.5821   4.5907   4.6025   4.6450
  4.7007   4.7167   4.7251   4.7385   4.7835   4.7978   4.8274   4.8309
  4.8889   4.9168   5.0000   5.0581   5.0695   5.1289   5.1445   5.1702
  5.1793   5.1962   5.2162   5.2201   5.2422   5.2480   5.2732   5.3086
  5.3187   5.3493   5.3562   5.3716   5.3866   5.4364   5.4737   5.5338
  5.5655   5.5867   5.6115   5.6563   5.7499   5.7598   5.7981   5.8379
  5.8770   5.8953   5.9436   6.1836   6.2819   6.4793   6.5003   6.5907
  6.6836   6.7138   6.8721   7.0033   7.0382   7.1128   7.1435   7.1567
  7.1671   7.3196   7.4017   7.4264   7.5038   7.5291   7.5595   7.7970
  7.9985   8.0534   8.1571  24.2088  24.7990  24.8139  24.9575  25.0698
 25.0853  25.5335  50.4891  50.5206  50.7285
 --------------------------------------------------------------
 
          Ground-State Mulliken Net Atomic Charges

     Atom                 Charge (a.u.)    Spin (a.u.)
  --------------------------------------------------------
      1 C                    -0.541897      -0.041761
      2 H                     0.327256       0.004340
      3 O                    -0.463621       0.001516
      4 H                     0.371025      -0.009316
      5 O                    -0.050638       0.555240
      6 O                    -0.129316       0.471081
      7 C                     0.874141       0.017477
      8 C                    -0.912104       0.001989
      9 H                     0.265978       0.000698
     10 C                    -0.371407      -0.000480
     11 H                     0.285459      -0.000249
     12 C                    -0.315431       0.000377
     13 H                     0.281169       0.000202
     14 C                    -0.405849      -0.000532
     15 H                     0.283262      -0.000151
     16 C                     0.224447      -0.000774
     17 H                     0.277525       0.000343
  --------------------------------------------------------
  Sum of atomic charges =     0.000000
  Sum of spin   charges =     1.000000

 -----------------------------------------------------------------
                    Cartesian Multipole Moments
 -----------------------------------------------------------------
    Charge (ESU x 10^10)
                 0.0000
    Dipole Moment (Debye)
         X       1.7357      Y       2.8483      Z      -0.9927
       Tot       3.4801
    Quadrupole Moments (Debye-Ang)
        XX     -50.9451     XY       6.6523     YY     -47.3398
        XZ      11.3418     YZ       2.4998     ZZ     -66.7592
    Octopole Moments (Debye-Ang^2)
       XXX    -111.9500    XXY    -102.8779    XYY     -18.9533
       YYY    -367.3149    XXZ    -197.4473    XYZ      30.8734
       YYZ    -222.9682    XZZ      22.1664    YZZ    -156.9263
       ZZZ    -747.1768
    Hexadecapole Moments (Debye-Ang^3)
      XXXX    -984.3065   XXXY    -484.2530   XXYY    -485.2159
      XYYY    -499.9729   YYYY   -2565.5550   XXXZ    -418.4633
      XXYZ    -398.7105   XYYZ    -106.4457   YYYZ   -1583.1981
      XXZZ    -992.0379   XYZZ     -51.1929   YYZZ   -1493.5142
      XZZZ    -164.1836   YZZZ   -1790.2252   ZZZZ   -6116.8030
 -----------------------------------------------------------------
 Calculating analytic gradient of the SCF energy
 Gradient of CDS energy
            1           2           3           4           5           6
    1  -0.0015593   0.0001236   0.0007851  -0.0001084   0.0000409   0.0001097
    2  -0.0008265  -0.0000027   0.0011089  -0.0002420  -0.0000830  -0.0000158
    3   0.0022330  -0.0003180  -0.0016687   0.0001905   0.0000220  -0.0002625
            7           8           9          10          11          12
    1   0.0000503  -0.0003029  -0.0001673   0.0000914   0.0000426   0.0004657
    2  -0.0003044   0.0000243   0.0000108   0.0003387   0.0001379   0.0002280
    3  -0.0002071  -0.0001416  -0.0000958  -0.0003747  -0.0001482  -0.0000185
           13          14          15          16          17
    1   0.0001859   0.0003402   0.0001434  -0.0001912  -0.0000496
    2   0.0000914  -0.0001275  -0.0000461  -0.0002065  -0.0000855
    3  -0.0000062   0.0003585   0.0001420   0.0002115   0.0000838
 Gradient of SCF Energy
            1           2           3           4           5           6
    1   0.0075188  -0.0055671  -0.0031363   0.0000108   0.0001495   0.0006853
    2  -0.0082632   0.0042515   0.0028289  -0.0006866   0.0001265  -0.0012235
    3   0.0078922  -0.0065341   0.0048874  -0.0001956   0.0001438  -0.0022001
            7           8           9          10          11          12
    1  -0.0042717   0.0092610  -0.0073907   0.0004313   0.0017691  -0.0051458
    2  -0.0003054  -0.0028883   0.0023683  -0.0033035   0.0057593  -0.0033542
    3  -0.0010271   0.0081536  -0.0067945   0.0041473  -0.0061801   0.0010605
           13          14          15          16          17
    1   0.0073588  -0.0060090   0.0049856  -0.0017602   0.0011107
    2   0.0037056   0.0001271  -0.0013498   0.0040512  -0.0018439
    3  -0.0002631  -0.0035176   0.0046377  -0.0063221   0.0021117
 Max gradient component =       9.261E-03
 RMS gradient           =       4.404E-03
 Computing fast CPCM-SWIG gradient
 Updating gradient with PCM contributions...
 -- total gradient after adding PCM contribution --
---------------------------------------------------
  Atom         X              Y              Z     
---------------------------------------------------
   1       0.001075       0.000126       0.000149
   2      -0.000364       0.000117      -0.000222
   3      -0.000217      -0.000074       0.000114
   4      -0.000003      -0.000053      -0.000031
   5      -0.000046       0.000001      -0.000010
   6       0.000003       0.000031       0.000059
   7      -0.000399      -0.000105      -0.000040
   8      -0.000012      -0.000028       0.000016
   9       0.000005      -0.000003      -0.000010
  10       0.000016      -0.000006      -0.000003
  11       0.000008      -0.000008      -0.000008
  12       0.000005       0.000001      -0.000002
  13       0.000002      -0.000003      -0.000001
  14       0.000002       0.000008      -0.000010
  15      -0.000004       0.000004       0.000006
  16      -0.000066      -0.000014      -0.000014
  17      -0.000005       0.000007       0.000009
---------------------------------------------------
 Number of fixed atoms: 0
 Gradient time:  CPU 325.95 s  wall 46.44 s
 ----------------------------------------------------------------
             Standard Nuclear Orientation (Angstroms)
    I     Atom           X                Y                Z
 ----------------------------------------------------------------
    1      C      -0.7211402186     2.0448957642     4.0231699867
    2      H      -1.4580268831     2.4599965653     3.3352469222
    3      O      -1.1347987887     1.3968905963     5.0529047004
    4      H      -1.0853854203     0.2580659415     4.6273189032
    5      O      -0.4027132150     0.5053860992     2.9154369428
    6      O      -0.7731511566    -0.4350421755     3.7013598647
    7      C       0.6084382456     2.6835137113     4.0028404239
    8      C       0.8919488057     3.6074948117     3.0021957041
    9      H       0.1345503733     3.8483470080     2.2668357283
   10      C       2.1370828179     4.2168942270     2.9571673580
   11      H       2.3598071872     4.9374858780     2.1826387176
   12      C       3.0943657437     3.9004296314     3.9119432417
   13      H       4.0645910627     4.3774550585     3.8796403668
   14      C       2.8107085943     2.9765454455     4.9127269910
   15      H       3.5595736810     2.7357970539     5.6545137122
   16      C       1.5686031113     2.3660706888     4.9603427378
   17      H       1.3358794597     1.6493126947     5.7358770986
 ----------------------------------------------------------------
 Nuclear Repulsion Energy =         502.53836468 hartrees
 There are       37 alpha and       36 beta electrons
 Discretize the solute cavity surface with Lebedev spheres
	Using 110 Lebedev grid points for each H atom
	Using 194 Lebedev grid points for other atoms
	Atomic van der Waals radii will be scaled by 1.20
 Remove points where switching function is < 1.0e-08
 Keep 1298 surface tesserae and discard 1412 interior tesserae
 Molecular Surface Area = 157.210 Angst**2
 Requested basis set is 6-311++G(2df,2p)
 There are 122 shells and 410 basis functions
 A cutoff of  1.0D-12 yielded   6571 shell pairs
 There are     74641 function pairs (     93547 Cartesian)
 Smallest overlap matrix eigenvalue = 8.88E-07
 Linear dependence detected in AO basis
 Tighter screening thresholds may be required for diffuse basis sets
 Use S2THRESH > 14 and THRESH = 14 in case of SCF convergence issues
 Number of orthogonalized atomic orbitals = 409
 Maximum deviation from orthogonality = 5.089E-11
 Guess MOs from SCF MO coefficient file

 -----------------------------------------------------------------------
  General SCF calculation program by
  Eric Jon Sundstrom, Paul Horn, Yuezhi Mao, Dmitri Zuev, Alec White,
  David Stuck, Shaama M.S., Shane Yost, Joonho Lee, David Small,
  Daniel Levine, Susi Lehtola, Hugh Burton, Evgeny Epifanovsky,
  Bang C. Huynh
 -----------------------------------------------------------------------
 Exchange:     0.1500 Hartree-Fock + 1.0000 wB97M-V + LR-HF
 Correlation:  1.0000 wB97M-V
 Using SG-2 standard quadrature grid
 Nonlocal Correlation:  VV10 with C = 0.0100 and b = 6.00 and scale = 1.00000
 Grid used for NLC:  SG-1 standard quadrature
 
 Citation of the SMD model:
 Marenich, A.V.; Cramer, C.J.; Truhlar, D.G.
 J. Phys. Chem. B 2009, 113, 6378-6396.
 iSolventCode=           1
 Solvent: water                                                           
 
 vradii
            1           2           3           4           5           6
    1   1.8500000   1.2000000   1.5200000   1.2000000   1.5200000   1.5200000
            7           8           9          10          11          12
    1   1.8500000   1.8500000   1.2000000   1.8500000   1.2000000   1.8500000
           13          14          15          16          17
    1   1.2000000   1.8500000   1.2000000   1.8500000   1.2000000
 -------------------------------------------------------
 OpenMP BLAS3 based DFT computing Module                
 Release: version 1.0, May 2013, Q-Chem Inc. Pittsburgh 
 -------------------------------------------------------
 A unrestricted SCF calculation will be
 performed using Roothaan-Hall, DIIS, GDM
 SCF converges when RMS gradient is below 1.0e-07
 ---------------------------------------
  Cycle       Energy         DIIS error
 ---------------------------------------
    1    -496.4640396304      1.28e-04  Roothaan Step
 ---------------------------------------
  Cycle       Energy         DIIS error
 ---------------------------------------
    1    -496.4783610111      1.45e-04  
    2    -496.4801158252      1.14e-04  Done DIIS. Switching to GDM
 ---------------------------------------
  Cycle       Energy        RMS Gradient
 ---------------------------------------
    1    -496.4801158252      5.18e-03   Normal BFGS step
    2    -496.4801639069      7.67e-03   Normal BFGS step
    3    -496.4809450481      8.43e-04   Normal BFGS step
    4    -496.4809516900      9.91e-04   Normal BFGS step
    5    -496.4809608773      2.73e-04   Normal BFGS step
    6    -496.4809610506      2.53e-04   Normal BFGS step
    7    -496.4809615489      5.55e-05   Normal BFGS step
    8    -496.4809615643      3.53e-05   Normal BFGS step
    9    -496.4809615714      1.75e-05   Normal BFGS step
   10    -496.4809615729      1.28e-05   Normal BFGS step
   11    -496.4809615735      7.63e-06   Normal BFGS step
   12    -496.4809615737      3.52e-06   Normal BFGS step
   13    -496.4809615738      1.43e-06   Normal BFGS step
   14    -496.4809615739      9.70e-07   Normal BFGS step
   15    -496.4809615739      4.59e-07   Normal BFGS step
   16    -496.4809615738      1.63e-07   Normal BFGS step
   17    -496.4809615738      1.08e-07   Normal BFGS step
   18    -496.4809615738      2.04e-08  Convergence criterion met
 ---------------------------------------
 SCF time:   CPU 2038.07s  wall 259.00s 
<S^2> =          0.755789417
(3)  G-ENP(liq) elect-nuc-pol free energy of system     -496.480961574 a.u.
(4)  G-CDS(liq) cavity-dispersion-solvent structure 
     free energy                                                3.3821 kcal/mol
(6)  G-S(liq) free energy of system                     -496.475571895 a.u.
 SCF   energy in the final basis set =     -496.4755718949
 Total energy in the final basis set =     -496.4755718949
 
 --------------------------------------------------------------
 
                    Orbital Energies (a.u.)
 --------------------------------------------------------------
 
 Alpha MOs
 -- Occupied --
-19.4495 -19.4472 -19.3411 -10.4581 -10.3597 -10.3543 -10.3530 -10.3515
-10.3487 -10.3486  -1.3625  -1.1846  -0.9990  -0.9750  -0.8950  -0.8783
 -0.7808  -0.7317  -0.7089  -0.6973  -0.6465  -0.6261  -0.6196  -0.5940
 -0.5736  -0.5435  -0.5421  -0.5281  -0.5016  -0.4753  -0.4592  -0.4443
 -0.4302  -0.4159  -0.3836  -0.3541  -0.3482
 -- Virtual --
  0.0157   0.0252   0.0362   0.0391   0.0540   0.0542   0.0567   0.0699
  0.0848   0.0870   0.1013   0.1051   0.1094   0.1219   0.1365   0.1433
  0.1472   0.1537   0.1550   0.1594   0.1613   0.1696   0.1737   0.1744
  0.1825   0.1846   0.1868   0.1999   0.2034   0.2157   0.2189   0.2196
  0.2257   0.2408   0.2544   0.2640   0.2711   0.2717   0.2731   0.2795
  0.2880   0.2939   0.3036   0.3126   0.3225   0.3311   0.3430   0.3463
  0.3512   0.3521   0.3561   0.3710   0.3780   0.3866   0.3908   0.4048
  0.4145   0.4181   0.4291   0.4466   0.4565   0.4738   0.4788   0.5250
  0.5526   0.5629   0.5709   0.5883   0.5980   0.6014   0.6071   0.6140
  0.6205   0.6229   0.6308   0.6338   0.6527   0.6742   0.6936   0.6985
  0.7163   0.7211   0.7271   0.7327   0.7382   0.7454   0.7482   0.7568
  0.7619   0.7733   0.7786   0.7835   0.8006   0.8299   0.8364   0.8374
  0.8485   0.8578   0.8765   0.8906   0.8942   0.8991   0.9203   0.9404
  0.9616   0.9655   1.0209   1.0361   1.0386   1.0536   1.0724   1.0857
  1.0997   1.1019   1.1095   1.1206   1.1294   1.1432   1.1613   1.1760
  1.1908   1.1985   1.2072   1.2260   1.2332   1.2416   1.2522   1.2652
  1.2702   1.2748   1.2968   1.3120   1.3504   1.3716   1.3756   1.3946
  1.3998   1.4043   1.4088   1.4321   1.4403   1.4503   1.4634   1.4656
  1.4773   1.4994   1.5184   1.5329   1.5607   1.5638   1.5786   1.5821
  1.6043   1.6204   1.6734   1.6958   1.7121   1.7262   1.7523   1.7750
  1.7854   1.8056   1.8098   1.8315   1.8850   1.9013   1.9576   1.9630
  2.0268   2.0641   2.0848   2.0910   2.1032   2.1088   2.1570   2.2403
  2.2563   2.2987   2.3072   2.4113   2.4893   2.5411   2.5903   2.5973
  2.6248   2.6504   2.6671   2.6876   2.7195   2.7342   2.7684   2.7893
  2.7965   2.8083   2.8239   2.8291   2.8396   2.8642   2.8652   2.8895
  2.8948   2.9075   2.9096   2.9288   2.9443   2.9460   2.9636   2.9691
  2.9955   3.0088   3.0182   3.0487   3.0517   3.1008   3.1380   3.1622
  3.1665   3.2044   3.2066   3.2191   3.2316   3.2458   3.2561   3.2694
  3.2807   3.2856   3.3083   3.3158   3.3375   3.3614   3.3858   3.3903
  3.4198   3.4255   3.4493   3.4547   3.4847   3.4883   3.5148   3.5306
  3.5375   3.5515   3.5573   3.5782   3.5985   3.6142   3.6281   3.6422
  3.6668   3.6926   3.7272   3.7549   3.7802   3.8043   3.8230   3.8284
  3.8366   3.8492   3.8771   3.8815   3.8998   3.9088   3.9324   3.9452
  3.9527   3.9684   3.9967   4.0349   4.0739   4.0896   4.1192   4.1310
  4.1468   4.1600   4.1916   4.2223   4.2276   4.2460   4.3211   4.3466
  4.3647   4.4290   4.4401   4.4513   4.4596   4.4937   4.5182   4.5375
  4.5425   4.5560   4.5649   4.5759   4.5845   4.5983   4.6445   4.6890
  4.7006   4.7116   4.7368   4.7699   4.7925   4.8249   4.8298   4.8884
  4.9054   4.9944   5.0433   5.0578   5.0640   5.1411   5.1438   5.1611
  5.1797   5.1893   5.2037   5.2198   5.2314   5.2378   5.2732   5.3043
  5.3441   5.3474   5.3659   5.3765   5.4264   5.4685   5.5271   5.5618
  5.5796   5.6045   5.6285   5.7285   5.7617   5.7974   5.8378   5.8775
  5.8954   5.9435   6.1830   6.2818   6.4728   6.5002   6.5406   6.6835
  6.7016   6.8207   6.9409   7.0114   7.0704   7.0880   7.1183   7.1498
  7.2797   7.3554   7.4047   7.4981   7.5105   7.5518   7.7883   7.9953
  8.0410   8.1370  24.2086  24.7990  24.8138  24.9587  25.0689  25.0852
 25.5331  50.4775  50.5084  50.7288
 
 Beta MOs
 -- Occupied --
-19.4331 -19.4329 -19.3411 -10.4584 -10.3595 -10.3544 -10.3531 -10.3516
-10.3487 -10.3486  -1.3342  -1.1837  -0.9976  -0.9395  -0.8914  -0.8783
 -0.7793  -0.7313  -0.6991  -0.6965  -0.6398  -0.6056  -0.5953  -0.5740
 -0.5495  -0.5424  -0.5302  -0.5257  -0.4988  -0.4698  -0.4585  -0.4443
 -0.4163  -0.3943  -0.3542  -0.3445
 -- Virtual --
 -0.0331   0.0186   0.0253   0.0362   0.0392   0.0541   0.0544   0.0569
  0.0702   0.0853   0.0872   0.1021   0.1057   0.1098   0.1225   0.1369
  0.1442   0.1477   0.1541   0.1555   0.1597   0.1617   0.1700   0.1739
  0.1757   0.1829   0.1852   0.1870   0.2010   0.2049   0.2158   0.2195
  0.2202   0.2291   0.2431   0.2551   0.2656   0.2717   0.2731   0.2739
  0.2799   0.2888   0.2957   0.3066   0.3194   0.3233   0.3313   0.3441
  0.3475   0.3520   0.3529   0.3566   0.3742   0.3783   0.3877   0.3937
  0.4081   0.4155   0.4184   0.4293   0.4481   0.4576   0.4742   0.4792
  0.5255   0.5526   0.5632   0.5710   0.5890   0.5981   0.6017   0.6074
  0.6141   0.6210   0.6235   0.6314   0.6342   0.6528   0.6743   0.6940
  0.6985   0.7162   0.7210   0.7272   0.7328   0.7383   0.7461   0.7487
  0.7574   0.7619   0.7734   0.7793   0.7845   0.8005   0.8301   0.8367
  0.8380   0.8487   0.8579   0.8768   0.8910   0.8944   0.8992   0.9224
  0.9411   0.9625   0.9663   1.0230   1.0376   1.0430   1.0543   1.0740
  1.0881   1.1007   1.1040   1.1136   1.1281   1.1382   1.1490   1.1627
  1.1804   1.1935   1.2014   1.2116   1.2269   1.2376   1.2441   1.2546
  1.2671   1.2756   1.2926   1.2979   1.3134   1.3512   1.3734   1.3768
  1.3959   1.4007   1.4062   1.4098   1.4381   1.4411   1.4551   1.4641
  1.4679   1.4779   1.5033   1.5198   1.5369   1.5643   1.5662   1.5800
  1.5837   1.6206   1.6290   1.6741   1.6985   1.7207   1.7339   1.7550
  1.7795   1.7858   1.8098   1.8118   1.8324   1.8926   1.9024   1.9635
  1.9708   2.0326   2.0665   2.0853   2.0932   2.1063   2.1127   2.1635
  2.2475   2.2641   2.3141   2.3191   2.4145   2.4927   2.5444   2.5917
  2.5997   2.6252   2.6511   2.6685   2.6942   2.7197   2.7348   2.7684
  2.7898   2.7965   2.8083   2.8239   2.8291   2.8397   2.8645   2.8651
  2.8893   2.8947   2.9074   2.9094   2.9286   2.9442   2.9459   2.9635
  2.9690   2.9953   3.0083   3.0181   3.0485   3.0515   3.1003   3.1372
  3.1619   3.1664   3.2040   3.2066   3.2190   3.2315   3.2458   3.2562
  3.2697   3.2804   3.2854   3.3079   3.3157   3.3374   3.3611   3.3857
  3.3910   3.4197   3.4253   3.4492   3.4546   3.4846   3.4881   3.5148
  3.5305   3.5372   3.5514   3.5571   3.5778   3.5983   3.6139   3.6280
  3.6421   3.6667   3.6923   3.7270   3.7543   3.7798   3.8040   3.8229
  3.8286   3.8367   3.8479   3.8768   3.8820   3.8997   3.9087   3.9325
  3.9452   3.9529   3.9683   3.9964   4.0347   4.0732   4.0895   4.1191
  4.1309   4.1466   4.1598   4.1916   4.2219   4.2275   4.2457   4.3212
  4.3466   4.3649   4.4293   4.4404   4.4511   4.4596   4.4962   4.5183
  4.5386   4.5434   4.5641   4.5759   4.5821   4.5908   4.6024   4.6453
  4.7002   4.7166   4.7250   4.7383   4.7834   4.7974   4.8272   4.8308
  4.8887   4.9167   5.0001   5.0580   5.0694   5.1288   5.1444   5.1702
  5.1790   5.1960   5.2161   5.2200   5.2422   5.2480   5.2734   5.3086
  5.3187   5.3493   5.3559   5.3716   5.3866   5.4364   5.4742   5.5335
  5.5657   5.5867   5.6114   5.6562   5.7499   5.7617   5.7975   5.8378
  5.8773   5.8954   5.9436   6.1847   6.2817   6.4797   6.5012   6.5907
  6.6838   6.7138   6.8721   7.0034   7.0383   7.1129   7.1435   7.1566
  7.1670   7.3193   7.4018   7.4264   7.5039   7.5289   7.5595   7.7971
  7.9985   8.0534   8.1570  24.2086  24.7990  24.8138  24.9585  25.0688
 25.0852  25.5332  50.4891  50.5205  50.7290
 --------------------------------------------------------------
 
          Ground-State Mulliken Net Atomic Charges

     Atom                 Charge (a.u.)    Spin (a.u.)
  --------------------------------------------------------
      1 C                    -0.539734      -0.041600
      2 H                     0.327635       0.004326
      3 O                    -0.462823       0.001504
      4 H                     0.370901      -0.009327
      5 O                    -0.050717       0.555339
      6 O                    -0.129589       0.470963
      7 C                     0.871875       0.017312
      8 C                    -0.912326       0.002022
      9 H                     0.265971       0.000694
     10 C                    -0.371479      -0.000489
     11 H                     0.285465      -0.000248
     12 C                    -0.315840       0.000410
     13 H                     0.281132       0.000201
     14 C                    -0.405766      -0.000553
     15 H                     0.283271      -0.000151
     16 C                     0.224475      -0.000745
     17 H                     0.277548       0.000343
  --------------------------------------------------------
  Sum of atomic charges =     0.000000
  Sum of spin   charges =     1.000000

 -----------------------------------------------------------------
                    Cartesian Multipole Moments
 -----------------------------------------------------------------
    Charge (ESU x 10^10)
                 0.0000
    Dipole Moment (Debye)
         X       1.7187      Y       2.8429      Z      -0.9899
       Tot       3.4664
    Quadrupole Moments (Debye-Ang)
        XX     -50.9560     XY       6.6053     YY     -47.3732
        XZ      11.2719     YZ       2.4835     ZZ     -66.7356
    Octopole Moments (Debye-Ang^2)
       XXX    -112.0264    XXY    -102.9378    XYY     -19.1025
       YYY    -367.4900    XXZ    -197.4872    XYZ      30.6867
       YYZ    -223.0852    XZZ      21.8664    YZZ    -156.9823
       ZZZ    -747.0205
    Hexadecapole Moments (Debye-Ang^3)
      XXXX    -984.6587   XXXY    -484.5520   XXYY    -485.5202
      XYYY    -500.5257   YYYY   -2566.4373   XXXZ    -418.7666
      XXYZ    -398.9344   XYYZ    -107.0225   YYYZ   -1583.8238
      XXZZ    -992.2201   XYZZ     -51.9803   YYZZ   -1493.9803
      XZZZ    -165.5251   YZZZ   -1790.4343   ZZZZ   -6115.8317
 -----------------------------------------------------------------
 Calculating analytic gradient of the SCF energy
 Gradient of CDS energy
            1           2           3           4           5           6
    1  -0.0015558   0.0001261   0.0007768  -0.0001082   0.0000411   0.0001099
    2  -0.0008193  -0.0000033   0.0011015  -0.0002419  -0.0000831  -0.0000159
    3   0.0022201  -0.0003170  -0.0016566   0.0001901   0.0000221  -0.0002624
            7           8           9          10          11          12
    1   0.0000517  -0.0003028  -0.0001674   0.0000914   0.0000426   0.0004657
    2  -0.0003034   0.0000243   0.0000107   0.0003387   0.0001379   0.0002280
    3  -0.0002068  -0.0001418  -0.0000958  -0.0003747  -0.0001482  -0.0000185
           13          14          15          16          17
    1   0.0001859   0.0003402   0.0001434  -0.0001911  -0.0000494
    2   0.0000914  -0.0001274  -0.0000461  -0.0002067  -0.0000854
    3  -0.0000062   0.0003585   0.0001420   0.0002115   0.0000837
 Gradient of SCF Energy
            1           2           3           4           5           6
    1   0.0053787  -0.0048553  -0.0026846   0.0000043   0.0002465   0.0006682
    2  -0.0085071   0.0040354   0.0029661  -0.0005572   0.0001172  -0.0012685
    3   0.0076055  -0.0061268   0.0046443  -0.0001271   0.0001797  -0.0022832
            7           8           9          10          11          12
    1  -0.0034763   0.0093414  -0.0073920   0.0004172   0.0017600  -0.0051455
    2  -0.0001212  -0.0028310   0.0023562  -0.0032985   0.0057426  -0.0033578
    3  -0.0009168   0.0080980  -0.0067845   0.0041428  -0.0061629   0.0010609
           13          14          15          16          17
    1   0.0073338  -0.0060109   0.0049702  -0.0016635   0.0011077
    2   0.0036925   0.0001235  -0.0013440   0.0040895  -0.0018378
    3  -0.0002631  -0.0034970   0.0046227  -0.0062900   0.0020975
 Max gradient component =       9.341E-03
 RMS gradient           =       4.281E-03
 Computing fast CPCM-SWIG gradient
 Updating gradient with PCM contributions...
 -- total gradient after adding PCM contribution --
---------------------------------------------------
  Atom         X              Y              Z     
---------------------------------------------------
   1      -0.001072      -0.000121      -0.000152
   2       0.000370      -0.000120       0.000214
   3       0.000219       0.000061      -0.000130
   4      -0.000000       0.000078       0.000030
   5       0.000045      -0.000007       0.000026
   6      -0.000016      -0.000008      -0.000018
   7       0.000390       0.000102       0.000039
   8       0.000017       0.000018      -0.000024
   9       0.000006      -0.000010      -0.000005
  10      -0.000008      -0.000006      -0.000006
  11       0.000005      -0.000011      -0.000006
  12      -0.000002      -0.000006      -0.000001
  13       0.000002      -0.000004      -0.000002
  14      -0.000006      -0.000003       0.000014
  15      -0.000004       0.000006       0.000004
  16       0.000059       0.000022       0.000015
  17      -0.000004       0.000009       0.000001
---------------------------------------------------
 Number of fixed atoms: 0
 Gradient time:  CPU 322.67 s  wall 46.71 s
 ----------------------------------------------------------------
             Standard Nuclear Orientation (Angstroms)
    I     Atom           X                Y                Z
 ----------------------------------------------------------------
    1      C      -0.7201402186     2.0458957642     4.0231699867
    2      H      -1.4580268831     2.4599965653     3.3352469222
    3      O      -1.1347987887     1.3968905963     5.0529047004
    4      H      -1.0853854203     0.2580659415     4.6273189032
    5      O      -0.4027132150     0.5053860992     2.9154369428
    6      O      -0.7731511566    -0.4350421755     3.7013598647
    7      C       0.6084382456     2.6835137113     4.0028404239
    8      C       0.8919488057     3.6074948117     3.0021957041
    9      H       0.1345503733     3.8483470080     2.2668357283
   10      C       2.1370828179     4.2168942270     2.9571673580
   11      H       2.3598071872     4.9374858780     2.1826387176
   12      C       3.0943657437     3.9004296314     3.9119432417
   13      H       4.0645910627     4.3774550585     3.8796403668
   14      C       2.8107085943     2.9765454455     4.9127269910
   15      H       3.5595736810     2.7357970539     5.6545137122
   16      C       1.5686031113     2.3660706888     4.9603427378
   17      H       1.3358794597     1.6493126947     5.7358770986
 ----------------------------------------------------------------
 Nuclear Repulsion Energy =         502.54041612 hartrees
 There are       37 alpha and       36 beta electrons
 Discretize the solute cavity surface with Lebedev spheres
	Using 110 Lebedev grid points for each H atom
	Using 194 Lebedev grid points for other atoms
	Atomic van der Waals radii will be scaled by 1.20
 Remove points where switching function is < 1.0e-08
 Keep 1299 surface tesserae and discard 1411 interior tesserae
 Molecular Surface Area = 157.212 Angst**2
 Requested basis set is 6-311++G(2df,2p)
 There are 122 shells and 410 basis functions
 A cutoff of  1.0D-12 yielded   6571 shell pairs
 There are     74641 function pairs (     93547 Cartesian)
 Smallest overlap matrix eigenvalue = 8.88E-07
 Linear dependence detected in AO basis
 Tighter screening thresholds may be required for diffuse basis sets
 Use S2THRESH > 14 and THRESH = 14 in case of SCF convergence issues
 Number of orthogonalized atomic orbitals = 409
 Maximum deviation from orthogonality = 1.209E-10
 Guess MOs from SCF MO coefficient file

 -----------------------------------------------------------------------
  General SCF calculation program by
  Eric Jon Sundstrom, Paul Horn, Yuezhi Mao, Dmitri Zuev, Alec White,
  David Stuck, Shaama M.S., Shane Yost, Joonho Lee, David Small,
  Daniel Levine, Susi Lehtola, Hugh Burton, Evgeny Epifanovsky,
  Bang C. Huynh
 -----------------------------------------------------------------------
 Exchange:     0.1500 Hartree-Fock + 1.0000 wB97M-V + LR-HF
 Correlation:  1.0000 wB97M-V
 Using SG-2 standard quadrature grid
 Nonlocal Correlation:  VV10 with C = 0.0100 and b = 6.00 and scale = 1.00000
 Grid used for NLC:  SG-1 standard quadrature
 
 Citation of the SMD model:
 Marenich, A.V.; Cramer, C.J.; Truhlar, D.G.
 J. Phys. Chem. B 2009, 113, 6378-6396.
 iSolventCode=           1
 Solvent: water                                                           
 
 vradii
            1           2           3           4           5           6
    1   1.8500000   1.2000000   1.5200000   1.2000000   1.5200000   1.5200000
            7           8           9          10          11          12
    1   1.8500000   1.8500000   1.2000000   1.8500000   1.2000000   1.8500000
           13          14          15          16          17
    1   1.2000000   1.8500000   1.2000000   1.8500000   1.2000000
 -------------------------------------------------------
 OpenMP BLAS3 based DFT computing Module                
 Release: version 1.0, May 2013, Q-Chem Inc. Pittsburgh 
 -------------------------------------------------------
 A unrestricted SCF calculation will be
 performed using Roothaan-Hall, DIIS, GDM
 SCF converges when RMS gradient is below 1.0e-07
 ---------------------------------------
  Cycle       Energy         DIIS error
 ---------------------------------------
    1    -496.4640355618      1.28e-04  Roothaan Step
 ---------------------------------------
  Cycle       Energy         DIIS error
 ---------------------------------------
    1    -496.4783447064      1.45e-04  
    2    -496.4800966671      1.15e-04  Done DIIS. Switching to GDM
 ---------------------------------------
  Cycle       Energy        RMS Gradient
 ---------------------------------------
    1    -496.4800966671      5.26e-03   Normal BFGS step
    2    -496.4801370251      7.80e-03   Normal BFGS step
    3    -496.4809407200      8.72e-04   Normal BFGS step
    4    -496.4809476308      9.74e-04   Normal BFGS step
    5    -496.4809566827      2.83e-04   Normal BFGS step
    6    -496.4809568613      2.56e-04   Normal BFGS step
    7    -496.4809573649      5.68e-05   Normal BFGS step
    8    -496.4809573794      3.56e-05   Normal BFGS step
    9    -496.4809573857      8.52e-06   Normal BFGS step
   10    -496.4809573865      4.74e-06   Normal BFGS step
   11    -496.4809573867      3.34e-06   Normal BFGS step
   12    -496.4809573867      2.35e-06   Normal BFGS step
   13    -496.4809573868      1.22e-06   Normal BFGS step
   14    -496.4809573868      7.57e-07   Normal BFGS step
   15    -496.4809573868      3.27e-07   Normal BFGS step
   16    -496.4809573867      1.34e-07   Normal BFGS step
   17    -496.4809573868      9.33e-08  Convergence criterion met
 ---------------------------------------
 SCF time:   CPU 1949.83s  wall 247.00s 
<S^2> =          0.755796965
(3)  G-ENP(liq) elect-nuc-pol free energy of system     -496.480957387 a.u.
(4)  G-CDS(liq) cavity-dispersion-solvent structure 
     free energy                                                3.3792 kcal/mol
(6)  G-S(liq) free energy of system                     -496.475572210 a.u.
 SCF   energy in the final basis set =     -496.4755722100
 Total energy in the final basis set =     -496.4755722100
 
 --------------------------------------------------------------
 
                    Orbital Energies (a.u.)
 --------------------------------------------------------------
 
 Alpha MOs
 -- Occupied --
-19.4494 -19.4471 -19.3410 -10.4581 -10.3597 -10.3544 -10.3531 -10.3516
-10.3487 -10.3486  -1.3624  -1.1842  -0.9991  -0.9749  -0.8951  -0.8784
 -0.7809  -0.7318  -0.7087  -0.6973  -0.6465  -0.6260  -0.6196  -0.5940
 -0.5737  -0.5434  -0.5421  -0.5281  -0.5016  -0.4752  -0.4592  -0.4444
 -0.4301  -0.4159  -0.3837  -0.3541  -0.3482
 -- Virtual --
  0.0154   0.0252   0.0362   0.0391   0.0540   0.0542   0.0566   0.0699
  0.0848   0.0870   0.1013   0.1052   0.1094   0.1218   0.1365   0.1433
  0.1472   0.1537   0.1550   0.1594   0.1613   0.1696   0.1737   0.1744
  0.1825   0.1846   0.1868   0.1999   0.2034   0.2157   0.2189   0.2196
  0.2257   0.2408   0.2544   0.2640   0.2711   0.2718   0.2731   0.2795
  0.2880   0.2939   0.3036   0.3126   0.3225   0.3311   0.3430   0.3463
  0.3512   0.3521   0.3561   0.3710   0.3782   0.3867   0.3908   0.4048
  0.4145   0.4181   0.4291   0.4466   0.4566   0.4739   0.4789   0.5250
  0.5525   0.5629   0.5709   0.5884   0.5980   0.6014   0.6071   0.6140
  0.6205   0.6229   0.6307   0.6338   0.6527   0.6742   0.6936   0.6984
  0.7163   0.7210   0.7271   0.7327   0.7381   0.7454   0.7481   0.7569
  0.7619   0.7733   0.7786   0.7835   0.8006   0.8299   0.8364   0.8374
  0.8484   0.8578   0.8765   0.8905   0.8942   0.8990   0.9202   0.9404
  0.9617   0.9655   1.0209   1.0361   1.0386   1.0535   1.0725   1.0857
  1.0997   1.1019   1.1094   1.1206   1.1294   1.1432   1.1612   1.1760
  1.1909   1.1986   1.2072   1.2260   1.2332   1.2417   1.2522   1.2652
  1.2702   1.2750   1.2968   1.3120   1.3504   1.3716   1.3757   1.3946
  1.3999   1.4043   1.4089   1.4321   1.4403   1.4503   1.4634   1.4656
  1.4773   1.4994   1.5184   1.5329   1.5608   1.5638   1.5786   1.5820
  1.6043   1.6205   1.6734   1.6957   1.7122   1.7261   1.7525   1.7750
  1.7855   1.8056   1.8098   1.8315   1.8851   1.9016   1.9575   1.9632
  2.0267   2.0642   2.0848   2.0911   2.1032   2.1088   2.1572   2.2404
  2.2561   2.2986   2.3071   2.4113   2.4891   2.5408   2.5903   2.5973
  2.6248   2.6504   2.6672   2.6876   2.7196   2.7343   2.7688   2.7896
  2.7965   2.8082   2.8238   2.8291   2.8395   2.8641   2.8651   2.8894
  2.8949   2.9075   2.9096   2.9288   2.9443   2.9460   2.9636   2.9691
  2.9955   3.0091   3.0183   3.0489   3.0517   3.1008   3.1376   3.1620
  3.1663   3.2043   3.2065   3.2191   3.2315   3.2456   3.2560   3.2694
  3.2808   3.2857   3.3083   3.3160   3.3372   3.3614   3.3856   3.3900
  3.4197   3.4255   3.4491   3.4549   3.4846   3.4882   3.5147   3.5306
  3.5376   3.5514   3.5573   3.5782   3.5985   3.6141   3.6280   3.6421
  3.6669   3.6926   3.7270   3.7546   3.7800   3.8044   3.8234   3.8284
  3.8367   3.8493   3.8773   3.8814   3.8996   3.9089   3.9326   3.9452
  3.9529   3.9686   3.9967   4.0351   4.0740   4.0895   4.1192   4.1312
  4.1469   4.1600   4.1915   4.2223   4.2276   4.2469   4.3212   4.3465
  4.3648   4.4292   4.4401   4.4520   4.4598   4.4942   4.5182   4.5375
  4.5427   4.5561   4.5649   4.5759   4.5845   4.5983   4.6445   4.6891
  4.7007   4.7119   4.7370   4.7700   4.7929   4.8250   4.8299   4.8887
  4.9054   4.9946   5.0434   5.0578   5.0641   5.1411   5.1439   5.1612
  5.1797   5.1895   5.2038   5.2197   5.2314   5.2378   5.2732   5.3043
  5.3443   5.3475   5.3658   5.3765   5.4260   5.4682   5.5271   5.5616
  5.5796   5.6043   5.6286   5.7285   5.7606   5.7983   5.8379   5.8775
  5.8954   5.9435   6.1813   6.2819   6.4727   6.4991   6.5407   6.6833
  6.7016   6.8206   6.9409   7.0110   7.0697   7.0880   7.1181   7.1498
  7.2796   7.3554   7.4047   7.4978   7.5105   7.5516   7.7883   7.9951
  8.0410   8.1370  24.2089  24.7990  24.8139  24.9580  25.0696  25.0854
 25.5334  50.4775  50.5084  50.7283
 
 Beta MOs
 -- Occupied --
-19.4331 -19.4328 -19.3410 -10.4584 -10.3595 -10.3545 -10.3531 -10.3517
-10.3487 -10.3486  -1.3341  -1.1833  -0.9977  -0.9394  -0.8916  -0.8784
 -0.7794  -0.7314  -0.6989  -0.6965  -0.6399  -0.6055  -0.5952  -0.5741
 -0.5495  -0.5424  -0.5302  -0.5257  -0.4989  -0.4696  -0.4585  -0.4443
 -0.4163  -0.3944  -0.3542  -0.3445
 -- Virtual --
 -0.0330   0.0184   0.0253   0.0362   0.0392   0.0541   0.0543   0.0568
  0.0702   0.0853   0.0872   0.1021   0.1057   0.1098   0.1225   0.1369
  0.1442   0.1477   0.1541   0.1555   0.1597   0.1617   0.1700   0.1739
  0.1757   0.1829   0.1852   0.1870   0.2010   0.2049   0.2158   0.2195
  0.2202   0.2291   0.2431   0.2551   0.2656   0.2718   0.2731   0.2739
  0.2799   0.2888   0.2957   0.3066   0.3195   0.3233   0.3313   0.3440
  0.3475   0.3520   0.3529   0.3565   0.3742   0.3784   0.3877   0.3937
  0.4081   0.4155   0.4184   0.4293   0.4482   0.4577   0.4742   0.4792
  0.5255   0.5525   0.5632   0.5710   0.5890   0.5981   0.6017   0.6074
  0.6141   0.6210   0.6235   0.6313   0.6342   0.6528   0.6742   0.6940
  0.6985   0.7162   0.7209   0.7272   0.7329   0.7383   0.7461   0.7486
  0.7575   0.7619   0.7734   0.7793   0.7845   0.8005   0.8301   0.8367
  0.8380   0.8486   0.8578   0.8768   0.8910   0.8944   0.8992   0.9223
  0.9411   0.9625   0.9662   1.0230   1.0376   1.0430   1.0543   1.0741
  1.0880   1.1006   1.1040   1.1135   1.1281   1.1382   1.1490   1.1627
  1.1804   1.1935   1.2016   1.2117   1.2270   1.2377   1.2441   1.2546
  1.2671   1.2757   1.2926   1.2980   1.3134   1.3512   1.3734   1.3769
  1.3960   1.4007   1.4062   1.4099   1.4381   1.4411   1.4551   1.4642
  1.4679   1.4780   1.5033   1.5198   1.5370   1.5643   1.5663   1.5799
  1.5837   1.6206   1.6290   1.6741   1.6983   1.7207   1.7339   1.7552
  1.7796   1.7858   1.8098   1.8118   1.8325   1.8927   1.9026   1.9636
  1.9707   2.0324   2.0666   2.0854   2.0935   2.1063   2.1128   2.1637
  2.2476   2.2639   2.3140   2.3190   2.4145   2.4925   2.5441   2.5917
  2.5997   2.6251   2.6511   2.6685   2.6943   2.7198   2.7349   2.7687
  2.7901   2.7965   2.8083   2.8239   2.8291   2.8396   2.8644   2.8651
  2.8893   2.8947   2.9074   2.9094   2.9286   2.9443   2.9460   2.9635
  2.9690   2.9953   3.0087   3.0182   3.0486   3.0515   3.1003   3.1369
[...]
 Frequency:       968.70                1005.68                1019.43
 Force Cnst:      0.7523                 0.6440                 3.5909
 Red. Mass:       1.3607                 1.0807                 5.8646
 IR Active:          YES                    YES                    YES
 IR Intens:        5.903                111.841                  2.146
 Raman Active:       YES                    YES                    YES
               X      Y      Z        X      Y      Z        X      Y      Z
 C          0.008 -0.000  0.004   -0.008 -0.004 -0.015   -0.003  0.009 -0.002
 H          0.035 -0.125 -0.098   -0.040  0.095  0.077   -0.033 -0.084 -0.026
 O          0.001 -0.003 -0.002   -0.025  0.001 -0.008   -0.002 -0.003 -0.003
 H         -0.016  0.004 -0.005    0.917 -0.072  0.360    0.118 -0.014  0.038
 O         -0.006  0.003 -0.000    0.026 -0.011  0.005    0.001  0.004  0.003
 O          0.002  0.001  0.001   -0.049  0.011 -0.017   -0.006  0.001 -0.001
 C         -0.018  0.040  0.031   -0.004  0.008  0.004    0.030  0.013 -0.010
 C          0.034 -0.075 -0.062    0.006 -0.005  0.006   -0.260  0.102 -0.277
 H         -0.193  0.433  0.339    0.001 -0.002  0.013   -0.208  0.162 -0.334
 C         -0.008  0.014  0.015    0.000 -0.000 -0.003    0.001 -0.042  0.062
 H          0.042 -0.096 -0.073   -0.010  0.012  0.005    0.098 -0.050  0.066
 C         -0.030  0.069  0.054   -0.007 -0.001 -0.000    0.309  0.148 -0.018
 H          0.185 -0.392 -0.315   -0.004 -0.008 -0.014    0.304  0.193  0.004
 C         -0.006  0.008  0.003    0.002  0.002  0.007   -0.043  0.023 -0.052
 H          0.018 -0.045 -0.038    0.014 -0.016 -0.010    0.021  0.067 -0.084
 C          0.032 -0.073 -0.054    0.003 -0.002 -0.008   -0.054 -0.256  0.298
 H         -0.181  0.400  0.318   -0.017  0.024  0.010    0.067 -0.271  0.342
 TransDip  -0.001  0.067  0.040    0.308 -0.096  0.103    0.044  0.017  0.001

 Mode:                22                     23                     24
 Frequency:      1021.63                1043.07                1051.86
 Force Cnst:      0.8485                 0.8561                 1.3493
 Red. Mass:       1.3798                 1.3355                 2.0699
 IR Active:          YES                    YES                    YES
 IR Intens:        0.199                  0.081                 12.206
 Raman Active:       YES                    YES                    YES
               X      Y      Z        X      Y      Z        X      Y      Z
 C          0.001 -0.001 -0.000    0.000  0.001  0.001    0.016 -0.003  0.007
 H          0.001 -0.003 -0.001    0.007 -0.028 -0.023    0.027  0.042  0.022
 O          0.001  0.001  0.000    0.000 -0.001 -0.000    0.002  0.005 -0.005
 H         -0.039  0.001 -0.015   -0.005  0.002 -0.000   -0.019  0.008 -0.004
 O         -0.001  0.000 -0.000   -0.001  0.001  0.000   -0.000 -0.001 -0.000
 O          0.002 -0.001  0.001    0.000  0.000 -0.000    0.001 -0.001 -0.000
 C         -0.001  0.003  0.002   -0.001  0.000  0.000   -0.011 -0.004  0.004
 C         -0.031  0.064  0.049    0.011 -0.022 -0.014   -0.034 -0.048  0.038
 H          0.150 -0.336 -0.270   -0.063  0.138  0.115   -0.253 -0.257  0.188
 C          0.034 -0.072 -0.057   -0.028  0.061  0.047   -0.028  0.097 -0.139
 H         -0.174  0.387  0.310    0.154 -0.342 -0.276   -0.388  0.061 -0.294
 C         -0.002  0.009  0.007    0.036 -0.083 -0.065    0.140  0.073 -0.008
 H          0.024 -0.047 -0.038   -0.213  0.453  0.371    0.154  0.081 -0.024
 C         -0.031  0.066  0.051   -0.031  0.067  0.054    0.070 -0.079  0.141
 H          0.163 -0.354 -0.282    0.174 -0.380 -0.298   -0.162 -0.322  0.314
 C          0.032 -0.070 -0.052    0.015 -0.027 -0.026   -0.066 -0.003 -0.036
 H         -0.166  0.364  0.289   -0.084  0.187  0.142   -0.444 -0.049 -0.185
 TransDip  -0.013  0.000 -0.006   -0.003  0.007  0.005   -0.100 -0.048  0.017

 Mode:                25                     26                     27
 Frequency:      1102.56                1108.03                1163.76
 Force Cnst:      1.0502                 0.9315                 0.9078
 Red. Mass:       1.4663                 1.2878                 1.1377
 IR Active:          YES                    YES                    YES
 IR Intens:       16.239                156.404                  3.468
 Raman Active:       YES                    YES                    YES
               X      Y      Z        X      Y      Z        X      Y      Z
 C         -0.005 -0.021 -0.015    0.015 -0.106 -0.070   -0.007  0.001  0.001
 H         -0.017  0.166  0.105   -0.145  0.724  0.584    0.004 -0.012 -0.019
 O          0.008  0.016 -0.007   -0.002  0.039  0.017    0.004  0.002 -0.003
 H         -0.012 -0.013 -0.012   -0.128 -0.120 -0.116    0.006  0.006  0.007
 O          0.004 -0.004 -0.001    0.017 -0.021 -0.015   -0.000  0.000  0.001
 O          0.000 -0.002 -0.000    0.002 -0.005  0.007   -0.000 -0.000 -0.001
 C         -0.019 -0.022  0.038   -0.013  0.047  0.034    0.001 -0.010  0.011
 C         -0.098 -0.026 -0.031    0.016 -0.005 -0.015   -0.008  0.008 -0.013
 H         -0.358 -0.259  0.145    0.032  0.110  0.006    0.056  0.070 -0.059
 C          0.044  0.063 -0.053   -0.007 -0.011  0.013   -0.040 -0.000 -0.024
 H          0.289  0.100  0.041   -0.013 -0.015  0.008   -0.392 -0.043 -0.168
 C          0.019 -0.033  0.056   -0.002  0.006 -0.006    0.023 -0.038  0.063
 H          0.136 -0.246  0.375   -0.016  0.030 -0.060    0.208 -0.378  0.589
 C         -0.056 -0.007 -0.025    0.010  0.006 -0.002    0.030  0.035 -0.027
 H         -0.236 -0.179  0.093    0.067  0.056 -0.041    0.303  0.313 -0.215
 C          0.073  0.058 -0.034   -0.014 -0.023  0.002   -0.007  0.006 -0.011
 H          0.503  0.128  0.150   -0.133  0.017  0.006   -0.141 -0.013 -0.068
 TransDip   0.014 -0.104  0.075   -0.148 -0.326 -0.179   -0.009 -0.028  0.052

 Mode:                28                     29                     30
 Frequency:      1180.12                1233.56                1316.72
 Force Cnst:      0.9252                 2.6164                 4.1956
 Red. Mass:       1.1276                 2.9184                 4.1073
 IR Active:          YES                    YES                    YES
 IR Intens:       14.503                 88.015                 23.768
 Raman Active:       YES                    YES                    YES
               X      Y      Z        X      Y      Z        X      Y      Z
 C          0.021 -0.003  0.003   -0.107  0.003 -0.084   -0.106  0.005 -0.048
 H          0.042  0.054  0.017   -0.400 -0.188  0.099    0.184  0.165 -0.279
 O          0.001  0.003 -0.002   -0.026 -0.032  0.049    0.022 -0.014  0.033
 H          0.005 -0.010 -0.011   -0.028 -0.064 -0.034    0.021 -0.025  0.010
 O          0.000  0.002  0.001    0.004 -0.006 -0.008    0.004 -0.004  0.000
 O         -0.000 -0.001  0.001   -0.002  0.001  0.006   -0.002  0.002 -0.001
 C         -0.040 -0.017  0.002    0.278  0.177 -0.061    0.147 -0.118  0.237
 C          0.033  0.033 -0.023    0.048  0.013  0.010    0.101  0.122 -0.092
 H          0.358  0.360 -0.248   -0.217 -0.256  0.211    0.045  0.062 -0.056
 C         -0.042  0.003 -0.029   -0.046 -0.076  0.069   -0.200 -0.026 -0.083
 H         -0.447 -0.048 -0.194   -0.504 -0.142 -0.111    0.365  0.048  0.146
 C         -0.007 -0.005  0.002   -0.000  0.004 -0.005    0.049 -0.089  0.140
 H         -0.005 -0.005  0.004    0.025 -0.054  0.083   -0.039  0.070 -0.109
 C         -0.009 -0.030  0.032   -0.105 -0.013 -0.045    0.101  0.142 -0.121
 H         -0.240 -0.263  0.191   -0.322 -0.222  0.093   -0.406 -0.361  0.220
 C          0.029  0.000  0.016    0.088  0.018  0.027   -0.121 -0.009 -0.062
 H          0.467  0.058  0.200   -0.012  0.015 -0.019   -0.204 -0.017 -0.096
 TransDip   0.110  0.048 -0.023   -0.241 -0.151 -0.096   -0.108 -0.110  0.022

 Mode:                31                     32                     33
 Frequency:      1341.43                1344.64                1360.31
 Force Cnst:      1.6424                15.3294                 1.6049
 Red. Mass:       1.5492                14.3901                 1.4721
 IR Active:          YES                    YES                    YES
 IR Intens:       15.026                143.423                150.772
 Raman Active:       YES                    YES                    YES
               X      Y      Z        X      Y      Z        X      Y      Z
 C          0.040 -0.009  0.028   -0.003  0.021 -0.045   -0.026  0.055 -0.094
 H         -0.164 -0.148  0.172    0.148  0.116 -0.156    0.567  0.498 -0.488
 O         -0.006  0.015 -0.026   -0.013 -0.042  0.045   -0.008 -0.070  0.112
 H         -0.006  0.020  0.005    0.107  0.182 -0.019    0.026 -0.127 -0.091
 O          0.000  0.007 -0.002    0.197  0.487 -0.415   -0.002 -0.019  0.010
 O         -0.001 -0.006  0.003   -0.197 -0.476  0.416    0.002  0.019 -0.005
 C         -0.030  0.016 -0.039   -0.009 -0.006 -0.007   -0.016  0.026 -0.038
 C          0.085  0.061 -0.026   -0.006 -0.007  0.005    0.004  0.005 -0.005
 H         -0.321 -0.351  0.259   -0.006 -0.003  0.006   -0.123 -0.122  0.081
 C         -0.031 -0.010 -0.006    0.007  0.002  0.002    0.023 -0.002  0.016
 H         -0.215 -0.036 -0.081    0.013  0.000  0.004   -0.143 -0.024 -0.052
 C          0.033 -0.052  0.084    0.000  0.004 -0.005    0.006 -0.001  0.004
 H         -0.090  0.175 -0.270    0.006 -0.006  0.013   -0.022  0.052 -0.078
 C          0.041  0.015  0.005    0.000 -0.003  0.003   -0.016 -0.023  0.019
 H          0.227  0.197 -0.119    0.018  0.014 -0.011    0.126  0.118 -0.076
 C         -0.123 -0.033 -0.030    0.004  0.003 -0.002   -0.013 -0.002 -0.005
 H          0.502  0.047  0.233   -0.012  0.003 -0.008    0.149  0.023  0.064
 TransDip   0.070  0.013  0.102    0.122  0.362  0.037    0.139 -0.027 -0.367

 Mode:                34                     35                     36
 Frequency:      1476.80                1528.51                1549.00
 Force Cnst:      3.1371                 3.2462                 4.4036
 Red. Mass:       2.4414                 2.3582                 3.1150
 IR Active:          YES                    YES                    YES
 IR Intens:      125.523                124.996                363.187
 Raman Active:       YES                    YES                    YES
               X      Y      Z        X      Y      Z        X      Y      Z
 C         -0.096 -0.078  0.082    0.042  0.078 -0.104   -0.170 -0.165  0.181
 H          0.147  0.084 -0.093   -0.296 -0.182  0.114    0.434  0.273 -0.237
 O          0.036  0.042 -0.060   -0.027 -0.035  0.052    0.051  0.061 -0.094
 H         -0.023  0.112  0.137    0.021 -0.097 -0.117   -0.071  0.190  0.276
 O          0.004  0.003 -0.007   -0.003 -0.002  0.005    0.007  0.000 -0.015
 O          0.000 -0.005 -0.004   -0.001  0.002  0.004    0.002 -0.005 -0.008
 C          0.054 -0.065  0.114    0.116  0.008  0.056    0.121  0.094 -0.047
 C         -0.072  0.020 -0.067   -0.076 -0.087  0.066    0.035 -0.018  0.043
 H         -0.063  0.046 -0.098    0.319  0.308 -0.200    0.125  0.059 -0.004
 C          0.143  0.056  0.013   -0.077  0.038 -0.093   -0.114 -0.038 -0.018
 H         -0.458 -0.015 -0.245    0.295  0.098  0.047    0.299  0.015  0.155
 C          0.016 -0.073  0.101    0.102  0.000  0.059    0.037  0.082 -0.081
 H         -0.195  0.303 -0.493    0.032  0.169 -0.192    0.143 -0.082  0.184
 C         -0.124 -0.041 -0.020   -0.100 -0.096  0.062   -0.031 -0.082  0.086
 H          0.099  0.200 -0.195    0.313  0.319 -0.221    0.188  0.125 -0.046
 C          0.083  0.063 -0.031   -0.044  0.045 -0.083   -0.079 -0.001 -0.046
 H         -0.182  0.035 -0.152    0.247  0.097  0.023    0.335  0.054  0.128
 TransDip  -0.314 -0.015  0.172    0.204  0.081 -0.283   -0.379 -0.115  0.464

 Mode:                37                     38                     39
 Frequency:      1661.68                1672.71                1873.01
 Force Cnst:      9.9076                 9.9657                 2.1429
 Red. Mass:       6.0901                 6.0453                 1.0368
 IR Active:          YES                    YES                    YES
 IR Intens:       10.738                 35.349                149.136
 Raman Active:       YES                    YES                    YES
               X      Y      Z        X      Y      Z        X      Y      Z
 C         -0.017 -0.051  0.070    0.036  0.012 -0.008    0.013  0.030 -0.012
 H          0.225  0.150 -0.085   -0.024 -0.020  0.048   -0.017 -0.013 -0.008
 O          0.004  0.010 -0.021   -0.001  0.002 -0.001    0.002  0.005 -0.004
 H         -0.026  0.046  0.077    0.023 -0.011 -0.047   -0.334 -0.591  0.733
 O          0.001 -0.000 -0.004   -0.001  0.004  0.005    0.011  0.005 -0.027
 O          0.001 -0.000 -0.002   -0.000  0.001  0.001    0.003  0.007 -0.006
 C         -0.103  0.180 -0.288   -0.198 -0.113  0.025   -0.005 -0.004  0.001
 C         -0.020 -0.142  0.167    0.253  0.195 -0.099    0.000  0.001 -0.001
 H          0.247  0.114  0.001   -0.209 -0.280  0.229   -0.001 -0.001 -0.001
 C         -0.146  0.067 -0.169   -0.267 -0.092 -0.040    0.000 -0.000  0.000
 H          0.228  0.131 -0.033    0.233 -0.036  0.178   -0.001 -0.000 -0.000
 C          0.112 -0.177  0.288    0.122  0.071 -0.017   -0.000 -0.000 -0.000
 H         -0.103  0.224 -0.340    0.151  0.061  0.008    0.000 -0.000 -0.000
 C         -0.011  0.121 -0.160   -0.238 -0.170  0.075   -0.000 -0.000  0.000
 H         -0.212 -0.060 -0.048    0.131  0.213 -0.193    0.000  0.000  0.000
 C          0.166 -0.054  0.165    0.297  0.092  0.057    0.001  0.000  0.000
 H         -0.251 -0.120  0.003   -0.321  0.017 -0.210   -0.001 -0.000 -0.002
 TransDip  -0.039 -0.014  0.096    0.171  0.075 -0.036   -0.132 -0.282  0.236

 Mode:                40                     41                     42
 Frequency:      3096.44                3188.96                3195.21
 Force Cnst:      6.1531                 6.5219                 6.5472
 Red. Mass:       1.0892                 1.0885                 1.0884
 IR Active:          YES                    YES                    YES
 IR Intens:       51.388                  2.974                  1.594
 Raman Active:       YES                    YES                    YES
               X      Y      Z        X      Y      Z        X      Y      Z
 C         -0.061  0.030 -0.053   -0.001  0.000 -0.000   -0.000  0.000 -0.000
 H          0.684 -0.364  0.626    0.006 -0.001  0.003    0.003 -0.000  0.002
 O          0.001  0.000 -0.000    0.000  0.000 -0.000    0.000  0.000  0.000
 H          0.001 -0.014 -0.006    0.000 -0.000 -0.000    0.000 -0.001 -0.000
 O          0.000  0.000  0.001    0.000  0.000  0.000    0.000  0.000  0.000
 O         -0.000 -0.000  0.000   -0.000  0.000  0.000   -0.000  0.000 -0.000
 C          0.002  0.002 -0.000   -0.001 -0.002  0.002    0.000 -0.001  0.001
 C          0.000 -0.000  0.000   -0.050  0.017 -0.050   -0.026  0.008 -0.026
 H         -0.007  0.001 -0.004    0.580 -0.189  0.568    0.298 -0.097  0.291
 C         -0.000 -0.000  0.000   -0.005 -0.023  0.025    0.005  0.007 -0.006
 H         -0.000  0.000 -0.001    0.084  0.277 -0.299   -0.028 -0.082  0.087
 C          0.000 -0.000  0.000    0.022  0.011 -0.001   -0.048 -0.023  0.001
 H          0.000  0.000  0.000   -0.261 -0.128  0.009    0.561  0.275 -0.018
 C         -0.000  0.000 -0.000   -0.011  0.003 -0.010    0.034 -0.010  0.033
 H          0.001 -0.001  0.001    0.126 -0.040  0.125   -0.397  0.127 -0.392
 C          0.000  0.000  0.000   -0.001 -0.004  0.005    0.004  0.015 -0.017
 H         -0.001 -0.003  0.003    0.015  0.051 -0.056   -0.058 -0.183  0.199
 TransDip  -0.143  0.035 -0.176   -0.047  0.002 -0.029   -0.039 -0.011 -0.000

 Mode:                43                     44                     45
 Frequency:      3203.99                3212.50                3218.42
 Force Cnst:      6.5980                 6.6592                 6.7054
 Red. Mass:       1.0909                 1.0952                 1.0987
 IR Active:          YES                    YES                    YES
 IR Intens:        9.494                 20.996                 13.693
 Raman Active:       YES                    YES                    YES
               X      Y      Z        X      Y      Z        X      Y      Z
 C          0.000  0.000 -0.000    0.000  0.000 -0.001    0.001  0.000 -0.000
 H         -0.003  0.000 -0.002   -0.001 -0.000 -0.000   -0.004  0.000 -0.003
 O          0.000 -0.000  0.000    0.000 -0.000  0.000   -0.000 -0.000  0.000
 H         -0.000 -0.000 -0.000   -0.000 -0.000 -0.000   -0.000  0.000 -0.000
 O         -0.000 -0.000 -0.000   -0.000  0.000 -0.000   -0.000 -0.000 -0.000
 O         -0.000 -0.000  0.000   -0.000  0.000  0.000   -0.000 -0.000  0.000
 C          0.001  0.000  0.000    0.001 -0.001  0.002    0.001  0.000  0.001
 C          0.014 -0.004  0.013   -0.016  0.003 -0.013    0.011 -0.002  0.009
 H         -0.145  0.047 -0.141    0.153 -0.047  0.146   -0.103  0.032 -0.099
 C         -0.009 -0.024  0.024    0.012  0.038 -0.040   -0.008 -0.029  0.032
 H          0.087  0.272 -0.291   -0.131 -0.422  0.453    0.099  0.325 -0.350
 C          0.036  0.019 -0.003    0.019  0.007  0.002   -0.041 -0.020  0.002
 H         -0.417 -0.207  0.016   -0.205 -0.098  0.004    0.446  0.220 -0.015
 C          0.026 -0.011  0.030   -0.023  0.005 -0.020   -0.034  0.011 -0.034
 H         -0.324  0.107 -0.323    0.240 -0.075  0.235    0.374 -0.121  0.372
 C          0.009  0.033 -0.037    0.012  0.036 -0.038    0.010  0.026 -0.028
 H         -0.122 -0.389  0.424   -0.130 -0.405  0.440   -0.094 -0.290  0.314
 TransDip   0.085 -0.004  0.051   -0.003  0.091 -0.115   -0.107 -0.049 -0.013

 STANDARD THERMODYNAMIC QUANTITIES AT   298.15 K  AND     1.00 ATM

   This Molecule has  1 Imaginary Frequencies
   Zero point vibrational energy:       77.982 kcal/mol

   Atom    1 Element C  Has Mass   12.00000
   Atom    2 Element H  Has Mass    1.00783
   Atom    3 Element O  Has Mass   15.99491
   Atom    4 Element H  Has Mass    1.00783
   Atom    5 Element O  Has Mass   15.99491
   Atom    6 Element O  Has Mass   15.99491
   Atom    7 Element C  Has Mass   12.00000
   Atom    8 Element C  Has Mass   12.00000
   Atom    9 Element H  Has Mass    1.00783
   Atom   10 Element C  Has Mass   12.00000
   Atom   11 Element H  Has Mass    1.00783
   Atom   12 Element C  Has Mass   12.00000
   Atom   13 Element H  Has Mass    1.00783
   Atom   14 Element C  Has Mass   12.00000
   Atom   15 Element H  Has Mass    1.00783
   Atom   16 Element C  Has Mass   12.00000
   Atom   17 Element H  Has Mass    1.00783
   Molecular Mass:   139.039540 amu
   Principal axes and moments of inertia in amu*Bohr^2:
                             1           2           3
    Eigenvalues --      599.05636  2201.30736  2351.47835
          X               0.71787     0.31461    -0.62103
          Y               0.69612    -0.31359     0.64581
          Z              -0.00843     0.89593     0.44412
   Rotational Symmetry Number is   1
   The Molecule is an Asymmetric Top
   Translational Enthalpy:        0.889 kcal/mol
   Rotational Enthalpy:           0.889 kcal/mol
   Vibrational Enthalpy:         81.467 kcal/mol
   gas constant (RT):             0.592 kcal/mol
   Translational Entropy:        40.700  cal/mol.K
   Rotational Entropy:           29.518  cal/mol.K
   Vibrational Entropy:          21.655  cal/mol.K

   Total Enthalpy:               83.837 kcal/mol
   Total Entropy:                91.874  cal/mol.K
 Total job time:  30599.86s(wall), 236677.64s(cpu) 
 Fri Apr 28 06:08:47 2023

        *************************************************************
        *                                                           *
        *  Thank you very much for using Q-Chem.  Have a nice day.  *
        *                                                           *
        *************************************************************


