
Running Job 1 of 2 Q_in.in
qchem Q_in.in_92742.0 /scratch/ari.fischer/qChem1517718.hpc-mn1/qchem92742/ 0
/usr/local/qchem-5.4.1/exe/qcprog.exe_s Q_in.in_92742.0 /scratch/ari.fischer/qChem1517718.hpc-mn1/qchem92742/
                  Welcome to Q-Chem
     A Quantum Leap Into The Future Of Chemistry


 Q-Chem 5.4, Q-Chem, Inc., Pleasanton, CA (2021)

 License issued to: Nanyang Technological University (site)

 E. Epifanovsky,  A. T. B. Gilbert,  Xintian Feng,  Joonho Lee,  Yuezhi Mao,  
 N. Mardirossian,  P. Pokhilko,  A. White,  M. Wormit,  M. P. Coons,  
 A. L. Dempwolff,  Zhengting Gan,  D. Hait,  P. R. Horn,  L. D. Jacobson,  
 I. Kaliman,  J. Kussmann,  A. W. Lange,  Ka Un Lao,  D. S. Levine,  Jie Liu,  
 S. C. McKenzie,  A. F. Morrison,  K. Nanda,  F. Plasser,  D. R. Rehn,  
 M. L. Vidal,  Zhi-Qiang You,  Ying Zhu,  B. Alam,  B. Albrecht,  
 A. Aldossary,  E. Alguire,  J. H. Andersen,  D. Barton,  K. Begam,  A. Behn,  
 Y. A. Bernard,  E. J. Berquist,  H. Burton,  A. Carreras,  K. Carter-Fenk,  
 R. Chakraborty,  A. D. Chien,  K. D. Closser,  V. Cofer-Shabica,  
 S. Dasgupta,  Jia Deng,  M. de Wergifosse,  M. Diedenhofen,  Hainam Do,  
 S. Ehlert,  Po-Tung Fang,  S. Fatehi,  Qingguo Feng,  T. Friedhoff,  
 J. Gayvert,  Qinghui Ge,  G. Gidofalvi,  M. Goldey,  J. Gomes,  
 C. Gonzalez-Espinoza,  S. Gulania,  A. Gunina,  M. W. D. Hanson-Heine,  
 P. H. P. Harbach,  A. W. Hauser,  M. F. Herbst,  M. Hernandez Vera,  
 M. Hodecker,  Z. C. Holden,  S. Houck,  Xunkun Huang,  Kerwin Hui,  
 B. C. Huynh,  M. Ivanov,  Hyunjun Ji,  Hanjie Jiang,  B. Kaduk,  S. Kaehler,  
 K. Khistyaev,  Jaehoon Kim,  P. Klunzinger,  Z. Koczor-Benda,  
 Joong Hoon Koh,  D. Kosenkov,  L. Koulias,  T. Kowalczyk,  C. M. Krauter,  
 K. Kue,  A. Kunitsa,  T. Kus,  A. Landau,  K. V. Lawler,  D. Lefrancois,  
 S. Lehtola,  Rain Li,  Yi-Pei Li,  Jiashu Liang,  M. Liebenthal,  
 Hung-Hsuan Lin,  You-Sheng Lin,  Fenglai Liu,  Kuan-Yu Liu,  
 M. Loipersberger,  A. Luenser,  A. Manjanath,  P. Manohar,  E. Mansoor,  
 S. F. Manzer,  Shan-Ping Mao,  A. V. Marenich,  T. Markovich,  S. Mason,  
 S. A. Maurer,  P. F. McLaughlin,  M. F. S. J. Menger,  J.-M. Mewes,  
 S. A. Mewes,  P. Morgante,  J. W. Mullinax,  K. J. Oosterbaan,  G. Paran,  
 Alexander C. Paul,  Suranjan K. Paul,  F. Pavosevic,  Zheng Pei,  S. Prager,  
 E. I. Proynov,  E. Ramos,  B. Rana,  A. E. Rask,  A. Rettig,  R. M. Richard,  
 F. Rob,  E. Rossomme,  T. Scheele,  M. Scheurer,  M. Schneider,  
 N. Sergueev,  S. M. Sharada,  W. Skomorowski,  D. W. Small,  C. J. Stein,  
 Yu-Chuan Su,  E. J. Sundstrom,  Zhen Tao,  J. Thirman,  T. Tsuchimochi,  
 N. M. Tubman,  S. P. Veccham,  O. Vydrov,  J. Wenzel,  J. Witte,  A. Yamada,  
 Kun Yao,  S. Yeganeh,  S. R. Yost,  A. Zech,  Igor Ying Zhang,  Xing Zhang,  
 Yu Zhang,  D. Zuev,  A. Aspuru-Guzik,  A. T. Bell,  N. A. Besley,  
 K. B. Bravaya,  B. R. Brooks,  D. Casanova,  Jeng-Da Chai,  S. Coriani,  
 C. J. Cramer,  A. E. DePrince, III,  R. A. DiStasio Jr.,  A. Dreuw,  
 B. D. Dunietz,  T. R. Furlani,  W. A. Goddard III,  S. Grimme,  
 S. Hammes-Schiffer,  T. Head-Gordon,  W. J. Hehre,  Chao-Ping Hsu,  
 T.-C. Jagau,  Yousung Jung,  A. Klamt,  Jing Kong,  D. S. Lambrecht,  
 WanZhen Liang,  N. J. Mayhall,  C. W. McCurdy,  J. B. Neaton,  
 C. Ochsenfeld,  J. A. Parkhill,  R. Peverati,  V. A. Rassolov,  Yihan Shao,  
 L. V. Slipchenko,  T. Stauch,  R. P. Steele,  J. E. Subotnik,  
 A. J. W. Thom,  A. Tkatchenko,  D. G. Truhlar,  T. Van Voorhis,  
 T. A. Wesolowski,  K. B. Whaley,  H. L. Woodcock III,  P. M. Zimmerman,  
 S. Faraji,  P. M. W. Gill,  M. Head-Gordon,  J. M. Herbert,  A. I. Krylov

 Additional authors for Version 5.4.1: 
 S. Kotaru,  Shaozhi Li,  Xiangyuan Li,  F. Matz,  A. Molle,  Haisheng Ren,  
 Yingli Su,  Hung-Yi Tsai,  C. Utku,  Fang Wang

 Contributors to earlier versions of Q-Chem not listed above: 
 R. D. Adamson,  B. Austin,  R. Baer,  J. Baker,  G. J. O. Beran,  
 K. Brandhorst,  S. T. Brown,  E. F. C. Byrd,  A. K. Chakraborty,  
 G. K. L. Chan,  Chun-Min Chang,  Yunqing Chen,  C.-L. Cheng,  
 Siu Hung Chien,  D. M. Chipman,  D. L. Crittenden,  H. Dachsel,  
 R. J. Doerksen,  A. D. Dutoi,  R. G. Edgar,  J. Fosso-Tande,  
 L. Fusti-Molnar,  D. Ghosh,  A. Ghysels,  A. Golubeva-Zadorozhnaya,  
 J. Gonthier,  M. S. Gordon,  S. R. Gwaltney,  G. Hawkins,  J. E. Herr,  
 A. Heyden,  S. Hirata,  E. G. Hohenstein,  G. Kedziora,  F. J. Keil,  
 C. Kelley,  Jihan Kim,  R. A. King,  R. Z. Khaliullin,  P. P. Korambath,  
 W. Kurlancheek,  A. Laurent,  A. M. Lee,  M. S. Lee,  S. V. Levchenko,  
 Ching Yeh Lin,  D. Liotard,  E. Livshits,  R. C. Lochan,  I. Lotan,  
 L. A. Martinez-Martinez,  P. E. Maslen,  N. Nair,  D. P. O'Neill,  
 D. Neuhauser,  E. Neuscamman,  C. M. Oana,  R. Olivares-Amaya,  R. Olson,  
 T. M. Perrine,  B. Peters,  P. A. Pieniazek,  A. Prociuk,  Y. M. Rhee,  
 J. Ritchie,  M. A. Rohrdanz,  E. Rosta,  N. J. Russ,  H. F. Schaefer III,  
 M. W. Schmidt,  N. E. Schultz,  S. Sharma,  N. Shenvi,  C. D. Sherrill,  
 A. C. Simmonett,  A. Sodt,  T. Stein,  D. Stuck,  K. S. Thanthiriwatte,  
 V. Vanovschi,  L. Vogt,  Tao Wang,  A. Warshel,  M. A. Watson,  
 C. F. Williams,  Q. Wu,  X. Xu,  Jun Yang,  W. Zhang,  Yan Zhao

 Please cite Q-Chem as follows:
 Y. Shao et al., Mol. Phys. 113, 184-215 (2015)
 DOI: 10.1080/00268976.2014.952696

 Q-Chem 5.4.1 for Intel X86 EM64T Linux

 Parts of Q-Chem use Armadillo 9.800.1 (Horizon Scraper).
 http://arma.sourceforge.net/

 Q-Chem begins on Wed Apr 26 09:30:18 2023  

 Host: 
0

     Scratch files written to /scratch/ari.fischer/qChem1517718.hpc-mn1/qchem92742//
 Aug1521 |scratch|qcdevops|jenkins|workspace|build_RNUM 8249   
 Processing $rem in /usr/local/qchem-5.4.1/config/preferences:
 Processing $rem in /home/ari.fischer/.qchemrc:
 Symmetry turned off for PCM/SM12/SMD calculation


!!********************************************.
!!******************Warning*******************.
!!Desired Analytical derivatives not available.
!!Finite difference job might take a long time.
!!********************************************.
!!********************************************.


 2-order derivative to be evaluated numerically with 1-order analytical derivatives

 Checking the input file for inconsistencies... 	...done.

--------------------------------------------------------------
User input:
--------------------------------------------------------------
$molecule
0 2
C   -0.7312401    2.0609455    4.0165486
H   -1.4644041    2.4626843    3.3180064
O   -1.1472525    1.4122920    5.0459689
H   -1.0450516    0.2824744    4.6521160
O   -0.3720209    0.5048215    2.9230497
O   -0.7018863   -0.4310643    3.7310938
C    0.5943206    2.6949575    4.0003450
C    0.8825639    3.6197469    3.0038340
H    0.1247171    3.8677238    2.2727522
C    2.1323565    4.2172033    2.9600789
H    2.3610620    4.9393537    2.1901305
C    3.0876937    3.8852650    3.9104620
H    4.0616047    4.3525394    3.8785780
C    2.7988271    2.9578327    4.9055650
H    3.5475827    2.7047407    5.6418890
C    1.5519735    2.3599048    4.9524309
H    1.3104871    1.6381178    5.7193105
$end

$rem
BASIS = 6-311++G(2df,2p)
GUI = 2
JOB_TYPE = Frequency
METHOD = wB97M-V
SOLVENT_METHOD = SMD
SCF_ALGORITHM = DIIS_GDM
MAX_SCF_CYCLES = 400
SCF_CONVERGENCE = 6
THRESH = 11
SYMMETRY_IGNORE = 1
$end

--------------------------------------------------------------
 ----------------------------------------------------------------
             Standard Nuclear Orientation (Angstroms)
    I     Atom           X                Y                Z
 ----------------------------------------------------------------
    1      C      -0.7312401000     2.0609455000     4.0165486000
    2      H      -1.4644041000     2.4626843000     3.3180064000
    3      O      -1.1472525000     1.4122920000     5.0459689000
    4      H      -1.0450516000     0.2824744000     4.6521160000
    5      O      -0.3720209000     0.5048215000     2.9230497000
    6      O      -0.7018863000    -0.4310643000     3.7310938000
    7      C       0.5943206000     2.6949575000     4.0003450000
    8      C       0.8825639000     3.6197469000     3.0038340000
    9      H       0.1247171000     3.8677238000     2.2727522000
   10      C       2.1323565000     4.2172033000     2.9600789000
   11      H       2.3610620000     4.9393537000     2.1901305000
   12      C       3.0876937000     3.8852650000     3.9104620000
   13      H       4.0616047000     4.3525394000     3.8785780000
   14      C       2.7988271000     2.9578327000     4.9055650000
   15      H       3.5475827000     2.7047407000     5.6418890000
   16      C       1.5519735000     2.3599048000     4.9524309000
   17      H       1.3104871000     1.6381178000     5.7193105000
 ----------------------------------------------------------------
 Nuclear Repulsion Energy =         503.54033235 hartrees
 There are       37 alpha and       36 beta electrons
 Requested basis set is 6-311++G(2df,2p)
 There are 122 shells and 410 basis functions

 Total QAlloc Memory Limit 288000 MB
 Mega-Array Size       188 MB
 MEM_STATIC part       192 MB
 
 Citation of the SMD model:
 Marenich, A.V.; Cramer, C.J.; Truhlar, D.G.
 J. Phys. Chem. B 2009, 113, 6378-6396.
 iSolventCode=           1
 Solvent: water                                                           
 
 vradii
            1           2           3           4           5           6
    1   1.8500000   1.2000000   1.5200000   1.2000000   1.5200000   1.5200000
            7           8           9          10          11          12
    1   1.8500000   1.8500000   1.2000000   1.8500000   1.2000000   1.8500000
           13          14          15          16          17
    1   1.2000000   1.8500000   1.2000000   1.8500000   1.2000000
 Changing PCM_VDW_RADII to SMD_RADIUS
 Discretize the solute cavity surface with Lebedev spheres
	Using 110 Lebedev grid points for each H atom
	Using 194 Lebedev grid points for other atoms
	Atomic van der Waals radii will be scaled by 1.20
 Remove points where switching function is < 1.0e-08
 Keep 1309 surface tesserae and discard 1401 interior tesserae
 Molecular Surface Area = 156.962 Angst**2
 A cutoff of  1.0D-11 yielded   6448 shell pairs
 There are     73285 function pairs (     91806 Cartesian)
 Smallest overlap matrix eigenvalue = 8.88E-07

 Q-Chem warning in module stvman/mkSTV.C, line 323:

 Overlap eigenvalue is smaller than square root of threshold
 Use THRESH >= 12 to get rid of this warning

 Linear dependence detected in AO basis
 Tighter screening thresholds may be required for diffuse basis sets
 Use S2THRESH > 14 and THRESH = 14 in case of SCF convergence issues
 Number of orthogonalized atomic orbitals = 409
 Maximum deviation from orthogonality = 9.680E-11
 Guess from superposition of atomic densities
 Warning:  Energy on first SCF cycle will be non-variational
 SAD guess density has 73.000000 electrons

 -----------------------------------------------------------------------
  General SCF calculation program by
  Eric Jon Sundstrom, Paul Horn, Yuezhi Mao, Dmitri Zuev, Alec White,
  David Stuck, Shaama M.S., Shane Yost, Joonho Lee, David Small,
  Daniel Levine, Susi Lehtola, Hugh Burton, Evgeny Epifanovsky,
  Bang C. Huynh
 -----------------------------------------------------------------------
 Exchange:     0.1500 Hartree-Fock + 1.0000 wB97M-V + LR-HF
 Correlation:  1.0000 wB97M-V
 Using SG-2 standard quadrature grid
 Nonlocal Correlation:  VV10 with C = 0.0100 and b = 6.00 and scale = 1.00000
 Grid used for NLC:  SG-1 standard quadrature
 using 8 threads for integral computing
 -------------------------------------------------------
 OpenMP Integral computing Module                
 Release: version 1.0, May 2013, Q-Chem Inc. Pittsburgh 
 -------------------------------------------------------
 
 Citation of the SMD model:
 Marenich, A.V.; Cramer, C.J.; Truhlar, D.G.
 J. Phys. Chem. B 2009, 113, 6378-6396.
 iSolventCode=           1
 Solvent: water                                                           
 
 vradii
            1           2           3           4           5           6
    1   1.8500000   1.2000000   1.5200000   1.2000000   1.5200000   1.5200000
            7           8           9          10          11          12
    1   1.8500000   1.8500000   1.2000000   1.8500000   1.2000000   1.8500000
           13          14          15          16          17
    1   1.2000000   1.8500000   1.2000000   1.8500000   1.2000000
 -------------------------------------------------------
 OpenMP BLAS3 based DFT computing Module                
 Release: version 1.0, May 2013, Q-Chem Inc. Pittsburgh 
 -------------------------------------------------------
 A unrestricted SCF calculation will be
 performed using DIIS, GDM
 SCF converges when RMS gradient is below 1.0e-06
 ---------------------------------------
  Cycle       Energy         DIIS error
 ---------------------------------------
    1    -499.2740670751      1.27e-02  
    2    -496.3728797457      1.21e-03  Done DIIS. Switching to GDM
 ---------------------------------------
  Cycle       Energy        RMS Gradient
 ---------------------------------------
    1    -496.3728797457      9.36e-02   Descent step
    2    -496.4659814391      2.94e-02   Normal BFGS step
    3    -496.4781946832      1.37e-02   Normal BFGS step
    4    -496.4802743280      1.04e-02   Normal BFGS step
    5    -496.4806833740      3.89e-03   Normal BFGS step
    6    -496.4808114341      2.08e-03   Normal BFGS step
    7    -496.4808475602      1.04e-03   Normal BFGS step
    8    -496.4808534965      4.17e-04   Normal BFGS step
    9    -496.4808551722      2.41e-04   Normal BFGS step
   10    -496.4808555755      2.45e-04   Normal BFGS step
   11    -496.4808557561      1.17e-04   Normal BFGS step
   12    -496.4808558168      5.97e-05   Normal BFGS step
   13    -496.4808558345      3.70e-05   Normal BFGS step
   14    -496.4808558422      2.35e-05   Normal BFGS step
   15    -496.4808558443      9.90e-06   Normal BFGS step
   16    -496.4808558447      4.61e-06   Normal BFGS step
   17    -496.4808558447      2.41e-06   Normal BFGS step
   18    -496.4808558449      1.54e-06   Normal BFGS step
   19    -496.4808558450      1.02e-06   Normal BFGS step
   20    -496.4808558450      2.91e-07  Convergence criterion met
 ---------------------------------------
 SCF time:   CPU 1735.15s  wall 219.00s 
<S^2> =          0.755972641
(3)  G-ENP(liq) elect-nuc-pol free energy of system     -496.480855845 a.u.
(4)  G-CDS(liq) cavity-dispersion-solvent structure 
     free energy                                                3.3749 kcal/mol
(6)  G-S(liq) free energy of system                     -496.475477656 a.u.
 SCF   energy in the final basis set =     -496.4754776558
 Total energy in the final basis set =     -496.4754776558
 
 --------------------------------------------------------------
 
                    Orbital Energies (a.u.)
 --------------------------------------------------------------
 
 Alpha MOs
 -- Occupied --
-19.4477 -19.4448 -19.3429 -10.4582 -10.3589 -10.3541 -10.3527 -10.3514
-10.3485 -10.3484  -1.3603  -1.1868  -0.9996  -0.9719  -0.8958  -0.8789
 -0.7818  -0.7323  -0.7074  -0.6978  -0.6465  -0.6256  -0.6182  -0.5947
 -0.5744  -0.5439  -0.5425  -0.5287  -0.5021  -0.4777  -0.4594  -0.4446
 -0.4273  -0.4148  -0.3845  -0.3544  -0.3478
 -- Virtual --
  0.0142   0.0253   0.0361   0.0392   0.0540   0.0543   0.0567   0.0701
  0.0851   0.0867   0.1014   0.1047   0.1092   0.1214   0.1361   0.1437
  0.1475   0.1536   0.1548   0.1593   0.1612   0.1696   0.1734   0.1744
  0.1825   0.1851   0.1867   0.1996   0.2040   0.2154   0.2191   0.2196
  0.2268   0.2410   0.2548   0.2635   0.2717   0.2727   0.2732   0.2793
  0.2887   0.2943   0.3042   0.3128   0.3217   0.3323   0.3436   0.3459
  0.3518   0.3532   0.3569   0.3715   0.3787   0.3863   0.3903   0.4055
  0.4141   0.4193   0.4296   0.4444   0.4576   0.4784   0.4807   0.5272
  0.5532   0.5607   0.5711   0.5880   0.5977   0.5999   0.6062   0.6141
  0.6214   0.6221   0.6312   0.6349   0.6530   0.6740   0.6940   0.6974
  0.7162   0.7210   0.7273   0.7341   0.7379   0.7466   0.7503   0.7570
  0.7624   0.7741   0.7801   0.7870   0.8009   0.8303   0.8352   0.8370
  0.8480   0.8584   0.8793   0.8901   0.8949   0.8998   0.9190   0.9397
  0.9597   0.9642   1.0221   1.0369   1.0382   1.0536   1.0749   1.0883
  1.1005   1.1020   1.1096   1.1216   1.1303   1.1397   1.1607   1.1764
  1.1908   1.1998   1.2111   1.2229   1.2351   1.2428   1.2513   1.2647
  1.2703   1.2773   1.2989   1.3162   1.3490   1.3707   1.3754   1.3958
  1.4011   1.4029   1.4110   1.4307   1.4419   1.4512   1.4634   1.4675
  1.4805   1.4996   1.5172   1.5328   1.5617   1.5636   1.5792   1.5849
  1.6062   1.6238   1.6733   1.7004   1.7144   1.7300   1.7566   1.7752
  1.7872   1.8056   1.8105   1.8334   1.8850   1.9049   1.9565   1.9625
  2.0240   2.0648   2.0860   2.0925   2.1055   2.1095   2.1585   2.2431
  2.2588   2.3006   2.3072   2.4098   2.4850   2.5422   2.5895   2.6002
  2.6232   2.6503   2.6681   2.6871   2.7189   2.7335   2.7687   2.7891
  2.7971   2.8081   2.8247   2.8293   2.8402   2.8639   2.8650   2.8895
  2.8938   2.9076   2.9115   2.9299   2.9451   2.9482   2.9647   2.9692
  2.9959   3.0096   3.0182   3.0502   3.0528   3.1033   3.1418   3.1618
  3.1654   3.2047   3.2075   3.2211   3.2316   3.2447   3.2544   3.2689
  3.2788   3.2881   3.3097   3.3180   3.3375   3.3605   3.3857   3.3925
  3.4194   3.4254   3.4503   3.4577   3.4863   3.4900   3.5139   3.5317
  3.5402   3.5526   3.5605   3.5763   3.5989   3.6169   3.6285   3.6424
  3.6652   3.6891   3.7309   3.7560   3.7808   3.8056   3.8268   3.8285
  3.8383   3.8503   3.8773   3.8828   3.9006   3.9096   3.9400   3.9467
  3.9529   3.9715   3.9988   4.0369   4.0820   4.0931   4.1222   4.1328
  4.1494   4.1633   4.1931   4.2222   4.2293   4.2507   4.3239   4.3501
  4.3685   4.4336   4.4423   4.4567   4.4636   4.4978   4.5216   4.5410
  4.5476   4.5590   4.5695   4.5783   4.5878   4.6008   4.6483   4.6927
  4.7007   4.7163   4.7398   4.7688   4.7981   4.8292   4.8335   4.8944
  4.9052   4.9964   5.0406   5.0622   5.0674   5.1404   5.1461   5.1654
  5.1808   5.1945   5.2043   5.2228   5.2346   5.2405   5.2735   5.3059
  5.3462   5.3524   5.3675   5.3738   5.4212   5.4712   5.5226   5.5674
  5.5776   5.6098   5.6311   5.7190   5.7655   5.8022   5.8436   5.8818
  5.9033   5.9503   6.1809   6.2906   6.4860   6.5029   6.5451   6.6908
  6.6993   6.8216   6.9428   7.0116   7.0704   7.0904   7.1151   7.1503
  7.2738   7.3582   7.3996   7.4956   7.5156   7.5486   7.7889   7.9921
  8.0435   8.1393  24.2144  24.8028  24.8182  24.9642  25.0781  25.0919
 25.5422  50.4804  50.5097  50.7260
 
 Beta MOs
 -- Occupied --
-19.4312 -19.4306 -19.3429 -10.4585 -10.3587 -10.3542 -10.3527 -10.3514
-10.3484 -10.3483  -1.3320  -1.1859  -0.9984  -0.9366  -0.8918  -0.8789
 -0.7803  -0.7320  -0.6987  -0.6961  -0.6408  -0.6057  -0.5941  -0.5747
 -0.5491  -0.5430  -0.5303  -0.5261  -0.4990  -0.4719  -0.4588  -0.4446
 -0.4135  -0.3962  -0.3545  -0.3438
 -- Virtual --
 -0.0314   0.0173   0.0254   0.0362   0.0393   0.0541   0.0545   0.0569
  0.0704   0.0857   0.0869   0.1022   0.1052   0.1095   0.1220   0.1364
  0.1445   0.1480   0.1541   0.1554   0.1595   0.1616   0.1700   0.1736
  0.1757   0.1829   0.1858   0.1869   0.2005   0.2056   0.2156   0.2197
  0.2202   0.2298   0.2436   0.2556   0.2649   0.2724   0.2735   0.2745
  0.2796   0.2894   0.2963   0.3069   0.3190   0.3235   0.3324   0.3446
  0.3471   0.3521   0.3542   0.3576   0.3748   0.3790   0.3878   0.3927
  0.4088   0.4152   0.4196   0.4298   0.4460   0.4586   0.4787   0.4812
  0.5277   0.5532   0.5611   0.5712   0.5888   0.5978   0.6000   0.6065
  0.6142   0.6220   0.6226   0.6315   0.6354   0.6531   0.6741   0.6943
  0.6975   0.7161   0.7209   0.7273   0.7342   0.7382   0.7469   0.7508
  0.7578   0.7624   0.7742   0.7804   0.7886   0.8008   0.8306   0.8360
  0.8371   0.8482   0.8586   0.8795   0.8906   0.8950   0.8999   0.9210
  0.9405   0.9605   0.9648   1.0238   1.0384   1.0428   1.0546   1.0764
  1.0902   1.1013   1.1040   1.1126   1.1291   1.1383   1.1470   1.1620
  1.1812   1.1934   1.2024   1.2158   1.2240   1.2379   1.2468   1.2540
  1.2679   1.2772   1.2921   1.3002   1.3179   1.3498   1.3724   1.3773
  1.3968   1.4020   1.4048   1.4118   1.4376   1.4426   1.4562   1.4644
  1.4692   1.4812   1.5030   1.5185   1.5369   1.5640   1.5682   1.5803
  1.5868   1.6220   1.6322   1.6740   1.7031   1.7234   1.7365   1.7591
  1.7801   1.7877   1.8101   1.8122   1.8344   1.8936   1.9060   1.9626
  1.9693   2.0298   2.0671   2.0867   2.0946   2.1080   2.1138   2.1652
  2.2484   2.2682   2.3137   2.3219   2.4128   2.4881   2.5457   2.5905
  2.6029   2.6237   2.6510   2.6695   2.6938   2.7191   2.7340   2.7686
  2.7895   2.7970   2.8082   2.8247   2.8292   2.8402   2.8642   2.8650
  2.8893   2.8936   2.9075   2.9113   2.9297   2.9450   2.9481   2.9646
  2.9691   2.9957   3.0092   3.0181   3.0498   3.0527   3.1028   3.1409
  3.1614   3.1652   3.2044   3.2075   3.2209   3.2315   3.2448   3.2545
  3.2691   3.2784   3.2879   3.3093   3.3179   3.3374   3.3601   3.3857
  3.3928   3.4193   3.4252   3.4502   3.4576   3.4862   3.4898   3.5138
  3.5316   3.5399   3.5526   3.5602   3.5758   3.5987   3.6166   3.6283
  3.6422   3.6652   3.6888   3.7306   3.7553   3.7804   3.8054   3.8265
  3.8288   3.8383   3.8488   3.8774   3.8827   3.9005   3.9096   3.9400
  3.9468   3.9530   3.9714   3.9985   4.0367   4.0813   4.0930   4.1220
  4.1327   4.1493   4.1631   4.1931   4.2217   4.2293   4.2504   4.3239
  4.3500   4.3687   4.4338   4.4425   4.4565   4.4636   4.5003   4.5216
  4.5418   4.5488   4.5687   4.5782   4.5863   4.5922   4.6056   4.6492
  4.7058   4.7153   4.7284   4.7410   4.7854   4.8015   4.8312   4.8342
  4.8947   4.9167   5.0029   5.0621   5.0669   5.1320   5.1466   5.1728
  5.1806   5.2009   5.2178   5.2206   5.2453   5.2502   5.2781   5.3085
  5.3201   5.3536   5.3594   5.3720   5.3826   5.4317   5.4765   5.5304
  5.5712   5.5830   5.6169   5.6586   5.7412   5.7653   5.8022   5.8436
  5.8816   5.9033   5.9504   6.1825   6.2905   6.4929   6.5034   6.5953
  6.6910   6.7114   6.8735   7.0055   7.0396   7.1112   7.1457   7.1539
  7.1675   7.3135   7.4045   7.4222   7.5026   7.5326   7.5556   7.7977
  7.9951   8.0561   8.1594  24.2144  24.8028  24.8182  24.9640  25.0781
 25.0919  25.5422  50.4920  50.5217  50.7262
 --------------------------------------------------------------
 
          Ground-State Mulliken Net Atomic Charges

     Atom                 Charge (a.u.)    Spin (a.u.)
  --------------------------------------------------------
      1 C                    -0.531208      -0.039951
      2 H                     0.329392       0.003938
      3 O                    -0.451968       0.001688
      4 H                     0.368360      -0.009534
      5 O                    -0.057416       0.553145
      6 O                    -0.138463       0.474942
      7 C                     0.900226       0.015347
      8 C                    -0.894429       0.003040
      9 H                     0.265259       0.000655
     10 C                    -0.374266      -0.000367
     11 H                     0.285538      -0.000251
     12 C                    -0.315036       0.000400
     13 H                     0.280797       0.000201
     14 C                    -0.414912      -0.000942
     15 H                     0.283302      -0.000152
     16 C                     0.188007      -0.002290
     17 H                     0.276817       0.000132
  --------------------------------------------------------
  Sum of atomic charges =     0.000000
  Sum of spin   charges =     1.000000

 -----------------------------------------------------------------
                    Cartesian Multipole Moments
 -----------------------------------------------------------------
    Charge (ESU x 10^10)
                 0.0000
    Dipole Moment (Debye)
         X       1.7318      Y       2.9526      Z      -0.9290
       Tot       3.5469
    Quadrupole Moments (Debye-Ang)
        XX     -50.9441     XY       6.5655     YY     -47.1786
        XZ      11.3467     YZ       2.9086     ZZ     -66.1297
    Octopole Moments (Debye-Ang^2)
       XXX    -111.7078    XXY    -103.0671    XYY     -19.6539
       YYY    -366.8457    XXZ    -197.8445    XYZ      30.3573
       YYZ    -222.6924    XZZ      21.8551    YZZ    -155.4062
       ZZZ    -742.6318
    Hexadecapole Moments (Debye-Ang^3)
      XXXX    -973.4001   XXXY    -478.3571   XXYY    -484.6955
      XYYY    -496.1410   YYYY   -2561.6846   XXXZ    -415.9500
      XXYZ    -399.9006   XYYZ    -108.8015   YYYZ   -1580.8584
      XXZZ    -993.2649   XYZZ     -52.4362   YYZZ   -1493.2807
      XZZZ    -166.7134   YZZZ   -1783.3349   ZZZZ   -6084.9726
 -----------------------------------------------------------------
 Calculating analytic gradient of the SCF energy
 Gradient of CDS energy
            1           2           3           4           5           6
    1  -0.0015727   0.0001290   0.0007760  -0.0000934   0.0000467   0.0001015
    2  -0.0008245  -0.0000015   0.0011094  -0.0002417  -0.0000836  -0.0000174
    3   0.0022093  -0.0003113  -0.0016625   0.0001939   0.0000252  -0.0002612
            7           8           9          10          11          12
    1   0.0000575  -0.0003023  -0.0001673   0.0000940   0.0000436   0.0004666
    2  -0.0003112   0.0000321   0.0000101   0.0003406   0.0001375   0.0002237
    3  -0.0002090  -0.0001382  -0.0000951  -0.0003726  -0.0001466  -0.0000179
           13          14          15          16          17
    1   0.0001857   0.0003368   0.0001426  -0.0001934  -0.0000510
    2   0.0000891  -0.0001347  -0.0000482  -0.0001959  -0.0000839
    3  -0.0000061   0.0003570   0.0001403   0.0002145   0.0000804
 Gradient of SCF Energy
            1           2           3           4           5           6
    1   0.0061085  -0.0045453  -0.0025819   0.0004017   0.0007803   0.0010100
    2  -0.0066999   0.0039852   0.0036672  -0.0004170  -0.0009599  -0.0009216
    3   0.0089208  -0.0063785   0.0043246   0.0001243  -0.0004083  -0.0027200
            7           8           9          10          11          12
    1  -0.0038261   0.0094933  -0.0072288   0.0003365   0.0016812  -0.0054982
    2  -0.0006005  -0.0032155   0.0020578  -0.0035597   0.0053547  -0.0034648
    3  -0.0007730   0.0080060  -0.0062752   0.0043754  -0.0057013   0.0010830
           13          14          15          16          17
    1   0.0068196  -0.0062700   0.0045525  -0.0019213   0.0006879
    2   0.0033664   0.0002503  -0.0012813   0.0042613  -0.0018228
    3  -0.0002372  -0.0036860   0.0041846  -0.0064427   0.0016032
 Max gradient component =       9.493E-03
 RMS gradient           =       4.259E-03
 Computing fast CPCM-SWIG gradient
 Updating gradient with PCM contributions...
 -- total gradient after adding PCM contribution --
---------------------------------------------------
  Atom         X              Y              Z     
---------------------------------------------------
   1      -0.000124       0.001726       0.001316
   2       0.000738      -0.000246       0.000075
   3       0.000553       0.000776      -0.000186
   4       0.000193       0.000267       0.000143
   5       0.000564      -0.000922      -0.000754
   6       0.000311       0.000181      -0.000349
   7      -0.000185      -0.000361      -0.000061
   8       0.000031      -0.000221       0.000103
   9       0.000261      -0.000397       0.000554
  10      -0.000119      -0.000251       0.000199
  11      -0.000144      -0.000471       0.000476
  12      -0.000260      -0.000138       0.000006
  13      -0.000612      -0.000298       0.000019
  14      -0.000278       0.000013      -0.000203
  15      -0.000486       0.000162      -0.000459
  16      -0.000185      -0.000111      -0.000230
  17      -0.000255       0.000292      -0.000649
---------------------------------------------------
 Number of fixed atoms: 0
 Gradient time:  CPU 259.33 s  wall 37.40 s
 ######################################################
 ######################################################
 # Starting finite difference calculation for IDERIV  #
 Finite diff step size:  1.88973e-03 a.u.
 ----------------------------------------------------------------
             Standard Nuclear Orientation (Angstroms)
    I     Atom           X                Y                Z
 ----------------------------------------------------------------
    1      C      -0.7302401000     2.0609455000     4.0165486000
    2      H      -1.4644041000     2.4626843000     3.3180064000
    3      O      -1.1472525000     1.4122920000     5.0459689000
    4      H      -1.0450516000     0.2824744000     4.6521160000
    5      O      -0.3720209000     0.5048215000     2.9230497000
    6      O      -0.7018863000    -0.4310643000     3.7310938000
    7      C       0.5943206000     2.6949575000     4.0003450000
    8      C       0.8825639000     3.6197469000     3.0038340000
    9      H       0.1247171000     3.8677238000     2.2727522000
   10      C       2.1323565000     4.2172033000     2.9600789000
   11      H       2.3610620000     4.9393537000     2.1901305000
   12      C       3.0876937000     3.8852650000     3.9104620000
   13      H       4.0616047000     4.3525394000     3.8785780000
   14      C       2.7988271000     2.9578327000     4.9055650000
   15      H       3.5475827000     2.7047407000     5.6418890000
   16      C       1.5519735000     2.3599048000     4.9524309000
   17      H       1.3104871000     1.6381178000     5.7193105000
 ----------------------------------------------------------------
 Nuclear Repulsion Energy =         503.55167503 hartrees
 There are       37 alpha and       36 beta electrons
 Discretize the solute cavity surface with Lebedev spheres
	Using 110 Lebedev grid points for each H atom
	Using 194 Lebedev grid points for other atoms
	Atomic van der Waals radii will be scaled by 1.20
 Remove points where switching function is < 1.0e-08
 Keep 1308 surface tesserae and discard 1402 interior tesserae
 Molecular Surface Area = 156.959 Angst**2
 Requested basis set is 6-311++G(2df,2p)
 There are 122 shells and 410 basis functions
 A cutoff of  1.0D-11 yielded   6448 shell pairs
 There are     73285 function pairs (     91806 Cartesian)
 Smallest overlap matrix eigenvalue = 8.88E-07

 Q-Chem warning in module stvman/mkSTV.C, line 323:

 Overlap eigenvalue is smaller than square root of threshold
 Use THRESH >= 12 to get rid of this warning

 Linear dependence detected in AO basis
 Tighter screening thresholds may be required for diffuse basis sets
 Use S2THRESH > 14 and THRESH = 14 in case of SCF convergence issues
 Number of orthogonalized atomic orbitals = 409
 Maximum deviation from orthogonality = 7.517E-11
 Guess MOs from SCF MO coefficient file

 -----------------------------------------------------------------------
  General SCF calculation program by
  Eric Jon Sundstrom, Paul Horn, Yuezhi Mao, Dmitri Zuev, Alec White,
  David Stuck, Shaama M.S., Shane Yost, Joonho Lee, David Small,
  Daniel Levine, Susi Lehtola, Hugh Burton, Evgeny Epifanovsky,
  Bang C. Huynh
 -----------------------------------------------------------------------
 Exchange:     0.1500 Hartree-Fock + 1.0000 wB97M-V + LR-HF
 Correlation:  1.0000 wB97M-V
 Using SG-2 standard quadrature grid
 Nonlocal Correlation:  VV10 with C = 0.0100 and b = 6.00 and scale = 1.00000
 Grid used for NLC:  SG-1 standard quadrature
 
 Citation of the SMD model:
 Marenich, A.V.; Cramer, C.J.; Truhlar, D.G.
 J. Phys. Chem. B 2009, 113, 6378-6396.
 iSolventCode=           1
 Solvent: water                                                           
 
 vradii
            1           2           3           4           5           6
    1   1.8500000   1.2000000   1.5200000   1.2000000   1.5200000   1.5200000
            7           8           9          10          11          12
    1   1.8500000   1.8500000   1.2000000   1.8500000   1.2000000   1.8500000
           13          14          15          16          17
    1   1.2000000   1.8500000   1.2000000   1.8500000   1.2000000
 -------------------------------------------------------
 OpenMP BLAS3 based DFT computing Module                
 Release: version 1.0, May 2013, Q-Chem Inc. Pittsburgh 
 -------------------------------------------------------
 A unrestricted SCF calculation will be
 performed using Roothaan-Hall, DIIS, GDM
 SCF converges when RMS gradient is below 1.0e-06
 ---------------------------------------
  Cycle       Energy         DIIS error
 ---------------------------------------
    1    -496.4639116595      1.28e-04  Roothaan Step
 ---------------------------------------
  Cycle       Energy         DIIS error
 ---------------------------------------
    1    -496.4782756464      1.44e-04  
    2    -496.4800294887      1.12e-04  Done DIIS. Switching to GDM
 ---------------------------------------
  Cycle       Energy        RMS Gradient
 ---------------------------------------
    1    -496.4800294887      4.85e-03   Normal BFGS step
    2    -496.4800988913      7.22e-03   Normal BFGS step
    3    -496.4808358609      9.44e-04   Normal BFGS step
    4    -496.4808427644      1.01e-03   Normal BFGS step
    5    -496.4808513921      3.02e-04   Normal BFGS step
    6    -496.4808515783      2.77e-04   Normal BFGS step
    7    -496.4808520598      5.94e-05   Normal BFGS step
    8    -496.4808520755      3.82e-05   Normal BFGS step
    9    -496.4808520827      9.95e-06   Normal BFGS step
   10    -496.4808520836      5.40e-06   Normal BFGS step
   11    -496.4808520836      3.81e-06   Normal BFGS step
   12    -496.4808520840      2.60e-06   Normal BFGS step
   13    -496.4808520841      1.36e-06   Normal BFGS step
  GDM::WARNING energy changes are now smaller than effective accuracy.
  GDM::        calculation will continue, but THRESH should be increased
  GDM::        or SCF_CONVERGENCE decreased. 
  GDM::        effective_thresh = 4.18e-09
   14    -496.4808520841      8.56e-07  Convergence criterion met
 ---------------------------------------
 SCF time:   CPU 1380.65s  wall 175.00s 
<S^2> =          0.755973775
(3)  G-ENP(liq) elect-nuc-pol free energy of system     -496.480852084 a.u.
(4)  G-CDS(liq) cavity-dispersion-solvent structure 
     free energy                                                3.3730 kcal/mol
(6)  G-S(liq) free energy of system                     -496.475476869 a.u.
 SCF   energy in the final basis set =     -496.4754768687
 Total energy in the final basis set =     -496.4754768687
 
 --------------------------------------------------------------
 
                    Orbital Energies (a.u.)
 --------------------------------------------------------------
 
 Alpha MOs
 -- Occupied --
-19.4478 -19.4448 -19.3428 -10.4582 -10.3589 -10.3542 -10.3527 -10.3514
-10.3485 -10.3484  -1.3603  -1.1866  -0.9996  -0.9720  -0.8959  -0.8789
 -0.7818  -0.7324  -0.7074  -0.6977  -0.6465  -0.6256  -0.6182  -0.5947
 -0.5745  -0.5438  -0.5425  -0.5287  -0.5022  -0.4777  -0.4594  -0.4446
 -0.4273  -0.4148  -0.3845  -0.3544  -0.3478
 -- Virtual --
  0.0141   0.0253   0.0361   0.0392   0.0540   0.0543   0.0567   0.0701
  0.0851   0.0867   0.1014   0.1047   0.1092   0.1214   0.1361   0.1437
  0.1475   0.1536   0.1548   0.1593   0.1612   0.1696   0.1734   0.1744
  0.1825   0.1851   0.1867   0.1996   0.2040   0.2154   0.2191   0.2196
  0.2268   0.2410   0.2548   0.2635   0.2717   0.2727   0.2732   0.2793
  0.2887   0.2943   0.3042   0.3128   0.3217   0.3323   0.3436   0.3459
  0.3518   0.3532   0.3569   0.3715   0.3788   0.3863   0.3903   0.4055
  0.4141   0.4193   0.4296   0.4445   0.4577   0.4784   0.4807   0.5273
  0.5531   0.5608   0.5712   0.5880   0.5977   0.5999   0.6062   0.6141
  0.6214   0.6221   0.6311   0.6349   0.6530   0.6740   0.6940   0.6974
  0.7162   0.7209   0.7273   0.7341   0.7379   0.7465   0.7503   0.7570
  0.7624   0.7741   0.7801   0.7870   0.8009   0.8303   0.8352   0.8370
  0.8480   0.8584   0.8793   0.8902   0.8949   0.8998   0.9190   0.9397
  0.9597   0.9642   1.0221   1.0369   1.0382   1.0536   1.0748   1.0883
  1.1004   1.1020   1.1095   1.1216   1.1303   1.1397   1.1606   1.1764
  1.1908   1.2000   1.2111   1.2229   1.2351   1.2428   1.2513   1.2648
  1.2702   1.2774   1.2989   1.3162   1.3491   1.3707   1.3756   1.3958
  1.4011   1.4029   1.4110   1.4307   1.4419   1.4512   1.4634   1.4675
  1.4805   1.4995   1.5172   1.5328   1.5616   1.5636   1.5792   1.5848
  1.6062   1.6239   1.6733   1.7002   1.7144   1.7300   1.7566   1.7752
  1.7872   1.8056   1.8105   1.8334   1.8851   1.9050   1.9565   1.9626
  2.0241   2.0648   2.0860   2.0926   2.1055   2.1095   2.1586   2.2431
  2.2589   2.3006   2.3073   2.4097   2.4850   2.5421   2.5895   2.6002
  2.6233   2.6505   2.6682   2.6871   2.7190   2.7337   2.7690   2.7892
  2.7971   2.8081   2.8247   2.8293   2.8401   2.8638   2.8650   2.8895
  2.8937   2.9076   2.9114   2.9299   2.9452   2.9483   2.9647   2.9692
  2.9959   3.0099   3.0182   3.0503   3.0528   3.1034   3.1415   3.1618
  3.1653   3.2047   3.2075   3.2211   3.2316   3.2447   3.2544   3.2691
  3.2789   3.2882   3.3096   3.3181   3.3375   3.3605   3.3856   3.3925
  3.4194   3.4255   3.4502   3.4578   3.4863   3.4899   3.5138   3.5316
  3.5403   3.5526   3.5605   3.5764   3.5990   3.6170   3.6285   3.6424
  3.6654   3.6892   3.7308   3.7558   3.7804   3.8057   3.8270   3.8286
  3.8383   3.8504   3.8774   3.8828   3.9004   3.9097   3.9400   3.9468
  3.9530   3.9716   3.9988   4.0370   4.0821   4.0931   4.1223   4.1329
  4.1495   4.1633   4.1930   4.2223   4.2291   4.2513   4.3237   4.3500
  4.3684   4.4336   4.4422   4.4571   4.4638   4.4979   4.5216   4.5410
  4.5477   4.5591   4.5695   4.5783   4.5877   4.6009   4.6482   4.6928
  4.7008   4.7165   4.7400   4.7688   4.7983   4.8293   4.8336   4.8944
  4.9052   4.9964   5.0406   5.0622   5.0674   5.1404   5.1462   5.1654
  5.1808   5.1945   5.2044   5.2228   5.2346   5.2404   5.2735   5.3060
  5.3463   5.3524   5.3676   5.3738   5.4212   5.4709   5.5227   5.5674
  5.5776   5.6098   5.6311   5.7191   5.7645   5.8025   5.8436   5.8817
  5.9033   5.9503   6.1804   6.2907   6.4859   6.5023   6.5451   6.6907
  6.6993   6.8216   6.9428   7.0116   7.0702   7.0904   7.1151   7.1503
  7.2739   7.3582   7.3996   7.4955   7.5156   7.5486   7.7889   7.9921
  8.0436   8.1393  24.2145  24.8027  24.8183  24.9638  25.0786  25.0920
 25.5424  50.4805  50.5097  50.7258
 
 Beta MOs
 -- Occupied --
-19.4312 -19.4306 -19.3429 -10.4585 -10.3587 -10.3542 -10.3527 -10.3515
-10.3485 -10.3484  -1.3320  -1.1857  -0.9985  -0.9366  -0.8919  -0.8790
 -0.7804  -0.7321  -0.6987  -0.6961  -0.6408  -0.6057  -0.5941  -0.5747
 -0.5491  -0.5430  -0.5303  -0.5260  -0.4990  -0.4718  -0.4588  -0.4446
 -0.4135  -0.3962  -0.3545  -0.3438
 -- Virtual --
 -0.0314   0.0172   0.0254   0.0362   0.0393   0.0541   0.0545   0.0569
  0.0704   0.0857   0.0869   0.1022   0.1052   0.1096   0.1220   0.1364
  0.1445   0.1480   0.1541   0.1554   0.1595   0.1616   0.1700   0.1736
  0.1757   0.1829   0.1858   0.1869   0.2005   0.2056   0.2156   0.2197
  0.2202   0.2298   0.2436   0.2556   0.2649   0.2724   0.2735   0.2746
  0.2796   0.2894   0.2963   0.3069   0.3190   0.3234   0.3324   0.3446
  0.3471   0.3521   0.3543   0.3575   0.3748   0.3791   0.3878   0.3927
  0.4088   0.4152   0.4196   0.4298   0.4461   0.4586   0.4787   0.4811
  0.5278   0.5531   0.5611   0.5712   0.5888   0.5978   0.6000   0.6065
  0.6142   0.6219   0.6226   0.6314   0.6354   0.6531   0.6741   0.6943
  0.6975   0.7161   0.7209   0.7273   0.7342   0.7381   0.7468   0.7507
  0.7578   0.7624   0.7742   0.7804   0.7886   0.8008   0.8306   0.8360
  0.8371   0.8482   0.8585   0.8795   0.8906   0.8950   0.8999   0.9211
  0.9405   0.9606   0.9648   1.0239   1.0384   1.0429   1.0546   1.0763
  1.0902   1.1013   1.1041   1.1126   1.1291   1.1383   1.1470   1.1620
  1.1812   1.1935   1.2025   1.2159   1.2241   1.2380   1.2469   1.2540
  1.2679   1.2772   1.2921   1.3002   1.3179   1.3498   1.3724   1.3774
  1.3969   1.4021   1.4048   1.4118   1.4376   1.4426   1.4562   1.4644
  1.4692   1.4812   1.5029   1.5185   1.5369   1.5640   1.5681   1.5803
  1.5867   1.6220   1.6322   1.6741   1.7029   1.7234   1.7365   1.7592
  1.7801   1.7877   1.8101   1.8123   1.8344   1.8937   1.9061   1.9627
  1.9694   2.0298   2.0671   2.0867   2.0947   2.1080   2.1138   2.1652
  2.2485   2.2683   2.3137   2.3219   2.4127   2.4881   2.5456   2.5905
  2.6029   2.6237   2.6511   2.6695   2.6938   2.7193   2.7342   2.7690
  2.7896   2.7971   2.8082   2.8247   2.8292   2.8402   2.8641   2.8650
  2.8893   2.8936   2.9075   2.9112   2.9297   2.9451   2.9482   2.9646
  2.9691   2.9957   3.0095   3.0181   3.0499   3.0527   3.1029   3.1406
  3.1614   3.1651   3.2044   3.2075   3.2210   3.2314   3.2448   3.2545
  3.2693   3.2786   3.2880   3.3093   3.3180   3.3374   3.3601   3.3857
  3.3928   3.4192   3.4253   3.4501   3.4577   3.4862   3.4897   3.5137
  3.5316   3.5400   3.5525   3.5602   3.5759   3.5988   3.6167   3.6283
  3.6422   3.6653   3.6889   3.7305   3.7551   3.7800   3.8055   3.8267
  3.8288   3.8383   3.8489   3.8775   3.8828   3.9004   3.9097   3.9401
  3.9468   3.9531   3.9715   3.9985   4.0367   4.0813   4.0930   4.1221
  4.1328   4.1493   4.1632   4.1931   4.2217   4.2291   4.2510   4.3237
  4.3499   4.3686   4.4338   4.4424   4.4569   4.4638   4.5004   4.5215
  4.5418   4.5490   4.5687   4.5782   4.5863   4.5922   4.6057   4.6490
  4.7061   4.7154   4.7285   4.7411   4.7854   4.8017   4.8313   4.8342
  4.8947   4.9167   5.0028   5.0621   5.0670   5.1321   5.1466   5.1727
  5.1807   5.2011   5.2178   5.2207   5.2453   5.2502   5.2781   5.3086
  5.3202   5.3537   5.3595   5.3720   5.3827   5.4318   5.4762   5.5305
  5.5712   5.5829   5.6170   5.6587   5.7412   5.7644   5.8025   5.8436
  5.8814   5.9032   5.9504   6.1820   6.2906   6.4928   6.5029   6.5953
  6.6909   6.7114   6.8735   7.0055   7.0395   7.1112   7.1457   7.1539
  7.1675   7.3136   7.4045   7.4222   7.5025   7.5327   7.5557   7.7976
  7.9951   8.0561   8.1594  24.2145  24.8028  24.8183  24.9635  25.0786
 25.0920  25.5424  50.4921  50.5217  50.7260
 --------------------------------------------------------------
 
          Ground-State Mulliken Net Atomic Charges

     Atom                 Charge (a.u.)    Spin (a.u.)
  --------------------------------------------------------
      1 C                    -0.532223      -0.040016
      2 H                     0.329208       0.003943
      3 O                    -0.452372       0.001694
      4 H                     0.368426      -0.009528
      5 O                    -0.057374       0.553091
      6 O                    -0.138330       0.475004
      7 C                     0.901327       0.015421
      8 C                    -0.894357       0.003026
      9 H                     0.265258       0.000656
     10 C                    -0.374208      -0.000361
     11 H                     0.285537      -0.000251
     12 C                    -0.314852       0.000382
     13 H                     0.280815       0.000201
     14 C                    -0.414968      -0.000931
     15 H                     0.283298      -0.000152
     16 C                     0.188013      -0.002311
     17 H                     0.276804       0.000132
  --------------------------------------------------------
  Sum of atomic charges =     0.000000
  Sum of spin   charges =     1.000000

 -----------------------------------------------------------------
                    Cartesian Multipole Moments
 -----------------------------------------------------------------
    Charge (ESU x 10^10)
                 0.0000
    Dipole Moment (Debye)
         X       1.7404      Y       2.9553      Z      -0.9305
       Tot       3.5537
    Quadrupole Moments (Debye-Ang)
        XX     -50.9388     XY       6.5891     YY     -47.1617
        XZ      11.3819     YZ       2.9167     ZZ     -66.1415
    Octopole Moments (Debye-Ang^2)
       XXX    -111.6691    XXY    -103.0373    XYY     -19.5788
       YYY    -366.7573    XXZ    -197.8248    XYZ      30.4513
       YYZ    -222.6335    XZZ      22.0063    YZZ    -155.3785
       ZZZ    -742.7092
    Hexadecapole Moments (Debye-Ang^3)
      XXXX    -973.2235   XXXY    -478.2067   XXYY    -484.5436
      XYYY    -495.8635   YYYY   -2561.2393   XXXZ    -415.7965
      XXYZ    -399.7895   XYYZ    -108.5110   YYYZ   -1580.5427
      XXZZ    -993.1757   XYZZ     -52.0396   YYZZ   -1493.0468
      XZZZ    -166.0376   YZZZ   -1783.2323   ZZZZ   -6085.4518
 -----------------------------------------------------------------
 Calculating analytic gradient of the SCF energy
 Gradient of CDS energy
            1           2           3           4           5           6
    1  -0.0015745   0.0001278   0.0007802  -0.0000935   0.0000466   0.0001015
    2  -0.0008280  -0.0000012   0.0011131  -0.0002418  -0.0000836  -0.0000173
    3   0.0022158  -0.0003119  -0.0016686   0.0001941   0.0000251  -0.0002612
            7           8           9          10          11          12
    1   0.0000568  -0.0003024  -0.0001672   0.0000940   0.0000436   0.0004666
    2  -0.0003117   0.0000321   0.0000101   0.0003406   0.0001375   0.0002237
    3  -0.0002092  -0.0001381  -0.0000951  -0.0003726  -0.0001466  -0.0000179
           13          14          15          16          17
    1   0.0001857   0.0003368   0.0001426  -0.0001934  -0.0000511
    2   0.0000891  -0.0001347  -0.0000482  -0.0001959  -0.0000840
    3  -0.0000061   0.0003570   0.0001403   0.0002144   0.0000804
 Gradient of SCF Energy
            1           2           3           4           5           6
    1   0.0071878  -0.0049017  -0.0028089   0.0004094   0.0007339   0.0010164
    2  -0.0065720   0.0040897   0.0036001  -0.0004829  -0.0009581  -0.0008937
    3   0.0090721  -0.0065872   0.0044469   0.0000893  -0.0004281  -0.0026777
            7           8           9          10          11          12
    1  -0.0042333   0.0094516  -0.0072282   0.0003439   0.0016859  -0.0054983
    2  -0.0006967  -0.0032445   0.0020640  -0.0035624   0.0053632  -0.0034631
    3  -0.0008298   0.0080339  -0.0062802   0.0043779  -0.0057099   0.0010830
           13          14          15          16          17
    1   0.0068323  -0.0062697   0.0045603  -0.0019708   0.0006894
    2   0.0033729   0.0002521  -0.0012843   0.0042417  -0.0018260
    3  -0.0002372  -0.0036961   0.0041922  -0.0064594   0.0016103
 Max gradient component =       9.452E-03
 RMS gradient           =       4.323E-03
 Computing fast CPCM-SWIG gradient
 Updating gradient with PCM contributions...
 -- total gradient after adding PCM contribution --
---------------------------------------------------
  Atom         X              Y              Z     
---------------------------------------------------
   1       0.000957       0.001856       0.001475
   2       0.000371      -0.000131      -0.000149
   3       0.000334       0.000710      -0.000064
   4       0.000196       0.000199       0.000111
   5       0.000521      -0.000921      -0.000773
   6       0.000320       0.000206      -0.000309
   7      -0.000590      -0.000471      -0.000102
   8       0.000015      -0.000245       0.000123
   9       0.000260      -0.000393       0.000552
  10      -0.000107      -0.000252       0.000201
  11      -0.000143      -0.000470       0.000475
  12      -0.000257      -0.000134       0.000005
  13      -0.000612      -0.000297       0.000020
  14      -0.000274       0.000019      -0.000215
  15      -0.000486       0.000161      -0.000458
  16      -0.000249      -0.000130      -0.000245
  17      -0.000256       0.000291      -0.000645
---------------------------------------------------
 Number of fixed atoms: 0
 Gradient time:  CPU 256.71 s  wall 36.90 s
 ----------------------------------------------------------------
             Standard Nuclear Orientation (Angstroms)
    I     Atom           X                Y                Z
 ----------------------------------------------------------------
    1      C      -0.7322401000     2.0609455000     4.0165486000
    2      H      -1.4644041000     2.4626843000     3.3180064000
    3      O      -1.1472525000     1.4122920000     5.0459689000
    4      H      -1.0450516000     0.2824744000     4.6521160000
    5      O      -0.3720209000     0.5048215000     2.9230497000
    6      O      -0.7018863000    -0.4310643000     3.7310938000
    7      C       0.5943206000     2.6949575000     4.0003450000
    8      C       0.8825639000     3.6197469000     3.0038340000
    9      H       0.1247171000     3.8677238000     2.2727522000
   10      C       2.1323565000     4.2172033000     2.9600789000
   11      H       2.3610620000     4.9393537000     2.1901305000
   12      C       3.0876937000     3.8852650000     3.9104620000
   13      H       4.0616047000     4.3525394000     3.8785780000
   14      C       2.7988271000     2.9578327000     4.9055650000
   15      H       3.5475827000     2.7047407000     5.6418890000
   16      C       1.5519735000     2.3599048000     4.9524309000
   17      H       1.3104871000     1.6381178000     5.7193105000
 ----------------------------------------------------------------
 Nuclear Repulsion Energy =         503.52898945 hartrees
 There are       37 alpha and       36 beta electrons
 Discretize the solute cavity surface with Lebedev spheres
	Using 110 Lebedev grid points for each H atom
	Using 194 Lebedev grid points for other atoms
	Atomic van der Waals radii will be scaled by 1.20
 Remove points where switching function is < 1.0e-08
 Keep 1309 surface tesserae and discard 1401 interior tesserae
 Molecular Surface Area = 156.966 Angst**2
 Requested basis set is 6-311++G(2df,2p)
 There are 122 shells and 410 basis functions
 A cutoff of  1.0D-11 yielded   6448 shell pairs
 There are     73285 function pairs (     91806 Cartesian)
 Smallest overlap matrix eigenvalue = 8.88E-07

 Q-Chem warning in module stvman/mkSTV.C, line 323:

 Overlap eigenvalue is smaller than square root of threshold
 Use THRESH >= 12 to get rid of this warning

 Linear dependence detected in AO basis
 Tighter screening thresholds may be required for diffuse basis sets
 Use S2THRESH > 14 and THRESH = 14 in case of SCF convergence issues
 Number of orthogonalized atomic orbitals = 409
 Maximum deviation from orthogonality = 1.278E-10
 Guess MOs from SCF MO coefficient file

 -----------------------------------------------------------------------
  General SCF calculation program by
  Eric Jon Sundstrom, Paul Horn, Yuezhi Mao, Dmitri Zuev, Alec White,
  David Stuck, Shaama M.S., Shane Yost, Joonho Lee, David Small,
  Daniel Levine, Susi Lehtola, Hugh Burton, Evgeny Epifanovsky,
  Bang C. Huynh
 -----------------------------------------------------------------------
 Exchange:     0.1500 Hartree-Fock + 1.0000 wB97M-V + LR-HF
 Correlation:  1.0000 wB97M-V
 Using SG-2 standard quadrature grid
 Nonlocal Correlation:  VV10 with C = 0.0100 and b = 6.00 and scale = 1.00000
 Grid used for NLC:  SG-1 standard quadrature
 
 Citation of the SMD model:
 Marenich, A.V.; Cramer, C.J.; Truhlar, D.G.
 J. Phys. Chem. B 2009, 113, 6378-6396.
 iSolventCode=           1
 Solvent: water                                                           
 
 vradii
            1           2           3           4           5           6
    1   1.8500000   1.2000000   1.5200000   1.2000000   1.5200000   1.5200000
            7           8           9          10          11          12
    1   1.8500000   1.8500000   1.2000000   1.8500000   1.2000000   1.8500000
           13          14          15          16          17
    1   1.2000000   1.8500000   1.2000000   1.8500000   1.2000000
 -------------------------------------------------------
 OpenMP BLAS3 based DFT computing Module                
 Release: version 1.0, May 2013, Q-Chem Inc. Pittsburgh 
 -------------------------------------------------------
 A unrestricted SCF calculation will be
 performed using Roothaan-Hall, DIIS, GDM
 SCF converges when RMS gradient is below 1.0e-06
 ---------------------------------------
  Cycle       Energy         DIIS error
 ---------------------------------------
    1    -496.4639166374      1.28e-04  Roothaan Step
 ---------------------------------------
  Cycle       Energy         DIIS error
 ---------------------------------------
    1    -496.4782824851      1.44e-04  
    2    -496.4800421691      1.11e-04  Done DIIS. Switching to GDM
 ---------------------------------------
  Cycle       Energy        RMS Gradient
 ---------------------------------------
    1    -496.4800421691      4.82e-03   Normal BFGS step
    2    -496.4801176540      7.12e-03   Normal BFGS step
    3    -496.4808414139      9.19e-04   Normal BFGS step
    4    -496.4808481504      1.02e-03   Normal BFGS step
    5    -496.4808568680      2.94e-04   Normal BFGS step
    6    -496.4808570520      2.79e-04   Normal BFGS step
    7    -496.4808575304      5.77e-05   Normal BFGS step
    8    -496.4808575477      3.75e-05   Normal BFGS step
    9    -496.4808575563      2.02e-05   Normal BFGS step
   10    -496.4808575581      1.45e-05   Normal BFGS step
   11    -496.4808575587      8.53e-06   Normal BFGS step
   12    -496.4808575592      3.81e-06   Normal BFGS step
   13    -496.4808575593      1.82e-06   Normal BFGS step
   14    -496.4808575593      1.13e-06   Normal BFGS step
   15    -496.4808575590      5.78e-07  Convergence criterion met
 ---------------------------------------
 SCF time:   CPU 1441.60s  wall 182.00s 
<S^2> =          0.755971299
(3)  G-ENP(liq) elect-nuc-pol free energy of system     -496.480857559 a.u.
(4)  G-CDS(liq) cavity-dispersion-solvent structure 
     free energy                                                3.3767 kcal/mol
(6)  G-S(liq) free energy of system                     -496.475476400 a.u.
 SCF   energy in the final basis set =     -496.4754763995
 Total energy in the final basis set =     -496.4754763995
 
 --------------------------------------------------------------
 
                    Orbital Energies (a.u.)
 --------------------------------------------------------------
 
 Alpha MOs
 -- Occupied --
-19.4477 -19.4448 -19.3430 -10.4582 -10.3589 -10.3541 -10.3526 -10.3514
-10.3484 -10.3483  -1.3603  -1.1869  -0.9995  -0.9719  -0.8957  -0.8789
 -0.7817  -0.7323  -0.7075  -0.6978  -0.6465  -0.6256  -0.6182  -0.5948
 -0.5744  -0.5440  -0.5425  -0.5287  -0.5021  -0.4778  -0.4594  -0.4446
 -0.4272  -0.4148  -0.3845  -0.3544  -0.3478
 -- Virtual --
  0.0143   0.0253   0.0361   0.0392   0.0540   0.0543   0.0567   0.0701
  0.0851   0.0867   0.1014   0.1047   0.1091   0.1214   0.1361   0.1437
  0.1475   0.1536   0.1548   0.1593   0.1612   0.1696   0.1734   0.1744
  0.1825   0.1851   0.1867   0.1996   0.2040   0.2154   0.2191   0.2196
  0.2268   0.2410   0.2548   0.2635   0.2717   0.2727   0.2732   0.2793
  0.2887   0.2943   0.3042   0.3128   0.3218   0.3324   0.3436   0.3459
  0.3518   0.3532   0.3570   0.3715   0.3786   0.3863   0.3903   0.4054
  0.4141   0.4193   0.4296   0.4444   0.4576   0.4784   0.4808   0.5272
  0.5533   0.5607   0.5711   0.5881   0.5977   0.5999   0.6062   0.6141
  0.6214   0.6221   0.6312   0.6349   0.6530   0.6740   0.6940   0.6975
  0.7163   0.7210   0.7273   0.7341   0.7379   0.7466   0.7503   0.7570
  0.7624   0.7740   0.7801   0.7870   0.8009   0.8303   0.8352   0.8370
  0.8480   0.8585   0.8793   0.8901   0.8949   0.8998   0.9190   0.9397
  0.9596   0.9642   1.0220   1.0369   1.0381   1.0536   1.0750   1.0883
  1.1005   1.1020   1.1097   1.1216   1.1303   1.1397   1.1607   1.1764
  1.1908   1.1997   1.2111   1.2228   1.2350   1.2428   1.2513   1.2646
  1.2703   1.2773   1.2990   1.3162   1.3490   1.3707   1.3752   1.3958
  1.4010   1.4029   1.4110   1.4307   1.4418   1.4513   1.4634   1.4674
  1.4805   1.4997   1.5172   1.5328   1.5618   1.5636   1.5793   1.5849
  1.6062   1.6238   1.6732   1.7005   1.7144   1.7299   1.7565   1.7752
  1.7871   1.8056   1.8105   1.8334   1.8850   1.9048   1.9565   1.9624
  2.0240   2.0648   2.0860   2.0924   2.1055   2.1096   2.1585   2.2430
  2.2588   2.3007   2.3072   2.4100   2.4850   2.5423   2.5895   2.6003
  2.6232   2.6502   2.6681   2.6871   2.7187   2.7334   2.7683   2.7889
  2.7971   2.8082   2.8247   2.8293   2.8402   2.8640   2.8650   2.8896
  2.8938   2.9076   2.9115   2.9299   2.9450   2.9482   2.9647   2.9692
  2.9959   3.0093   3.0181   3.0501   3.0528   3.1032   3.1421   3.1619
  3.1654   3.2047   3.2074   3.2211   3.2316   3.2446   3.2544   3.2688
  3.2786   3.2881   3.3097   3.3178   3.3376   3.3605   3.3858   3.3926
  3.4195   3.4253   3.4504   3.4576   3.4862   3.4901   3.5140   3.5317
  3.5400   3.5527   3.5605   3.5761   3.5987   3.6168   3.6285   3.6424
  3.6650   3.6890   3.7310   3.7561   3.7812   3.8056   3.8266   3.8285
  3.8383   3.8502   3.8772   3.8827   3.9007   3.9096   3.9399   3.9467
  3.9529   3.9713   3.9989   4.0368   4.0820   4.0931   4.1222   4.1327
  4.1494   4.1633   4.1931   4.2222   4.2294   4.2500   4.3241   4.3502
  4.3686   4.4335   4.4424   4.4562   4.4634   4.4977   4.5216   4.5409
  4.5474   4.5589   4.5695   4.5783   4.5878   4.6008   4.6485   4.6926
  4.7005   4.7162   4.7397   4.7687   4.7979   4.8292   4.8334   4.8943
  4.9052   4.9965   5.0405   5.0621   5.0674   5.1404   5.1461   5.1653
  5.1809   5.1944   5.2042   5.2228   5.2345   5.2405   5.2734   5.3059
  5.3461   5.3524   5.3675   5.3737   5.4211   5.4715   5.5225   5.5674
  5.5777   5.6097   5.6310   5.7190   5.7663   5.8020   5.8435   5.8820
  5.9033   5.9504   6.1815   6.2905   6.4861   6.5035   6.5451   6.6909
  6.6993   6.8215   6.9428   7.0115   7.0705   7.0904   7.1151   7.1503
  7.2737   7.3582   7.3996   7.4957   7.5155   7.5485   7.7890   7.9921
  8.0435   8.1393  24.2143  24.8028  24.8182  24.9647  25.0776  25.0918
 25.5420  50.4804  50.5096  50.7262
 
 Beta MOs
 -- Occupied --
-19.4312 -19.4306 -19.3430 -10.4585 -10.3588 -10.3542 -10.3527 -10.3514
-10.3484 -10.3483  -1.3320  -1.1861  -0.9984  -0.9366  -0.8917  -0.8789
 -0.7803  -0.7320  -0.6988  -0.6962  -0.6408  -0.6058  -0.5941  -0.5746
 -0.5491  -0.5431  -0.5303  -0.5261  -0.4989  -0.4719  -0.4588  -0.4445
 -0.4134  -0.3962  -0.3545  -0.3438
 -- Virtual --
 -0.0314   0.0174   0.0254   0.0362   0.0393   0.0541   0.0545   0.0569
  0.0704   0.0857   0.0869   0.1022   0.1052   0.1095   0.1220   0.1364
  0.1445   0.1480   0.1541   0.1554   0.1595   0.1616   0.1700   0.1737
  0.1757   0.1829   0.1858   0.1869   0.2005   0.2056   0.2156   0.2197
  0.2202   0.2298   0.2436   0.2556   0.2649   0.2725   0.2735   0.2745
  0.2797   0.2894   0.2963   0.3069   0.3190   0.3235   0.3324   0.3446
  0.3471   0.3521   0.3542   0.3576   0.3748   0.3789   0.3878   0.3927
  0.4088   0.4152   0.4196   0.4298   0.4459   0.4585   0.4786   0.4812
  0.5277   0.5533   0.5611   0.5712   0.5889   0.5978   0.6000   0.6065
  0.6142   0.6220   0.6226   0.6315   0.6354   0.6531   0.6741   0.6943
  0.6975   0.7162   0.7210   0.7273   0.7342   0.7382   0.7469   0.7508
  0.7578   0.7624   0.7742   0.7804   0.7885   0.8008   0.8306   0.8360
  0.8371   0.8482   0.8586   0.8795   0.8905   0.8950   0.8999   0.9210
  0.9405   0.9604   0.9647   1.0238   1.0384   1.0428   1.0545   1.0765
  1.0902   1.1014   1.1040   1.1127   1.1291   1.1383   1.1470   1.1620
  1.1812   1.1934   1.2022   1.2158   1.2240   1.2378   1.2468   1.2540
  1.2678   1.2771   1.2921   1.3002   1.3179   1.3498   1.3724   1.3771
  1.3968   1.4020   1.4048   1.4118   1.4376   1.4426   1.4562   1.4644
  1.4692   1.4811   1.5031   1.5185   1.5369   1.5640   1.5682   1.5804
  1.5868   1.6220   1.6321   1.6740   1.7032   1.7233   1.7365   1.7591
  1.7802   1.7876   1.8101   1.8122   1.8344   1.8935   1.9059   1.9626
  1.9693   2.0298   2.0671   2.0867   2.0945   2.1080   2.1138   2.1651
  2.2483   2.2682   2.3137   2.3219   2.4130   2.4881   2.5458   2.5905
  2.6030   2.6237   2.6509   2.6694   2.6938   2.7189   2.7338   2.7683
  2.7894   2.7970   2.8082   2.8247   2.8292   2.8403   2.8643   2.8650
  2.8894   2.8936   2.9075   2.9113   2.9297   2.9449   2.9481   2.9647
  2.9691   2.9957   3.0089   3.0181   3.0497   3.0527   3.1028   3.1412
  3.1615   3.1653   3.2044   3.2074   3.2209   3.2315   3.2447   3.2545
  3.2690   3.2783   3.2879   3.3093   3.3178   3.3375   3.3601   3.3858
  3.3929   3.4193   3.4251   3.4503   3.4575   3.4862   3.4898   3.5139
  3.5316   3.5398   3.5526   3.5602   3.5757   3.5985   3.6165   3.6283
  3.6422   3.6650   3.6887   3.7307   3.7554   3.7807   3.8053   3.8263
  3.8287   3.8383   3.8487   3.8773   3.8826   3.9007   3.9095   3.9400
  3.9468   3.9530   3.9712   3.9985   4.0366   4.0813   4.0930   4.1220
  4.1326   4.1492   4.1631   4.1931   4.2216   4.2294   4.2498   4.3240
  4.3501   4.3688   4.4338   4.4426   4.4560   4.4634   4.5003   4.5216
  4.5417   4.5485   4.5687   4.5782   4.5862   4.5923   4.6056   4.6493
  4.7056   4.7152   4.7284   4.7409   4.7854   4.8013   4.8311   4.8341
  4.8946   4.9166   5.0029   5.0621   5.0668   5.1320   5.1466   5.1728
  5.1805   5.2008   5.2178   5.2206   5.2453   5.2502   5.2782   5.3085
  5.3201   5.3536   5.3593   5.3720   5.3826   5.4317   5.4768   5.5303
  5.5713   5.5830   5.6169   5.6586   5.7412   5.7662   5.8019   5.8435
  5.8817   5.9033   5.9504   6.1831   6.2904   6.4931   6.5040   6.5953
  6.6911   6.7114   6.8734   7.0055   7.0397   7.1113   7.1457   7.1539
  7.1674   7.3134   7.4046   7.4222   7.5027   7.5326   7.5556   7.7977
  7.9951   8.0561   8.1594  24.2143  24.8028  24.8182  24.9644  25.0776
 25.0918  25.5420  50.4920  50.5217  50.7264
 --------------------------------------------------------------
 
          Ground-State Mulliken Net Atomic Charges

     Atom                 Charge (a.u.)    Spin (a.u.)
  --------------------------------------------------------
      1 C                    -0.530197      -0.039885
      2 H                     0.329575       0.003932
      3 O                    -0.451562       0.001682
      4 H                     0.368295      -0.009539
      5 O                    -0.057456       0.553200
      6 O                    -0.138598       0.474876
      7 C                     0.899122       0.015273
      8 C                    -0.894498       0.003054
      9 H                     0.265260       0.000653
     10 C                    -0.374323      -0.000373
     11 H                     0.285540      -0.000251
     12 C                    -0.315217       0.000418
     13 H                     0.280778       0.000200
     14 C                    -0.414856      -0.000954
     15 H                     0.283307      -0.000151
     16 C                     0.188001      -0.002268
     17 H                     0.276830       0.000132
  --------------------------------------------------------
  Sum of atomic charges =     0.000000
  Sum of spin   charges =     1.000000

 -----------------------------------------------------------------
                    Cartesian Multipole Moments
 -----------------------------------------------------------------
    Charge (ESU x 10^10)
                 0.0000
    Dipole Moment (Debye)
         X       1.7232      Y       2.9499      Z      -0.9276
       Tot       3.5401
    Quadrupole Moments (Debye-Ang)
        XX     -50.9495     XY       6.5418     YY     -47.1954
        XZ      11.3115     YZ       2.9005     ZZ     -66.1180
    Octopole Moments (Debye-Ang^2)
       XXX    -111.7464    XXY    -103.0969    XYY     -19.7290
       YYY    -366.9340    XXZ    -197.8641    XYZ      30.2632
       YYZ    -222.7511    XZZ      21.7040    YZZ    -155.4337
       ZZZ    -742.5544
    Hexadecapole Moments (Debye-Ang^3)
      XXXX    -973.5768   XXXY    -478.5074   XXYY    -484.8472
      XYYY    -496.4181   YYYY   -2562.1287   XXXZ    -416.1035
      XXYZ    -400.0115   XYYZ    -109.0918   YYYZ   -1581.1734
      XXZZ    -993.3538   XYZZ     -52.8328   YYZZ   -1493.5143
      XZZZ    -167.3889   YZZZ   -1783.4367   ZZZZ   -6084.4940
 -----------------------------------------------------------------
 Calculating analytic gradient of the SCF energy
 Gradient of CDS energy
            1           2           3           4           5           6
    1  -0.0015709   0.0001302   0.0007718  -0.0000933   0.0000468   0.0001016
    2  -0.0008210  -0.0000018   0.0011058  -0.0002417  -0.0000836  -0.0000174
    3   0.0022028  -0.0003108  -0.0016565   0.0001937   0.0000252  -0.0002612
            7           8           9          10          11          12
    1   0.0000582  -0.0003023  -0.0001673   0.0000940   0.0000436   0.0004666
    2  -0.0003107   0.0000321   0.0000101   0.0003406   0.0001375   0.0002237
    3  -0.0002088  -0.0001383  -0.0000951  -0.0003726  -0.0001466  -0.0000179
           13          14          15          16          17
    1   0.0001857   0.0003368   0.0001426  -0.0001933  -0.0000509
    2   0.0000891  -0.0001347  -0.0000482  -0.0001960  -0.0000839
    3  -0.0000061   0.0003570   0.0001403   0.0002145   0.0000804
 Gradient of SCF Energy
            1           2           3           4           5           6
    1   0.0050307  -0.0041880  -0.0023549   0.0003938   0.0008267   0.0010038
    2  -0.0068261   0.0038800   0.0037344  -0.0003510  -0.0009617  -0.0009494
    3   0.0087682  -0.0061687   0.0042021   0.0001595  -0.0003883  -0.0027624
            7           8           9          10          11          12
    1  -0.0034210   0.0095349  -0.0072295   0.0003292   0.0016766  -0.0054981
    2  -0.0005054  -0.0031865   0.0020517  -0.0035570   0.0053462  -0.0034666
    3  -0.0007162   0.0079782  -0.0062702   0.0043730  -0.0056926   0.0010830
           13          14          15          16          17
    1   0.0068068  -0.0062704   0.0045448  -0.0018717   0.0006864
    2   0.0033598   0.0002484  -0.0012782   0.0042809  -0.0018197
    3  -0.0002371  -0.0036758   0.0041771  -0.0064259   0.0015962
 Max gradient component =       9.535E-03
 RMS gradient           =       4.201E-03
 Computing fast CPCM-SWIG gradient
 Updating gradient with PCM contributions...
 -- total gradient after adding PCM contribution --
---------------------------------------------------
  Atom         X              Y              Z     
---------------------------------------------------
   1      -0.001205       0.001597       0.001156
   2       0.001106      -0.000361       0.000300
   3       0.000772       0.000842      -0.000309
   4       0.000189       0.000334       0.000175
   5       0.000608      -0.000923      -0.000734
   6       0.000303       0.000156      -0.000388
   7       0.000218      -0.000253      -0.000020
   8       0.000046      -0.000197       0.000082
   9       0.000261      -0.000401       0.000556
  10      -0.000131      -0.000251       0.000198
  11      -0.000146      -0.000472       0.000477
  12      -0.000264      -0.000141       0.000006
  13      -0.000613      -0.000298       0.000019
  14      -0.000283       0.000007      -0.000191
  15      -0.000486       0.000163      -0.000460
  16      -0.000122      -0.000093      -0.000214
  17      -0.000255       0.000293      -0.000654
---------------------------------------------------
 Number of fixed atoms: 0
 Gradient time:  CPU 256.88 s  wall 37.16 s
 ----------------------------------------------------------------
             Standard Nuclear Orientation (Angstroms)
    I     Atom           X                Y                Z
 ----------------------------------------------------------------
    1      C      -0.7312401000     2.0619455000     4.0165486000
    2      H      -1.4644041000     2.4626843000     3.3180064000
    3      O      -1.1472525000     1.4122920000     5.0459689000
    4      H      -1.0450516000     0.2824744000     4.6521160000
    5      O      -0.3720209000     0.5048215000     2.9230497000
    6      O      -0.7018863000    -0.4310643000     3.7310938000
    7      C       0.5943206000     2.6949575000     4.0003450000
    8      C       0.8825639000     3.6197469000     3.0038340000
    9      H       0.1247171000     3.8677238000     2.2727522000
   10      C       2.1323565000     4.2172033000     2.9600789000
   11      H       2.3610620000     4.9393537000     2.1901305000
   12      C       3.0876937000     3.8852650000     3.9104620000
   13      H       4.0616047000     4.3525394000     3.8785780000
   14      C       2.7988271000     2.9578327000     4.9055650000
   15      H       3.5475827000     2.7047407000     5.6418890000
   16      C       1.5519735000     2.3599048000     4.9524309000
   17      H       1.3104871000     1.6381178000     5.7193105000
 ----------------------------------------------------------------
 Nuclear Repulsion Energy =         503.53144202 hartrees
 There are       37 alpha and       36 beta electrons
 Discretize the solute cavity surface with Lebedev spheres
	Using 110 Lebedev grid points for each H atom
	Using 194 Lebedev grid points for other atoms
	Atomic van der Waals radii will be scaled by 1.20
 Remove points where switching function is < 1.0e-08
 Keep 1309 surface tesserae and discard 1401 interior tesserae
 Molecular Surface Area = 156.966 Angst**2
 Requested basis set is 6-311++G(2df,2p)
 There are 122 shells and 410 basis functions
 A cutoff of  1.0D-11 yielded   6448 shell pairs
 There are     73285 function pairs (     91806 Cartesian)
 Smallest overlap matrix eigenvalue = 8.88E-07

 Q-Chem warning in module stvman/mkSTV.C, line 323:

 Overlap eigenvalue is smaller than square root of threshold
 Use THRESH >= 12 to get rid of this warning

 Linear dependence detected in AO basis
 Tighter screening thresholds may be required for diffuse basis sets
 Use S2THRESH > 14 and THRESH = 14 in case of SCF convergence issues
 Number of orthogonalized atomic orbitals = 409
 Maximum deviation from orthogonality = 9.295E-11
 Guess MOs from SCF MO coefficient file

 -----------------------------------------------------------------------
  General SCF calculation program by
  Eric Jon Sundstrom, Paul Horn, Yuezhi Mao, Dmitri Zuev, Alec White,
  David Stuck, Shaama M.S., Shane Yost, Joonho Lee, David Small,
  Daniel Levine, Susi Lehtola, Hugh Burton, Evgeny Epifanovsky,
  Bang C. Huynh
 -----------------------------------------------------------------------
 Exchange:     0.1500 Hartree-Fock + 1.0000 wB97M-V + LR-HF
 Correlation:  1.0000 wB97M-V
 Using SG-2 standard quadrature grid
 Nonlocal Correlation:  VV10 with C = 0.0100 and b = 6.00 and scale = 1.00000
 Grid used for NLC:  SG-1 standard quadrature
 
 Citation of the SMD model:
 Marenich, A.V.; Cramer, C.J.; Truhlar, D.G.
 J. Phys. Chem. B 2009, 113, 6378-6396.
 iSolventCode=           1
 Solvent: water                                                           
 
 vradii
            1           2           3           4           5           6
    1   1.8500000   1.2000000   1.5200000   1.2000000   1.5200000   1.5200000
            7           8           9          10          11          12
    1   1.8500000   1.8500000   1.2000000   1.8500000   1.2000000   1.8500000
           13          14          15          16          17
    1   1.2000000   1.8500000   1.2000000   1.8500000   1.2000000
 -------------------------------------------------------
 OpenMP BLAS3 based DFT computing Module                
 Release: version 1.0, May 2013, Q-Chem Inc. Pittsburgh 
 -------------------------------------------------------
 A unrestricted SCF calculation will be
 performed using Roothaan-Hall, DIIS, GDM
 SCF converges when RMS gradient is below 1.0e-06
 ---------------------------------------
  Cycle       Energy         DIIS error
 ---------------------------------------
    1    -496.4639092242      1.28e-04  Roothaan Step
 ---------------------------------------
  Cycle       Energy         DIIS error
 ---------------------------------------
    1    -496.4782627784      1.44e-04  
    2    -496.4800201881      1.12e-04  Done DIIS. Switching to GDM
 ---------------------------------------
  Cycle       Energy        RMS Gradient
 ---------------------------------------
    1    -496.4800201881      4.90e-03   Normal BFGS step
    2    -496.4800886785      7.26e-03   Normal BFGS step
    3    -496.4808340026      9.51e-04   Normal BFGS step
    4    -496.4808410135      1.00e-03   Normal BFGS step
    5    -496.4808496332      3.05e-04   Normal BFGS step
    6    -496.4808498223      2.82e-04   Normal BFGS step
    7    -496.4808503059      5.89e-05   Normal BFGS step
    8    -496.4808503220      3.79e-05   Normal BFGS step
    9    -496.4808503296      9.41e-06   Normal BFGS step
   10    -496.4808503305      6.79e-06   Normal BFGS step
   11    -496.4808503307      4.67e-06   Normal BFGS step
   12    -496.4808503310      3.08e-06   Normal BFGS step
   13    -496.4808503311      1.52e-06   Normal BFGS step
   14    -496.4808503312      8.97e-07  Convergence criterion met
 ---------------------------------------
 SCF time:   CPU 1376.72s  wall 174.00s 
<S^2> =          0.755979442
(3)  G-ENP(liq) elect-nuc-pol free energy of system     -496.480850331 a.u.
(4)  G-CDS(liq) cavity-dispersion-solvent structure 
     free energy                                                3.3739 kcal/mol
(6)  G-S(liq) free energy of system                     -496.475473706 a.u.
 SCF   energy in the final basis set =     -496.4754737056
 Total energy in the final basis set =     -496.4754737056
 
 --------------------------------------------------------------
 
                    Orbital Energies (a.u.)
 --------------------------------------------------------------
 
 Alpha MOs
 -- Occupied --
-19.4476 -19.4447 -19.3429 -10.4582 -10.3589 -10.3542 -10.3527 -10.3514
-10.3485 -10.3484  -1.3602  -1.1865  -0.9996  -0.9719  -0.8959  -0.8789
 -0.7819  -0.7323  -0.7073  -0.6978  -0.6465  -0.6255  -0.6181  -0.5947
 -0.5745  -0.5439  -0.5425  -0.5287  -0.5021  -0.4777  -0.4594  -0.4446
 -0.4272  -0.4148  -0.3845  -0.3544  -0.3478
 -- Virtual --
  0.0140   0.0253   0.0361   0.0392   0.0540   0.0543   0.0567   0.0701
  0.0851   0.0867   0.1014   0.1047   0.1091   0.1214   0.1361   0.1436
  0.1475   0.1536   0.1548   0.1593   0.1612   0.1696   0.1734   0.1744
  0.1825   0.1851   0.1867   0.1996   0.2040   0.2154   0.2191   0.2196
  0.2268   0.2410   0.2548   0.2635   0.2718   0.2727   0.2732   0.2793
  0.2887   0.2943   0.3042   0.3128   0.3218   0.3323   0.3436   0.3459
  0.3518   0.3532   0.3569   0.3715   0.3788   0.3863   0.3903   0.4054
  0.4141   0.4193   0.4296   0.4444   0.4577   0.4784   0.4808   0.5272
  0.5531   0.5607   0.5711   0.5881   0.5977   0.5999   0.6062   0.6141
  0.6215   0.6221   0.6311   0.6349   0.6530   0.6740   0.6940   0.6974
  0.7163   0.7209   0.7273   0.7341   0.7379   0.7466   0.7503   0.7571
  0.7624   0.7740   0.7800   0.7871   0.8009   0.8303   0.8351   0.8370
  0.8480   0.8584   0.8792   0.8901   0.8949   0.8998   0.9190   0.9398
  0.9596   0.9642   1.0220   1.0369   1.0382   1.0535   1.0750   1.0883
  1.1005   1.1019   1.1096   1.1216   1.1302   1.1397   1.1606   1.1765
  1.1908   1.1999   1.2111   1.2229   1.2351   1.2428   1.2513   1.2647
  1.2703   1.2774   1.2990   1.3162   1.3490   1.3706   1.3754   1.3958
  1.4010   1.4029   1.4110   1.4307   1.4419   1.4513   1.4634   1.4675
  1.4805   1.4996   1.5171   1.5329   1.5618   1.5636   1.5792   1.5849
  1.6062   1.6239   1.6732   1.7003   1.7145   1.7299   1.7567   1.7752
  1.7871   1.8056   1.8105   1.8335   1.8850   1.9050   1.9564   1.9626
  2.0239   2.0649   2.0861   2.0926   2.1055   2.1096   2.1587   2.2431
  2.2586   2.3005   2.3071   2.4100   2.4848   2.5420   2.5895   2.6002
  2.6232   2.6502   2.6681   2.6872   2.7188   2.7335   2.7687   2.7892
  2.7971   2.8081   2.8246   2.8293   2.8401   2.8639   2.8650   2.8896
  2.8938   2.9076   2.9114   2.9299   2.9451   2.9482   2.9647   2.9692
  2.9959   3.0097   3.0182   3.0502   3.0528   3.1032   3.1418   3.1617
  3.1653   3.2046   3.2074   3.2210   3.2315   3.2444   3.2542   3.2687
  3.2787   3.2882   3.3097   3.3180   3.3374   3.3605   3.3855   3.3925
  3.4193   3.4254   3.4502   3.4578   3.4863   3.4899   3.5139   3.5317
  3.5401   3.5526   3.5605   3.5762   3.5988   3.6167   3.6283   3.6424
  3.6652   3.6890   3.7308   3.7559   3.7808   3.8057   3.8271   3.8285
  3.8383   3.8503   3.8772   3.8828   3.9006   3.9097   3.9401   3.9468
  3.9531   3.9715   3.9989   4.0369   4.0820   4.0932   4.1222   4.1328
  4.1495   4.1634   4.1930   4.2222   4.2292   4.2511   4.3242   4.3501
  4.3687   4.4338   4.4423   4.4568   4.4637   4.4981   4.5216   4.5409
  4.5477   4.5591   4.5695   4.5783   4.5877   4.6009   4.6485   4.6927
  4.7006   4.7164   4.7399   4.7688   4.7983   4.8292   4.8335   4.8946
  4.9052   4.9967   5.0406   5.0622   5.0675   5.1404   5.1462   5.1654
  5.1808   5.1945   5.2043   5.2227   5.2345   5.2405   5.2734   5.3059
  5.3463   5.3524   5.3675   5.3737   5.4207   5.4712   5.5226   5.5674
  5.5775   5.6095   5.6310   5.7190   5.7653   5.8029   5.8436   5.8820
  5.9033   5.9504   6.1798   6.2906   6.4860   6.5023   6.5451   6.6907
  6.6993   6.8215   6.9428   7.0112   7.0698   7.0904   7.1149   7.1502
  7.2735   7.3582   7.3996   7.4955   7.5155   7.5483   7.7890   7.9919
  8.0436   8.1393  24.2146  24.8028  24.8183  24.9640  25.0784  25.0920
 25.5423  50.4804  50.5096  50.7257
 
 Beta MOs
 -- Occupied --
-19.4311 -19.4306 -19.3429 -10.4585 -10.3587 -10.3542 -10.3527 -10.3515
-10.3485 -10.3483  -1.3319  -1.1856  -0.9985  -0.9365  -0.8918  -0.8790
 -0.7804  -0.7320  -0.6987  -0.6961  -0.6408  -0.6057  -0.5941  -0.5747
 -0.5491  -0.5430  -0.5303  -0.5261  -0.4990  -0.4718  -0.4588  -0.4446
 -0.4134  -0.3962  -0.3545  -0.3438
 -- Virtual --
 -0.0313   0.0172   0.0254   0.0362   0.0393   0.0541   0.0545   0.0569
  0.0704   0.0857   0.0869   0.1022   0.1052   0.1095   0.1220   0.1364
  0.1445   0.1480   0.1541   0.1554   0.1595   0.1616   0.1700   0.1736
  0.1757   0.1829   0.1858   0.1868   0.2005   0.2056   0.2156   0.2197
  0.2202   0.2298   0.2436   0.2556   0.2649   0.2725   0.2735   0.2746
  0.2796   0.2894   0.2963   0.3069   0.3191   0.3235   0.3324   0.3445
  0.3471   0.3521   0.3542   0.3575   0.3748   0.3791   0.3879   0.3927
  0.4088   0.4152   0.4196   0.4298   0.4459   0.4586   0.4787   0.4813
  0.5277   0.5532   0.5611   0.5712   0.5889   0.5978   0.6000   0.6065
  0.6142   0.6220   0.6226   0.6315   0.6354   0.6531   0.6741   0.6943
  0.6975   0.7162   0.7209   0.7273   0.7342   0.7382   0.7468   0.7508
  0.7579   0.7624   0.7742   0.7803   0.7886   0.8008   0.8306   0.8360
  0.8371   0.8482   0.8585   0.8795   0.8905   0.8950   0.8999   0.9210
  0.9405   0.9604   0.9647   1.0238   1.0384   1.0428   1.0545   1.0765
  1.0902   1.1013   1.1039   1.1127   1.1291   1.1383   1.1470   1.1620
  1.1812   1.1935   1.2025   1.2159   1.2240   1.2379   1.2469   1.2540
  1.2678   1.2772   1.2922   1.3003   1.3179   1.3498   1.3723   1.3773
  1.3968   1.4020   1.4048   1.4118   1.4376   1.4426   1.4562   1.4644
  1.4692   1.4812   1.5030   1.5185   1.5370   1.5640   1.5682   1.5804
  1.5868   1.6220   1.6322   1.6740   1.7031   1.7233   1.7365   1.7593
  1.7802   1.7876   1.8101   1.8122   1.8344   1.8936   1.9062   1.9628
  1.9692   2.0296   2.0672   2.0868   2.0947   2.1080   2.1139   2.1653
  2.2483   2.2681   2.3136   2.3219   2.4130   2.4879   2.5455   2.5904
  2.6029   2.6236   2.6509   2.6694   2.6939   2.7190   2.7340   2.7686
  2.7896   2.7970   2.8082   2.8246   2.8292   2.8401   2.8641   2.8650
  2.8894   2.8936   2.9075   2.9112   2.9297   2.9450   2.9481   2.9647
  2.9691   2.9957   3.0093   3.0181   3.0498   3.0526   3.1028   3.1409
  3.1613   3.1651   3.2043   3.2074   3.2208   3.2314   3.2445   3.2543
[...]
  Sum of spin   charges =     1.000000

 -----------------------------------------------------------------
                    Cartesian Multipole Moments
 -----------------------------------------------------------------
    Charge (ESU x 10^10)
                 0.0000
    Dipole Moment (Debye)
         X       1.7272      Y       2.8456      Z      -0.9913
       Tot       3.4732
    Quadrupole Moments (Debye-Ang)
        XX     -50.9506     XY       6.6288     YY     -47.3565
        XZ      11.3069     YZ       2.4916     ZZ     -66.7474
    Octopole Moments (Debye-Ang^2)
       XXX    -111.9883    XXY    -102.9079    XYY     -19.0280
       YYY    -367.4026    XXZ    -197.4673    XYZ      30.7800
       YYZ    -223.0268    XZZ      22.0163    YZZ    -156.9544
       ZZZ    -747.0987
    Hexadecapole Moments (Debye-Ang^3)
      XXXX    -984.4827   XXXY    -484.4026   XXYY    -485.3682
      XYYY    -500.2496   YYYY   -2565.9965   XXXZ    -418.6151
      XXYZ    -398.8227   XYYZ    -106.7343   YYYZ   -1583.5113
      XXZZ    -992.1292   XYZZ     -51.5868   YYZZ   -1493.7475
      XZZZ    -164.8547   YZZZ   -1790.3301   ZZZZ   -6116.3177
 -----------------------------------------------------------------
 Calculating analytic gradient of the SCF energy
 Gradient of CDS energy
            1           2           3           4           5           6
    1  -0.0015576   0.0001249   0.0007809  -0.0001083   0.0000410   0.0001098
    2  -0.0008229  -0.0000030   0.0011052  -0.0002420  -0.0000831  -0.0000159
    3   0.0022265  -0.0003175  -0.0016627   0.0001903   0.0000220  -0.0002624
            7           8           9          10          11          12
    1   0.0000510  -0.0003029  -0.0001674   0.0000914   0.0000426   0.0004657
    2  -0.0003039   0.0000243   0.0000108   0.0003387   0.0001379   0.0002280
    3  -0.0002069  -0.0001417  -0.0000958  -0.0003747  -0.0001482  -0.0000185
           13          14          15          16          17
    1   0.0001859   0.0003402   0.0001434  -0.0001912  -0.0000495
    2   0.0000914  -0.0001274  -0.0000461  -0.0002066  -0.0000855
    3  -0.0000062   0.0003585   0.0001420   0.0002115   0.0000838
 Gradient of SCF Energy
            1           2           3           4           5           6
    1   0.0064481  -0.0052116  -0.0029105   0.0000075   0.0001980   0.0006767
    2  -0.0083860   0.0041438   0.0028974  -0.0006219   0.0001219  -0.0012460
    3   0.0077494  -0.0063311   0.0047659  -0.0001613   0.0001617  -0.0022416
            7           8           9          10          11          12
    1  -0.0038730   0.0093013  -0.0073913   0.0004242   0.0017646  -0.0051457
    2  -0.0002128  -0.0028596   0.0023623  -0.0033010   0.0057509  -0.0033560
    3  -0.0009719   0.0081258  -0.0067895   0.0041451  -0.0061715   0.0010607
           13          14          15          16          17
    1   0.0073463  -0.0060100   0.0049779  -0.0017118   0.0011092
    2   0.0036990   0.0001253  -0.0013469   0.0040704  -0.0018408
    3  -0.0002631  -0.0035073   0.0046302  -0.0063060   0.0021046
 Max gradient component =       9.301E-03
 RMS gradient           =       4.340E-03
 Computing fast CPCM-SWIG gradient
 Updating gradient with PCM contributions...
 -- total gradient after adding PCM contribution --
---------------------------------------------------
  Atom         X              Y              Z     
---------------------------------------------------
   1       0.000001       0.000002      -0.000001
   2       0.000002      -0.000001      -0.000004
   3       0.000001      -0.000007      -0.000008
   4      -0.000002       0.000013      -0.000001
   5      -0.000001      -0.000003       0.000008
   6      -0.000007       0.000011       0.000021
   7      -0.000003      -0.000001      -0.000000
   8       0.000003      -0.000005      -0.000004
   9       0.000005      -0.000006      -0.000007
  10       0.000004      -0.000006      -0.000005
  11       0.000006      -0.000010      -0.000007
  12       0.000001      -0.000003      -0.000001
  13       0.000002      -0.000004      -0.000001
  14      -0.000002       0.000002       0.000002
  15      -0.000004       0.000005       0.000005
  16      -0.000004       0.000004       0.000001
  17      -0.000005       0.000008       0.000005
---------------------------------------------------
 Number of fixed atoms: 0
 Gradient time:  CPU 288.64 s  wall 41.26 s
 Geometry Optimization Parameters
   NAtoms,    NIC,     NZ,  NCons,   NDum,   NFix, NCnnct, MaxDiis
       17     119       0       0       0       0       0       0

 Cartesian Hessian Update
 Hessian updated using Powell/Murtagh-Sargent update
**WARNING** Small scalar product
 Hessian update skipped this cycle


** GEOMETRY OPTIMIZATION IN DELOCALIZED INTERNAL COORDINATES **
   Searching for a Transition State

   Optimization Cycle:   4

                       Coordinates (Angstroms)
     ATOM                X               Y               Z
      1  C        -0.7201402186    2.0448957642    4.0231699867
      2  H        -1.4580268831    2.4599965653    3.3352469222
      3  O        -1.1347987887    1.3968905963    5.0529047004
      4  H        -1.0853854203    0.2580659415    4.6273189032
      5  O        -0.4027132150    0.5053860992    2.9154369428
      6  O        -0.7731511566   -0.4350421755    3.7013598647
      7  C         0.6084382456    2.6835137113    4.0028404239
      8  C         0.8919488057    3.6074948117    3.0021957041
      9  H         0.1345503733    3.8483470080    2.2668357283
     10  C         2.1370828179    4.2168942270    2.9571673580
     11  H         2.3598071872    4.9374858780    2.1826387176
     12  C         3.0943657437    3.9004296314    3.9119432417
     13  H         4.0645910627    4.3774550585    3.8796403668
     14  C         2.8107085943    2.9765454455    4.9127269910
     15  H         3.5595736810    2.7357970539    5.6545137122
     16  C         1.5686031113    2.3660706888    4.9603427378
     17  H         1.3358794597    1.6493126947    5.7358770986
   Point Group: c1    Number of degrees of freedom:    45


   Energy is   -496.475572907

 Hessian updated using Powell/Murtagh-Sargent update
  Mixing factors:     0.995931 Powell                      0.004069 Murtagh-Sargent

 45 Hessian modes will be used to form the next step
  Hessian Eigenvalues:
    -0.036336    0.002384    0.003482    0.010876    0.014222    0.017401
     0.017603    0.017888    0.020230    0.024080    0.025683    0.027322
     0.029107    0.029138    0.045484    0.066498    0.097397    0.099778
     0.104052    0.107853    0.113609    0.120618    0.123077    0.138029
     0.178442    0.184621    0.190973    0.192910    0.197163    0.240953
     0.271695    0.325653    0.340451    0.361070    0.363333    0.364016
     0.365581    0.367159    0.425365    0.426547    0.471686    0.481807
     0.482335    0.525072    0.578143

 Transition state search - taking P-RFO step
 Searching for Lamda that Maximizes Along the Lowest mode
 Value Taken    Lamda =   0.00000000
 Searching for Lamda that Minimizes Along All other modes
 Value Taken    Lamda =  -0.00000000
 Step Taken.  Stepsize is  0.000388

                             Maximum     Tolerance    Cnvgd?
         Gradient           0.000014      0.000300     YES
         Displacement       0.000195      0.001200     YES
         Energy change     -0.000001      0.000001     YES

 Final energy is   -496.475572906999     


 ******************************
 **  OPTIMIZATION CONVERGED  **
 ******************************

                       Coordinates (Angstroms)
     ATOM                X               Y               Z
      1  C        -0.7201402186    2.0448957642    4.0231699867
      2  H        -1.4580268831    2.4599965653    3.3352469222
      3  O        -1.1347987887    1.3968905963    5.0529047004
      4  H        -1.0853854203    0.2580659415    4.6273189032
      5  O        -0.4027132150    0.5053860992    2.9154369428
      6  O        -0.7731511566   -0.4350421755    3.7013598647
      7  C         0.6084382456    2.6835137113    4.0028404239
      8  C         0.8919488057    3.6074948117    3.0021957041
      9  H         0.1345503733    3.8483470080    2.2668357283
     10  C         2.1370828179    4.2168942270    2.9571673580
     11  H         2.3598071872    4.9374858780    2.1826387176
     12  C         3.0943657437    3.9004296314    3.9119432417
     13  H         4.0645910627    4.3774550585    3.8796403668
     14  C         2.8107085943    2.9765454455    4.9127269910
     15  H         3.5595736810    2.7357970539    5.6545137122
     16  C         1.5686031113    2.3660706888    4.9603427378
     17  H         1.3358794597    1.6493126947    5.7358770986

Z-matrix Print:
$molecule
0 2
O 
O  1 1.280353
H  2 1.198036 1 97.174686
O  3 1.216752 2 145.326407 1 -2.890339 0
C  4 1.285382 3 100.284697 2 3.958249 0
H  5 1.090882 4 118.608057 3 95.151423 0
C  5 1.474234 4 121.342598 3 -108.824254 0
C  7 1.391190 5 118.769139 4 -166.011186 0
H  8 1.082782 7 119.582270 5 0.643365 0
C  8 1.386995 7 119.875040 5 -179.661665 0
H  10 1.081089 8 120.070329 7 -179.824320 0
C  10 1.388574 8 119.764215 7 0.019246 0
H  12 1.081635 10 119.824464 8 -179.802856 0
C  12 1.391255 10 120.357847 8 -0.029003 0
H  14 1.081206 12 120.011173 10 -179.875510 0
C  14 1.384837 12 120.022748 10 0.043833 0
H  16 1.081368 14 120.655988 12 -179.766753 0
$end

 
 --------------------------------------------------------------
 
                    Orbital Energies (a.u.)
 --------------------------------------------------------------
 
 Alpha MOs
 -- Occupied --
-19.4495 -19.4472 -19.3410 -10.4581 -10.3597 -10.3544 -10.3530 -10.3516
-10.3487 -10.3486  -1.3625  -1.1844  -0.9990  -0.9750  -0.8951  -0.8784
 -0.7809  -0.7318  -0.7089  -0.6973  -0.6465  -0.6261  -0.6196  -0.5939
 -0.5736  -0.5434  -0.5421  -0.5281  -0.5016  -0.4753  -0.4592  -0.4443
 -0.4302  -0.4159  -0.3836  -0.3541  -0.3482
 -- Virtual --
  0.0156   0.0252   0.0362   0.0391   0.0540   0.0542   0.0566   0.0699
  0.0848   0.0870   0.1013   0.1051   0.1094   0.1219   0.1365   0.1433
  0.1472   0.1537   0.1549   0.1594   0.1613   0.1696   0.1737   0.1744
  0.1825   0.1846   0.1868   0.1999   0.2034   0.2157   0.2189   0.2196
  0.2257   0.2408   0.2545   0.2640   0.2711   0.2718   0.2731   0.2795
  0.2880   0.2939   0.3036   0.3126   0.3225   0.3311   0.3430   0.3463
  0.3512   0.3521   0.3561   0.3710   0.3781   0.3866   0.3908   0.4048
  0.4145   0.4181   0.4291   0.4467   0.4565   0.4738   0.4788   0.5251
  0.5525   0.5629   0.5710   0.5883   0.5980   0.6014   0.6071   0.6140
  0.6204   0.6229   0.6308   0.6338   0.6527   0.6742   0.6936   0.6985
  0.7162   0.7210   0.7271   0.7327   0.7381   0.7453   0.7482   0.7568
  0.7619   0.7733   0.7786   0.7835   0.8006   0.8299   0.8364   0.8374
  0.8485   0.8578   0.8765   0.8906   0.8942   0.8991   0.9203   0.9404
  0.9617   0.9655   1.0209   1.0361   1.0386   1.0536   1.0724   1.0857
  1.0997   1.1019   1.1094   1.1206   1.1294   1.1432   1.1613   1.1760
  1.1909   1.1985   1.2072   1.2260   1.2332   1.2417   1.2522   1.2652
  1.2702   1.2749   1.2967   1.3120   1.3504   1.3717   1.3757   1.3946
  1.3999   1.4043   1.4089   1.4321   1.4403   1.4503   1.4634   1.4656
  1.4773   1.4994   1.5184   1.5329   1.5607   1.5638   1.5786   1.5820
  1.6043   1.6205   1.6735   1.6957   1.7121   1.7262   1.7523   1.7750
  1.7855   1.8056   1.8098   1.8315   1.8851   1.9014   1.9576   1.9631
  2.0268   2.0641   2.0848   2.0911   2.1032   2.1088   2.1570   2.2404
  2.2563   2.2987   2.3073   2.4111   2.4893   2.5410   2.5903   2.5973
  2.6248   2.6505   2.6672   2.6876   2.7197   2.7344   2.7687   2.7894
  2.7965   2.8083   2.8239   2.8291   2.8396   2.8641   2.8651   2.8894
  2.8948   2.9075   2.9096   2.9288   2.9443   2.9460   2.9636   2.9691
  2.9955   3.0090   3.0183   3.0488   3.0518   3.1009   3.1377   3.1621
  3.1664   3.2044   3.2066   3.2192   3.2316   3.2458   3.2561   3.2696
  3.2808   3.2856   3.3082   3.3159   3.3374   3.3614   3.3857   3.3902
  3.4198   3.4256   3.4492   3.4548   3.4846   3.4883   3.5147   3.5306
  3.5377   3.5514   3.5573   3.5783   3.5986   3.6143   3.6282   3.6422
  3.6670   3.6927   3.7271   3.7547   3.7799   3.8044   3.8232   3.8285
  3.8367   3.8493   3.8772   3.8815   3.8996   3.9089   3.9325   3.9451
  3.9528   3.9686   3.9967   4.0350   4.0739   4.0895   4.1193   4.1312
  4.1468   4.1600   4.1915   4.2223   4.2276   4.2465   4.3209   4.3465
  4.3646   4.4290   4.4400   4.4518   4.4597   4.4938   4.5182   4.5375
  4.5426   4.5560   4.5649   4.5759   4.5845   4.5983   4.6443   4.6891
  4.7007   4.7118   4.7370   4.7700   4.7927   4.8250   4.8298   4.8885
  4.9055   4.9943   5.0434   5.0578   5.0640   5.1411   5.1438   5.1611
  5.1797   5.1894   5.2038   5.2198   5.2314   5.2378   5.2733   5.3044
  5.3441   5.3474   5.3659   5.3765   5.4264   5.4682   5.5272   5.5617
  5.5796   5.6045   5.6286   5.7285   5.7608   5.7977   5.8379   5.8774
  5.8954   5.9435   6.1825   6.2819   6.4726   6.4996   6.5406   6.6834
  6.7016   6.8207   6.9409   7.0114   7.0703   7.0880   7.1183   7.1499
  7.2798   7.3554   7.4047   7.4980   7.5106   7.5519   7.7882   7.9952
  8.0410   8.1370  24.2087  24.7990  24.8138  24.9582  25.0694  25.0853
 25.5333  50.4775  50.5084  50.7285
 
 Beta MOs
 -- Occupied --
-19.4331 -19.4329 -19.3410 -10.4584 -10.3595 -10.3544 -10.3531 -10.3516
-10.3487 -10.3486  -1.3342  -1.1835  -0.9976  -0.9395  -0.8915  -0.8784
 -0.7794  -0.7314  -0.6990  -0.6964  -0.6398  -0.6056  -0.5953  -0.5741
 -0.5495  -0.5424  -0.5302  -0.5257  -0.4988  -0.4697  -0.4585  -0.4443
 -0.4164  -0.3943  -0.3542  -0.3445
 -- Virtual --
 -0.0331   0.0185   0.0253   0.0362   0.0392   0.0541   0.0544   0.0569
  0.0702   0.0853   0.0872   0.1021   0.1057   0.1099   0.1225   0.1369
  0.1442   0.1477   0.1542   0.1555   0.1597   0.1617   0.1700   0.1739
  0.1757   0.1829   0.1852   0.1870   0.2010   0.2049   0.2158   0.2195
  0.2202   0.2291   0.2431   0.2552   0.2656   0.2717   0.2731   0.2739
  0.2799   0.2888   0.2957   0.3066   0.3194   0.3233   0.3313   0.3441
  0.3475   0.3520   0.3529   0.3566   0.3742   0.3783   0.3877   0.3937
  0.4081   0.4155   0.4184   0.4293   0.4482   0.4576   0.4742   0.4792
  0.5256   0.5525   0.5632   0.5710   0.5890   0.5981   0.6017   0.6074
  0.6141   0.6210   0.6235   0.6313   0.6342   0.6528   0.6742   0.6940
  0.6985   0.7162   0.7210   0.7272   0.7328   0.7383   0.7461   0.7486
  0.7574   0.7619   0.7735   0.7793   0.7845   0.8005   0.8301   0.8367
  0.8380   0.8487   0.8579   0.8768   0.8910   0.8944   0.8992   0.9224
  0.9411   0.9626   0.9663   1.0230   1.0376   1.0430   1.0543   1.0740
  1.0880   1.1006   1.1041   1.1135   1.1281   1.1382   1.1490   1.1627
  1.1804   1.1935   1.2015   1.2116   1.2270   1.2377   1.2441   1.2546
  1.2671   1.2757   1.2926   1.2979   1.3134   1.3512   1.3734   1.3769
  1.3959   1.4007   1.4062   1.4099   1.4381   1.4411   1.4551   1.4641
  1.4679   1.4780   1.5033   1.5198   1.5370   1.5643   1.5662   1.5799
  1.5836   1.6205   1.6290   1.6741   1.6983   1.7207   1.7340   1.7551
  1.7795   1.7858   1.8098   1.8118   1.8324   1.8927   1.9025   1.9635
  1.9708   2.0326   2.0665   2.0853   2.0933   2.1063   2.1126   2.1635
  2.2476   2.2641   2.3142   2.3190   2.4144   2.4927   2.5443   2.5917
  2.5997   2.6252   2.6512   2.6686   2.6942   2.7199   2.7350   2.7687
  2.7899   2.7965   2.8083   2.8239   2.8291   2.8397   2.8644   2.8651
  2.8892   2.8947   2.9074   2.9094   2.9286   2.9443   2.9460   2.9635
  2.9690   2.9953   3.0086   3.0182   3.0486   3.0515   3.1004   3.1369
  3.1618   3.1663   3.2040   3.2066   3.2190   3.2315   3.2458   3.2562
  3.2699   3.2805   3.2854   3.3079   3.3158   3.3374   3.3611   3.3857
  3.3909   3.4197   3.4254   3.4491   3.4547   3.4846   3.4881   3.5147
  3.5305   3.5374   3.5514   3.5570   3.5779   3.5984   3.6140   3.6280
  3.6421   3.6669   3.6924   3.7269   3.7541   3.7795   3.8041   3.8231
  3.8287   3.8367   3.8480   3.8769   3.8820   3.8996   3.9088   3.9326
  3.9452   3.9529   3.9685   3.9964   4.0348   4.0733   4.0895   4.1191
  4.1311   4.1466   4.1598   4.1916   4.2219   4.2275   4.2462   4.3210
  4.3464   4.3648   4.4293   4.4403   4.4516   4.4597   4.4963   4.5183
  4.5387   4.5436   4.5641   4.5759   4.5821   4.5908   4.6025   4.6452
  4.7004   4.7167   4.7250   4.7384   4.7834   4.7976   4.8273   4.8309
  4.8888   4.9168   5.0000   5.0580   5.0695   5.1288   5.1445   5.1702
  5.1792   5.1961   5.2161   5.2201   5.2422   5.2480   5.2733   5.3086
  5.3187   5.3493   5.3561   5.3716   5.3866   5.4364   5.4739   5.5336
  5.5656   5.5867   5.6114   5.6562   5.7499   5.7607   5.7978   5.8379
  5.8771   5.8954   5.9436   6.1841   6.2818   6.4795   6.5007   6.5907
  6.6837   6.7138   6.8721   7.0034   7.0383   7.1129   7.1435   7.1566
  7.1670   7.3195   7.4018   7.4264   7.5039   7.5290   7.5595   7.7970
  7.9985   8.0534   8.1571  24.2087  24.7990  24.8138  24.9580  25.0693
 25.0853  25.5333  50.4891  50.5205  50.7287
 --------------------------------------------------------------
 
          Ground-State Mulliken Net Atomic Charges

     Atom                 Charge (a.u.)    Spin (a.u.)
  --------------------------------------------------------
      1 C                    -0.540814      -0.041680
      2 H                     0.327446       0.004333
      3 O                    -0.463222       0.001510
      4 H                     0.370963      -0.009321
      5 O                    -0.050678       0.555289
      6 O                    -0.129452       0.471022
      7 C                     0.873008       0.017394
      8 C                    -0.912217       0.002006
      9 H                     0.265975       0.000696
     10 C                    -0.371443      -0.000485
     11 H                     0.285462      -0.000249
     12 C                    -0.315636       0.000393
     13 H                     0.281150       0.000202
     14 C                    -0.405807      -0.000543
     15 H                     0.283266      -0.000151
     16 C                     0.224463      -0.000759
     17 H                     0.277536       0.000343
  --------------------------------------------------------
  Sum of atomic charges =     0.000000
  Sum of spin   charges =     1.000000

 -----------------------------------------------------------------
                    Cartesian Multipole Moments
 -----------------------------------------------------------------
    Charge (ESU x 10^10)
                 0.0000
    Dipole Moment (Debye)
         X       1.7272      Y       2.8456      Z      -0.9913
       Tot       3.4732
    Quadrupole Moments (Debye-Ang)
        XX     -50.9506     XY       6.6288     YY     -47.3565
        XZ      11.3069     YZ       2.4916     ZZ     -66.7474
    Octopole Moments (Debye-Ang^2)
       XXX    -111.9883    XXY    -102.9079    XYY     -19.0280
       YYY    -367.4026    XXZ    -197.4673    XYZ      30.7800
       YYZ    -223.0268    XZZ      22.0163    YZZ    -156.9544
       ZZZ    -747.0987
    Hexadecapole Moments (Debye-Ang^3)
      XXXX    -984.4827   XXXY    -484.4026   XXYY    -485.3682
      XYYY    -500.2496   YYYY   -2565.9965   XXXZ    -418.6151
      XXYZ    -398.8227   XYYZ    -106.7343   YYYZ   -1583.5113
      XXZZ    -992.1292   XYZZ     -51.5868   YYZZ   -1493.7475
      XZZZ    -164.8547   YZZZ   -1790.3301   ZZZZ   -6116.3177
 -----------------------------------------------------------------
 Total job time:  1089.98s(wall), 8473.90s(cpu) 
 Wed Apr 26 15:41:35 2023

        *************************************************************
        *                                                           *
        *  Thank you very much for using Q-Chem.  Have a nice day.  *
        *                                                           *
        *************************************************************


