
Running Job 1 of 1 Q_in.in
qchem Q_in.in_70777.0 /scratch/ari.fischer/qChem1516926.hpc-mn1/qchem70777/ 0
/usr/local/qchem-5.4.1/exe/qcprog.exe_s Q_in.in_70777.0 /scratch/ari.fischer/qChem1516926.hpc-mn1/qchem70777/
                  Welcome to Q-Chem
     A Quantum Leap Into The Future Of Chemistry


 Q-Chem 5.4, Q-Chem, Inc., Pleasanton, CA (2021)

 License issued to: Nanyang Technological University (site)

 E. Epifanovsky,  A. T. B. Gilbert,  Xintian Feng,  Joonho Lee,  Yuezhi Mao,  
 N. Mardirossian,  P. Pokhilko,  A. White,  M. Wormit,  M. P. Coons,  
 A. L. Dempwolff,  Zhengting Gan,  D. Hait,  P. R. Horn,  L. D. Jacobson,  
 I. Kaliman,  J. Kussmann,  A. W. Lange,  Ka Un Lao,  D. S. Levine,  Jie Liu,  
 S. C. McKenzie,  A. F. Morrison,  K. Nanda,  F. Plasser,  D. R. Rehn,  
 M. L. Vidal,  Zhi-Qiang You,  Ying Zhu,  B. Alam,  B. Albrecht,  
 A. Aldossary,  E. Alguire,  J. H. Andersen,  D. Barton,  K. Begam,  A. Behn,  
 Y. A. Bernard,  E. J. Berquist,  H. Burton,  A. Carreras,  K. Carter-Fenk,  
 R. Chakraborty,  A. D. Chien,  K. D. Closser,  V. Cofer-Shabica,  
 S. Dasgupta,  Jia Deng,  M. de Wergifosse,  M. Diedenhofen,  Hainam Do,  
 S. Ehlert,  Po-Tung Fang,  S. Fatehi,  Qingguo Feng,  T. Friedhoff,  
 J. Gayvert,  Qinghui Ge,  G. Gidofalvi,  M. Goldey,  J. Gomes,  
 C. Gonzalez-Espinoza,  S. Gulania,  A. Gunina,  M. W. D. Hanson-Heine,  
 P. H. P. Harbach,  A. W. Hauser,  M. F. Herbst,  M. Hernandez Vera,  
 M. Hodecker,  Z. C. Holden,  S. Houck,  Xunkun Huang,  Kerwin Hui,  
 B. C. Huynh,  M. Ivanov,  Hyunjun Ji,  Hanjie Jiang,  B. Kaduk,  S. Kaehler,  
 K. Khistyaev,  Jaehoon Kim,  P. Klunzinger,  Z. Koczor-Benda,  
 Joong Hoon Koh,  D. Kosenkov,  L. Koulias,  T. Kowalczyk,  C. M. Krauter,  
 K. Kue,  A. Kunitsa,  T. Kus,  A. Landau,  K. V. Lawler,  D. Lefrancois,  
 S. Lehtola,  Rain Li,  Yi-Pei Li,  Jiashu Liang,  M. Liebenthal,  
 Hung-Hsuan Lin,  You-Sheng Lin,  Fenglai Liu,  Kuan-Yu Liu,  
 M. Loipersberger,  A. Luenser,  A. Manjanath,  P. Manohar,  E. Mansoor,  
 S. F. Manzer,  Shan-Ping Mao,  A. V. Marenich,  T. Markovich,  S. Mason,  
 S. A. Maurer,  P. F. McLaughlin,  M. F. S. J. Menger,  J.-M. Mewes,  
 S. A. Mewes,  P. Morgante,  J. W. Mullinax,  K. J. Oosterbaan,  G. Paran,  
 Alexander C. Paul,  Suranjan K. Paul,  F. Pavosevic,  Zheng Pei,  S. Prager,  
 E. I. Proynov,  E. Ramos,  B. Rana,  A. E. Rask,  A. Rettig,  R. M. Richard,  
 F. Rob,  E. Rossomme,  T. Scheele,  M. Scheurer,  M. Schneider,  
 N. Sergueev,  S. M. Sharada,  W. Skomorowski,  D. W. Small,  C. J. Stein,  
 Yu-Chuan Su,  E. J. Sundstrom,  Zhen Tao,  J. Thirman,  T. Tsuchimochi,  
 N. M. Tubman,  S. P. Veccham,  O. Vydrov,  J. Wenzel,  J. Witte,  A. Yamada,  
 Kun Yao,  S. Yeganeh,  S. R. Yost,  A. Zech,  Igor Ying Zhang,  Xing Zhang,  
 Yu Zhang,  D. Zuev,  A. Aspuru-Guzik,  A. T. Bell,  N. A. Besley,  
 K. B. Bravaya,  B. R. Brooks,  D. Casanova,  Jeng-Da Chai,  S. Coriani,  
 C. J. Cramer,  A. E. DePrince, III,  R. A. DiStasio Jr.,  A. Dreuw,  
 B. D. Dunietz,  T. R. Furlani,  W. A. Goddard III,  S. Grimme,  
 S. Hammes-Schiffer,  T. Head-Gordon,  W. J. Hehre,  Chao-Ping Hsu,  
 T.-C. Jagau,  Yousung Jung,  A. Klamt,  Jing Kong,  D. S. Lambrecht,  
 WanZhen Liang,  N. J. Mayhall,  C. W. McCurdy,  J. B. Neaton,  
 C. Ochsenfeld,  J. A. Parkhill,  R. Peverati,  V. A. Rassolov,  Yihan Shao,  
 L. V. Slipchenko,  T. Stauch,  R. P. Steele,  J. E. Subotnik,  
 A. J. W. Thom,  A. Tkatchenko,  D. G. Truhlar,  T. Van Voorhis,  
 T. A. Wesolowski,  K. B. Whaley,  H. L. Woodcock III,  P. M. Zimmerman,  
 S. Faraji,  P. M. W. Gill,  M. Head-Gordon,  J. M. Herbert,  A. I. Krylov

 Additional authors for Version 5.4.1: 
 S. Kotaru,  Shaozhi Li,  Xiangyuan Li,  F. Matz,  A. Molle,  Haisheng Ren,  
 Yingli Su,  Hung-Yi Tsai,  C. Utku,  Fang Wang

 Contributors to earlier versions of Q-Chem not listed above: 
 R. D. Adamson,  B. Austin,  R. Baer,  J. Baker,  G. J. O. Beran,  
 K. Brandhorst,  S. T. Brown,  E. F. C. Byrd,  A. K. Chakraborty,  
 G. K. L. Chan,  Chun-Min Chang,  Yunqing Chen,  C.-L. Cheng,  
 Siu Hung Chien,  D. M. Chipman,  D. L. Crittenden,  H. Dachsel,  
 R. J. Doerksen,  A. D. Dutoi,  R. G. Edgar,  J. Fosso-Tande,  
 L. Fusti-Molnar,  D. Ghosh,  A. Ghysels,  A. Golubeva-Zadorozhnaya,  
 J. Gonthier,  M. S. Gordon,  S. R. Gwaltney,  G. Hawkins,  J. E. Herr,  
 A. Heyden,  S. Hirata,  E. G. Hohenstein,  G. Kedziora,  F. J. Keil,  
 C. Kelley,  Jihan Kim,  R. A. King,  R. Z. Khaliullin,  P. P. Korambath,  
 W. Kurlancheek,  A. Laurent,  A. M. Lee,  M. S. Lee,  S. V. Levchenko,  
 Ching Yeh Lin,  D. Liotard,  E. Livshits,  R. C. Lochan,  I. Lotan,  
 L. A. Martinez-Martinez,  P. E. Maslen,  N. Nair,  D. P. O'Neill,  
 D. Neuhauser,  E. Neuscamman,  C. M. Oana,  R. Olivares-Amaya,  R. Olson,  
 T. M. Perrine,  B. Peters,  P. A. Pieniazek,  A. Prociuk,  Y. M. Rhee,  
 J. Ritchie,  M. A. Rohrdanz,  E. Rosta,  N. J. Russ,  H. F. Schaefer III,  
 M. W. Schmidt,  N. E. Schultz,  S. Sharma,  N. Shenvi,  C. D. Sherrill,  
 A. C. Simmonett,  A. Sodt,  T. Stein,  D. Stuck,  K. S. Thanthiriwatte,  
 V. Vanovschi,  L. Vogt,  Tao Wang,  A. Warshel,  M. A. Watson,  
 C. F. Williams,  Q. Wu,  X. Xu,  Jun Yang,  W. Zhang,  Yan Zhao

 Please cite Q-Chem as follows:
 Y. Shao et al., Mol. Phys. 113, 184-215 (2015)
 DOI: 10.1080/00268976.2014.952696

 Q-Chem 5.4.1 for Intel X86 EM64T Linux

 Parts of Q-Chem use Armadillo 9.800.1 (Horizon Scraper).
 http://arma.sourceforge.net/

 Q-Chem begins on Mon Apr 24 08:50:06 2023  

 Host: 
0

     Scratch files written to /scratch/ari.fischer/qChem1516926.hpc-mn1/qchem70777//
 Aug1521 |scratch|qcdevops|jenkins|workspace|build_RNUM 8249   
 Processing $rem in /usr/local/qchem-5.4.1/config/preferences:
 Processing $rem in /home/ari.fischer/.qchemrc:
 Symmetry turned off for PCM/SM12/SMD calculation


!!********************************************.
!!******************Warning*******************.
!!Desired Analytical derivatives not available.
!!Finite difference job might take a long time.
!!********************************************.
!!********************************************.


 2-order derivative to be evaluated numerically with 1-order analytical derivatives

 Checking the input file for inconsistencies... 	...done.

--------------------------------------------------------------
User input:
--------------------------------------------------------------
$molecule
0 2
H        -0.3959918647    1.4802768540   -2.2254405216
C        -0.6330789464    1.4333386587   -1.1755726010
H        -0.7385317946    2.3045390246   -0.5483952914
O        -0.3514039547    0.2297209348   -0.5842410638
H        -0.5017423395    0.2985370278    0.3652896777
$end

$rem
BASIS = 6-311++G(2df,2p)
GUI = 2
JOB_TYPE = Frequency
METHOD = wB97M-V
SOLVENT_METHOD = SMD
SCF_ALGORITHM = DIIS_GDM
MAX_SCF_CYCLES = 400
SCF_CONVERGENCE = 7
THRESH = 12
UNRESTRICTED = 1
SYMMETRY_IGNORE = 1
$end
--------------------------------------------------------------
 ----------------------------------------------------------------
             Standard Nuclear Orientation (Angstroms)
    I     Atom           X                Y                Z
 ----------------------------------------------------------------
    1      H      -0.3959918647     1.4802768540    -2.2254405216
    2      C      -0.6330789464     1.4333386587    -1.1755726010
    3      H      -0.7385317946     2.3045390246    -0.5483952914
    4      O      -0.3514039547     0.2297209348    -0.5842410638
    5      H      -0.5017423395     0.2985370278     0.3652896777
 ----------------------------------------------------------------
 Nuclear Repulsion Energy =          35.23454676 hartrees
 There are        9 alpha and        8 beta electrons
 Requested basis set is 6-311++G(2df,2p)
 There are 34 shells and 98 basis functions

 Total QAlloc Memory Limit 288000 MB
 Mega-Array Size       188 MB
 MEM_STATIC part       192 MB
 
 Citation of the SMD model:
 Marenich, A.V.; Cramer, C.J.; Truhlar, D.G.
 J. Phys. Chem. B 2009, 113, 6378-6396.
 iSolventCode=           1
 Solvent: water                                                           
 
 vradii
            1           2           3           4           5
    1   1.2000000   1.8500000   1.2000000   1.5200000   1.2000000
 Changing PCM_VDW_RADII to SMD_RADIUS
 Discretize the solute cavity surface with Lebedev spheres
	Using 110 Lebedev grid points for each H atom
	Using 194 Lebedev grid points for other atoms
	Atomic van der Waals radii will be scaled by 1.20
 Remove points where switching function is < 1.0e-08
 Keep 434 surface tesserae and discard 284 interior tesserae
 Molecular Surface Area = 57.872 Angst**2

                       Distance Matrix (Angstroms)
             H (  1)   C (  2)   H (  3)   O (  4)
   C (  2)  1.077328
   H (  3)  1.899795  1.078639
   O (  4)  2.063835  1.370295  2.110929
   H (  5)  2.849487  1.918145  2.216965  0.963818
 
 A cutoff of  1.0D-12 yielded    595 shell pairs
 There are      4999 function pairs (      6102 Cartesian)
 Smallest overlap matrix eigenvalue = 1.28E-03
 Guess from superposition of atomic densities
 Warning:  Energy on first SCF cycle will be non-variational
 SAD guess density has 17.000000 electrons

 -----------------------------------------------------------------------
  General SCF calculation program by
  Eric Jon Sundstrom, Paul Horn, Yuezhi Mao, Dmitri Zuev, Alec White,
  David Stuck, Shaama M.S., Shane Yost, Joonho Lee, David Small,
  Daniel Levine, Susi Lehtola, Hugh Burton, Evgeny Epifanovsky,
  Bang C. Huynh
 -----------------------------------------------------------------------
 Exchange:     0.1500 Hartree-Fock + 1.0000 wB97M-V + LR-HF
 Correlation:  1.0000 wB97M-V
 Using SG-2 standard quadrature grid
 Nonlocal Correlation:  VV10 with C = 0.0100 and b = 6.00 and scale = 1.00000
 Grid used for NLC:  SG-1 standard quadrature
 using 8 threads for integral computing
 -------------------------------------------------------
 OpenMP Integral computing Module                
 Release: version 1.0, May 2013, Q-Chem Inc. Pittsburgh 
 -------------------------------------------------------
 
 Citation of the SMD model:
 Marenich, A.V.; Cramer, C.J.; Truhlar, D.G.
 J. Phys. Chem. B 2009, 113, 6378-6396.
 iSolventCode=           1
 Solvent: water                                                           
 
 vradii
            1           2           3           4           5
    1   1.2000000   1.8500000   1.2000000   1.5200000   1.2000000
 -------------------------------------------------------
 OpenMP BLAS3 based DFT computing Module                
 Release: version 1.0, May 2013, Q-Chem Inc. Pittsburgh 
 -------------------------------------------------------
 A unrestricted SCF calculation will be
 performed using DIIS, GDM
 SCF converges when RMS gradient is below 1.0e-07
 ---------------------------------------
  Cycle       Energy         DIIS error
 ---------------------------------------
    1    -115.2036351911      2.24e-02  
    2    -115.0373776028      2.45e-03  Done DIIS. Switching to GDM
 ---------------------------------------
  Cycle       Energy        RMS Gradient
 ---------------------------------------
    1    -115.0373776028      4.79e-02   Normal BFGS step
    2    -115.0452755513      7.14e-02   Normal BFGS step
    3    -115.0614522783      4.11e-03   Normal BFGS step
    4    -115.0617299667      3.69e-03   Normal BFGS step
    5    -115.0617879212      1.19e-03   Normal BFGS step
    6    -115.0617946237      5.55e-04   Normal BFGS step
    7    -115.0617958283      1.60e-04   Normal BFGS step
    8    -115.0617959864      2.83e-05   Normal BFGS step
    9    -115.0617959976      8.75e-06   Normal BFGS step
   10    -115.0617959987      2.55e-06   Normal BFGS step
   11    -115.0617959988      7.88e-07   Normal BFGS step
   12    -115.0617959988      2.61e-07   Normal BFGS step
   13    -115.0617959988      1.08e-07   Normal BFGS step
   14    -115.0617959988      3.64e-08  Convergence criterion met
 ---------------------------------------
 SCF time:   CPU 61.99s  wall 8.00s 
<S^2> =          0.753112615
(3)  G-ENP(liq) elect-nuc-pol free energy of system     -115.061795999 a.u.
(4)  G-CDS(liq) cavity-dispersion-solvent structure 
     free energy                                                3.8201 kcal/mol
(6)  G-S(liq) free energy of system                     -115.055708281 a.u.
 SCF   energy in the final basis set =     -115.0557082813
 Total energy in the final basis set =     -115.0557082813
 
 --------------------------------------------------------------
 
                    Orbital Energies (a.u.)
 --------------------------------------------------------------
 
 Alpha MOs
 -- Occupied --
-19.3667 -10.3803  -1.1859  -0.7859  -0.6372  -0.5610  -0.5119  -0.4663
 -0.2698
 -- Virtual --
  0.0308   0.0495   0.0608   0.1006   0.1086   0.1457   0.1558   0.2120
  0.2361   0.2498   0.2561   0.2761   0.3015   0.3378   0.3867   0.5260
  0.5534   0.5827   0.6052   0.6316   0.6475   0.6702   0.7725   0.7966
  0.8309   0.8826   0.9630   1.0429   1.0567   1.0720   1.1285   1.1502
  1.2250   1.2593   1.3432   1.4233   1.4897   1.5193   1.5529   1.6439
  1.9000   1.9202   2.1627   2.2871   2.3336   2.4560   2.5507   2.7610
  2.8069   2.9370   3.0112   3.0800   3.1271   3.2178   3.2480   3.2906
  3.3341   3.4106   3.4352   3.5999   3.7545   3.8328   3.8783   3.8945
  4.0790   4.1555   4.2034   4.2204   4.3243   4.6477   5.1434   5.1951
  5.2376   5.2744   5.4059   5.5584   5.6506   5.7069   5.8492   6.1572
  6.6415   7.0259   7.2178   7.2854   7.3024   7.5931   7.7079  24.6745
 50.5321
 
 Beta MOs
 -- Occupied --
-19.3616 -10.3679  -1.1742  -0.7597  -0.6253  -0.5491  -0.4706  -0.4566
 -- Virtual --
  0.0294   0.0351   0.0486   0.0599   0.1070   0.1218   0.1444   0.1506
  0.2171   0.2389   0.2535   0.2583   0.2815   0.3028   0.3477   0.3937
  0.5414   0.5579   0.5887   0.6369   0.6481   0.6622   0.6861   0.7884
  0.8100   0.8506   0.8902   0.9669   1.0518   1.0630   1.0808   1.1396
  1.1548   1.2374   1.2717   1.3500   1.4327   1.4963   1.5372   1.5706
  1.6574   1.9130   1.9359   2.1698   2.2933   2.3496   2.4799   2.5875
  2.7779   2.8937   3.0019   3.0824   3.1345   3.1868   3.2665   3.3003
  3.3496   3.3765   3.4707   3.4958   3.6541   3.7614   3.8535   3.9108
  3.9266   4.0917   4.1797   4.2410   4.2619   4.3399   4.6736   5.1723
  5.2519   5.2599   5.3000   5.4187   5.6163   5.6730   5.7390   5.8697
  6.1692   6.6544   7.0490   7.2392   7.2963   7.3200   7.6055   7.7147
 24.6871  50.5365
 --------------------------------------------------------------
 
          Ground-State Mulliken Net Atomic Charges

     Atom                 Charge (a.u.)    Spin (a.u.)
  --------------------------------------------------------
      1 H                     0.173561      -0.018106
      2 C                    -0.374581       0.939235
      3 H                     0.186386      -0.017136
      4 O                    -0.324929       0.099364
      5 H                     0.339563      -0.003356
  --------------------------------------------------------
  Sum of atomic charges =    -0.000000
  Sum of spin   charges =     1.000000

 -----------------------------------------------------------------
                    Cartesian Multipole Moments
 -----------------------------------------------------------------
    Charge (ESU x 10^10)
                -0.0000
    Dipole Moment (Debye)
         X      -0.0825      Y       1.1128      Z       1.7127
       Tot       2.0442
    Quadrupole Moments (Debye-Ang)
        XX     -15.0263     XY      -0.3530     YY     -11.7517
        XZ      -1.4835     YZ      -0.2517     ZZ     -12.0012
    Octopole Moments (Debye-Ang^2)
       XXX      23.8103    XXY     -14.5765    XYY       5.7781
       YYY     -33.1686    XXZ      15.1999    XYZ      -0.8146
       YYZ      11.8450    XZZ       7.6653    YZZ     -10.3070
       ZZZ      31.7447
    Hexadecapole Moments (Debye-Ang^3)
      XXXX     -46.2695   XXXY      27.4537   XXYY     -29.8964
      XYYY      18.6121   YYYY    -108.9590   XXXZ     -24.8738
      XXYZ      17.6593   XYYZ      -7.3175   YYYZ      40.9895
      XXZZ     -26.8547   XYZZ       8.4107   YYZZ     -33.9581
      XZZZ     -20.9116   YZZZ      34.8307   ZZZZ     -82.3390
 -----------------------------------------------------------------
 Calculating analytic gradient of the SCF energy
 Gradient of CDS energy
            1           2           3           4           5
    1  -0.0000268   0.0011757   0.0000203  -0.0012337   0.0000644
    2  -0.0000053  -0.0046628  -0.0001724   0.0051584  -0.0003179
    3   0.0001187   0.0017293   0.0000968  -0.0023403   0.0003955
 Gradient of SCF Energy
            1           2           3           4           5
    1   0.0001187   0.0001085  -0.0006378   0.0028678  -0.0024572
    2   0.0011534  -0.0055128   0.0044010  -0.0031246   0.0030830
    3  -0.0012830  -0.0027173   0.0048542  -0.0158519   0.0149981
 Max gradient component =       1.585E-02
 RMS gradient           =       6.292E-03
 Computing fast CPCM-SWIG gradient
 Updating gradient with PCM contributions...
 -- total gradient after adding PCM contribution --
---------------------------------------------------
  Atom         X              Y              Z     
---------------------------------------------------
   1      -0.000019      -0.000012      -0.000006
   2       0.000006      -0.000004       0.000010
   3      -0.000050      -0.000011      -0.000001
   4       0.000040       0.000026      -0.000024
   5       0.000022       0.000001       0.000022
---------------------------------------------------
 Number of fixed atoms: 0
 Gradient time:  CPU 9.75 s  wall 1.31 s
 ######################################################
 ######################################################
 # Starting finite difference calculation for IDERIV  #
 Finite diff step size:  1.88973e-03 a.u.
 ----------------------------------------------------------------
             Standard Nuclear Orientation (Angstroms)
    I     Atom           X                Y                Z
 ----------------------------------------------------------------
    1      H      -0.3949918647     1.4802768540    -2.2254405216
    2      C      -0.6330789464     1.4333386587    -1.1755726010
    3      H      -0.7385317946     2.3045390246    -0.5483952914
    4      O      -0.3514039547     0.2297209348    -0.5842410638
    5      H      -0.5017423395     0.2985370278     0.3652896777
 ----------------------------------------------------------------
 Nuclear Repulsion Energy =          35.23393598 hartrees
 There are        9 alpha and        8 beta electrons
 Discretize the solute cavity surface with Lebedev spheres
	Using 110 Lebedev grid points for each H atom
	Using 194 Lebedev grid points for other atoms
	Atomic van der Waals radii will be scaled by 1.20
 Remove points where switching function is < 1.0e-08
 Keep 434 surface tesserae and discard 284 interior tesserae
 Molecular Surface Area = 57.874 Angst**2

                       Distance Matrix (Angstroms)
             H (  1)   C (  2)   H (  3)   O (  4)
   C (  2)  1.077549
   H (  3)  1.899976  1.078639
   O (  4)  2.063813  1.370295  2.110929
   H (  5)  2.849524  1.918145  2.216965  0.963818
 
 Requested basis set is 6-311++G(2df,2p)
 There are 34 shells and 98 basis functions
 A cutoff of  1.0D-12 yielded    595 shell pairs
 There are      4999 function pairs (      6102 Cartesian)
 Smallest overlap matrix eigenvalue = 1.28E-03
 Guess MOs from SCF MO coefficient file

 -----------------------------------------------------------------------
  General SCF calculation program by
  Eric Jon Sundstrom, Paul Horn, Yuezhi Mao, Dmitri Zuev, Alec White,
  David Stuck, Shaama M.S., Shane Yost, Joonho Lee, David Small,
  Daniel Levine, Susi Lehtola, Hugh Burton, Evgeny Epifanovsky,
  Bang C. Huynh
 -----------------------------------------------------------------------
 Exchange:     0.1500 Hartree-Fock + 1.0000 wB97M-V + LR-HF
 Correlation:  1.0000 wB97M-V
 Using SG-2 standard quadrature grid
 Nonlocal Correlation:  VV10 with C = 0.0100 and b = 6.00 and scale = 1.00000
 Grid used for NLC:  SG-1 standard quadrature
 
 Citation of the SMD model:
 Marenich, A.V.; Cramer, C.J.; Truhlar, D.G.
 J. Phys. Chem. B 2009, 113, 6378-6396.
 iSolventCode=           1
 Solvent: water                                                           
 
 vradii
            1           2           3           4           5
    1   1.2000000   1.8500000   1.2000000   1.5200000   1.2000000
 -------------------------------------------------------
 OpenMP BLAS3 based DFT computing Module                
 Release: version 1.0, May 2013, Q-Chem Inc. Pittsburgh 
 -------------------------------------------------------
 A unrestricted SCF calculation will be
 performed using Roothaan-Hall, DIIS, GDM
 SCF converges when RMS gradient is below 1.0e-07
 ---------------------------------------
  Cycle       Energy         DIIS error
 ---------------------------------------
    1    -115.0487585888      4.82e-04  Roothaan Step
 ---------------------------------------
  Cycle       Energy         DIIS error
 ---------------------------------------
    1    -115.0598866630      5.18e-04  
    2    -115.0613360964      3.69e-04  Done DIIS. Switching to GDM
 ---------------------------------------
  Cycle       Energy        RMS Gradient
 ---------------------------------------
    1    -115.0613360964      7.89e-03   Normal BFGS step
    2    -115.0613651252      9.07e-03   Normal BFGS step
    3    -115.0617905162      6.88e-04   Normal BFGS step
    4    -115.0617948532      4.68e-04   Normal BFGS step
    5    -115.0617958958      8.49e-05   Normal BFGS step
    6    -115.0617959332      4.69e-05   Normal BFGS step
    7    -115.0617959400      1.99e-05   Normal BFGS step
    8    -115.0617959411      4.32e-06   Normal BFGS step
    9    -115.0617959412      9.38e-07   Normal BFGS step
   10    -115.0617959412      3.42e-07   Normal BFGS step
   11    -115.0617959412      1.44e-07   Normal BFGS step
   12    -115.0617959412      2.96e-08  Convergence criterion met
 ---------------------------------------
 SCF time:   CPU 57.59s  wall 8.00s 
<S^2> =          0.753112506
(3)  G-ENP(liq) elect-nuc-pol free energy of system     -115.061795941 a.u.
(4)  G-CDS(liq) cavity-dispersion-solvent structure 
     free energy                                                3.8201 kcal/mol
(6)  G-S(liq) free energy of system                     -115.055708274 a.u.
 SCF   energy in the final basis set =     -115.0557082744
 Total energy in the final basis set =     -115.0557082744
 
 --------------------------------------------------------------
 
                    Orbital Energies (a.u.)
 --------------------------------------------------------------
 
 Alpha MOs
 -- Occupied --
-19.3667 -10.3803  -1.1860  -0.7859  -0.6372  -0.5609  -0.5119  -0.4663
 -0.2698
 -- Virtual --
  0.0308   0.0495   0.0608   0.1006   0.1086   0.1457   0.1558   0.2120
  0.2361   0.2498   0.2561   0.2761   0.3015   0.3378   0.3867   0.5260
  0.5534   0.5827   0.6052   0.6316   0.6475   0.6702   0.7726   0.7966
  0.8309   0.8826   0.9630   1.0429   1.0567   1.0720   1.1286   1.1501
  1.2250   1.2595   1.3432   1.4232   1.4897   1.5192   1.5529   1.6437
  1.9000   1.9203   2.1626   2.2871   2.3335   2.4561   2.5505   2.7609
  2.8070   2.9371   3.0113   3.0799   3.1271   3.2179   3.2479   3.2906
  3.3339   3.4108   3.4351   3.6000   3.7545   3.8328   3.8781   3.8943
  4.0790   4.1554   4.2034   4.2202   4.3244   4.6473   5.1434   5.1951
  5.2375   5.2744   5.4059   5.5579   5.6505   5.7068   5.8492   6.1570
  6.6414   7.0259   7.2178   7.2854   7.3023   7.5930   7.7079  24.6741
 50.5321
 
 Beta MOs
 -- Occupied --
-19.3616 -10.3679  -1.1742  -0.7597  -0.6253  -0.5491  -0.4706  -0.4566
 -- Virtual --
  0.0294   0.0351   0.0486   0.0599   0.1070   0.1218   0.1444   0.1506
  0.2171   0.2389   0.2535   0.2583   0.2815   0.3028   0.3477   0.3937
  0.5414   0.5579   0.5887   0.6368   0.6481   0.6622   0.6861   0.7885
  0.8099   0.8506   0.8903   0.9668   1.0518   1.0629   1.0807   1.1396
  1.1548   1.2373   1.2719   1.3501   1.4327   1.4963   1.5371   1.5706
  1.6573   1.9130   1.9359   2.1697   2.2933   2.3495   2.4800   2.5873
  2.7778   2.8938   3.0020   3.0825   3.1344   3.1868   3.2667   3.3002
  3.3495   3.3763   3.4708   3.4957   3.6542   3.7614   3.8534   3.9107
  3.9264   4.0917   4.1796   4.2410   4.2617   4.3399   4.6732   5.1723
  5.2518   5.2600   5.2998   5.4187   5.6160   5.6727   5.7388   5.8698
  6.1690   6.6544   7.0490   7.2392   7.2963   7.3199   7.6054   7.7147
 24.6867  50.5365
 --------------------------------------------------------------
 
          Ground-State Mulliken Net Atomic Charges

     Atom                 Charge (a.u.)    Spin (a.u.)
  --------------------------------------------------------
      1 H                     0.173497      -0.018100
      2 C                    -0.374525       0.939194
      3 H                     0.186376      -0.017117
      4 O                    -0.324903       0.099380
      5 H                     0.339554      -0.003356
  --------------------------------------------------------
  Sum of atomic charges =    -0.000000
  Sum of spin   charges =     1.000000

 -----------------------------------------------------------------
                    Cartesian Multipole Moments
 -----------------------------------------------------------------
    Charge (ESU x 10^10)
                 0.0000
    Dipole Moment (Debye)
         X      -0.0814      Y       1.1130      Z       1.7132
       Tot       2.0446
    Quadrupole Moments (Debye-Ang)
        XX     -15.0272     XY      -0.3515     YY     -11.7513
        XZ      -1.4865     YZ      -0.2511     ZZ     -12.0031
    Octopole Moments (Debye-Ang^2)
       XXX      23.8094    XXY     -14.5775    XYY       5.7799
       YYY     -33.1677    XXZ      15.2029    XYZ      -0.8191
       YYZ      11.8461    XZZ       7.6721    YZZ     -10.3094
       ZZZ      31.7507
    Hexadecapole Moments (Debye-Ang^3)
      XXXX     -46.2671   XXXY      27.4521   XXYY     -29.8970
      XYYY      18.6135   YYYY    -108.9563   XXXZ     -24.8735
      XXYZ      17.6636   XYYZ      -7.3234   YYYZ      40.9919
      XXZZ     -26.8617   XYZZ       8.4208   YYZZ     -33.9628
      XZZZ     -20.9264   YZZZ      34.8389   ZZZZ     -82.3579
 -----------------------------------------------------------------
 Calculating analytic gradient of the SCF energy
 Gradient of CDS energy
            1           2           3           4           5
    1  -0.0000268   0.0011757   0.0000203  -0.0012337   0.0000644
    2  -0.0000053  -0.0046629  -0.0001724   0.0051584  -0.0003179
    3   0.0001180   0.0017300   0.0000968  -0.0023403   0.0003955
 Gradient of SCF Energy
            1           2           3           4           5
    1   0.0001645   0.0000587  -0.0006384   0.0028664  -0.0024513
    2   0.0011378  -0.0054942   0.0043979  -0.0031291   0.0030875
    3  -0.0014242  -0.0025555   0.0048541  -0.0158711   0.0149967
 Max gradient component =       1.587E-02
 RMS gradient           =       6.291E-03
 Computing fast CPCM-SWIG gradient
 Updating gradient with PCM contributions...
 -- total gradient after adding PCM contribution --
---------------------------------------------------
  Atom         X              Y              Z     
---------------------------------------------------
   1       0.000026      -0.000027      -0.000148
   2      -0.000043       0.000015       0.000174
   3      -0.000050      -0.000015      -0.000002
   4       0.000039       0.000022      -0.000043
   5       0.000027       0.000005       0.000020
---------------------------------------------------
 Number of fixed atoms: 0
 Gradient time:  CPU 8.89 s  wall 1.14 s
 ----------------------------------------------------------------
             Standard Nuclear Orientation (Angstroms)
    I     Atom           X                Y                Z
 ----------------------------------------------------------------
    1      H      -0.3969918647     1.4802768540    -2.2254405216
    2      C      -0.6330789464     1.4333386587    -1.1755726010
    3      H      -0.7385317946     2.3045390246    -0.5483952914
    4      O      -0.3514039547     0.2297209348    -0.5842410638
    5      H      -0.5017423395     0.2985370278     0.3652896777
 ----------------------------------------------------------------
 Nuclear Repulsion Energy =          35.23515479 hartrees
 There are        9 alpha and        8 beta electrons
 Discretize the solute cavity surface with Lebedev spheres
	Using 110 Lebedev grid points for each H atom
	Using 194 Lebedev grid points for other atoms
	Atomic van der Waals radii will be scaled by 1.20
 Remove points where switching function is < 1.0e-08
 Keep 434 surface tesserae and discard 284 interior tesserae
 Molecular Surface Area = 57.871 Angst**2

                       Distance Matrix (Angstroms)
             H (  1)   C (  2)   H (  3)   O (  4)
   C (  2)  1.077109
   H (  3)  1.899615  1.078639
   O (  4)  2.063857  1.370295  2.110929
   H (  5)  2.849450  1.918145  2.216965  0.963818
 
 Requested basis set is 6-311++G(2df,2p)
 There are 34 shells and 98 basis functions
 A cutoff of  1.0D-12 yielded    595 shell pairs
 There are      4999 function pairs (      6102 Cartesian)
 Smallest overlap matrix eigenvalue = 1.28E-03
 Guess MOs from SCF MO coefficient file

 -----------------------------------------------------------------------
  General SCF calculation program by
  Eric Jon Sundstrom, Paul Horn, Yuezhi Mao, Dmitri Zuev, Alec White,
  David Stuck, Shaama M.S., Shane Yost, Joonho Lee, David Small,
  Daniel Levine, Susi Lehtola, Hugh Burton, Evgeny Epifanovsky,
  Bang C. Huynh
 -----------------------------------------------------------------------
 Exchange:     0.1500 Hartree-Fock + 1.0000 wB97M-V + LR-HF
 Correlation:  1.0000 wB97M-V
 Using SG-2 standard quadrature grid
 Nonlocal Correlation:  VV10 with C = 0.0100 and b = 6.00 and scale = 1.00000
 Grid used for NLC:  SG-1 standard quadrature
 
 Citation of the SMD model:
 Marenich, A.V.; Cramer, C.J.; Truhlar, D.G.
 J. Phys. Chem. B 2009, 113, 6378-6396.
 iSolventCode=           1
 Solvent: water                                                           
 
 vradii
            1           2           3           4           5
    1   1.2000000   1.8500000   1.2000000   1.5200000   1.2000000
 -------------------------------------------------------
 OpenMP BLAS3 based DFT computing Module                
 Release: version 1.0, May 2013, Q-Chem Inc. Pittsburgh 
 -------------------------------------------------------
 A unrestricted SCF calculation will be
 performed using Roothaan-Hall, DIIS, GDM
 SCF converges when RMS gradient is below 1.0e-07
 ---------------------------------------
  Cycle       Energy         DIIS error
 ---------------------------------------
    1    -115.0487601437      4.82e-04  Roothaan Step
 ---------------------------------------
  Cycle       Energy         DIIS error
 ---------------------------------------
    1    -115.0598877776      5.18e-04  
    2    -115.0613358670      3.69e-04  Done DIIS. Switching to GDM
 ---------------------------------------
  Cycle       Energy        RMS Gradient
 ---------------------------------------
    1    -115.0613358670      7.89e-03   Normal BFGS step
    2    -115.0613644944      9.08e-03   Normal BFGS step
    3    -115.0617905517      6.87e-04   Normal BFGS step
    4    -115.0617948871      4.66e-04   Normal BFGS step
    5    -115.0617959258      8.56e-05   Normal BFGS step
    6    -115.0617959633      4.74e-05   Normal BFGS step
    7    -115.0617959702      2.01e-05   Normal BFGS step
    8    -115.0617959714      4.32e-06   Normal BFGS step
    9    -115.0617959715      9.30e-07   Normal BFGS step
   10    -115.0617959715      3.54e-07   Normal BFGS step
   11    -115.0617959715      1.51e-07   Normal BFGS step
   12    -115.0617959715      3.09e-08  Convergence criterion met
 ---------------------------------------
 SCF time:   CPU 57.58s  wall 8.00s 
<S^2> =          0.753112727
(3)  G-ENP(liq) elect-nuc-pol free energy of system     -115.061795972 a.u.
(4)  G-CDS(liq) cavity-dispersion-solvent structure 
     free energy                                                3.8201 kcal/mol
(6)  G-S(liq) free energy of system                     -115.055708203 a.u.
 SCF   energy in the final basis set =     -115.0557082034
 Total energy in the final basis set =     -115.0557082034
 
 --------------------------------------------------------------
 
                    Orbital Energies (a.u.)
 --------------------------------------------------------------
 
 Alpha MOs
 -- Occupied --
-19.3667 -10.3802  -1.1859  -0.7859  -0.6372  -0.5610  -0.5119  -0.4663
 -0.2698
 -- Virtual --
  0.0308   0.0495   0.0608   0.1006   0.1086   0.1458   0.1558   0.2120
  0.2361   0.2498   0.2561   0.2762   0.3016   0.3378   0.3867   0.5260
  0.5535   0.5828   0.6052   0.6317   0.6475   0.6702   0.7725   0.7967
  0.8309   0.8825   0.9631   1.0430   1.0567   1.0721   1.1285   1.1502
  1.2251   1.2592   1.3432   1.4233   1.4898   1.5194   1.5530   1.6440
  1.9000   1.9202   2.1627   2.2871   2.3336   2.4559   2.5510   2.7610
  2.8069   2.9369   3.0112   3.0801   3.1270   3.2176   3.2481   3.2907
  3.3343   3.4105   3.4352   3.5998   3.7544   3.8329   3.8786   3.8947
  4.0790   4.1555   4.2034   4.2206   4.3243   4.6481   5.1435   5.1952
  5.2376   5.2745   5.4060   5.5588   5.6507   5.7071   5.8492   6.1574
  6.6415   7.0259   7.2178   7.2854   7.3024   7.5931   7.7079  24.6748
 50.5321
 
 Beta MOs
 -- Occupied --
-19.3616 -10.3679  -1.1742  -0.7597  -0.6253  -0.5492  -0.4707  -0.4566
 -- Virtual --
  0.0294   0.0351   0.0486   0.0599   0.1070   0.1218   0.1445   0.1506
  0.2171   0.2389   0.2535   0.2583   0.2816   0.3028   0.3477   0.3936
  0.5414   0.5579   0.5888   0.6369   0.6481   0.6622   0.6861   0.7884
  0.8100   0.8507   0.8902   0.9670   1.0519   1.0630   1.0809   1.1395
  1.1549   1.2374   1.2716   1.3500   1.4328   1.4964   1.5373   1.5707
  1.6576   1.9130   1.9358   2.1699   2.2933   2.3496   2.4798   2.5877
  2.7779   2.8936   3.0018   3.0824   3.1346   3.1868   3.2664   3.3003
  3.3497   3.3766   3.4705   3.4959   3.6540   3.7613   3.8535   3.9110
  3.9269   4.0917   4.1797   4.2410   4.2621   4.3398   4.6740   5.1723
  5.2520   5.2598   5.3001   5.4188   5.6166   5.6734   5.7391   5.8697
  6.1693   6.6545   7.0490   7.2391   7.2964   7.3200   7.6055   7.7147
 24.6874  50.5365
 --------------------------------------------------------------
 
          Ground-State Mulliken Net Atomic Charges

     Atom                 Charge (a.u.)    Spin (a.u.)
  --------------------------------------------------------
      1 H                     0.173624      -0.018112
      2 C                    -0.374636       0.939276
      3 H                     0.186395      -0.017155
      4 O                    -0.324955       0.099348
      5 H                     0.339571      -0.003357
  --------------------------------------------------------
  Sum of atomic charges =     0.000000
  Sum of spin   charges =     1.000000

 -----------------------------------------------------------------
                    Cartesian Multipole Moments
 -----------------------------------------------------------------
    Charge (ESU x 10^10)
                 0.0000
    Dipole Moment (Debye)
         X      -0.0836      Y       1.1127      Z       1.7122
       Tot       2.0437
    Quadrupole Moments (Debye-Ang)
        XX     -15.0254     XY      -0.3546     YY     -11.7521
        XZ      -1.4805     YZ      -0.2523     ZZ     -11.9994
    Octopole Moments (Debye-Ang^2)
       XXX      23.8111    XXY     -14.5755    XYY       5.7763
       YYY     -33.1695    XXZ      15.1969    XYZ      -0.8102
       YYZ      11.8440    XZZ       7.6584    YZZ     -10.3046
       ZZZ      31.7388
    Hexadecapole Moments (Debye-Ang^3)
      XXXX     -46.2719   XXXY      27.4553   XXYY     -29.8957
      XYYY      18.6107   YYYY    -108.9616   XXXZ     -24.8741
      XXYZ      17.6551   XYYZ      -7.3115   YYYZ      40.9872
      XXZZ     -26.8478   XYZZ       8.4006   YYZZ     -33.9535
      XZZZ     -20.8967   YZZZ      34.8225   ZZZZ     -82.3203
 -----------------------------------------------------------------
 Calculating analytic gradient of the SCF energy
 Gradient of CDS energy
            1           2           3           4           5
    1  -0.0000268   0.0011758   0.0000203  -0.0012337   0.0000644
    2  -0.0000053  -0.0046628  -0.0001724   0.0051584  -0.0003179
    3   0.0001193   0.0017287   0.0000968  -0.0023403   0.0003955
 Gradient of SCF Energy
            1           2           3           4           5
    1   0.0000732   0.0001579  -0.0006371   0.0028692  -0.0024632
    2   0.0011690  -0.0055314   0.0044040  -0.0031200   0.0030785
    3  -0.0011421  -0.0028788   0.0048543  -0.0158328   0.0149995
 Max gradient component =       1.583E-02
 RMS gradient           =       6.294E-03
 Computing fast CPCM-SWIG gradient
 Updating gradient with PCM contributions...
 -- total gradient after adding PCM contribution --
---------------------------------------------------
  Atom         X              Y              Z     
---------------------------------------------------
   1      -0.000064       0.000003       0.000135
   2       0.000055      -0.000022      -0.000154
   3      -0.000049      -0.000007      -0.000000
   4       0.000041       0.000029      -0.000005
   5       0.000016      -0.000003       0.000024
---------------------------------------------------
 Number of fixed atoms: 0
 Gradient time:  CPU 9.31 s  wall 1.23 s
 ----------------------------------------------------------------
             Standard Nuclear Orientation (Angstroms)
    I     Atom           X                Y                Z
 ----------------------------------------------------------------
    1      H      -0.3959918647     1.4812768540    -2.2254405216
    2      C      -0.6330789464     1.4333386587    -1.1755726010
    3      H      -0.7385317946     2.3045390246    -0.5483952914
    4      O      -0.3514039547     0.2297209348    -0.5842410638
    5      H      -0.5017423395     0.2985370278     0.3652896777
 ----------------------------------------------------------------
 Nuclear Repulsion Energy =          35.23386065 hartrees
 There are        9 alpha and        8 beta electrons
 Discretize the solute cavity surface with Lebedev spheres
	Using 110 Lebedev grid points for each H atom
	Using 194 Lebedev grid points for other atoms
	Atomic van der Waals radii will be scaled by 1.20
 Remove points where switching function is < 1.0e-08
 Keep 434 surface tesserae and discard 284 interior tesserae
 Molecular Surface Area = 57.873 Angst**2

                       Distance Matrix (Angstroms)
             H (  1)   C (  2)   H (  3)   O (  4)
   C (  2)  1.077372
   H (  3)  1.899362  1.078639
   O (  4)  2.064441  1.370295  2.110929
   H (  5)  2.849902  1.918145  2.216965  0.963818
 
 Requested basis set is 6-311++G(2df,2p)
 There are 34 shells and 98 basis functions
 A cutoff of  1.0D-12 yielded    595 shell pairs
 There are      4999 function pairs (      6102 Cartesian)
 Smallest overlap matrix eigenvalue = 1.28E-03
 Guess MOs from SCF MO coefficient file

 -----------------------------------------------------------------------
  General SCF calculation program by
  Eric Jon Sundstrom, Paul Horn, Yuezhi Mao, Dmitri Zuev, Alec White,
  David Stuck, Shaama M.S., Shane Yost, Joonho Lee, David Small,
  Daniel Levine, Susi Lehtola, Hugh Burton, Evgeny Epifanovsky,
  Bang C. Huynh
 -----------------------------------------------------------------------
 Exchange:     0.1500 Hartree-Fock + 1.0000 wB97M-V + LR-HF
 Correlation:  1.0000 wB97M-V
 Using SG-2 standard quadrature grid
 Nonlocal Correlation:  VV10 with C = 0.0100 and b = 6.00 and scale = 1.00000
 Grid used for NLC:  SG-1 standard quadrature
 
 Citation of the SMD model:
 Marenich, A.V.; Cramer, C.J.; Truhlar, D.G.
 J. Phys. Chem. B 2009, 113, 6378-6396.
 iSolventCode=           1
 Solvent: water                                                           
 
 vradii
            1           2           3           4           5
    1   1.2000000   1.8500000   1.2000000   1.5200000   1.2000000
 -------------------------------------------------------
 OpenMP BLAS3 based DFT computing Module                
 Release: version 1.0, May 2013, Q-Chem Inc. Pittsburgh 
 -------------------------------------------------------
 A unrestricted SCF calculation will be
 performed using Roothaan-Hall, DIIS, GDM
 SCF converges when RMS gradient is below 1.0e-07
 ---------------------------------------
  Cycle       Energy         DIIS error
 ---------------------------------------
    1    -115.0487586032      4.82e-04  Roothaan Step
 ---------------------------------------
  Cycle       Energy         DIIS error
 ---------------------------------------
    1    -115.0598867623      5.18e-04  
    2    -115.0613362944      3.69e-04  Done DIIS. Switching to GDM
 ---------------------------------------
  Cycle       Energy        RMS Gradient
 ---------------------------------------
    1    -115.0613362944      7.89e-03   Normal BFGS step
    2    -115.0613654586      9.07e-03   Normal BFGS step
    3    -115.0617904884      6.88e-04   Normal BFGS step
    4    -115.0617948246      4.68e-04   Normal BFGS step
    5    -115.0617958682      8.49e-05   Normal BFGS step
    6    -115.0617959056      4.69e-05   Normal BFGS step
    7    -115.0617959123      1.99e-05   Normal BFGS step
    8    -115.0617959135      4.33e-06   Normal BFGS step
    9    -115.0617959136      9.38e-07   Normal BFGS step
   10    -115.0617959136      3.40e-07   Normal BFGS step
   11    -115.0617959136      1.43e-07   Normal BFGS step
   12    -115.0617959136      2.95e-08  Convergence criterion met
 ---------------------------------------
 SCF time:   CPU 56.61s  wall 8.00s 
<S^2> =          0.753112444
(3)  G-ENP(liq) elect-nuc-pol free energy of system     -115.061795914 a.u.
(4)  G-CDS(liq) cavity-dispersion-solvent structure 
     free energy                                                3.8201 kcal/mol
(6)  G-S(liq) free energy of system                     -115.055708206 a.u.
 SCF   energy in the final basis set =     -115.0557082063
 Total energy in the final basis set =     -115.0557082063
 
 --------------------------------------------------------------
 
                    Orbital Energies (a.u.)
 --------------------------------------------------------------
 
 Alpha MOs
 -- Occupied --
-19.3667 -10.3803  -1.1860  -0.7859  -0.6372  -0.5610  -0.5119  -0.4663
 -0.2698
 -- Virtual --
  0.0308   0.0495   0.0609   0.1006   0.1086   0.1457   0.1558   0.2120
  0.2361   0.2498   0.2561   0.2761   0.3015   0.3378   0.3867   0.5261
  0.5533   0.5827   0.6052   0.6317   0.6475   0.6702   0.7726   0.7965
  0.8309   0.8826   0.9633   1.0429   1.0568   1.0720   1.1285   1.1501
  1.2249   1.2592   1.3431   1.4234   1.4897   1.5193   1.5529   1.6438
  1.9001   1.9202   2.1626   2.2871   2.3336   2.4560   2.5508   2.7608
  2.8070   2.9371   3.0112   3.0801   3.1271   3.2176   3.2480   3.2907
  3.3340   3.4106   3.4351   3.5999   3.7544   3.8329   3.8783   3.8950
  4.0789   4.1552   4.2033   4.2204   4.3241   4.6476   5.1434   5.1948
  5.2375   5.2744   5.4059   5.5585   5.6508   5.7069   5.8492   6.1572
  6.6414   7.0259   7.2178   7.2854   7.3023   7.5931   7.7079  24.6744
 50.5321
 
 Beta MOs
 -- Occupied --
-19.3616 -10.3679  -1.1742  -0.7597  -0.6253  -0.5492  -0.4706  -0.4565
 -- Virtual --
  0.0294   0.0351   0.0485   0.0599   0.1069   0.1218   0.1445   0.1506
  0.2171   0.2389   0.2535   0.2583   0.2815   0.3028   0.3477   0.3936
  0.5415   0.5578   0.5887   0.6369   0.6482   0.6622   0.6861   0.7884
  0.8099   0.8506   0.8902   0.9672   1.0519   1.0630   1.0808   1.1395
  1.1548   1.2372   1.2716   1.3500   1.4329   1.4963   1.5372   1.5707
  1.6574   1.9131   1.9359   2.1697   2.2933   2.3496   2.4799   2.5876
  2.7777   2.8937   3.0020   3.0824   3.1345   3.1868   3.2664   3.3002
  3.3496   3.3764   3.4707   3.4958   3.6541   3.7613   3.8535   3.9109
  3.9271   4.0916   4.1794   4.2408   4.2619   4.3396   4.6735   5.1723
  5.2518   5.2598   5.2998   5.4187   5.6164   5.6735   5.7388   5.8697
  6.1691   6.6543   7.0490   7.2392   7.2963   7.3200   7.6055   7.7147
 24.6870  50.5365
 --------------------------------------------------------------
 
          Ground-State Mulliken Net Atomic Charges

     Atom                 Charge (a.u.)    Spin (a.u.)
  --------------------------------------------------------
      1 H                     0.173545      -0.018105
      2 C                    -0.374511       0.939251
      3 H                     0.186326      -0.017141
      4 O                    -0.324950       0.099349
      5 H                     0.339591      -0.003354
  --------------------------------------------------------
  Sum of atomic charges =     0.000000
  Sum of spin   charges =     1.000000

 -----------------------------------------------------------------
                    Cartesian Multipole Moments
 -----------------------------------------------------------------
    Charge (ESU x 10^10)
                -0.0000
    Dipole Moment (Debye)
         X      -0.0823      Y       1.1130      Z       1.7126
       Tot       2.0442
    Quadrupole Moments (Debye-Ang)
        XX     -15.0265     XY      -0.3525     YY     -11.7510
        XZ      -1.4836     YZ      -0.2540     ZZ     -12.0010
    Octopole Moments (Debye-Ang^2)
       XXX      23.8108    XXY     -14.5779    XYY       5.7793
       YYY     -33.1698    XXZ      15.2000    XYZ      -0.8141
       YYZ      11.8385    XZZ       7.6654    YZZ     -10.3020
       ZZZ      31.7450
    Hexadecapole Moments (Debye-Ang^3)
      XXXX     -46.2700   XXXY      27.4559   XXYY     -29.9001
      XYYY      18.6160   YYYY    -108.9723   XXXZ     -24.8742
      XXYZ      17.6608   XYYZ      -7.3158   YYYZ      40.9793
      XXZZ     -26.8549   XYZZ       8.4094   YYZZ     -33.9437
      XZZZ     -20.9120   YZZZ      34.8213   ZZZZ     -82.3408
 -----------------------------------------------------------------
 Calculating analytic gradient of the SCF energy
 Gradient of CDS energy
            1           2           3           4           5
    1  -0.0000268   0.0011757   0.0000203  -0.0012337   0.0000644
    2  -0.0000054  -0.0046627  -0.0001724   0.0051584  -0.0003179
    3   0.0001186   0.0017295   0.0000968  -0.0023403   0.0003955
 Gradient of SCF Energy
            1           2           3           4           5
    1   0.0001040   0.0001255  -0.0006291   0.0028541  -0.0024545
    2   0.0012577  -0.0056115   0.0044120  -0.0031312   0.0030731
    3  -0.0013131  -0.0027209   0.0048158  -0.0157861   0.0150042
 Max gradient component =       1.579E-02
 RMS gradient           =       6.288E-03
 Computing fast CPCM-SWIG gradient
 Updating gradient with PCM contributions...
 -- total gradient after adding PCM contribution --
---------------------------------------------------
  Atom         X              Y              Z     
---------------------------------------------------
   1      -0.000034       0.000091      -0.000036
   2       0.000024      -0.000101       0.000001
   3      -0.000042       0.000001      -0.000036
   4       0.000027       0.000016       0.000045
   5       0.000024      -0.000008       0.000026
---------------------------------------------------
 Number of fixed atoms: 0
 Gradient time:  CPU 8.75 s  wall 1.12 s
 ----------------------------------------------------------------
             Standard Nuclear Orientation (Angstroms)
    I     Atom           X                Y                Z
 ----------------------------------------------------------------
    1      H      -0.3959918647     1.4792768540    -2.2254405216
    2      C      -0.6330789464     1.4333386587    -1.1755726010
    3      H      -0.7385317946     2.3045390246    -0.5483952914
    4      O      -0.3514039547     0.2297209348    -0.5842410638
    5      H      -0.5017423395     0.2985370278     0.3652896777
 ----------------------------------------------------------------
 Nuclear Repulsion Energy =          35.23523034 hartrees
 There are        9 alpha and        8 beta electrons
 Discretize the solute cavity surface with Lebedev spheres
	Using 110 Lebedev grid points for each H atom
	Using 194 Lebedev grid points for other atoms
	Atomic van der Waals radii will be scaled by 1.20
 Remove points where switching function is < 1.0e-08
 Keep 434 surface tesserae and discard 284 interior tesserae
 Molecular Surface Area = 57.872 Angst**2

                       Distance Matrix (Angstroms)
             H (  1)   C (  2)   H (  3)   O (  4)
   C (  2)  1.077285
   H (  3)  1.900229  1.078639
   O (  4)  2.063229  1.370295  2.110929
   H (  5)  2.849072  1.918145  2.216965  0.963818
 
 Requested basis set is 6-311++G(2df,2p)
 There are 34 shells and 98 basis functions
 A cutoff of  1.0D-12 yielded    595 shell pairs
 There are      4999 function pairs (      6102 Cartesian)
 Smallest overlap matrix eigenvalue = 1.28E-03
 Guess MOs from SCF MO coefficient file

 -----------------------------------------------------------------------
  General SCF calculation program by
  Eric Jon Sundstrom, Paul Horn, Yuezhi Mao, Dmitri Zuev, Alec White,
  David Stuck, Shaama M.S., Shane Yost, Joonho Lee, David Small,
  Daniel Levine, Susi Lehtola, Hugh Burton, Evgeny Epifanovsky,
  Bang C. Huynh
 -----------------------------------------------------------------------
 Exchange:     0.1500 Hartree-Fock + 1.0000 wB97M-V + LR-HF
 Correlation:  1.0000 wB97M-V
 Using SG-2 standard quadrature grid
 Nonlocal Correlation:  VV10 with C = 0.0100 and b = 6.00 and scale = 1.00000
 Grid used for NLC:  SG-1 standard quadrature
 
 Citation of the SMD model:
 Marenich, A.V.; Cramer, C.J.; Truhlar, D.G.
 J. Phys. Chem. B 2009, 113, 6378-6396.
 iSolventCode=           1
 Solvent: water                                                           
 
 vradii
            1           2           3           4           5
    1   1.2000000   1.8500000   1.2000000   1.5200000   1.2000000
 -------------------------------------------------------
 OpenMP BLAS3 based DFT computing Module                
 Release: version 1.0, May 2013, Q-Chem Inc. Pittsburgh 
 -------------------------------------------------------
 A unrestricted SCF calculation will be
 performed using Roothaan-Hall, DIIS, GDM
 SCF converges when RMS gradient is below 1.0e-07
 ---------------------------------------
  Cycle       Energy         DIIS error
 ---------------------------------------
    1    -115.0487614932      4.81e-04  Roothaan Step
 ---------------------------------------
  Cycle       Energy         DIIS error
 ---------------------------------------
    1    -115.0598874014      5.18e-04  
    2    -115.0613355564      3.69e-04  Done DIIS. Switching to GDM
 ---------------------------------------
  Cycle       Energy        RMS Gradient
 ---------------------------------------
    1    -115.0613355564      7.89e-03   Normal BFGS step
    2    -115.0613641562      9.08e-03   Normal BFGS step
    3    -115.0617904720      6.87e-04   Normal BFGS step
    4    -115.0617948056      4.67e-04   Normal BFGS step
    5    -115.0617958437      8.46e-05   Normal BFGS step
    6    -115.0617958810      4.69e-05   Normal BFGS step
    7    -115.0617958878      1.99e-05   Normal BFGS step
    8    -115.0617958889      4.31e-06   Normal BFGS step
    9    -115.0617958890      9.36e-07   Normal BFGS step
   10    -115.0617958890      3.47e-07   Normal BFGS step
   11    -115.0617958890      1.47e-07   Normal BFGS step
   12    -115.0617958890      3.02e-08  Convergence criterion met
 ---------------------------------------
 SCF time:   CPU 57.51s  wall 8.00s 
<S^2> =          0.753112791
(3)  G-ENP(liq) elect-nuc-pol free energy of system     -115.061795889 a.u.
(4)  G-CDS(liq) cavity-dispersion-solvent structure 
     free energy                                                3.8201 kcal/mol
(6)  G-S(liq) free energy of system                     -115.055708162 a.u.
 SCF   energy in the final basis set =     -115.0557081617
 Total energy in the final basis set =     -115.0557081617
 
 --------------------------------------------------------------
 
                    Orbital Energies (a.u.)
 --------------------------------------------------------------
 
 Alpha MOs
 -- Occupied --
-19.3667 -10.3803  -1.1859  -0.7859  -0.6372  -0.5610  -0.5119  -0.4664
 -0.2698
 -- Virtual --
  0.0308   0.0495   0.0608   0.1006   0.1086   0.1457   0.1558   0.2120
  0.2361   0.2498   0.2561   0.2761   0.3015   0.3378   0.3867   0.5259
  0.5536   0.5827   0.6052   0.6316   0.6475   0.6702   0.7725   0.7967
  0.8309   0.8826   0.9628   1.0429   1.0566   1.0720   1.1286   1.1502
  1.2252   1.2595   1.3433   1.4231   1.4897   1.5193   1.5530   1.6439
  1.8999   1.9202   2.1627   2.2872   2.3336   2.4560   2.5507   2.7611
  2.8069   2.9369   3.0113   3.0799   3.1270   3.2179   3.2480   3.2906
  3.3342   3.4106   3.4352   3.5998   3.7545   3.8327   3.8783   3.8940
  4.0791   4.1558   4.2035   4.2204   4.3246   4.6477   5.1435   5.1955
  5.2376   5.2744   5.4059   5.5582   5.6503   5.7070   5.8492   6.1572
  6.6416   7.0259   7.2178   7.2854   7.3024   7.5931   7.7080  24.6746
 50.5321
 
 Beta MOs
 -- Occupied --
-19.3616 -10.3679  -1.1742  -0.7597  -0.6253  -0.5491  -0.4706  -0.4566
 -- Virtual --
  0.0294   0.0351   0.0486   0.0599   0.1070   0.1218   0.1444   0.1506
  0.2171   0.2389   0.2535   0.2583   0.2815   0.3028   0.3477   0.3937
  0.5413   0.5580   0.5887   0.6368   0.6481   0.6622   0.6861   0.7884
  0.8101   0.8507   0.8902   0.9666   1.0518   1.0629   1.0807   1.1396
  1.1549   1.2375   1.2719   1.3501   1.4326   1.4963   1.5372   1.5706
  1.6575   1.9130   1.9358   2.1699   2.2933   2.3495   2.4799   2.5874
  2.7780   2.8937   3.0018   3.0825   3.1344   3.1868   3.2666   3.3003
  3.3496   3.3765   3.4706   3.4959   3.6541   3.7614   3.8534   3.9107
  3.9262   4.0918   4.1799   4.2412   4.2618   4.3401   4.6736   5.1723
  5.2520   5.2600   5.3002   5.4188   5.6163   5.6725   5.7391   5.8698
  6.1692   6.6545   7.0490   7.2391   7.2963   7.3200   7.6055   7.7148
 24.6872  50.5365
 --------------------------------------------------------------
 
          Ground-State Mulliken Net Atomic Charges

     Atom                 Charge (a.u.)    Spin (a.u.)
  --------------------------------------------------------
      1 H                     0.173577      -0.018108
      2 C                    -0.374650       0.939218
      3 H                     0.186446      -0.017131
      4 O                    -0.324907       0.099379
      5 H                     0.339534      -0.003359
  --------------------------------------------------------
  Sum of atomic charges =    -0.000000
  Sum of spin   charges =     1.000000

 -----------------------------------------------------------------
                    Cartesian Multipole Moments
 -----------------------------------------------------------------
    Charge (ESU x 10^10)
                -0.0000
    Dipole Moment (Debye)
         X      -0.0827      Y       1.1127      Z       1.7128
       Tot       2.0442
    Quadrupole Moments (Debye-Ang)
        XX     -15.0261     XY      -0.3536     YY     -11.7524
        XZ      -1.4834     YZ      -0.2493     ZZ     -12.0015
    Octopole Moments (Debye-Ang^2)
       XXX      23.8098    XXY     -14.5751    XYY       5.7770
       YYY     -33.1673    XXZ      15.1998    XYZ      -0.8152
       YYZ      11.8516    XZZ       7.6652    YZZ     -10.3120
       ZZZ      31.7445
    Hexadecapole Moments (Debye-Ang^3)
      XXXX     -46.2690   XXXY      27.4515   XXYY     -29.8927
      XYYY      18.6082   YYYY    -108.9457   XXXZ     -24.8734
      XXYZ      17.6579   XYYZ      -7.3192   YYYZ      40.9997
      XXZZ     -26.8545   XYZZ       8.4121   YYZZ     -33.9726
      XZZZ     -20.9112   YZZZ      34.8401   ZZZZ     -82.3373
 -----------------------------------------------------------------
 Calculating analytic gradient of the SCF energy
 Gradient of CDS energy
            1           2           3           4           5
    1  -0.0000268   0.0011758   0.0000203  -0.0012337   0.0000644
    2  -0.0000052  -0.0046629  -0.0001724   0.0051584  -0.0003179
    3   0.0001188   0.0017292   0.0000968  -0.0023403   0.0003955
 Gradient of SCF Energy
            1           2           3           4           5
    1   0.0001334   0.0000915  -0.0006465   0.0028815  -0.0024599
    2   0.0010491  -0.0054141   0.0043900  -0.0031178   0.0030930
    3  -0.0012533  -0.0027132   0.0048925  -0.0159179   0.0149919
 Max gradient component =       1.592E-02
 RMS gradient           =       6.297E-03
 Computing fast CPCM-SWIG gradient
 Updating gradient with PCM contributions...
 -- total gradient after adding PCM contribution --
---------------------------------------------------
  Atom         X              Y              Z     
---------------------------------------------------
   1      -0.000004      -0.000115       0.000023
   2      -0.000012       0.000093       0.000020
   3      -0.000058      -0.000023       0.000033
   4       0.000054       0.000035      -0.000094
   5       0.000019       0.000009       0.000018
---------------------------------------------------
 Number of fixed atoms: 0
 Gradient time:  CPU 9.42 s  wall 1.25 s
 ----------------------------------------------------------------
             Standard Nuclear Orientation (Angstroms)
    I     Atom           X                Y                Z
 ----------------------------------------------------------------
    1      H      -0.3959918647     1.4802768540    -2.2244405216
    2      C      -0.6330789464     1.4333386587    -1.1755726010
    3      H      -0.7385317946     2.3045390246    -0.5483952914
    4      O      -0.3514039547     0.2297209348    -0.5842410638
    5      H      -0.5017423395     0.2985370278     0.3652896777
 ----------------------------------------------------------------
 Nuclear Repulsion Energy =          35.23819433 hartrees
 There are        9 alpha and        8 beta electrons
 Discretize the solute cavity surface with Lebedev spheres
	Using 110 Lebedev grid points for each H atom
	Using 194 Lebedev grid points for other atoms
	Atomic van der Waals radii will be scaled by 1.20
 Remove points where switching function is < 1.0e-08
 Keep 434 surface tesserae and discard 284 interior tesserae
 Molecular Surface Area = 57.867 Angst**2

                       Distance Matrix (Angstroms)
             H (  1)   C (  2)   H (  3)   O (  4)
   C (  2)  1.076354
   H (  3)  1.898913  1.078639
   O (  4)  2.063040  1.370295  2.110929
   H (  5)  2.848578  1.918145  2.216965  0.963818
 
 Requested basis set is 6-311++G(2df,2p)
 There are 34 shells and 98 basis functions
 A cutoff of  1.0D-12 yielded    595 shell pairs
 There are      4999 function pairs (      6102 Cartesian)
 Smallest overlap matrix eigenvalue = 1.28E-03
 Guess MOs from SCF MO coefficient file

 -----------------------------------------------------------------------
  General SCF calculation program by
  Eric Jon Sundstrom, Paul Horn, Yuezhi Mao, Dmitri Zuev, Alec White,
  David Stuck, Shaama M.S., Shane Yost, Joonho Lee, David Small,
  Daniel Levine, Susi Lehtola, Hugh Burton, Evgeny Epifanovsky,
  Bang C. Huynh
 -----------------------------------------------------------------------
 Exchange:     0.1500 Hartree-Fock + 1.0000 wB97M-V + LR-HF
 Correlation:  1.0000 wB97M-V
 Using SG-2 standard quadrature grid
 Nonlocal Correlation:  VV10 with C = 0.0100 and b = 6.00 and scale = 1.00000
 Grid used for NLC:  SG-1 standard quadrature
 
 Citation of the SMD model:
 Marenich, A.V.; Cramer, C.J.; Truhlar, D.G.
 J. Phys. Chem. B 2009, 113, 6378-6396.
 iSolventCode=           1
 Solvent: water                                                           
 
 vradii
            1           2           3           4           5
    1   1.2000000   1.8500000   1.2000000   1.5200000   1.2000000
 -------------------------------------------------------
 OpenMP BLAS3 based DFT computing Module                
 Release: version 1.0, May 2013, Q-Chem Inc. Pittsburgh 
 -------------------------------------------------------
 A unrestricted SCF calculation will be
 performed using Roothaan-Hall, DIIS, GDM
 SCF converges when RMS gradient is below 1.0e-07
 ---------------------------------------
  Cycle       Energy         DIIS error
 ---------------------------------------
    1    -115.0487612204      4.82e-04  Roothaan Step
 ---------------------------------------
  Cycle       Energy         DIIS error
 ---------------------------------------
    1    -115.0598880237      5.18e-04  
    2    -115.0613350377      3.70e-04  Done DIIS. Switching to GDM
 ---------------------------------------
  Cycle       Energy        RMS Gradient
 ---------------------------------------
    1    -115.0613350377      7.89e-03   Normal BFGS step
    2    -115.0613631608      9.10e-03   Normal BFGS step
    3    -115.0617901894      6.87e-04   Normal BFGS step
    4    -115.0617945228      4.64e-04   Normal BFGS step
    5    -115.0617955562      8.54e-05   Normal BFGS step
    6    -115.0617955936      4.73e-05   Normal BFGS step
    7    -115.0617956005      2.00e-05   Normal BFGS step
    8    -115.0617956016      4.32e-06   Normal BFGS step
    9    -115.0617956017      9.28e-07   Normal BFGS step
   10    -115.0617956017      3.46e-07   Normal BFGS step
   11    -115.0617956017      1.46e-07   Normal BFGS step
   12    -115.0617956017      2.97e-08  Convergence criterion met
 ---------------------------------------
 SCF time:   CPU 57.73s  wall 8.00s 
<S^2> =          0.753110264
(3)  G-ENP(liq) elect-nuc-pol free energy of system     -115.061795602 a.u.
(4)  G-CDS(liq) cavity-dispersion-solvent structure 
     free energy                                                3.8202 kcal/mol
(6)  G-S(liq) free energy of system                     -115.055707657 a.u.
 SCF   energy in the final basis set =     -115.0557076574
 Total energy in the final basis set =     -115.0557076574
 
 --------------------------------------------------------------
 
                    Orbital Energies (a.u.)
 --------------------------------------------------------------
 
 Alpha MOs
 -- Occupied --
-19.3667 -10.3802  -1.1859  -0.7860  -0.6372  -0.5611  -0.5119  -0.4664
 -0.2698
 -- Virtual --
  0.0308   0.0495   0.0608   0.1006   0.1086   0.1458   0.1558   0.2121
  0.2361   0.2498   0.2561   0.2762   0.3015   0.3378   0.3867   0.5261
  0.5535   0.5827   0.6052   0.6317   0.6476   0.6703   0.7725   0.7967
  0.8309   0.8827   0.9633   1.0430   1.0568   1.0721   1.1286   1.1503
  1.2252   1.2594   1.3433   1.4234   1.4898   1.5197   1.5531   1.6440
  1.9001   1.9202   2.1627   2.2872   2.3335   2.4556   2.5506   2.7611
  2.8070   2.9371   3.0114   3.0800   3.1272   3.2179   3.2480   3.2906
  3.3342   3.4106   3.4351   3.5999   3.7545   3.8330   3.8795   3.8954
  4.0792   4.1560   4.2035   4.2218   4.3246   4.6487   5.1435   5.1960
  5.2377   5.2745   5.4060   5.5601   5.6510   5.7071   5.8492   6.1575
  6.6418   7.0259   7.2178   7.2854   7.3024   7.5931   7.7080  24.6760
 50.5321
 
 Beta MOs
 -- Occupied --
-19.3616 -10.3678  -1.1742  -0.7598  -0.6253  -0.5493  -0.4706  -0.4566
 -- Virtual --
  0.0294   0.0351   0.0486   0.0599   0.1070   0.1218   0.1445   0.1506
  0.2171   0.2389   0.2535   0.2583   0.2816   0.3028   0.3477   0.3937
  0.5415   0.5580   0.5888   0.6368   0.6482   0.6623   0.6862   0.7883
  0.8100   0.8506   0.8903   0.9672   1.0519   1.0630   1.0809   1.1396
  1.1550   1.2375   1.2718   1.3501   1.4328   1.4964   1.5376   1.5708
  1.6576   1.9131   1.9359   2.1698   2.2933   2.3495   2.4795   2.5874
  2.7780   2.8938   3.0020   3.0825   3.1345   3.1869   3.2667   3.3002
  3.3496   3.3766   3.4706   3.4958   3.6541   3.7614   3.8536   3.9116
  3.9279   4.0918   4.1801   4.2411   4.2634   4.3402   4.6746   5.1723
  5.2522   5.2604   5.3003   5.4188   5.6176   5.6740   5.7392   5.8698
  6.1695   6.6548   7.0490   7.2392   7.2964   7.3200   7.6056   7.7148
 24.6886  50.5365
 --------------------------------------------------------------
 
          Ground-State Mulliken Net Atomic Charges

     Atom                 Charge (a.u.)    Spin (a.u.)
  --------------------------------------------------------
      1 H                     0.173703      -0.018058
      2 C                    -0.374614       0.939169
      3 H                     0.186337      -0.017133
      4 O                    -0.324980       0.099378
      5 H                     0.339553      -0.003356
  --------------------------------------------------------
  Sum of atomic charges =     0.000000
  Sum of spin   charges =     1.000000

 -----------------------------------------------------------------
                    Cartesian Multipole Moments
 -----------------------------------------------------------------
    Charge (ESU x 10^10)
                -0.0000
    Dipole Moment (Debye)
         X      -0.0822      Y       1.1130      Z       1.7126
       Tot       2.0441
    Quadrupole Moments (Debye-Ang)
        XX     -15.0253     XY      -0.3525     YY     -11.7506
        XZ      -1.4837     YZ      -0.2521     ZZ     -12.0015
    Octopole Moments (Debye-Ang^2)
       XXX      23.8094    XXY     -14.5750    XYY       5.7789
       YYY     -33.1640    XXZ      15.1966    XYZ      -0.8151
       YYZ      11.8412    XZZ       7.6658    YZZ     -10.3071
       ZZZ      31.7444
    Hexadecapole Moments (Debye-Ang^3)
      XXXX     -46.2669   XXXY      27.4526   XXYY     -29.8938
      XYYY      18.6135   YYYY    -108.9449   XXXZ     -24.8705
      XXYZ      17.6545   XYYZ      -7.3174   YYYZ      40.9740
      XXZZ     -26.8453   XYZZ       8.4117   YYZZ     -33.9490
      XZZZ     -20.9120   YZZZ      34.8297   ZZZZ     -82.3251
 -----------------------------------------------------------------
 Calculating analytic gradient of the SCF energy
 Gradient of CDS energy
            1           2           3           4           5
    1  -0.0000275   0.0011764   0.0000203  -0.0012337   0.0000644
    2  -0.0000054  -0.0046627  -0.0001724   0.0051584  -0.0003179
    3   0.0001215   0.0017265   0.0000968  -0.0023403   0.0003955
 Gradient of SCF Energy
            1           2           3           4           5
    1  -0.0000237   0.0002420  -0.0006319   0.0028697  -0.0024560
    2   0.0011256  -0.0055024   0.0044086  -0.0031190   0.0030871
    3  -0.0006089  -0.0033626   0.0048434  -0.0158715   0.0149997
 Max gradient component =       1.587E-02
 RMS gradient           =       6.309E-03
 Computing fast CPCM-SWIG gradient
 Updating gradient with PCM contributions...
 -- total gradient after adding PCM contribution --
---------------------------------------------------
  Atom         X              Y              Z     
---------------------------------------------------
   1      -0.000161      -0.000041       0.000667
   2       0.000140       0.000009      -0.000636
   3      -0.000044      -0.000004      -0.000011
   4       0.000042       0.000032      -0.000046
   5       0.000023       0.000005       0.000025
---------------------------------------------------
 Number of fixed atoms: 0
 Gradient time:  CPU 8.67 s  wall 1.11 s
 ----------------------------------------------------------------
             Standard Nuclear Orientation (Angstroms)
    I     Atom           X                Y                Z
 ----------------------------------------------------------------
    1      H      -0.3959918647     1.4802768540    -2.2264405216
    2      C      -0.6330789464     1.4333386587    -1.1755726010
    3      H      -0.7385317946     2.3045390246    -0.5483952914
    4      O      -0.3514039547     0.2297209348    -0.5842410638
    5      H      -0.5017423395     0.2985370278     0.3652896777
 ----------------------------------------------------------------
 Nuclear Repulsion Energy =          35.23090445 hartrees
 There are        9 alpha and        8 beta electrons
 Discretize the solute cavity surface with Lebedev spheres
	Using 110 Lebedev grid points for each H atom
	Using 194 Lebedev grid points for other atoms
	Atomic van der Waals radii will be scaled by 1.20
 Remove points where switching function is < 1.0e-08
 Keep 434 surface tesserae and discard 284 interior tesserae
 Molecular Surface Area = 57.878 Angst**2

                       Distance Matrix (Angstroms)
             H (  1)   C (  2)   H (  3)   O (  4)
   C (  2)  1.078303
   H (  3)  1.900678  1.078639
   O (  4)  2.064630  1.370295  2.110929
   H (  5)  2.850396  1.918145  2.216965  0.963818
 
 Requested basis set is 6-311++G(2df,2p)
 There are 34 shells and 98 basis functions
 A cutoff of  1.0D-12 yielded    595 shell pairs
 There are      4999 function pairs (      6102 Cartesian)
 Smallest overlap matrix eigenvalue = 1.28E-03
 Guess MOs from SCF MO coefficient file

 -----------------------------------------------------------------------
  General SCF calculation program by
  Eric Jon Sundstrom, Paul Horn, Yuezhi Mao, Dmitri Zuev, Alec White,
  David Stuck, Shaama M.S., Shane Yost, Joonho Lee, David Small,
  Daniel Levine, Susi Lehtola, Hugh Burton, Evgeny Epifanovsky,
  Bang C. Huynh
 -----------------------------------------------------------------------
 Exchange:     0.1500 Hartree-Fock + 1.0000 wB97M-V + LR-HF
 Correlation:  1.0000 wB97M-V
 Using SG-2 standard quadrature grid
 Nonlocal Correlation:  VV10 with C = 0.0100 and b = 6.00 and scale = 1.00000
 Grid used for NLC:  SG-1 standard quadrature
 
 Citation of the SMD model:
 Marenich, A.V.; Cramer, C.J.; Truhlar, D.G.
 J. Phys. Chem. B 2009, 113, 6378-6396.
 iSolventCode=           1
 Solvent: water                                                           
 
 vradii
            1           2           3           4           5
    1   1.2000000   1.8500000   1.2000000   1.5200000   1.2000000
 -------------------------------------------------------
 OpenMP BLAS3 based DFT computing Module                
 Release: version 1.0, May 2013, Q-Chem Inc. Pittsburgh 
 -------------------------------------------------------
 A unrestricted SCF calculation will be
 performed using Roothaan-Hall, DIIS, GDM
 SCF converges when RMS gradient is below 1.0e-07
 ---------------------------------------
  Cycle       Energy         DIIS error
 ---------------------------------------
    1    -115.0487546713      4.82e-04  Roothaan Step
 ---------------------------------------
  Cycle       Energy         DIIS error
 ---------------------------------------
    1    -115.0598842207      5.18e-04  
    2    -115.0613368574      3.68e-04  Done DIIS. Switching to GDM
 ---------------------------------------
  Cycle       Energy        RMS Gradient
 ---------------------------------------
    1    -115.0613368574      7.87e-03   Normal BFGS step
    2    -115.0613673726      9.02e-03   Normal BFGS step
    3    -115.0617896890      6.88e-04   Normal BFGS step
    4    -115.0617940290      4.73e-04   Normal BFGS step
    5    -115.0617950858      8.47e-05   Normal BFGS step
    6    -115.0617951233      4.67e-05   Normal BFGS step
    7    -115.0617951300      1.99e-05   Normal BFGS step
    8    -115.0617951311      4.33e-06   Normal BFGS step
    9    -115.0617951312      9.46e-07   Normal BFGS step
   10    -115.0617951312      3.43e-07   Normal BFGS step
   11    -115.0617951312      1.46e-07   Normal BFGS step
   12    -115.0617951312      3.05e-08  Convergence criterion met
 ---------------------------------------
 SCF time:   CPU 58.75s  wall 8.00s 
<S^2> =          0.753114977
(3)  G-ENP(liq) elect-nuc-pol free energy of system     -115.061795131 a.u.
(4)  G-CDS(liq) cavity-dispersion-solvent structure 
     free energy                                                3.8200 kcal/mol
(6)  G-S(liq) free energy of system                     -115.055707635 a.u.
 SCF   energy in the final basis set =     -115.0557076354
 Total energy in the final basis set =     -115.0557076354
 
 --------------------------------------------------------------
 
                    Orbital Energies (a.u.)
 --------------------------------------------------------------
 
 Alpha MOs
 -- Occupied --
-19.3667 -10.3804  -1.1860  -0.7858  -0.6372  -0.5609  -0.5119  -0.4663
 -0.2698
 -- Virtual --
  0.0308   0.0495   0.0608   0.1006   0.1086   0.1457   0.1558   0.2120
  0.2360   0.2498   0.2561   0.2760   0.3015   0.3378   0.3867   0.5259
  0.5534   0.5827   0.6052   0.6316   0.6474   0.6702   0.7726   0.7966
  0.8309   0.8825   0.9628   1.0429   1.0566   1.0720   1.1285   1.1500
  1.2249   1.2593   1.3431   1.4231   1.4897   1.5189   1.5528   1.6437
  1.8999   1.9202   2.1626   2.2871   2.3336   2.4565   2.5509   2.7608
  2.8069   2.9369   3.0111   3.0799   3.1269   3.2177   3.2480   3.2907
  3.3339   3.4107   3.4352   3.5999   3.7544   3.8327   3.8771   3.8936
  4.0788   4.1549   4.2034   4.2190   4.3241   4.6467   5.1434   5.1943
  5.2374   5.2743   5.4059   5.5566   5.6502   5.7067   5.8492   6.1569
  6.6412   7.0259   7.2178   7.2853   7.3023   7.5930   7.7078  24.6730
 50.5321
 
 Beta MOs
 -- Occupied --
-19.3616 -10.3680  -1.1742  -0.7596  -0.6253  -0.5490  -0.4706  -0.4565
 -- Virtual --
  0.0294   0.0351   0.0486   0.0599   0.1070   0.1218   0.1444   0.1506
  0.2171   0.2389   0.2535   0.2583   0.2814   0.3028   0.3477   0.3937
  0.5413   0.5578   0.5887   0.6369   0.6481   0.6621   0.6860   0.7885
  0.8099   0.8506   0.8901   0.9666   1.0518   1.0629   1.0807   1.1395
  1.1547   1.2372   1.2717   1.3500   1.4326   1.4963   1.5368   1.5705
  1.6573   1.9129   1.9358   2.1698   2.2933   2.3496   2.4803   2.5876
  2.7777   2.8936   3.0018   3.0823   3.1344   3.1867   3.2664   3.3003
  3.3496   3.3764   3.4707   3.4959   3.6541   3.7613   3.8533   3.9099
  3.9254   4.0916   4.1792   4.2409   4.2604   4.3396   4.6726   5.1723
  5.2517   5.2594   5.2997   5.4187   5.6151   5.6721   5.7388   5.8697
  6.1688   6.6541   7.0490   7.2391   7.2963   7.3199   7.6054   7.7146
 24.6856  50.5365
 --------------------------------------------------------------
 
          Ground-State Mulliken Net Atomic Charges

     Atom                 Charge (a.u.)    Spin (a.u.)
  --------------------------------------------------------
      1 H                     0.173419      -0.018155
      2 C                    -0.374548       0.939301
      3 H                     0.186434      -0.017139
      4 O                    -0.324878       0.099351
      5 H                     0.339572      -0.003357
  --------------------------------------------------------
  Sum of atomic charges =     0.000000
  Sum of spin   charges =     1.000000

 -----------------------------------------------------------------
                    Cartesian Multipole Moments
 -----------------------------------------------------------------
    Charge (ESU x 10^10)
                -0.0000
    Dipole Moment (Debye)
         X      -0.0828      Y       1.1127      Z       1.7129
       Tot       2.0442
    Quadrupole Moments (Debye-Ang)
        XX     -15.0273     XY      -0.3535     YY     -11.7528
        XZ      -1.4833     YZ      -0.2513     ZZ     -12.0009
    Octopole Moments (Debye-Ang^2)
       XXX      23.8112    XXY     -14.5780    XYY       5.7773
       YYY     -33.1732    XXZ      15.2032    XYZ      -0.8142
       YYZ      11.8489    XZZ       7.6648    YZZ     -10.3069
       ZZZ      31.7450
    Hexadecapole Moments (Debye-Ang^3)
      XXXX     -46.2721   XXXY      27.4547   XXYY     -29.8989
      XYYY      18.6107   YYYY    -108.9730   XXXZ     -24.8771
      XXYZ      17.6642   XYYZ      -7.3175   YYYZ      41.0051
      XXZZ     -26.8641   XYZZ       8.4098   YYZZ     -33.9672
      XZZZ     -20.9112   YZZZ      34.8317   ZZZZ     -82.3530
 -----------------------------------------------------------------
 Calculating analytic gradient of the SCF energy
 Gradient of CDS energy
            1           2           3           4           5
    1  -0.0000261   0.0011751   0.0000203  -0.0012337   0.0000644
    2  -0.0000052  -0.0046630  -0.0001724   0.0051584  -0.0003179
    3   0.0001159   0.0017321   0.0000968  -0.0023403   0.0003955
 Gradient of SCF Energy
            1           2           3           4           5
    1   0.0002600  -0.0000239  -0.0006436   0.0028659  -0.0024584
    2   0.0011809  -0.0055229   0.0043933  -0.0031301   0.0030789
    3  -0.0019535  -0.0020757   0.0048650  -0.0158324   0.0149965
 Max gradient component =       1.583E-02
 RMS gradient           =       6.285E-03
 Computing fast CPCM-SWIG gradient
 Updating gradient with PCM contributions...
 -- total gradient after adding PCM contribution --
---------------------------------------------------
  Atom         X              Y              Z     
---------------------------------------------------
   1       0.000122       0.000018      -0.000677
   2      -0.000126      -0.000016       0.000653
   3      -0.000055      -0.000018       0.000008
   4       0.000038       0.000019      -0.000003
   5       0.000021      -0.000003       0.000018
---------------------------------------------------
 Number of fixed atoms: 0
 Gradient time:  CPU 9.36 s  wall 1.24 s
 ----------------------------------------------------------------
             Standard Nuclear Orientation (Angstroms)
    I     Atom           X                Y                Z
 ----------------------------------------------------------------
    1      H      -0.3959918647     1.4802768540    -2.2254405216
    2      C      -0.6320789464     1.4333386587    -1.1755726010
    3      H      -0.7385317946     2.3045390246    -0.5483952914
    4      O      -0.3514039547     0.2297209348    -0.5842410638
    5      H      -0.5017423395     0.2985370278     0.3652896777
 ----------------------------------------------------------------
 Nuclear Repulsion Energy =          35.23771489 hartrees
 There are        9 alpha and        8 beta electrons
 Discretize the solute cavity surface with Lebedev spheres
	Using 110 Lebedev grid points for each H atom
	Using 194 Lebedev grid points for other atoms
	Atomic van der Waals radii will be scaled by 1.20
 Remove points where switching function is < 1.0e-08
 Keep 434 surface tesserae and discard 284 interior tesserae
 Molecular Surface Area = 57.871 Angst**2

                       Distance Matrix (Angstroms)
             H (  1)   C (  2)   H (  3)   O (  4)
   C (  2)  1.077109
   H (  3)  1.899795  1.078737
   O (  4)  2.063835  1.370090  2.110929
   H (  5)  2.849487  1.918077  2.216965  0.963818
 
 Requested basis set is 6-311++G(2df,2p)
 There are 34 shells and 98 basis functions
 A cutoff of  1.0D-12 yielded    595 shell pairs
 There are      4999 function pairs (      6102 Cartesian)
 Smallest overlap matrix eigenvalue = 1.28E-03
 Guess MOs from SCF MO coefficient file

 -----------------------------------------------------------------------
  General SCF calculation program by
  Eric Jon Sundstrom, Paul Horn, Yuezhi Mao, Dmitri Zuev, Alec White,
  David Stuck, Shaama M.S., Shane Yost, Joonho Lee, David Small,
  Daniel Levine, Susi Lehtola, Hugh Burton, Evgeny Epifanovsky,
  Bang C. Huynh
 -----------------------------------------------------------------------
 Exchange:     0.1500 Hartree-Fock + 1.0000 wB97M-V + LR-HF
 Correlation:  1.0000 wB97M-V
 Using SG-2 standard quadrature grid
 Nonlocal Correlation:  VV10 with C = 0.0100 and b = 6.00 and scale = 1.00000
[...]
      XYYY      18.6098   YYYY    -108.9487   XXXZ     -24.8730
      XXYZ      17.6582   XYYZ      -7.3168   YYYZ      40.9869
      XXZZ     -26.8529   XYZZ       8.4103   YYZZ     -33.9556
      XZZZ     -20.9107   YZZZ      34.8288   ZZZZ     -82.3330
 -----------------------------------------------------------------
 Calculating analytic gradient of the SCF energy
 Gradient of CDS energy
            1           2           3           4           5
    1  -0.0000268   0.0011758   0.0000203  -0.0012338   0.0000645
    2  -0.0000053  -0.0046632  -0.0001723   0.0051589  -0.0003181
    3   0.0001187   0.0017299   0.0000966  -0.0023408   0.0003956
 Gradient of SCF Energy
            1           2           3           4           5
    1   0.0001212   0.0001026  -0.0006387   0.0027275  -0.0023126
    2   0.0011491  -0.0055135   0.0044090  -0.0030805   0.0030358
    3  -0.0012900  -0.0026778   0.0048475  -0.0148941   0.0140144
 Max gradient component =       1.489E-02
 RMS gradient           =       5.965E-03
 Computing fast CPCM-SWIG gradient
 Updating gradient with PCM contributions...
 -- total gradient after adding PCM contribution --
---------------------------------------------------
  Atom         X              Y              Z     
---------------------------------------------------
   1      -0.000017      -0.000016      -0.000010
   2       0.000001      -0.000001       0.000049
   3      -0.000050      -0.000007      -0.000008
   4      -0.000101       0.000069       0.000919
   5       0.000167      -0.000045      -0.000951
---------------------------------------------------
 Number of fixed atoms: 0
 Gradient time:  CPU 9.55 s  wall 1.27 s
Dipole drv :
gprntSymmMtrx error report: 
 Final Hessian.
            1           2           3           4           5           6
    1   0.0237649  -0.0080379  -0.0750342  -0.0258924   0.0098129   0.0866896
    2  -0.0080379   0.0545216  -0.0156372   0.0095536  -0.0513989  -0.0049442
    3  -0.0750342  -0.0156372   0.3556040   0.0704855   0.0063876  -0.3410449
    4  -0.0258924   0.0095536   0.0704855   0.0545341  -0.1024737  -0.0821716
    5   0.0098129  -0.0513989   0.0063876  -0.1024737   0.5535045   0.0387314
    6   0.0866896  -0.0049442  -0.3410449  -0.0821716   0.0387314   0.6720777
    7  -0.0002691   0.0042141   0.0029762  -0.0085280   0.0243649   0.0133811
    8  -0.0020900   0.0063734   0.0037253   0.0333352  -0.2370076  -0.1394598
    9  -0.0005785  -0.0182600  -0.0049915   0.0255283  -0.1502056  -0.1720410
   10  -0.0004394  -0.0070371   0.0011838  -0.0203704   0.0673191  -0.0062142
   11  -0.0018086  -0.0049220   0.0034450   0.0646208  -0.2597579   0.0596731
   12  -0.0100571   0.0365990  -0.0113544  -0.0169940   0.1064718  -0.1381911
   13   0.0028361   0.0013072   0.0003888   0.0002566   0.0009769  -0.0116848
   14   0.0021236  -0.0045741   0.0020793  -0.0050360  -0.0053403   0.0459995
   15  -0.0010198   0.0022424   0.0017867   0.0031519  -0.0013853  -0.0208007
            7           8           9          10          11          12
    1  -0.0002691  -0.0020900  -0.0005785  -0.0004394  -0.0018086  -0.0100571
    2   0.0042141   0.0063734  -0.0182600  -0.0070371  -0.0049220   0.0365990
    3   0.0029762   0.0037253  -0.0049915   0.0011838   0.0034450  -0.0113544
    4  -0.0085280   0.0333352   0.0255283  -0.0203704   0.0646208  -0.0169940
    5   0.0243649  -0.2370076  -0.1502056   0.0673191  -0.2597579   0.1064718
    6   0.0133811  -0.1394598  -0.1720410  -0.0062142   0.0596731  -0.1381911
    7   0.0082873  -0.0340530  -0.0210330   0.0020185   0.0066131   0.0045742
    8  -0.0340530   0.2569221   0.1462248   0.0024864  -0.0276298  -0.0084961
    9  -0.0210330   0.1462248   0.1625085  -0.0039445   0.0224117   0.0110828
   10   0.0020185   0.0024864  -0.0039445   0.0402846  -0.0829781  -0.0652424
   11   0.0066131  -0.0276298   0.0224117  -0.0829781   0.3340078  -0.0627960
   12   0.0045742  -0.0084961   0.0110828  -0.0652424  -0.0627960   0.6357178
   13  -0.0015087   0.0003214   0.0000277  -0.0214932   0.0135527   0.0877194
   14  -0.0011391   0.0013419  -0.0001709   0.0202097  -0.0416980  -0.0717787
   15   0.0001015  -0.0019942   0.0034412   0.0742174  -0.0227337  -0.4972551
           13          14          15
    1   0.0028361   0.0021236  -0.0010198
    2   0.0013072  -0.0045741   0.0022424
    3   0.0003888   0.0020793   0.0017867
    4   0.0002566  -0.0050360   0.0031519
    5   0.0009769  -0.0053403  -0.0013853
    6  -0.0116848   0.0459995  -0.0208007
    7  -0.0015087  -0.0011391   0.0001015
    8   0.0003214   0.0013419  -0.0019942
    9   0.0000277  -0.0001709   0.0034412
   10  -0.0214932   0.0202097   0.0742174
   11   0.0135527  -0.0416980  -0.0227337
   12   0.0877194  -0.0717787  -0.4972551
   13   0.0199092  -0.0161582  -0.0764510
   14  -0.0161582   0.0502705   0.0238707
   15  -0.0764510   0.0238707   0.5128279
 ----------------------------------------------------------------
             Standard Nuclear Orientation (Angstroms)
    I     Atom           X                Y                Z
 ----------------------------------------------------------------
    1      H      -0.3959918647     1.4802768540    -2.2254405216
    2      C      -0.6330789464     1.4333386587    -1.1755726010
    3      H      -0.7385317946     2.3045390246    -0.5483952914
    4      O      -0.3514039547     0.2297209348    -0.5842410638
    5      H      -0.5017423395     0.2985370278     0.3652896777
 ----------------------------------------------------------------
 Nuclear Repulsion Energy =          35.23454676 hartrees
 There are        9 alpha and        8 beta electrons
 old dipole drv.
            1           2           3           4           5           6
    1   0.2222575   0.0496770   0.0547266  -0.4716352  -0.3226236   0.0352908
    2   0.0345355   0.0346364   0.0370216  -0.2833100   0.8399573  -0.4036703
    3   0.1034874  -0.0239991  -0.0333430   0.0169935  -0.4010283   0.4255813
            7           8           9          10          11          12
    1   0.2693993   0.0370597   0.0163108  -0.4543642   0.1984119  -0.1415983
    2   0.0183466  -0.0438923  -0.0645293   0.1926337  -1.1817517   0.5096413
    3  -0.0151154   0.0065105  -0.0158157  -0.1308040   0.4624284  -0.7781005
           13          14          15
    1   0.4343432   0.0374752   0.0352700
    2   0.0377943   0.3510514  -0.0784636
    3   0.0254384  -0.0439112   0.4016786
 New transposed dipole drv.
            1           2           3
    1   0.2222575   0.0345355   0.1034874
    2   0.0496770   0.0346364  -0.0239991
    3   0.0547266   0.0370216  -0.0333430
    4  -0.4716352  -0.2833100   0.0169935
    5  -0.3226236   0.8399573  -0.4010283
    6   0.0352908  -0.4036703   0.4255813
    7   0.2693993   0.0183466  -0.0151154
    8   0.0370597  -0.0438923   0.0065105
    9   0.0163108  -0.0645293  -0.0158157
   10  -0.4543642   0.1926337  -0.1308040
   11   0.1984119  -1.1817517   0.4624284
   12  -0.1415983   0.5096413  -0.7781005
   13   0.4343432   0.0377943   0.0254384
   14   0.0374752   0.3510514  -0.0439112
   15   0.0352700  -0.0784636   0.4016786
FINAL TENSOR RESULT:
Order 2, Length 15
    Atom      X          Y          Z
     1 Order 1, Length 15
    Atom      X          Y          Z
     1    2.376485019210665e-02  -8.037856694335859e-03  -7.503423415811447e-02
     2   -2.589238399734819e-02   9.812899509075729e-03   8.668960151617353e-02
     3   -2.691390426036461e-04  -2.090040228006055e-03  -5.784667277987606e-04
     4   -4.394491062506425e-04  -1.808554532679981e-03  -1.005706086753637e-02
     5    2.836115081120910e-03   2.123560854068593e-03  -1.019821081632996e-03

Order 1, Length 15
    Atom      X          Y          Z
     1   -8.037856694335859e-03   5.452161477222664e-02  -1.563717855413124e-02
     2    9.553618134424770e-03  -5.139891901214247e-02  -4.944174602878488e-03
     3    4.214083133833892e-03   6.373405381985385e-03  -1.825998950725510e-02
     4   -7.037097514410463e-03  -4.922029212604696e-03   3.659897311436915e-02
     5    1.307241148238224e-03  -4.574067031807520e-03   2.242367361143766e-03

Order 1, Length 15
    Atom      X          Y          Z
     1   -7.503423415811447e-02  -1.563717855413124e-02   3.556040318102586e-01
     2    7.048548201187230e-02   6.387597668203685e-03  -3.410448910373167e-01
     3    2.976237467200072e-03   3.725293874459778e-03  -4.991467953038266e-03
     4    1.183752548717275e-03   3.444989662501689e-03  -1.135436543710494e-02
     5    3.887514274118666e-04   2.079305221231962e-03   1.786688432362606e-03


     2 Order 1, Length 15
    Atom      X          Y          Z
     1   -2.589238399734819e-02   9.553618134424770e-03   7.048548201187230e-02
     2    5.453414895515334e-02  -1.024736808149964e-01  -8.217163578579260e-02
     3   -8.527968347734076e-03   3.333524052618807e-02   2.552829338015368e-02
     4   -2.037039463104871e-02   6.462082230108550e-02  -1.699404899772639e-02
     5    2.566322852453704e-04  -5.036001310523480e-03   3.151895104978946e-03

Order 1, Length 15
    Atom      X          Y          Z
     1    9.812899509075729e-03  -5.139891901214247e-02   6.387597668203685e-03
     2   -1.024736808149964e-01   5.535045489024933e-01   3.873141420306611e-02
     3    2.436489838817212e-02  -2.370075910256938e-01  -1.502055800800703e-01
     4    6.731907338002402e-02  -2.597578861490598e-01   1.064718393692600e-01
     5    9.768616128174121e-04  -5.340283437557966e-03  -1.385259963615978e-03

Order 1, Length 15
    Atom      X          Y          Z
     1    8.668960151617353e-02  -4.944174602878488e-03  -3.410448910373167e-01
     2   -8.217163578579260e-02   3.873141420306611e-02   6.720776962450812e-01
     3    1.338108438236362e-02  -1.394597819002238e-01  -1.720410225339562e-01
     4   -6.214222108143394e-03   5.967307590524419e-02  -1.381911360971438e-01
     5   -1.168484285886521e-02   4.599951454564448e-02  -2.080067047171098e-02


     3 Order 1, Length 15
    Atom      X          Y          Z
     1   -2.691390426036461e-04   4.214083133833892e-03   2.976237467200072e-03
     2   -8.527968347734076e-03   2.436489838817212e-02   1.338108438236362e-02
     3    8.287301582111124e-03  -3.405298985675169e-02  -2.103302899278779e-02
     4    2.018465790354118e-03   6.613112955725199e-03   4.574189747417059e-03
     5   -1.508691608180459e-03  -1.139094888898209e-03   1.015162482417199e-04

Order 1, Length 15
    Atom      X          Y          Z
     1   -2.090040228006055e-03   6.373405381985385e-03   3.725293874459778e-03
     2    3.333524052618807e-02  -2.370075910256938e-01  -1.394597819002238e-01
     3   -3.405298985675169e-02   2.569221484616952e-01   1.462247620991331e-01
     4    2.486357220424796e-03  -2.762979587506207e-02  -8.496120489669703e-03
     5    3.214190218999028e-04   1.341852273512106e-03  -1.994164968441277e-03

Order 1, Length 15
    Atom      X          Y          Z
     1   -5.784667277987606e-04  -1.825998950725510e-02  -4.991467953038266e-03
     2    2.552829338015368e-02  -1.502055800800703e-01  -1.720410225339562e-01
     3   -2.103302899278779e-02   1.462247620991331e-01   1.625084885901219e-01
     4   -3.944482590384743e-03   2.241168273508847e-02   1.108280309297494e-02
     5    2.768571296020784e-05  -1.708838793961978e-04   3.441219176062446e-03


     4 Order 1, Length 15
    Atom      X          Y          Z
     1   -4.394491062506425e-04  -7.037097514410463e-03   1.183752548717275e-03
     2   -2.037039463104871e-02   6.731907338002402e-02  -6.214222108143394e-03
     3    2.018465790354118e-03   2.486357220424796e-03  -3.944482590384743e-03
     4    4.028462064245454e-02  -8.297809628982671e-02  -6.524242761633016e-02
     5   -2.149324178733455e-02   2.020974264051925e-02   7.421736075048685e-02

Order 1, Length 15
    Atom      X          Y          Z
     1   -1.808554532679981e-03  -4.922029212604696e-03   3.444989662501689e-03
     2    6.462082230108550e-02  -2.597578861490598e-01   5.967307590524419e-02
     3    6.613112955725199e-03  -2.762979587506207e-02   2.241168273508847e-02
     4   -8.297809628982671e-02   3.340078338609093e-01  -6.279603862638414e-02
     5    1.355270857408504e-02  -4.169802994771307e-02  -2.273369052712663e-02

Order 1, Length 15
    Atom      X          Y          Z
     1   -1.005706086753637e-02   3.659897311436915e-02  -1.135436543710494e-02
     2   -1.699404899772639e-02   1.064718393692600e-01  -1.381911360971438e-01
     3    4.574189747417059e-03  -8.496120489669703e-03   1.108280309297494e-02
     4   -6.524242761633016e-02  -6.279603862638414e-02   6.357178495351146e-01
     5    8.771937454627010e-02  -7.177869752881763e-02  -4.972551261323575e-01


     5 Order 1, Length 15
    Atom      X          Y          Z
     1    2.836115081120910e-03   1.307241148238224e-03   3.887514274118666e-04
     2    2.566322852453704e-04   9.768616128174121e-04  -1.168484285886521e-02
     3   -1.508691608180459e-03   3.214190218999028e-04   2.768571296020784e-05
     4   -2.149324178733455e-02   1.355270857408504e-02   8.771937454627010e-02
     5    1.990918935623171e-02  -1.615822726863012e-02  -7.645095304578066e-02

Order 1, Length 15
    Atom      X          Y          Z
     1    2.123560854068593e-03  -4.574067031807520e-03   2.079305221231962e-03
     2   -5.036001310523480e-03  -5.340283437557966e-03   4.599951454564448e-02
     3   -1.139094888898209e-03   1.341852273512106e-03  -1.708838793961978e-04
     4    2.020974264051925e-02  -4.169802994771307e-02  -7.177869752881763e-02
     5   -1.615822726863012e-02   5.027054208551921e-02   2.387074486630828e-02

Order 1, Length 15
    Atom      X          Y          Z
     1   -1.019821081632996e-03   2.242367361143766e-03   1.786688432362606e-03
     2    3.151895104978946e-03  -1.385259963615978e-03  -2.080067047171098e-02
     3    1.015162482417199e-04  -1.994164968441277e-03   3.441219176062446e-03
     4    7.421736075048685e-02  -2.273369052712663e-02  -4.972551261323575e-01
     5   -7.645095304578066e-02   2.387074486630828e-02   5.128278717414093e-01




 # Finishing finite difference calculation for IDERIV #
 ######################################################
 ######################################################
 Requested basis set is 6-311++G(2df,2p)
 There are 34 shells and 98 basis functions
 **********************************************************************
 **                                                                  **
 **                       VIBRATIONAL ANALYSIS                       **
 **                       --------------------                       **
 **                                                                  **
 **        VIBRATIONAL FREQUENCIES (CM**-1) AND NORMAL MODES         **
 **     FORCE CONSTANTS (mDYN/ANGSTROM) AND REDUCED MASSES (AMU)     **
 **                  INFRARED INTENSITIES (KM/MOL)                   **
 **                                                                  **
 **********************************************************************
 

 Mode:                 1                      2                      3
 Frequency:       395.58                 474.02                1045.58
 Force Cnst:      0.1180                 0.1436                 0.7097
 Red. Mass:       1.2795                 1.0850                 1.1018
 IR Active:          YES                    YES                    YES
 IR Intens:       14.790                279.898                 97.666
 Raman Active:       YES                    YES                    YES
               X      Y      Z        X      Y      Z        X      Y      Z
 H          0.322  0.014  0.083    0.660  0.170  0.145   -0.177  0.539 -0.082
 C         -0.136 -0.023 -0.008   -0.066 -0.016 -0.018    0.006 -0.013 -0.067
 H          0.792  0.094  0.014    0.052 -0.039  0.045    0.101 -0.335  0.395
 O          0.061  0.020  0.004   -0.038 -0.009 -0.004    0.012 -0.040  0.033
 H         -0.453 -0.142 -0.065    0.673  0.200  0.093   -0.181  0.592 -0.039
 TransDip   0.121 -0.022 -0.010    0.510  0.130  0.101   -0.069  0.272 -0.146

 Mode:                 4                      5                      6
 Frequency:      1151.74                1347.73                1456.30
 Force Cnst:      4.2396                 1.3542                 1.4167
 Red. Mass:       5.4246                 1.2654                 1.1338
 IR Active:          YES                    YES                    YES
 IR Intens:      182.116                 56.716                  6.801
 Raman Active:       YES                    YES                    YES
               X      Y      Z        X      Y      Z        X      Y      Z
 H          0.025  0.169 -0.147    0.114 -0.391  0.134   -0.117  0.688  0.050
 C         -0.098  0.409 -0.154   -0.013  0.007  0.114    0.018 -0.093  0.050
 H         -0.110  0.618 -0.418   -0.074  0.240 -0.210    0.011  0.381 -0.595
 O          0.078 -0.349  0.142    0.020 -0.045 -0.071   -0.006  0.002 -0.003
 H          0.020 -0.118  0.134   -0.199  0.791 -0.152   -0.005  0.003  0.001
 TransDip  -0.092  0.378 -0.188   -0.056  0.235 -0.001    0.040 -0.060  0.042

 Mode:                 7                      8                      9
 Frequency:      3165.86                3312.19                3825.55
 Force Cnst:      6.1584                 7.2976                 9.1954
 Red. Mass:       1.0429                 1.1290                 1.0664
 IR Active:          YES                    YES                    YES
 IR Intens:       19.569                  5.815                178.926
 Raman Active:       YES                    YES                    YES
               X      Y      Z        X      Y      Z        X      Y      Z
 H         -0.134 -0.021  0.646   -0.165 -0.031  0.731   -0.004 -0.002  0.019
 C          0.003  0.053 -0.018    0.019 -0.042 -0.094    0.001 -0.002 -0.003
 H          0.087 -0.599 -0.442   -0.064  0.525  0.383   -0.001  0.003  0.009
 O          0.001 -0.001  0.001   -0.001  0.001  0.002    0.009 -0.003 -0.062
 H          0.001 -0.003 -0.006    0.008 -0.008 -0.021   -0.152  0.060  0.984
 TransDip  -0.021  0.125 -0.064    0.013 -0.030 -0.070   -0.024 -0.086  0.419

 STANDARD THERMODYNAMIC QUANTITIES AT   298.15 K  AND     1.00 ATM

   This Molecule has  0 Imaginary Frequencies
   Zero point vibrational energy:       23.123 kcal/mol

   Atom    1 Element H  Has Mass    1.00783
   Atom    2 Element C  Has Mass   12.00000
   Atom    3 Element H  Has Mass    1.00783
   Atom    4 Element O  Has Mass   15.99491
   Atom    5 Element H  Has Mass    1.00783
   Molecular Mass:    31.018400 amu
   Principal axes and moments of inertia in amu*Bohr^2:
                             1           2           3
    Eigenvalues --        9.34264    60.51142    69.53849
          X              -0.16781    -0.20063     0.96519
          Y               0.85980     0.44918     0.24286
          Z              -0.48227     0.87062     0.09712
   Rotational Symmetry Number is   1
   The Molecule is an Asymmetric Top
   Translational Enthalpy:        0.889 kcal/mol
   Rotational Enthalpy:           0.889 kcal/mol
   Vibrational Enthalpy:         23.514 kcal/mol
   gas constant (RT):             0.592 kcal/mol
   Translational Entropy:        36.229  cal/mol.K
   Rotational Entropy:           18.314  cal/mol.K
   Vibrational Entropy:           1.870  cal/mol.K

   Total Enthalpy:               25.884 kcal/mol
   Total Entropy:                56.413  cal/mol.K
 Total job time:  279.44s(wall), 2130.01s(cpu) 
 Mon Apr 24 08:54:46 2023

        *************************************************************
        *                                                           *
        *  Thank you very much for using Q-Chem.  Have a nice day.  *
        *                                                           *
        *************************************************************


