
Running Job 1 of 1 Q_in.in
qchem Q_in.in_131782.0 /scratch/ari.fischer/qChem1502067.hpc-mn1/qchem131782/ 0
/usr/local/qchem-5.4.1/exe/qcprog.exe_s Q_in.in_131782.0 /scratch/ari.fischer/qChem1502067.hpc-mn1/qchem131782/
                  Welcome to Q-Chem
     A Quantum Leap Into The Future Of Chemistry


 Q-Chem 5.4, Q-Chem, Inc., Pleasanton, CA (2021)

 License issued to: Nanyang Technological University (site)

 E. Epifanovsky,  A. T. B. Gilbert,  Xintian Feng,  Joonho Lee,  Yuezhi Mao,  
 N. Mardirossian,  P. Pokhilko,  A. White,  M. Wormit,  M. P. Coons,  
 A. L. Dempwolff,  Zhengting Gan,  D. Hait,  P. R. Horn,  L. D. Jacobson,  
 I. Kaliman,  J. Kussmann,  A. W. Lange,  Ka Un Lao,  D. S. Levine,  Jie Liu,  
 S. C. McKenzie,  A. F. Morrison,  K. Nanda,  F. Plasser,  D. R. Rehn,  
 M. L. Vidal,  Zhi-Qiang You,  Ying Zhu,  B. Alam,  B. Albrecht,  
 A. Aldossary,  E. Alguire,  J. H. Andersen,  D. Barton,  K. Begam,  A. Behn,  
 Y. A. Bernard,  E. J. Berquist,  H. Burton,  A. Carreras,  K. Carter-Fenk,  
 R. Chakraborty,  A. D. Chien,  K. D. Closser,  V. Cofer-Shabica,  
 S. Dasgupta,  Jia Deng,  M. de Wergifosse,  M. Diedenhofen,  Hainam Do,  
 S. Ehlert,  Po-Tung Fang,  S. Fatehi,  Qingguo Feng,  T. Friedhoff,  
 J. Gayvert,  Qinghui Ge,  G. Gidofalvi,  M. Goldey,  J. Gomes,  
 C. Gonzalez-Espinoza,  S. Gulania,  A. Gunina,  M. W. D. Hanson-Heine,  
 P. H. P. Harbach,  A. W. Hauser,  M. F. Herbst,  M. Hernandez Vera,  
 M. Hodecker,  Z. C. Holden,  S. Houck,  Xunkun Huang,  Kerwin Hui,  
 B. C. Huynh,  M. Ivanov,  Hyunjun Ji,  Hanjie Jiang,  B. Kaduk,  S. Kaehler,  
 K. Khistyaev,  Jaehoon Kim,  P. Klunzinger,  Z. Koczor-Benda,  
 Joong Hoon Koh,  D. Kosenkov,  L. Koulias,  T. Kowalczyk,  C. M. Krauter,  
 K. Kue,  A. Kunitsa,  T. Kus,  A. Landau,  K. V. Lawler,  D. Lefrancois,  
 S. Lehtola,  Rain Li,  Yi-Pei Li,  Jiashu Liang,  M. Liebenthal,  
 Hung-Hsuan Lin,  You-Sheng Lin,  Fenglai Liu,  Kuan-Yu Liu,  
 M. Loipersberger,  A. Luenser,  A. Manjanath,  P. Manohar,  E. Mansoor,  
 S. F. Manzer,  Shan-Ping Mao,  A. V. Marenich,  T. Markovich,  S. Mason,  
 S. A. Maurer,  P. F. McLaughlin,  M. F. S. J. Menger,  J.-M. Mewes,  
 S. A. Mewes,  P. Morgante,  J. W. Mullinax,  K. J. Oosterbaan,  G. Paran,  
 Alexander C. Paul,  Suranjan K. Paul,  F. Pavosevic,  Zheng Pei,  S. Prager,  
 E. I. Proynov,  E. Ramos,  B. Rana,  A. E. Rask,  A. Rettig,  R. M. Richard,  
 F. Rob,  E. Rossomme,  T. Scheele,  M. Scheurer,  M. Schneider,  
 N. Sergueev,  S. M. Sharada,  W. Skomorowski,  D. W. Small,  C. J. Stein,  
 Yu-Chuan Su,  E. J. Sundstrom,  Zhen Tao,  J. Thirman,  T. Tsuchimochi,  
 N. M. Tubman,  S. P. Veccham,  O. Vydrov,  J. Wenzel,  J. Witte,  A. Yamada,  
 Kun Yao,  S. Yeganeh,  S. R. Yost,  A. Zech,  Igor Ying Zhang,  Xing Zhang,  
 Yu Zhang,  D. Zuev,  A. Aspuru-Guzik,  A. T. Bell,  N. A. Besley,  
 K. B. Bravaya,  B. R. Brooks,  D. Casanova,  Jeng-Da Chai,  S. Coriani,  
 C. J. Cramer,  A. E. DePrince, III,  R. A. DiStasio Jr.,  A. Dreuw,  
 B. D. Dunietz,  T. R. Furlani,  W. A. Goddard III,  S. Grimme,  
 S. Hammes-Schiffer,  T. Head-Gordon,  W. J. Hehre,  Chao-Ping Hsu,  
 T.-C. Jagau,  Yousung Jung,  A. Klamt,  Jing Kong,  D. S. Lambrecht,  
 WanZhen Liang,  N. J. Mayhall,  C. W. McCurdy,  J. B. Neaton,  
 C. Ochsenfeld,  J. A. Parkhill,  R. Peverati,  V. A. Rassolov,  Yihan Shao,  
 L. V. Slipchenko,  T. Stauch,  R. P. Steele,  J. E. Subotnik,  
 A. J. W. Thom,  A. Tkatchenko,  D. G. Truhlar,  T. Van Voorhis,  
 T. A. Wesolowski,  K. B. Whaley,  H. L. Woodcock III,  P. M. Zimmerman,  
 S. Faraji,  P. M. W. Gill,  M. Head-Gordon,  J. M. Herbert,  A. I. Krylov

 Additional authors for Version 5.4.1: 
 S. Kotaru,  Shaozhi Li,  Xiangyuan Li,  F. Matz,  A. Molle,  Haisheng Ren,  
 Yingli Su,  Hung-Yi Tsai,  C. Utku,  Fang Wang

 Contributors to earlier versions of Q-Chem not listed above: 
 R. D. Adamson,  B. Austin,  R. Baer,  J. Baker,  G. J. O. Beran,  
 K. Brandhorst,  S. T. Brown,  E. F. C. Byrd,  A. K. Chakraborty,  
 G. K. L. Chan,  Chun-Min Chang,  Yunqing Chen,  C.-L. Cheng,  
 Siu Hung Chien,  D. M. Chipman,  D. L. Crittenden,  H. Dachsel,  
 R. J. Doerksen,  A. D. Dutoi,  R. G. Edgar,  J. Fosso-Tande,  
 L. Fusti-Molnar,  D. Ghosh,  A. Ghysels,  A. Golubeva-Zadorozhnaya,  
 J. Gonthier,  M. S. Gordon,  S. R. Gwaltney,  G. Hawkins,  J. E. Herr,  
 A. Heyden,  S. Hirata,  E. G. Hohenstein,  G. Kedziora,  F. J. Keil,  
 C. Kelley,  Jihan Kim,  R. A. King,  R. Z. Khaliullin,  P. P. Korambath,  
 W. Kurlancheek,  A. Laurent,  A. M. Lee,  M. S. Lee,  S. V. Levchenko,  
 Ching Yeh Lin,  D. Liotard,  E. Livshits,  R. C. Lochan,  I. Lotan,  
 L. A. Martinez-Martinez,  P. E. Maslen,  N. Nair,  D. P. O'Neill,  
 D. Neuhauser,  E. Neuscamman,  C. M. Oana,  R. Olivares-Amaya,  R. Olson,  
 T. M. Perrine,  B. Peters,  P. A. Pieniazek,  A. Prociuk,  Y. M. Rhee,  
 J. Ritchie,  M. A. Rohrdanz,  E. Rosta,  N. J. Russ,  H. F. Schaefer III,  
 M. W. Schmidt,  N. E. Schultz,  S. Sharma,  N. Shenvi,  C. D. Sherrill,  
 A. C. Simmonett,  A. Sodt,  T. Stein,  D. Stuck,  K. S. Thanthiriwatte,  
 V. Vanovschi,  L. Vogt,  Tao Wang,  A. Warshel,  M. A. Watson,  
 C. F. Williams,  Q. Wu,  X. Xu,  Jun Yang,  W. Zhang,  Yan Zhao

 Please cite Q-Chem as follows:
 Y. Shao et al., Mol. Phys. 113, 184-215 (2015)
 DOI: 10.1080/00268976.2014.952696

 Q-Chem 5.4.1 for Intel X86 EM64T Linux

 Parts of Q-Chem use Armadillo 9.800.1 (Horizon Scraper).
 http://arma.sourceforge.net/

 Q-Chem begins on Sat Mar 25 02:48:25 2023  

 Host: 
0

     Scratch files written to /scratch/ari.fischer/qChem1502067.hpc-mn1/qchem131782//
 Aug1521 |scratch|qcdevops|jenkins|workspace|build_RNUM 8249   
 Processing $rem in /usr/local/qchem-5.4.1/config/preferences:
 Processing $rem in /home/ari.fischer/.qchemrc:
 Symmetry turned off for PCM/SM12/SMD calculation

 Checking the input file for inconsistencies... 	...done.

--------------------------------------------------------------
User input:
--------------------------------------------------------------
$molecule
0 2
H        -0.3865599803    1.4843529417   -2.2197237741
C        -0.6742576225    1.4237334567   -1.1766788299
H        -0.7199138157    2.3094908883   -0.5511806113
O        -0.3293509477    0.2293607057   -0.5860031047
H        -0.5106665338    0.2994745075    0.3652265199
$end

$rem
BASIS = 6-311++G(2df,2p)
GUI = 2
JOB_TYPE = Optimization
METHOD = wB97M-V
SCF_ALGORITHM = DIIS_GDM
MAX_SCF_CYCLES = 400
GEOM_OPT_MAX_CYCLES = 150
SCF_CONVERGENCE = 7
THRESH = 12
UNRESTRICTED = 1
Solvent_method = SMD
$end
--------------------------------------------------------------
 ----------------------------------------------------------------
             Standard Nuclear Orientation (Angstroms)
    I     Atom           X                Y                Z
 ----------------------------------------------------------------
    1      H      -0.3865599803     1.4843529417    -2.2197237741
    2      C      -0.6742576225     1.4237334567    -1.1766788299
    3      H      -0.7199138157     2.3094908883    -0.5511806113
    4      O      -0.3293509477     0.2293607057    -0.5860031047
    5      H      -0.5106665338     0.2994745075     0.3652265199
 ----------------------------------------------------------------
 Nuclear Repulsion Energy =          35.08656145 hartrees
 There are        9 alpha and        8 beta electrons
 Requested basis set is 6-311++G(2df,2p)
 There are 34 shells and 98 basis functions

 Total QAlloc Memory Limit 288000 MB
 Mega-Array Size       188 MB
 MEM_STATIC part       192 MB
 
 Citation of the SMD model:
 Marenich, A.V.; Cramer, C.J.; Truhlar, D.G.
 J. Phys. Chem. B 2009, 113, 6378-6396.
 iSolventCode=           1
 Solvent: water                                                           
 
 vradii
            1           2           3           4           5
    1   1.2000000   1.8500000   1.2000000   1.5200000   1.2000000
 Changing PCM_VDW_RADII to SMD_RADIUS
 Discretize the solute cavity surface with Lebedev spheres
	Using 110 Lebedev grid points for each H atom
	Using 194 Lebedev grid points for other atoms
	Atomic van der Waals radii will be scaled by 1.20
 Remove points where switching function is < 1.0e-08
 Keep 434 surface tesserae and discard 284 interior tesserae
 Molecular Surface Area = 57.954 Angst**2
 A cutoff of  1.0D-12 yielded    595 shell pairs
 There are      4999 function pairs (      6102 Cartesian)
 Smallest overlap matrix eigenvalue = 1.31E-03

 Scale SEOQF with 1.000000e-01/1.000000e-01/1.000000e-01

 Standard Electronic Orientation quadrupole field applied
 Nucleus-field energy     =    -0.0000000002 hartrees
 Guess from superposition of atomic densities
 Warning:  Energy on first SCF cycle will be non-variational
 SAD guess density has 17.000000 electrons

 -----------------------------------------------------------------------
  General SCF calculation program by
  Eric Jon Sundstrom, Paul Horn, Yuezhi Mao, Dmitri Zuev, Alec White,
  David Stuck, Shaama M.S., Shane Yost, Joonho Lee, David Small,
  Daniel Levine, Susi Lehtola, Hugh Burton, Evgeny Epifanovsky,
  Bang C. Huynh
 -----------------------------------------------------------------------
 Exchange:     0.1500 Hartree-Fock + 1.0000 wB97M-V + LR-HF
 Correlation:  1.0000 wB97M-V
 Using SG-2 standard quadrature grid
 Nonlocal Correlation:  VV10 with C = 0.0100 and b = 6.00 and scale = 1.00000
 Grid used for NLC:  SG-1 standard quadrature
 
 Citation of the SMD model:
 Marenich, A.V.; Cramer, C.J.; Truhlar, D.G.
 J. Phys. Chem. B 2009, 113, 6378-6396.
 iSolventCode=           1
 Solvent: water                                                           
 
 vradii
            1           2           3           4           5
    1   1.2000000   1.8500000   1.2000000   1.5200000   1.2000000
 using 8 threads for integral computing
 -------------------------------------------------------
 OpenMP Integral computing Module                
 Release: version 1.0, May 2013, Q-Chem Inc. Pittsburgh 
 -------------------------------------------------------
 -------------------------------------------------------
 OpenMP BLAS3 based DFT computing Module                
 Release: version 1.0, May 2013, Q-Chem Inc. Pittsburgh 
 -------------------------------------------------------
 A unrestricted SCF calculation will be
 performed using DIIS, GDM
 SCF converges when RMS gradient is below 1.0e-07
 ---------------------------------------
  Cycle       Energy         DIIS error
 ---------------------------------------
    1    -115.1845101348      2.22e-02  
    2    -115.0370143739      2.43e-03  Done DIIS. Switching to GDM
 ---------------------------------------
  Cycle       Energy        RMS Gradient
 ---------------------------------------
    1    -115.0370143739      5.12e-02   Normal BFGS step
    2    -115.0446823140      7.29e-02   Normal BFGS step
    3    -115.0610710930      4.12e-03   Normal BFGS step
    4    -115.0613641336      3.43e-03   Normal BFGS step
    5    -115.0614242491      1.08e-03   Normal BFGS step
    6    -115.0614320264      4.82e-04   Normal BFGS step
    7    -115.0614333471      1.30e-04   Normal BFGS step
    8    -115.0614335193      2.95e-05   Normal BFGS step
    9    -115.0614335317      1.13e-05   Normal BFGS step
   10    -115.0614335331      3.65e-06   Normal BFGS step
   11    -115.0614335332      1.45e-06   Normal BFGS step
   12    -115.0614335332      4.70e-07   Normal BFGS step
   13    -115.0614335332      1.67e-07   Normal BFGS step
   14    -115.0614335332      3.95e-08  Convergence criterion met
 ---------------------------------------
 SCF time:   CPU 61.27s  wall 8.00s 
<S^2> =          0.753040112
(3)  G-ENP(liq) elect-nuc-pol free energy of system     -115.061433533 a.u.
(4)  G-CDS(liq) cavity-dispersion-solvent structure 
     free energy                                                3.7715 kcal/mol
(6)  G-S(liq) free energy of system                     -115.055423279 a.u.
 SCF   energy in the final basis set =     -115.0554232790
 Total energy in the final basis set =     -115.0554232790
 
 --------------------------------------------------------------
 
                    Orbital Energies (a.u.)
 --------------------------------------------------------------
 
 Alpha MOs
 -- Occupied --
-19.3676 -10.3829  -1.1837  -0.7839  -0.6345  -0.5581  -0.5120  -0.4643
 -0.2756
 -- Virtual --
  0.0307   0.0496   0.0612   0.0996   0.1092   0.1440   0.1571   0.2122
  0.2356   0.2485   0.2540   0.2695   0.2905   0.3355   0.3870   0.5314
  0.5458   0.5766   0.6048   0.6337   0.6504   0.6705   0.7698   0.7946
  0.8194   0.8812   0.9697   1.0383   1.0520   1.0721   1.1244   1.1527
  1.2240   1.2801   1.3417   1.4188   1.4819   1.5149   1.5476   1.6185
  1.9080   1.9244   2.1413   2.2889   2.3177   2.4574   2.5172   2.7439
  2.8246   2.9526   3.0289   3.0654   3.1307   3.2147   3.2617   3.2843
  3.3149   3.4086   3.4362   3.6105   3.7559   3.8248   3.8721   3.8923
  4.0667   4.1452   4.1826   4.2370   4.3195   4.5876   5.1372   5.1743
  5.2327   5.2813   5.3981   5.5305   5.6346   5.6824   5.8452   6.1018
  6.6227   7.0283   7.2178   7.2439   7.2941   7.5730   7.7089  24.6389
 50.5217
 
 Beta MOs
 -- Occupied --
-19.3625 -10.3705  -1.1720  -0.7580  -0.6228  -0.5460  -0.4720  -0.4530
 -- Virtual --
  0.0283   0.0333   0.0488   0.0603   0.1067   0.1202   0.1424   0.1526
  0.2167   0.2384   0.2509   0.2568   0.2762   0.2921   0.3460   0.3936
  0.5453   0.5517   0.5823   0.6360   0.6478   0.6636   0.6883   0.7878
  0.8086   0.8364   0.8891   0.9735   1.0509   1.0563   1.0790   1.1355
  1.1581   1.2366   1.2920   1.3499   1.4286   1.4893   1.5318   1.5647
  1.6318   1.9187   1.9428   2.1490   2.2958   2.3325   2.4817   2.5529
  2.7637   2.9114   3.0178   3.0892   3.1221   3.1854   3.2708   3.3077
  3.3374   3.3629   3.4692   3.4991   3.6632   3.7636   3.8430   3.9054
  3.9285   4.0791   4.1752   4.2116   4.2764   4.3396   4.6135   5.1703
  5.2368   5.2488   5.3038   5.4108   5.5858   5.6552   5.7139   5.8658
  6.1134   6.6361   7.0512   7.2378   7.2546   7.3123   7.5853   7.7158
 24.6515  50.5261
 --------------------------------------------------------------
 
          Ground-State Mulliken Net Atomic Charges

     Atom                 Charge (a.u.)    Spin (a.u.)
  --------------------------------------------------------
      1 H                     0.168225      -0.015716
      2 C                    -0.357920       0.931639
      3 H                     0.178703      -0.013108
      4 O                    -0.331454       0.101080
      5 H                     0.342447      -0.003895
  --------------------------------------------------------
  Sum of atomic charges =    -0.000000
  Sum of spin   charges =     1.000000

 -----------------------------------------------------------------
                    Cartesian Multipole Moments
 -----------------------------------------------------------------
    Charge (ESU x 10^10)
                 0.0000
    Dipole Moment (Debye)
         X      -0.0195      Y       1.1566      Z       1.7114
       Tot       2.0657
    Quadrupole Moments (Debye-Ang)
        XX     -15.1453     XY      -0.1472     YY     -11.6227
        XZ      -1.6320     YZ      -0.3124     ZZ     -12.0920
    Octopole Moments (Debye-Ang^2)
       XXX      24.5508    XXY     -14.7229    XYY       6.3115
       YYY     -32.6594    XXZ      15.3756    XYZ      -1.0350
       YYZ      11.6695    XZZ       8.0785    YZZ     -10.2550
       ZZZ      32.0975
    Hexadecapole Moments (Debye-Ang^3)
      XXXX     -48.3999   XXXY      28.8459   XXYY     -30.2557
      XYYY      20.2629   YYYY    -107.2468   XXXZ     -25.9920
      XXYZ      17.7422   XYYZ      -7.8536   YYYZ      40.3624
      XXZZ     -27.3468   XYZZ       9.0590   YYZZ     -33.7002
      XZZZ     -22.2071   YZZZ      34.9018   ZZZZ     -83.4577
 -----------------------------------------------------------------
 Calculating analytic gradient of the SCF energy
 Gradient of CDS energy
            1           2           3           4           5
    1  -0.0000273   0.0014771   0.0000179  -0.0015578   0.0000901
    2  -0.0000058  -0.0047938  -0.0001565   0.0052793  -0.0003232
    3   0.0000991   0.0018019   0.0001075  -0.0024073   0.0003988
 Gradient of SCF Energy
            1           2           3           4           5
    1   0.0020690  -0.0051696   0.0006654   0.0071776  -0.0047425
    2   0.0014694  -0.0063071   0.0079586  -0.0082171   0.0050963
    3  -0.0039986  -0.0004861   0.0058145  -0.0221928   0.0208630
 Max gradient component =       2.219E-02
 RMS gradient           =       9.245E-03
 Computing fast CPCM-SWIG gradient
 Updating gradient with PCM contributions...
 -- total gradient after adding PCM contribution --
---------------------------------------------------
  Atom         X              Y              Z     
---------------------------------------------------
   1       0.001866       0.000268      -0.002720
   2      -0.004664      -0.000620       0.002211
   3       0.000896       0.003331       0.001034
   4       0.003795      -0.004920      -0.006568
   5      -0.001893       0.001940       0.006043
---------------------------------------------------
 Number of fixed atoms: 0
 Gradient time:  CPU 9.68 s  wall 1.24 s
 Geometry Optimization Parameters
   NAtoms,    NIC,     NZ,  NCons,   NDum,   NFix, NCnnct, MaxDiis
        5      20       0       0       0       0       0       0


** GEOMETRY OPTIMIZATION IN DELOCALIZED INTERNAL COORDINATES **
   Searching for a Minimum

   Optimization Cycle:   1

                       Coordinates (Angstroms)
     ATOM                X               Y               Z
      1  H        -0.3865599803    1.4843529417   -2.2197237741
      2  C        -0.6742576225    1.4237334567   -1.1766788299
      3  H        -0.7199138157    2.3094908883   -0.5511806113
      4  O        -0.3293509477    0.2293607057   -0.5860031047
      5  H        -0.5106665338    0.2994745075    0.3652265199
   Point Group: c1    Number of degrees of freedom:     9


   Energy is   -115.055423279


 Attempting to generate delocalized internal coordinates
 Initial Hessian constructed with Jon Baker's OPTIMIZE code

  9 Hessian modes will be used to form the next step
  Hessian Eigenvalues:
     0.018772    0.039782    0.160000    0.160000    0.160000    0.353603
     0.355520    0.497725    0.531953

 Minimum search - taking simple RFO step
 Searching for Lamda that Minimizes Along All modes
 Value Taken    Lamda =  -0.00039776
 Step Taken.  Stepsize is  0.072240

                             Maximum     Tolerance    Cnvgd?
         Gradient           0.005788      0.000300      NO
         Displacement       0.039063      0.001200      NO
         Energy change     *********      0.000001      NO


 New Cartesian Coordinates Obtained by Inverse Iteration

 Displacement from previous Coordinates is:  0.056278
 ----------------------------------------------------------------
             Standard Nuclear Orientation (Angstroms)
    I     Atom           X                Y                Z
 ----------------------------------------------------------------
    1      H      -0.3963330710     1.4844389368    -2.2236248588
    2      C      -0.6503476184     1.4287112999    -1.1763908945
    3      H      -0.7277174548     2.3080543236    -0.5534627590
    4      O      -0.3350037697     0.2321836738    -0.5805968370
    5      H      -0.5113469861     0.2930242658     0.3657155492
 ----------------------------------------------------------------
 Nuclear Repulsion Energy =          35.17424516 hartrees
 There are        9 alpha and        8 beta electrons
 Discretize the solute cavity surface with Lebedev spheres
	Using 110 Lebedev grid points for each H atom
	Using 194 Lebedev grid points for other atoms
	Atomic van der Waals radii will be scaled by 1.20
 Remove points where switching function is < 1.0e-08
 Keep 433 surface tesserae and discard 285 interior tesserae
 Molecular Surface Area = 57.904 Angst**2
 Applying Cartesian multipole field
    Component          Value
    ---------          -----
     (2,0,0)        1.00000E-11
     (0,2,0)        2.00000E-11
     (0,0,2)       -3.00000E-11
 Nucleus-field energy     =    -0.0000000001 hartrees
 Requested basis set is 6-311++G(2df,2p)
 There are 34 shells and 98 basis functions
 A cutoff of  1.0D-12 yielded    595 shell pairs
 There are      4999 function pairs (      6102 Cartesian)
 Smallest overlap matrix eigenvalue = 1.30E-03
 Guess MOs from SCF MO coefficient file

 -----------------------------------------------------------------------
  General SCF calculation program by
  Eric Jon Sundstrom, Paul Horn, Yuezhi Mao, Dmitri Zuev, Alec White,
  David Stuck, Shaama M.S., Shane Yost, Joonho Lee, David Small,
  Daniel Levine, Susi Lehtola, Hugh Burton, Evgeny Epifanovsky,
  Bang C. Huynh
 -----------------------------------------------------------------------
 Exchange:     0.1500 Hartree-Fock + 1.0000 wB97M-V + LR-HF
 Correlation:  1.0000 wB97M-V
 Using SG-2 standard quadrature grid
 Nonlocal Correlation:  VV10 with C = 0.0100 and b = 6.00 and scale = 1.00000
 Grid used for NLC:  SG-1 standard quadrature
 
 Citation of the SMD model:
 Marenich, A.V.; Cramer, C.J.; Truhlar, D.G.
 J. Phys. Chem. B 2009, 113, 6378-6396.
 iSolventCode=           1
 Solvent: water                                                           
 
 vradii
            1           2           3           4           5
    1   1.2000000   1.8500000   1.2000000   1.5200000   1.2000000
 -------------------------------------------------------
 OpenMP BLAS3 based DFT computing Module                
 Release: version 1.0, May 2013, Q-Chem Inc. Pittsburgh 
 -------------------------------------------------------
 A unrestricted SCF calculation will be
 performed using Roothaan-Hall, DIIS, GDM
 SCF converges when RMS gradient is below 1.0e-07
 ---------------------------------------
  Cycle       Energy         DIIS error
 ---------------------------------------
    1    -115.0483660283      5.39e-04  Roothaan Step
 ---------------------------------------
  Cycle       Energy         DIIS error
 ---------------------------------------
    1    -115.0597605987      5.17e-04  
    2    -115.0612613103      3.60e-04  Done DIIS. Switching to GDM
 ---------------------------------------
  Cycle       Energy        RMS Gradient
 ---------------------------------------
    1    -115.0612613103      7.07e-03   Normal BFGS step
    2    -115.0613011909      7.74e-03   Normal BFGS step
    3    -115.0617068176      6.74e-04   Normal BFGS step
    4    -115.0617120943      4.68e-04   Normal BFGS step
    5    -115.0617133492      9.40e-05   Normal BFGS step
    6    -115.0617134193      4.51e-05   Normal BFGS step
    7    -115.0617134342      1.05e-05   Normal BFGS step
    8    -115.0617134353      2.15e-06   Normal BFGS step
    9    -115.0617134354      1.01e-06   Normal BFGS step
   10    -115.0617134354      3.96e-07   Normal BFGS step
   11    -115.0617134354      1.30e-07   Normal BFGS step
   12    -115.0617134354      3.70e-08  Convergence criterion met
 ---------------------------------------
 SCF time:   CPU 57.90s  wall 7.00s 
<S^2> =          0.753075082
(3)  G-ENP(liq) elect-nuc-pol free energy of system     -115.061713435 a.u.
(4)  G-CDS(liq) cavity-dispersion-solvent structure 
     free energy                                                3.7983 kcal/mol
(6)  G-S(liq) free energy of system                     -115.055660395 a.u.
 SCF   energy in the final basis set =     -115.0556603955
 Total energy in the final basis set =     -115.0556603955
 
 --------------------------------------------------------------
 
                    Orbital Energies (a.u.)
 --------------------------------------------------------------
 
 Alpha MOs
 -- Occupied --
-19.3668 -10.3814  -1.1850  -0.7858  -0.6361  -0.5602  -0.5123  -0.4648
 -0.2725
 -- Virtual --
  0.0308   0.0495   0.0610   0.1000   0.1090   0.1450   0.1564   0.2130
  0.2359   0.2491   0.2559   0.2739   0.2944   0.3364   0.3862   0.5292
  0.5497   0.5810   0.6053   0.6348   0.6498   0.6706   0.7707   0.7958
  0.8254   0.8800   0.9682   1.0421   1.0545   1.0732   1.1241   1.1522
  1.2243   1.2675   1.3429   1.4225   1.4874   1.5176   1.5511   1.6333
  1.9071   1.9210   2.1523   2.2862   2.3263   2.4557   2.5354   2.7537
  2.8142   2.9459   3.0196   3.0737   3.1281   3.2201   3.2479   3.2885
  3.3245   3.4149   3.4319   3.6054   3.7558   3.8312   3.8787   3.8979
  4.0745   4.1517   4.1940   4.2309   4.3268   4.6254   5.1425   5.1833
  5.2350   5.2797   5.4026   5.5481   5.6489   5.6980   5.8468   6.1381
  6.6321   7.0279   7.2181   7.2792   7.2957   7.5881   7.7066  24.6612
 50.5288
 
 Beta MOs
 -- Occupied --
-19.3618 -10.3690  -1.1733  -0.7598  -0.6243  -0.5483  -0.4721  -0.4539
 -- Virtual --
  0.0290   0.0342   0.0486   0.0601   0.1068   0.1211   0.1436   0.1515
  0.2179   0.2387   0.2523   0.2582   0.2799   0.2956   0.3466   0.3930
  0.5440   0.5548   0.5869   0.6370   0.6499   0.6634   0.6879   0.7874
  0.8097   0.8437   0.8877   0.9720   1.0525   1.0599   1.0815   1.1350
  1.1574   1.2366   1.2796   1.3501   1.4322   1.4945   1.5351   1.5687
  1.6466   1.9189   1.9380   2.1597   2.2925   2.3419   2.4797   2.5719
  2.7718   2.9011   3.0112   3.0866   3.1287   3.1853   3.2733   3.2959
  3.3466   3.3682   3.4759   3.4933   3.6588   3.7630   3.8502   3.9115
  3.9322   4.0873   4.1785   4.2278   4.2715   4.3439   4.6511   5.1721
  5.2455   5.2506   5.3056   5.4152   5.6037   5.6726   5.7297   5.8674
  6.1496   6.6452   7.0508   7.2391   7.2897   7.3135   7.6005   7.7135
 24.6739  50.5332
 --------------------------------------------------------------
 
          Ground-State Mulliken Net Atomic Charges

     Atom                 Charge (a.u.)    Spin (a.u.)
  --------------------------------------------------------
      1 H                     0.171618      -0.017194
      2 C                    -0.365596       0.936598
      3 H                     0.182324      -0.015367
      4 O                    -0.328906       0.099528
      5 H                     0.340561      -0.003565
  --------------------------------------------------------
  Sum of atomic charges =    -0.000000
  Sum of spin   charges =     1.000000

 -----------------------------------------------------------------
                    Cartesian Multipole Moments
 -----------------------------------------------------------------
    Charge (ESU x 10^10)
                 0.0000
    Dipole Moment (Debye)
         X      -0.0816      Y       1.1218      Z       1.6970
       Tot       2.0359
    Quadrupole Moments (Debye-Ang)
        XX     -15.0535     XY      -0.2546     YY     -11.6808
        XZ      -1.5382     YZ      -0.3154     ZZ     -12.0096
    Octopole Moments (Debye-Ang^2)
       XXX      24.0031    XXY     -14.6514    XYY       5.9813
       YYY     -32.9266    XXZ      15.2440    XYZ      -0.8835
       YYZ      11.6708    XZZ       7.7672    YZZ     -10.2304
       ZZZ      31.7772
    Hexadecapole Moments (Debye-Ang^3)
      XXXX     -46.9958   XXXY      28.0487   XXYY     -30.0141
      XYYY      19.3196   YYYY    -108.1022   XXXZ     -25.2795
      XXYZ      17.6719   XYYZ      -7.4618   YYYZ      40.5798
      XXZZ     -26.9684   XYZZ       8.6103   YYZZ     -33.6723
      XZZZ     -21.3057   YZZZ      34.7298   ZZZZ     -82.5311
 -----------------------------------------------------------------
 Calculating analytic gradient of the SCF energy
 Gradient of CDS energy
            1           2           3           4           5
    1  -0.0000275   0.0013382   0.0000180  -0.0014050   0.0000763
    2  -0.0000060  -0.0047143  -0.0001643   0.0052090  -0.0003243
    3   0.0001133   0.0017945   0.0000935  -0.0023977   0.0003964
 Gradient of SCF Energy
            1           2           3           4           5
    1   0.0003655  -0.0015730   0.0000185   0.0043825  -0.0031936
    2   0.0020556  -0.0055382   0.0053839  -0.0047448   0.0028434
    3  -0.0019559  -0.0028625   0.0045143  -0.0151600   0.0154642
 Max gradient component =       1.546E-02
 RMS gradient           =       6.470E-03
 Computing fast CPCM-SWIG gradient
 Updating gradient with PCM contributions...
 -- total gradient after adding PCM contribution --
---------------------------------------------------
  Atom         X              Y              Z     
---------------------------------------------------
   1       0.000201       0.000864      -0.000659
   2      -0.001365       0.000031      -0.000273
   3       0.000445       0.000898      -0.000216
   4       0.001071      -0.001692       0.000543
   5      -0.000352      -0.000101       0.000606
---------------------------------------------------
 Number of fixed atoms: 0
 Gradient time:  CPU 8.81 s  wall 1.14 s
 Geometry Optimization Parameters
   NAtoms,    NIC,     NZ,  NCons,   NDum,   NFix, NCnnct, MaxDiis
        5      20       0       0       0       0       0       0

 Cartesian Hessian Update
 Hessian updated using BFGS update


** GEOMETRY OPTIMIZATION IN DELOCALIZED INTERNAL COORDINATES **
   Searching for a Minimum

   Optimization Cycle:   2

                       Coordinates (Angstroms)
     ATOM                X               Y               Z
      1  H        -0.3963330710    1.4844389368   -2.2236248588
      2  C        -0.6503476184    1.4287112999   -1.1763908945
      3  H        -0.7277174548    2.3080543236   -0.5534627590
      4  O        -0.3350037697    0.2321836738   -0.5805968370
      5  H        -0.5113469861    0.2930242658    0.3657155492
   Point Group: c1    Number of degrees of freedom:     9


   Energy is   -115.055660395

 Hessian updated using BFGS update

  8 Hessian modes will be used to form the next step
  Hessian Eigenvalues:
     0.017972    0.032931    0.152493    0.178873    0.340397    0.354679
     0.468638    0.552463

 Minimum search - taking simple RFO step
 Searching for Lamda that Minimizes Along All modes
 Value Taken    Lamda =  -0.00006349
 Step Taken.  Stepsize is  0.041782

                             Maximum     Tolerance    Cnvgd?
         Gradient           0.001654      0.000300      NO
         Displacement       0.034434      0.001200      NO
         Energy change     -0.000237      0.000001      NO


 New Cartesian Coordinates Obtained by Inverse Iteration

 Displacement from previous Coordinates is:  0.029020
 ----------------------------------------------------------------
             Standard Nuclear Orientation (Angstroms)
    I     Atom           X                Y                Z
 ----------------------------------------------------------------
    1      H      -0.3973689174     1.4808243224    -2.2236129116
    2      C      -0.6405685924     1.4311442872    -1.1754200879
    3      H      -0.7328909130     2.3055480681    -0.5503549076
    4      O      -0.3418346405     0.2326097972    -0.5827133036
    5      H      -0.5080858368     0.2962860251     0.3637414106
 ----------------------------------------------------------------
 Nuclear Repulsion Energy =          35.24550089 hartrees
 There are        9 alpha and        8 beta electrons
 Discretize the solute cavity surface with Lebedev spheres
	Using 110 Lebedev grid points for each H atom
	Using 194 Lebedev grid points for other atoms
	Atomic van der Waals radii will be scaled by 1.20
 Remove points where switching function is < 1.0e-08
 Keep 433 surface tesserae and discard 285 interior tesserae
 Molecular Surface Area = 57.856 Angst**2
 Applying Cartesian multipole field
    Component          Value
    ---------          -----
     (2,0,0)        1.00000E-11
     (0,2,0)        2.00000E-11
     (0,0,2)       -3.00000E-11
 Nucleus-field energy     =    -0.0000000001 hartrees
 Requested basis set is 6-311++G(2df,2p)
 There are 34 shells and 98 basis functions
 A cutoff of  1.0D-12 yielded    595 shell pairs
 There are      4999 function pairs (      6102 Cartesian)
 Smallest overlap matrix eigenvalue = 1.28E-03
 Guess MOs from SCF MO coefficient file

 -----------------------------------------------------------------------
  General SCF calculation program by
  Eric Jon Sundstrom, Paul Horn, Yuezhi Mao, Dmitri Zuev, Alec White,
  David Stuck, Shaama M.S., Shane Yost, Joonho Lee, David Small,
  Daniel Levine, Susi Lehtola, Hugh Burton, Evgeny Epifanovsky,
  Bang C. Huynh
 -----------------------------------------------------------------------
 Exchange:     0.1500 Hartree-Fock + 1.0000 wB97M-V + LR-HF
 Correlation:  1.0000 wB97M-V
 Using SG-2 standard quadrature grid
 Nonlocal Correlation:  VV10 with C = 0.0100 and b = 6.00 and scale = 1.00000
 Grid used for NLC:  SG-1 standard quadrature
 
 Citation of the SMD model:
 Marenich, A.V.; Cramer, C.J.; Truhlar, D.G.
 J. Phys. Chem. B 2009, 113, 6378-6396.
 iSolventCode=           1
 Solvent: water                                                           
 
 vradii
            1           2           3           4           5
    1   1.2000000   1.8500000   1.2000000   1.5200000   1.2000000
 -------------------------------------------------------
 OpenMP BLAS3 based DFT computing Module                
 Release: version 1.0, May 2013, Q-Chem Inc. Pittsburgh 
 -------------------------------------------------------
 A unrestricted SCF calculation will be
 performed using Roothaan-Hall, DIIS, GDM
 SCF converges when RMS gradient is below 1.0e-07
 ---------------------------------------
  Cycle       Energy         DIIS error
 ---------------------------------------
    1    -115.0486834409      4.99e-04  Roothaan Step
 ---------------------------------------
  Cycle       Energy         DIIS error
 ---------------------------------------
    1    -115.0598818645      5.16e-04  
    2    -115.0613345046      3.65e-04  Done DIIS. Switching to GDM
 ---------------------------------------
  Cycle       Energy        RMS Gradient
 ---------------------------------------
    1    -115.0613345046      7.46e-03   Normal BFGS step
    2    -115.0613653684      8.49e-03   Normal BFGS step
    3    -115.0617809776      6.73e-04   Normal BFGS step
    4    -115.0617854863      4.67e-04   Normal BFGS step
    5    -115.0617865403      7.26e-05   Normal BFGS step
    6    -115.0617865863      3.94e-05   Normal BFGS step
    7    -115.0617865956      1.43e-05   Normal BFGS step
    8    -115.0617865968      3.01e-06   Normal BFGS step
    9    -115.0617865969      9.34e-07   Normal BFGS step
   10    -115.0617865969      3.24e-07   Normal BFGS step
   11    -115.0617865969      1.34e-07   Normal BFGS step
   12    -115.0617865969      3.27e-08  Convergence criterion met
 ---------------------------------------
 SCF time:   CPU 56.56s  wall 7.00s 
<S^2> =          0.753085957
(3)  G-ENP(liq) elect-nuc-pol free energy of system     -115.061786597 a.u.
(4)  G-CDS(liq) cavity-dispersion-solvent structure 
     free energy                                                3.8203 kcal/mol
(6)  G-S(liq) free energy of system                     -115.055698512 a.u.
 SCF   energy in the final basis set =     -115.0556985121
 Total energy in the final basis set =     -115.0556985121
 
 --------------------------------------------------------------
 
                    Orbital Energies (a.u.)
 --------------------------------------------------------------
 
 Alpha MOs
 -- Occupied --
-19.3667 -10.3804  -1.1863  -0.7861  -0.6371  -0.5610  -0.5125  -0.4656
 -0.2707
 -- Virtual --
  0.0308   0.0495   0.0609   0.1003   0.1088   0.1454   0.1561   0.2127
  0.2363   0.2495   0.2563   0.2755   0.2976   0.3377   0.3867   0.5276
  0.5523   0.5822   0.6053   0.6337   0.6489   0.6706   0.7718   0.7971
  0.8285   0.8813   0.9654   1.0431   1.0555   1.0731   1.1260   1.1515
  1.2255   1.2637   1.3439   1.4229   1.4894   1.5192   1.5526   1.6396
  1.9045   1.9209   2.1589   2.2864   2.3314   2.4555   2.5436   2.7591
  2.8104   2.9417   3.0161   3.0770   3.1283   3.2213   3.2464   3.2901
  3.3308   3.4146   3.4332   3.6029   3.7555   3.8336   3.8800   3.8977
  4.0789   4.1556   4.2005   4.2264   4.3284   4.6400   5.1436   5.1912
  5.2372   5.2788   5.4050   5.5557   5.6530   5.7067   5.8521   6.1531
  6.6418   7.0274   7.2186   7.2887   7.3001   7.5919   7.7076  24.6744
 50.5324
 
 Beta MOs
 -- Occupied --
-19.3616 -10.3680  -1.1745  -0.7601  -0.6252  -0.5491  -0.4719  -0.4552
 -- Virtual --
  0.0293   0.0348   0.0486   0.0600   0.1069   0.1216   0.1441   0.1510
  0.2177   0.2390   0.2530   0.2586   0.2811   0.2989   0.3475   0.3938
  0.5428   0.5570   0.5882   0.6371   0.6494   0.6631   0.6872   0.7880
  0.8106   0.8477   0.8889   0.9693   1.0526   1.0614   1.0815   1.1370
  1.1566   1.2378   1.2760   1.3509   1.4324   1.4963   1.5368   1.5702
  1.6531   1.9170   1.9371   2.1662   2.2926   2.3472   2.4794   2.5803
  2.7767   2.8972   3.0067   3.0851   3.1318   3.1869   3.2715   3.2970
  3.3494   3.3732   3.4750   3.4939   3.6567   3.7626   3.8536   3.9124
  3.9308   4.0918   4.1809   4.2362   4.2677   4.3446   4.6658   5.1727
  5.2522   5.2540   5.3056   5.4177   5.6122   5.6763   5.7385   5.8729
  6.1650   6.6549   7.0505   7.2398   7.2997   7.3177   7.6043   7.7144
 24.6870  50.5368
 --------------------------------------------------------------
 
          Ground-State Mulliken Net Atomic Charges

     Atom                 Charge (a.u.)    Spin (a.u.)
  --------------------------------------------------------
      1 H                     0.172658      -0.017691
      2 C                    -0.371567       0.937653
      3 H                     0.184385      -0.016273
      4 O                    -0.325152       0.099779
      5 H                     0.339677      -0.003468
  --------------------------------------------------------
  Sum of atomic charges =     0.000000
  Sum of spin   charges =     1.000000

 -----------------------------------------------------------------
                    Cartesian Multipole Moments
 -----------------------------------------------------------------
    Charge (ESU x 10^10)
                 0.0000
    Dipole Moment (Debye)
         X      -0.0894      Y       1.1071      Z       1.7060
       Tot       2.0357
    Quadrupole Moments (Debye-Ang)
        XX     -15.0304     XY      -0.3022     YY     -11.7324
        XZ      -1.5094     YZ      -0.2680     ZZ     -12.0135
    Octopole Moments (Debye-Ang^2)
       XXX      23.8594    XXY     -14.6265    XYY       5.8688
       YYY     -33.1178    XXZ      15.2190    XYZ      -0.8511
       YYZ      11.7868    XZZ       7.6983    YZZ     -10.3032
       ZZZ      31.7649
    Hexadecapole Moments (Debye-Ang^3)
      XXXX     -46.5552   XXXY      27.7368   XXYY     -29.9523
      XYYY      18.9526   YYYY    -108.6451   XXXZ     -25.0403
      XXYZ      17.6682   XYYZ      -7.3797   YYYZ      40.8465
      XXZZ     -26.8836   XYZZ       8.4993   YYZZ     -33.8603
      XZZZ     -21.0553   YZZZ      34.8260   ZZZZ     -82.4033
 -----------------------------------------------------------------
 Calculating analytic gradient of the SCF energy
 Gradient of CDS energy
            1           2           3           4           5
    1  -0.0000276   0.0012472   0.0000191  -0.0013081   0.0000694
    2  -0.0000056  -0.0046349  -0.0001702   0.0051294  -0.0003186
    3   0.0001189   0.0017355   0.0000944  -0.0023439   0.0003951
 Gradient of SCF Energy
            1           2           3           4           5
    1   0.0000755  -0.0003276  -0.0002976   0.0033033  -0.0027536
    2   0.0013325  -0.0059147   0.0043972  -0.0027736   0.0029587
    3  -0.0009507  -0.0026085   0.0045364  -0.0150990   0.0141218
 Max gradient component =       1.510E-02
 RMS gradient           =       6.038E-03
 Computing fast CPCM-SWIG gradient
 Updating gradient with PCM contributions...
 -- total gradient after adding PCM contribution --
---------------------------------------------------
  Atom         X              Y              Z     
---------------------------------------------------
   1      -0.000071       0.000161       0.000320
   2      -0.000281      -0.000397       0.000085
   3       0.000216      -0.000030      -0.000262
   4       0.000174       0.000298       0.000654
   5      -0.000038      -0.000033      -0.000797
---------------------------------------------------
 Number of fixed atoms: 0
 Gradient time:  CPU 9.36 s  wall 1.19 s
 Geometry Optimization Parameters
   NAtoms,    NIC,     NZ,  NCons,   NDum,   NFix, NCnnct, MaxDiis
        5      20       0       0       0       0       0       0

 Cartesian Hessian Update
 Hessian updated using BFGS update


** GEOMETRY OPTIMIZATION IN DELOCALIZED INTERNAL COORDINATES **
   Searching for a Minimum

   Optimization Cycle:   3

                       Coordinates (Angstroms)
     ATOM                X               Y               Z
      1  H        -0.3973689174    1.4808243224   -2.2236129116
      2  C        -0.6405685924    1.4311442872   -1.1754200879
      3  H        -0.7328909130    2.3055480681   -0.5503549076
      4  O        -0.3418346405    0.2326097972   -0.5827133036
      5  H        -0.5080858368    0.2962860251    0.3637414106
   Point Group: c1    Number of degrees of freedom:     9


   Energy is   -115.055698512

 Hessian updated using BFGS update

  9 Hessian modes will be used to form the next step
  Hessian Eigenvalues:
     0.013125    0.029344    0.148966    0.160036    0.180562    0.354124
     0.362920    0.523325    0.574338

 Minimum search - taking simple RFO step
 Searching for Lamda that Minimizes Along All modes
 Value Taken    Lamda =  -0.00001274
 Step Taken.  Stepsize is  0.027810

                             Maximum     Tolerance    Cnvgd?
         Gradient           0.000545      0.000300      NO
         Displacement       0.024352      0.001200      NO
         Energy change     -0.000038      0.000001      NO


 New Cartesian Coordinates Obtained by Inverse Iteration

 Displacement from previous Coordinates is:  0.018197
 ----------------------------------------------------------------
             Standard Nuclear Orientation (Angstroms)
    I     Atom           X                Y                Z
 ----------------------------------------------------------------
    1      H      -0.3972005041     1.4799927954    -2.2250723897
    2      C      -0.6350575477     1.4327920825    -1.1754051163
    3      H      -0.7364738501     2.3051824339    -0.5490528312
    4      O      -0.3471612492     0.2315419168    -0.5835880257
    5      H      -0.5048557489     0.2969032714     0.3647585627
 ----------------------------------------------------------------
 Nuclear Repulsion Energy =          35.24481632 hartrees
 There are        9 alpha and        8 beta electrons
 Discretize the solute cavity surface with Lebedev spheres
	Using 110 Lebedev grid points for each H atom
	Using 194 Lebedev grid points for other atoms
	Atomic van der Waals radii will be scaled by 1.20
 Remove points where switching function is < 1.0e-08
 Keep 432 surface tesserae and discard 286 interior tesserae
 Molecular Surface Area = 57.866 Angst**2
 Applying Cartesian multipole field
    Component          Value
    ---------          -----
     (2,0,0)        1.00000E-11
     (0,2,0)        2.00000E-11
     (0,0,2)       -3.00000E-11
 Nucleus-field energy     =    -0.0000000001 hartrees
 Requested basis set is 6-311++G(2df,2p)
 There are 34 shells and 98 basis functions
 A cutoff of  1.0D-12 yielded    595 shell pairs
 There are      4999 function pairs (      6102 Cartesian)
 Smallest overlap matrix eigenvalue = 1.28E-03
 Guess MOs from SCF MO coefficient file

 -----------------------------------------------------------------------
  General SCF calculation program by
  Eric Jon Sundstrom, Paul Horn, Yuezhi Mao, Dmitri Zuev, Alec White,
  David Stuck, Shaama M.S., Shane Yost, Joonho Lee, David Small,
  Daniel Levine, Susi Lehtola, Hugh Burton, Evgeny Epifanovsky,
  Bang C. Huynh
 -----------------------------------------------------------------------
 Exchange:     0.1500 Hartree-Fock + 1.0000 wB97M-V + LR-HF
 Correlation:  1.0000 wB97M-V
 Using SG-2 standard quadrature grid
 Nonlocal Correlation:  VV10 with C = 0.0100 and b = 6.00 and scale = 1.00000
 Grid used for NLC:  SG-1 standard quadrature
 
 Citation of the SMD model:
 Marenich, A.V.; Cramer, C.J.; Truhlar, D.G.
 J. Phys. Chem. B 2009, 113, 6378-6396.
 iSolventCode=           1
 Solvent: water                                                           
 
 vradii
            1           2           3           4           5
    1   1.2000000   1.8500000   1.2000000   1.5200000   1.2000000
 -------------------------------------------------------
 OpenMP BLAS3 based DFT computing Module                
 Release: version 1.0, May 2013, Q-Chem Inc. Pittsburgh 
 -------------------------------------------------------
 A unrestricted SCF calculation will be
 performed using Roothaan-Hall, DIIS, GDM
 SCF converges when RMS gradient is below 1.0e-07
 ---------------------------------------
  Cycle       Energy         DIIS error
 ---------------------------------------
    1    -115.0487364309      4.88e-04  Roothaan Step
 ---------------------------------------
  Cycle       Energy         DIIS error
 ---------------------------------------
    1    -115.0598885701      5.19e-04  
    2    -115.0613364322      3.71e-04  Done DIIS. Switching to GDM
 ---------------------------------------
  Cycle       Energy        RMS Gradient
 ---------------------------------------
    1    -115.0613364322      7.79e-03   Normal BFGS step
    2    -115.0613651642      8.95e-03   Normal BFGS step
    3    -115.0617946415      6.82e-04   Normal BFGS step
    4    -115.0617990255      4.72e-04   Normal BFGS step
    5    -115.0618000812      7.48e-05   Normal BFGS step
    6    -115.0618001202      4.08e-05   Normal BFGS step
    7    -115.0618001273      1.66e-05   Normal BFGS step
    8    -115.0618001284      3.66e-06   Normal BFGS step
    9    -115.0618001284      9.35e-07   Normal BFGS step
   10    -115.0618001284      2.96e-07   Normal BFGS step
   11    -115.0618001285      1.39e-07   Normal BFGS step
   12    -115.0618001285      3.04e-08  Convergence criterion met
 ---------------------------------------
 SCF time:   CPU 55.99s  wall 7.00s 
<S^2> =          0.753102882
(3)  G-ENP(liq) elect-nuc-pol free energy of system     -115.061800128 a.u.
(4)  G-CDS(liq) cavity-dispersion-solvent structure 
     free energy                                                3.8238 kcal/mol
(6)  G-S(liq) free energy of system                     -115.055706573 a.u.
 SCF   energy in the final basis set =     -115.0557065728
 Total energy in the final basis set =     -115.0557065728
 
 --------------------------------------------------------------
 
                    Orbital Energies (a.u.)
 --------------------------------------------------------------
 
 Alpha MOs
 -- Occupied --
-19.3667 -10.3803  -1.1862  -0.7860  -0.6372  -0.5611  -0.5122  -0.4659
 -0.2700
 -- Virtual --
  0.0308   0.0495   0.0609   0.1005   0.1087   0.1456   0.1559   0.2123
  0.2362   0.2497   0.2563   0.2761   0.3001   0.3379   0.3868   0.5265
  0.5532   0.5826   0.6053   0.6326   0.6480   0.6704   0.7723   0.7970
  0.8302   0.8818   0.9637   1.0430   1.0562   1.0726   1.1274   1.1509
  1.2253   1.2608   1.3436   1.4231   1.4896   1.5192   1.5527   1.6427
  1.9016   1.9205   2.1615   2.2868   2.3332   2.4560   2.5488   2.7603
  2.8080   2.9386   3.0129   3.0790   3.1274   3.2190   3.2474   3.2907
  3.3334   3.4121   3.4347   3.6009   3.7549   3.8332   3.8788   3.8956
  4.0793   4.1555   4.2024   4.2221   4.3262   4.6457   5.1437   5.1936
  5.2373   5.2762   5.4057   5.5570   5.6515   5.7071   5.8512   6.1576
  6.6428   7.0265   7.2182   7.2865   7.3012   7.5935   7.7077  24.6754
 50.5325
 
 Beta MOs
 -- Occupied --
-19.3616 -10.3679  -1.1744  -0.7599  -0.6253  -0.5492  -0.4712  -0.4559
 -- Virtual --
  0.0294   0.0350   0.0486   0.0599   0.1069   0.1218   0.1443   0.1507
  0.2174   0.2390   0.2533   0.2585   0.2815   0.3013   0.3477   0.3938
  0.5418   0.5577   0.5886   0.6370   0.6487   0.6625   0.6865   0.7882
  0.8103   0.8498   0.8894   0.9675   1.0521   1.0624   1.0813   1.1385
  1.1558   1.2376   1.2732   1.3505   1.4325   1.4963   1.5371   1.5704
  1.6562   1.9145   1.9363   2.1687   2.2930   2.3492   2.4799   2.5855
  2.7775   2.8947   3.0036   3.0835   3.1336   3.1868   3.2681   3.2991
  3.3500   3.3756   3.4723   3.4953   3.6549   3.7619   3.8538   3.9113
  3.9279   4.0921   4.1800   4.2393   4.2636   4.3420   4.6716   5.1726
  5.2522   5.2570   5.3027   5.4185   5.6144   5.6742   5.7391   5.8719
  6.1695   6.6558   7.0496   7.2396   7.2976   7.3188   7.6059   7.7145
 24.6880  50.5369
 --------------------------------------------------------------
 
          Ground-State Mulliken Net Atomic Charges

     Atom                 Charge (a.u.)    Spin (a.u.)
  --------------------------------------------------------
      1 H                     0.173289      -0.018009
      2 C                    -0.373931       0.938685
      3 H                     0.185700      -0.016865
      4 O                    -0.324736       0.099588
      5 H                     0.339677      -0.003399
  --------------------------------------------------------
  Sum of atomic charges =     0.000000
  Sum of spin   charges =     1.000000

 -----------------------------------------------------------------
                    Cartesian Multipole Moments
 -----------------------------------------------------------------
    Charge (ESU x 10^10)
                -0.0000
    Dipole Moment (Debye)
         X      -0.0906      Y       1.1052      Z       1.7110
       Tot       2.0389
    Quadrupole Moments (Debye-Ang)
        XX     -15.0230     XY      -0.3360     YY     -11.7520
        XZ      -1.4903     YZ      -0.2546     ZZ     -12.0053
    Octopole Moments (Debye-Ang^2)
       XXX      23.7970    XXY     -14.6007    XYY       5.7988
       YYY     -33.1836    XXZ      15.2043    XYZ      -0.8236
       YYZ      11.8321    XZZ       7.6614    YZZ     -10.3161
       ZZZ      31.7458
    Hexadecapole Moments (Debye-Ang^3)
      XXXX     -46.3187   XXXY      27.5411   XXYY     -29.9168
      XYYY      18.7142   YYYY    -108.9261   XXXZ     -24.9071
      XXYZ      17.6647   XYYZ      -7.3255   YYYZ      40.9720
      XXZZ     -26.8510   XYZZ       8.4283   YYZZ     -33.9439
      XZZZ     -20.9237   YZZZ      34.8426   ZZZZ     -82.3411
 -----------------------------------------------------------------
 Calculating analytic gradient of the SCF energy
 Gradient of CDS energy
            1           2           3           4           5
    1  -0.0000269   0.0011985   0.0000197  -0.0012572   0.0000658
    2  -0.0000053  -0.0046347  -0.0001712   0.0051291  -0.0003179
    3   0.0001187   0.0017253   0.0000954  -0.0023343   0.0003949
 Gradient of SCF Energy
            1           2           3           4           5
    1   0.0000853   0.0000561  -0.0005275   0.0029887  -0.0026026
    2   0.0011697  -0.0058812   0.0043839  -0.0025799   0.0029075
    3  -0.0012060  -0.0026342   0.0047942  -0.0157129   0.0147589
 Max gradient component =       1.571E-02
 RMS gradient           =       6.231E-03
 Computing fast CPCM-SWIG gradient
 Updating gradient with PCM contributions...
 -- total gradient after adding PCM contribution --
---------------------------------------------------
  Atom         X              Y              Z     
---------------------------------------------------
   1      -0.000053       0.000005       0.000063
   2       0.000006      -0.000384       0.000081
   3       0.000037      -0.000019      -0.000034
   4       0.000019       0.000510       0.000094
   5      -0.000009      -0.000112      -0.000203
---------------------------------------------------
 Number of fixed atoms: 0
 Gradient time:  CPU 9.45 s  wall 1.20 s
 Geometry Optimization Parameters
   NAtoms,    NIC,     NZ,  NCons,   NDum,   NFix, NCnnct, MaxDiis
        5      20       0       0       0       0       0       0

 Cartesian Hessian Update
 Hessian updated using BFGS update


** GEOMETRY OPTIMIZATION IN DELOCALIZED INTERNAL COORDINATES **
   Searching for a Minimum

   Optimization Cycle:   4

                       Coordinates (Angstroms)
     ATOM                X               Y               Z
      1  H        -0.3972005041    1.4799927954   -2.2250723897
      2  C        -0.6350575477    1.4327920825   -1.1754051163
      3  H        -0.7364738501    2.3051824339   -0.5490528312
      4  O        -0.3471612492    0.2315419168   -0.5835880257
      5  H        -0.5048557489    0.2969032714    0.3647585627
   Point Group: c1    Number of degrees of freedom:     9


   Energy is   -115.055706573

 Hessian updated using BFGS update

  9 Hessian modes will be used to form the next step
  Hessian Eigenvalues:
     0.008890    0.030776    0.154406    0.161002    0.182104    0.354095
     0.362539    0.518801    0.561102

 Minimum search - taking simple RFO step
 Searching for Lamda that Minimizes Along All modes
 Value Taken    Lamda =  -0.00000258
 Step Taken.  Stepsize is  0.015138

                             Maximum     Tolerance    Cnvgd?
         Gradient           0.000279      0.000300     YES
         Displacement       0.013122      0.001200      NO
         Energy change     -0.000008      0.000001      NO


 New Cartesian Coordinates Obtained by Inverse Iteration

 Displacement from previous Coordinates is:  0.009817
 ----------------------------------------------------------------
             Standard Nuclear Orientation (Angstroms)
    I     Atom           X                Y                Z
 ----------------------------------------------------------------
    1      H      -0.3964815068     1.4800379036    -2.2254305928
    2      C      -0.6331191723     1.4333244545    -1.1754417436
    3      H      -0.7381870115     2.3047697619    -0.5484881414
    4      O      -0.3503566268     0.2302086403    -0.5841401665
    5      H      -0.5026045826     0.2980717397     0.3651408443
 ----------------------------------------------------------------
 Nuclear Repulsion Energy =          35.23803094 hartrees
 There are        9 alpha and        8 beta electrons
 Discretize the solute cavity surface with Lebedev spheres
	Using 110 Lebedev grid points for each H atom
	Using 194 Lebedev grid points for other atoms
	Atomic van der Waals radii will be scaled by 1.20
 Remove points where switching function is < 1.0e-08
 Keep 434 surface tesserae and discard 284 interior tesserae
 Molecular Surface Area = 57.871 Angst**2
 Applying Cartesian multipole field
    Component          Value
    ---------          -----
     (2,0,0)        1.00000E-11
     (0,2,0)        2.00000E-11
     (0,0,2)       -3.00000E-11
 Nucleus-field energy     =    -0.0000000001 hartrees
 Requested basis set is 6-311++G(2df,2p)
 There are 34 shells and 98 basis functions
 A cutoff of  1.0D-12 yielded    595 shell pairs
 There are      4999 function pairs (      6102 Cartesian)
 Smallest overlap matrix eigenvalue = 1.28E-03
 Guess MOs from SCF MO coefficient file

 -----------------------------------------------------------------------
  General SCF calculation program by
  Eric Jon Sundstrom, Paul Horn, Yuezhi Mao, Dmitri Zuev, Alec White,
  David Stuck, Shaama M.S., Shane Yost, Joonho Lee, David Small,
  Daniel Levine, Susi Lehtola, Hugh Burton, Evgeny Epifanovsky,
  Bang C. Huynh
 -----------------------------------------------------------------------
 Exchange:     0.1500 Hartree-Fock + 1.0000 wB97M-V + LR-HF
 Correlation:  1.0000 wB97M-V
 Using SG-2 standard quadrature grid
 Nonlocal Correlation:  VV10 with C = 0.0100 and b = 6.00 and scale = 1.00000
 Grid used for NLC:  SG-1 standard quadrature
 
 Citation of the SMD model:
 Marenich, A.V.; Cramer, C.J.; Truhlar, D.G.
 J. Phys. Chem. B 2009, 113, 6378-6396.
 iSolventCode=           1
 Solvent: water                                                           
 
 vradii
            1           2           3           4           5
    1   1.2000000   1.8500000   1.2000000   1.5200000   1.2000000
 -------------------------------------------------------
 OpenMP BLAS3 based DFT computing Module                
 Release: version 1.0, May 2013, Q-Chem Inc. Pittsburgh 
 -------------------------------------------------------
 A unrestricted SCF calculation will be
 performed using Roothaan-Hall, DIIS, GDM
 SCF converges when RMS gradient is below 1.0e-07
 ---------------------------------------
  Cycle       Energy         DIIS error
 ---------------------------------------
    1    -115.0487526245      4.83e-04  Roothaan Step
 ---------------------------------------
  Cycle       Energy         DIIS error
 ---------------------------------------
    1    -115.0598881779      5.19e-04  
    2    -115.0613365394      3.70e-04  Done DIIS. Switching to GDM
 ---------------------------------------
  Cycle       Energy        RMS Gradient
 ---------------------------------------
    1    -115.0613365394      7.88e-03   Normal BFGS step
    2    -115.0613651105      9.07e-03   Normal BFGS step
    3    -115.0617927691      6.85e-04   Normal BFGS step
    4    -115.0617970946      4.69e-04   Normal BFGS step
    5    -115.0617981348      8.04e-05   Normal BFGS step
    6    -115.0617981715      4.42e-05   Normal BFGS step
    7    -115.0617981780      1.88e-05   Normal BFGS step
    8    -115.0617981791      4.14e-06   Normal BFGS step
    9    -115.0617981792      9.68e-07   Normal BFGS step
   10    -115.0617981792      3.31e-07   Normal BFGS step
   11    -115.0617981792      1.47e-07   Normal BFGS step
   12    -115.0617981792      3.02e-08  Convergence criterion met
 ---------------------------------------
 SCF time:   CPU 56.68s  wall 7.00s 
<S^2> =          0.753111114
(3)  G-ENP(liq) elect-nuc-pol free energy of system     -115.061798179 a.u.
(4)  G-CDS(liq) cavity-dispersion-solvent structure 
     free energy                                                3.8216 kcal/mol
(6)  G-S(liq) free energy of system                     -115.055708126 a.u.
 SCF   energy in the final basis set =     -115.0557081262
 Total energy in the final basis set =     -115.0557081262
 
 --------------------------------------------------------------
 
                    Orbital Energies (a.u.)
 --------------------------------------------------------------
 
 Alpha MOs
 -- Occupied --
-19.3667 -10.3802  -1.1860  -0.7859  -0.6372  -0.5610  -0.5120  -0.4662
 -0.2698
 -- Virtual --
  0.0308   0.0495   0.0608   0.1006   0.1086   0.1457   0.1558   0.2121
  0.2361   0.2498   0.2562   0.2761   0.3013   0.3378   0.3867   0.5260
  0.5535   0.5827   0.6052   0.6318   0.6475   0.6703   0.7725   0.7968
  0.8308   0.8824   0.9631   1.0430   1.0566   1.0722   1.1283   1.1504
  1.2251   1.2595   1.3433   1.4232   1.4897   1.5193   1.5529   1.6438
  1.9003   1.9203   2.1625   2.2871   2.3337   2.4561   2.5507   2.7609
  2.8070   2.9372   3.0115   3.0799   3.1271   3.2179   3.2479   3.2907
  3.3342   3.4108   3.4352   3.6000   3.7545   3.8329   3.8783   3.8947
  4.0791   4.1555   4.2032   4.2206   4.3247   4.6475   5.1435   5.1948
  5.2376   5.2748   5.4059   5.5580   5.6507   5.7071   5.8498   6.1577
  6.6421   7.0260   7.2179   7.2855   7.3022   7.5933   7.7079  24.6749
 50.5322
 
 Beta MOs
 -- Occupied --
-19.3616 -10.3679  -1.1743  -0.7598  -0.6253  -0.5492  -0.4708  -0.4564
 -- Virtual --
  0.0294   0.0351   0.0486   0.0599   0.1069   0.1218   0.1444   0.1506
  0.2172   0.2389   0.2535   0.2583   0.2815   0.3025   0.3477   0.3937
  0.5414   0.5579   0.5887   0.6369   0.6482   0.6622   0.6862   0.7884
  0.8101   0.8505   0.8900   0.9669   1.0519   1.0629   1.0809   1.1393
  1.1551   1.2374   1.2719   1.3501   1.4327   1.4963   1.5372   1.5706
  1.6573   1.9133   1.9359   2.1697   2.2932   2.3496   2.4799   2.5874
  2.7779   2.8938   3.0021   3.0826   3.1344   3.1868   3.2667   3.3001
  3.3498   3.3765   3.4709   3.4959   3.6542   3.7614   3.8536   3.9108
  3.9268   4.0919   4.1797   4.2407   4.2620   4.3403   4.6734   5.1724
  5.2520   5.2592   5.3007   5.4187   5.6159   5.6732   5.7392   5.8704
  6.1696   6.6550   7.0491   7.2393   7.2965   7.3198   7.6057   7.7147
 24.6875  50.5366
 --------------------------------------------------------------
 
          Ground-State Mulliken Net Atomic Charges

     Atom                 Charge (a.u.)    Spin (a.u.)
  --------------------------------------------------------
      1 H                     0.173524      -0.018110
      2 C                    -0.374609       0.939160
      3 H                     0.186293      -0.017102
      4 O                    -0.324808       0.099420
      5 H                     0.339600      -0.003367
  --------------------------------------------------------
  Sum of atomic charges =     0.000000
  Sum of spin   charges =     1.000000

 -----------------------------------------------------------------
                    Cartesian Multipole Moments
 -----------------------------------------------------------------
    Charge (ESU x 10^10)
                -0.0000
    Dipole Moment (Debye)
         X      -0.0863      Y       1.1100      Z       1.7125
       Tot       2.0426
    Quadrupole Moments (Debye-Ang)
        XX     -15.0236     XY      -0.3514     YY     -11.7537
        XZ      -1.4833     YZ      -0.2511     ZZ     -12.0022
    Octopole Moments (Debye-Ang^2)
       XXX      23.7946    XXY     -14.5813    XYY       5.7756
       YYY     -33.1794    XXZ      15.1989    XYZ      -0.8141
       YYZ      11.8453    XZZ       7.6580    YZZ     -10.3121
       ZZZ      31.7430
    Hexadecapole Moments (Debye-Ang^3)
      XXXX     -46.2541   XXXY      27.4597   XXYY     -29.8974
      XYYY      18.6171   YYYY    -108.9736   XXXZ     -24.8667
      XXYZ      17.6589   XYYZ      -7.3119   YYYZ      40.9947
      XXZZ     -26.8466   XYZZ       8.4070   YYZZ     -33.9626
      XZZZ     -20.8967   YZZZ      34.8364   ZZZZ     -82.3299
 -----------------------------------------------------------------
 Calculating analytic gradient of the SCF energy
 Gradient of CDS energy
            1           2           3           4           5
    1  -0.0000267   0.0011790   0.0000201  -0.0012370   0.0000645
    2  -0.0000053  -0.0046537  -0.0001720   0.0051488  -0.0003179
    3   0.0001187   0.0017267   0.0000964  -0.0023370   0.0003953
 Gradient of SCF Energy
            1           2           3           4           5
    1   0.0001094   0.0001245  -0.0006256   0.0028976  -0.0025059
    2   0.0011331  -0.0056345   0.0044065  -0.0029462   0.0030411
    3  -0.0012814  -0.0026499   0.0048515  -0.0159018   0.0149817
 Max gradient component =       1.590E-02
 RMS gradient           =       6.298E-03
 Computing fast CPCM-SWIG gradient
 Updating gradient with PCM contributions...
 -- total gradient after adding PCM contribution --
---------------------------------------------------
  Atom         X              Y              Z     
---------------------------------------------------
   1      -0.000027      -0.000031      -0.000008
   2       0.000029      -0.000130       0.000076
   3      -0.000039      -0.000001       0.000003
   4       0.000033       0.000187      -0.000078
   5       0.000004      -0.000024       0.000008
---------------------------------------------------
 Number of fixed atoms: 0
 Gradient time:  CPU 8.82 s  wall 1.12 s
 Geometry Optimization Parameters
   NAtoms,    NIC,     NZ,  NCons,   NDum,   NFix, NCnnct, MaxDiis
        5      20       0       0       0       0       0       0

 Cartesian Hessian Update
 Hessian updated using BFGS update


** GEOMETRY OPTIMIZATION IN DELOCALIZED INTERNAL COORDINATES **
   Searching for a Minimum

   Optimization Cycle:   5

                       Coordinates (Angstroms)
     ATOM                X               Y               Z
      1  H        -0.3964815068    1.4800379036   -2.2254305928
      2  C        -0.6331191723    1.4333244545   -1.1754417436
      3  H        -0.7381870115    2.3047697619   -0.5484881414
      4  O        -0.3503566268    0.2302086403   -0.5841401665
      5  H        -0.5026045826    0.2980717397    0.3651408443
   Point Group: c1    Number of degrees of freedom:     9


   Energy is   -115.055708126

 Hessian updated using BFGS update

  9 Hessian modes will be used to form the next step
  Hessian Eigenvalues:
     0.007404    0.031401    0.153434    0.159612    0.181885    0.354125
     0.363227    0.482699    0.568764

 Minimum search - taking simple RFO step
 Searching for Lamda that Minimizes Along All modes
 Value Taken    Lamda =  -0.00000027
 Step Taken.  Stepsize is  0.004546

                             Maximum     Tolerance    Cnvgd?
         Gradient           0.000120      0.000300     YES
         Displacement       0.003396      0.001200      NO
         Energy change     -0.000002      0.000001      NO


 New Cartesian Coordinates Obtained by Inverse Iteration

 Displacement from previous Coordinates is:  0.003175
 ----------------------------------------------------------------
             Standard Nuclear Orientation (Angstroms)
    I     Atom           X                Y                Z
 ----------------------------------------------------------------
    1      H      -0.3959918647     1.4802768540    -2.2254405216
    2      C      -0.6330789464     1.4333386587    -1.1755726010
    3      H      -0.7385317946     2.3045390246    -0.5483952914
    4      O      -0.3514039547     0.2297209348    -0.5842410638
    5      H      -0.5017423395     0.2985370278     0.3652896777
 ----------------------------------------------------------------
 Nuclear Repulsion Energy =          35.23454676 hartrees
 There are        9 alpha and        8 beta electrons
 Discretize the solute cavity surface with Lebedev spheres
	Using 110 Lebedev grid points for each H atom
	Using 194 Lebedev grid points for other atoms
	Atomic van der Waals radii will be scaled by 1.20
 Remove points where switching function is < 1.0e-08
 Keep 434 surface tesserae and discard 284 interior tesserae
 Molecular Surface Area = 57.872 Angst**2
 Applying Cartesian multipole field
    Component          Value
    ---------          -----
     (2,0,0)        1.00000E-11
     (0,2,0)        2.00000E-11
     (0,0,2)       -3.00000E-11
 Nucleus-field energy     =    -0.0000000002 hartrees
 Requested basis set is 6-311++G(2df,2p)
 There are 34 shells and 98 basis functions
 A cutoff of  1.0D-12 yielded    595 shell pairs
 There are      4999 function pairs (      6102 Cartesian)
 Smallest overlap matrix eigenvalue = 1.28E-03
 Guess MOs from SCF MO coefficient file

 -----------------------------------------------------------------------
  General SCF calculation program by
  Eric Jon Sundstrom, Paul Horn, Yuezhi Mao, Dmitri Zuev, Alec White,
  David Stuck, Shaama M.S., Shane Yost, Joonho Lee, David Small,
  Daniel Levine, Susi Lehtola, Hugh Burton, Evgeny Epifanovsky,
  Bang C. Huynh
 -----------------------------------------------------------------------
 Exchange:     0.1500 Hartree-Fock + 1.0000 wB97M-V + LR-HF
 Correlation:  1.0000 wB97M-V
 Using SG-2 standard quadrature grid
 Nonlocal Correlation:  VV10 with C = 0.0100 and b = 6.00 and scale = 1.00000
 Grid used for NLC:  SG-1 standard quadrature
 
 Citation of the SMD model:
 Marenich, A.V.; Cramer, C.J.; Truhlar, D.G.
 J. Phys. Chem. B 2009, 113, 6378-6396.
 iSolventCode=           1
 Solvent: water                                                           
 
 vradii
            1           2           3           4           5
    1   1.2000000   1.8500000   1.2000000   1.5200000   1.2000000
 -------------------------------------------------------
 OpenMP BLAS3 based DFT computing Module                
 Release: version 1.0, May 2013, Q-Chem Inc. Pittsburgh 
 -------------------------------------------------------
 A unrestricted SCF calculation will be
 performed using Roothaan-Hall, DIIS, GDM
 SCF converges when RMS gradient is below 1.0e-07
 ---------------------------------------
  Cycle       Energy         DIIS error
 ---------------------------------------
    1    -115.0487583954      4.82e-04  Roothaan Step
 ---------------------------------------
  Cycle       Energy         DIIS error
 ---------------------------------------
    1    -115.0598864968      5.18e-04  
    2    -115.0613355748      3.69e-04  Done DIIS. Switching to GDM
 ---------------------------------------
  Cycle       Energy        RMS Gradient
 ---------------------------------------
    1    -115.0613355748      7.90e-03   Normal BFGS step
    2    -115.0613643449      9.08e-03   Normal BFGS step
    3    -115.0617905843      6.87e-04   Normal BFGS step
    4    -115.0617949138      4.67e-04   Normal BFGS step
    5    -115.0617959538      8.45e-05   Normal BFGS step
    6    -115.0617959909      4.66e-05   Normal BFGS step
    7    -115.0617959976      1.98e-05   Normal BFGS step
    8    -115.0617959987      4.30e-06   Normal BFGS step
    9    -115.0617959988      9.36e-07   Normal BFGS step
   10    -115.0617959988      3.39e-07   Normal BFGS step
   11    -115.0617959988      1.45e-07   Normal BFGS step
   12    -115.0617959988      2.99e-08  Convergence criterion met
 ---------------------------------------
 SCF time:   CPU 56.05s  wall 8.00s 
<S^2> =          0.753112616
(3)  G-ENP(liq) elect-nuc-pol free energy of system     -115.061795999 a.u.
(4)  G-CDS(liq) cavity-dispersion-solvent structure 
     free energy                                                3.8201 kcal/mol
(6)  G-S(liq) free energy of system                     -115.055708281 a.u.
 SCF   energy in the final basis set =     -115.0557082814
 Total energy in the final basis set =     -115.0557082814
 
 --------------------------------------------------------------
 
                    Orbital Energies (a.u.)
 --------------------------------------------------------------
 
 Alpha MOs
 -- Occupied --
-19.3667 -10.3803  -1.1859  -0.7859  -0.6372  -0.5610  -0.5119  -0.4663
 -0.2698
 -- Virtual --
  0.0308   0.0495   0.0608   0.1006   0.1086   0.1457   0.1558   0.2120
  0.2361   0.2498   0.2561   0.2761   0.3015   0.3378   0.3867   0.5260
  0.5534   0.5827   0.6052   0.6316   0.6475   0.6702   0.7725   0.7966
  0.8309   0.8826   0.9630   1.0429   1.0567   1.0720   1.1285   1.1502
  1.2250   1.2593   1.3432   1.4233   1.4897   1.5193   1.5529   1.6439
  1.9000   1.9202   2.1627   2.2871   2.3336   2.4560   2.5507   2.7610
  2.8069   2.9370   3.0112   3.0800   3.1271   3.2178   3.2480   3.2906
  3.3341   3.4106   3.4352   3.5999   3.7545   3.8328   3.8783   3.8945
  4.0790   4.1555   4.2034   4.2204   4.3243   4.6477   5.1434   5.1951
  5.2376   5.2744   5.4059   5.5584   5.6506   5.7069   5.8492   6.1572
  6.6415   7.0259   7.2178   7.2854   7.3024   7.5931   7.7079  24.6745
 50.5321
 
 Beta MOs
 -- Occupied --
-19.3616 -10.3679  -1.1742  -0.7597  -0.6253  -0.5491  -0.4706  -0.4566
 -- Virtual --
  0.0294   0.0351   0.0486   0.0599   0.1070   0.1218   0.1444   0.1506
  0.2171   0.2389   0.2535   0.2583   0.2815   0.3028   0.3477   0.3937
  0.5414   0.5579   0.5887   0.6369   0.6481   0.6622   0.6861   0.7884
  0.8100   0.8506   0.8902   0.9669   1.0518   1.0630   1.0808   1.1396
  1.1548   1.2374   1.2717   1.3500   1.4327   1.4963   1.5372   1.5706
  1.6574   1.9130   1.9359   2.1698   2.2933   2.3496   2.4799   2.5875
  2.7779   2.8937   3.0019   3.0824   3.1345   3.1868   3.2665   3.3003
  3.3496   3.3765   3.4707   3.4958   3.6541   3.7614   3.8535   3.9108
  3.9266   4.0917   4.1797   4.2410   4.2619   4.3399   4.6736   5.1723
  5.2519   5.2599   5.3000   5.4187   5.6163   5.6730   5.7390   5.8697
  6.1692   6.6544   7.0490   7.2392   7.2963   7.3200   7.6055   7.7147
 24.6871  50.5365
 --------------------------------------------------------------
 
          Ground-State Mulliken Net Atomic Charges

     Atom                 Charge (a.u.)    Spin (a.u.)
  --------------------------------------------------------
      1 H                     0.173561      -0.018106
      2 C                    -0.374581       0.939235
      3 H                     0.186386      -0.017136
      4 O                    -0.324929       0.099364
      5 H                     0.339563      -0.003356
  --------------------------------------------------------
  Sum of atomic charges =    -0.000000
  Sum of spin   charges =     1.000000

 -----------------------------------------------------------------
                    Cartesian Multipole Moments
 -----------------------------------------------------------------
    Charge (ESU x 10^10)
                -0.0000
    Dipole Moment (Debye)
         X      -0.0825      Y       1.1128      Z       1.7127
       Tot       2.0442
    Quadrupole Moments (Debye-Ang)
        XX     -15.0263     XY      -0.3530     YY     -11.7517
        XZ      -1.4835     YZ      -0.2517     ZZ     -12.0012
    Octopole Moments (Debye-Ang^2)
       XXX      23.8103    XXY     -14.5765    XYY       5.7781
       YYY     -33.1686    XXZ      15.1999    XYZ      -0.8146
       YYZ      11.8450    XZZ       7.6653    YZZ     -10.3070
       ZZZ      31.7447
    Hexadecapole Moments (Debye-Ang^3)
      XXXX     -46.2695   XXXY      27.4537   XXYY     -29.8964
      XYYY      18.6121   YYYY    -108.9590   XXXZ     -24.8738
      XXYZ      17.6593   XYYZ      -7.3175   YYYZ      40.9895
      XXZZ     -26.8547   XYZZ       8.4107   YYZZ     -33.9581
      XZZZ     -20.9116   YZZZ      34.8307   ZZZZ     -82.3390
 -----------------------------------------------------------------
 Calculating analytic gradient of the SCF energy
 Gradient of CDS energy
            1           2           3           4           5
    1  -0.0000268   0.0011757   0.0000203  -0.0012337   0.0000644
    2  -0.0000053  -0.0046628  -0.0001724   0.0051584  -0.0003179
    3   0.0001187   0.0017293   0.0000968  -0.0023403   0.0003955
 Gradient of SCF Energy
            1           2           3           4           5
    1   0.0001187   0.0001085  -0.0006378   0.0028678  -0.0024572
    2   0.0011534  -0.0055128   0.0044010  -0.0031245   0.0030830
    3  -0.0012830  -0.0027173   0.0048542  -0.0158519   0.0149981
 Max gradient component =       1.585E-02
 RMS gradient           =       6.292E-03
 Computing fast CPCM-SWIG gradient
 Updating gradient with PCM contributions...
 -- total gradient after adding PCM contribution --
---------------------------------------------------
  Atom         X              Y              Z     
---------------------------------------------------
   1      -0.000019      -0.000012      -0.000006
   2       0.000006      -0.000004       0.000010
   3      -0.000050      -0.000011      -0.000001
   4       0.000040       0.000026      -0.000024
   5       0.000022       0.000001       0.000022
---------------------------------------------------
 Number of fixed atoms: 0
 Gradient time:  CPU 8.98 s  wall 1.14 s
 Geometry Optimization Parameters
   NAtoms,    NIC,     NZ,  NCons,   NDum,   NFix, NCnnct, MaxDiis
        5      20       0       0       0       0       0       0

 Cartesian Hessian Update
 Hessian updated using BFGS update


** GEOMETRY OPTIMIZATION IN DELOCALIZED INTERNAL COORDINATES **
   Searching for a Minimum

   Optimization Cycle:   6

                       Coordinates (Angstroms)
     ATOM                X               Y               Z
      1  H        -0.3959918647    1.4802768540   -2.2254405216
      2  C        -0.6330789464    1.4333386587   -1.1755726010
      3  H        -0.7385317946    2.3045390246   -0.5483952914
      4  O        -0.3514039547    0.2297209348   -0.5842410638
      5  H        -0.5017423395    0.2985370278    0.3652896777
   Point Group: c1    Number of degrees of freedom:     9


   Energy is   -115.055708281

 Hessian updated using BFGS update

  9 Hessian modes will be used to form the next step
  Hessian Eigenvalues:
     0.007305    0.027069    0.151193    0.158670    0.182304    0.354156
     0.363214    0.485271    0.564785

 Minimum search - taking simple RFO step
 Searching for Lamda that Minimizes Along All modes
 Value Taken    Lamda =  -0.00000002
 Step Taken.  Stepsize is  0.001043

                             Maximum     Tolerance    Cnvgd?
         Gradient           0.000025      0.000300     YES
         Displacement       0.000781      0.001200     YES
         Energy change     -0.000000      0.000001     YES


                       Distance Matrix (Angstroms)
             H (  1)   C (  2)   H (  3)   O (  4)
   C (  2)  1.077328
   H (  3)  1.899795  1.078639
   O (  4)  2.063835  1.370295  2.110929
   H (  5)  2.849487  1.918145  2.216965  0.963818
 
 Final energy is   -115.055708281353     


 ******************************
 **  OPTIMIZATION CONVERGED  **
 ******************************

                       Coordinates (Angstroms)
     ATOM                X               Y               Z
      1  H        -0.3959918647    1.4802768540   -2.2254405216
      2  C        -0.6330789464    1.4333386587   -1.1755726010
      3  H        -0.7385317946    2.3045390246   -0.5483952914
      4  O        -0.3514039547    0.2297209348   -0.5842410638
      5  H        -0.5017423395    0.2985370278    0.3652896777

Z-matrix Print:
$molecule
0 2
O 
H  1 0.963818
C  1 1.370295 2 109.290670
H  3 1.077328 1 114.429217 2 174.004622 0
H  3 1.078639 1 118.595301 2 14.068619 0
$end

 
 --------------------------------------------------------------
 
                    Orbital Energies (a.u.)
 --------------------------------------------------------------
 
 Alpha MOs
 -- Occupied --
-19.3667 -10.3803  -1.1859  -0.7859  -0.6372  -0.5610  -0.5119  -0.4663
 -0.2698
 -- Virtual --
  0.0308   0.0495   0.0608   0.1006   0.1086   0.1457   0.1558   0.2120
  0.2361   0.2498   0.2561   0.2761   0.3015   0.3378   0.3867   0.5260
  0.5534   0.5827   0.6052   0.6316   0.6475   0.6702   0.7725   0.7966
  0.8309   0.8826   0.9630   1.0429   1.0567   1.0720   1.1285   1.1502
  1.2250   1.2593   1.3432   1.4233   1.4897   1.5193   1.5529   1.6439
  1.9000   1.9202   2.1627   2.2871   2.3336   2.4560   2.5507   2.7610
  2.8069   2.9370   3.0112   3.0800   3.1271   3.2178   3.2480   3.2906
  3.3341   3.4106   3.4352   3.5999   3.7545   3.8328   3.8783   3.8945
  4.0790   4.1555   4.2034   4.2204   4.3243   4.6477   5.1434   5.1951
  5.2376   5.2744   5.4059   5.5584   5.6506   5.7069   5.8492   6.1572
  6.6415   7.0259   7.2178   7.2854   7.3024   7.5931   7.7079  24.6745
 50.5321
 
 Beta MOs
 -- Occupied --
-19.3616 -10.3679  -1.1742  -0.7597  -0.6253  -0.5491  -0.4706  -0.4566
 -- Virtual --
  0.0294   0.0351   0.0486   0.0599   0.1070   0.1218   0.1444   0.1506
  0.2171   0.2389   0.2535   0.2583   0.2815   0.3028   0.3477   0.3937
  0.5414   0.5579   0.5887   0.6369   0.6481   0.6622   0.6861   0.7884
  0.8100   0.8506   0.8902   0.9669   1.0518   1.0630   1.0808   1.1396
  1.1548   1.2374   1.2717   1.3500   1.4327   1.4963   1.5372   1.5706
  1.6574   1.9130   1.9359   2.1698   2.2933   2.3496   2.4799   2.5875
  2.7779   2.8937   3.0019   3.0824   3.1345   3.1868   3.2665   3.3003
  3.3496   3.3765   3.4707   3.4958   3.6541   3.7614   3.8535   3.9108
  3.9266   4.0917   4.1797   4.2410   4.2619   4.3399   4.6736   5.1723
  5.2519   5.2599   5.3000   5.4187   5.6163   5.6730   5.7390   5.8697
  6.1692   6.6544   7.0490   7.2392   7.2963   7.3200   7.6055   7.7147
 24.6871  50.5365
 --------------------------------------------------------------
 
          Ground-State Mulliken Net Atomic Charges

     Atom                 Charge (a.u.)    Spin (a.u.)
  --------------------------------------------------------
      1 H                     0.173561      -0.018106
      2 C                    -0.374581       0.939235
      3 H                     0.186386      -0.017136
      4 O                    -0.324929       0.099364
      5 H                     0.339563      -0.003356
  --------------------------------------------------------
  Sum of atomic charges =    -0.000000
  Sum of spin   charges =     1.000000

 -----------------------------------------------------------------
                    Cartesian Multipole Moments
 -----------------------------------------------------------------
    Charge (ESU x 10^10)
                -0.0000
    Dipole Moment (Debye)
         X      -0.0825      Y       1.1128      Z       1.7127
       Tot       2.0442
    Quadrupole Moments (Debye-Ang)
        XX     -15.0263     XY      -0.3530     YY     -11.7517
        XZ      -1.4835     YZ      -0.2517     ZZ     -12.0012
    Octopole Moments (Debye-Ang^2)
       XXX      23.8103    XXY     -14.5765    XYY       5.7781
       YYY     -33.1686    XXZ      15.1999    XYZ      -0.8146
       YYZ      11.8450    XZZ       7.6653    YZZ     -10.3070
       ZZZ      31.7447
    Hexadecapole Moments (Debye-Ang^3)
      XXXX     -46.2695   XXXY      27.4537   XXYY     -29.8964
      XYYY      18.6121   YYYY    -108.9590   XXXZ     -24.8738
      XXYZ      17.6593   XYYZ      -7.3175   YYYZ      40.9895
      XXZZ     -26.8547   XYZZ       8.4107   YYZZ     -33.9581
      XZZZ     -20.9116   YZZZ      34.8307   ZZZZ     -82.3390
 -----------------------------------------------------------------
 Total job time:  54.36s(wall), 416.31s(cpu) 
 Sat Mar 25 02:49:20 2023

        *************************************************************
        *                                                           *
        *  Thank you very much for using Q-Chem.  Have a nice day.  *
        *                                                           *
        *************************************************************


