
Running Job 1 of 2 Q_in.in
qchem Q_in.in_447287.0 /scratch/ari.fischer/qChem2075278.hpc-mn1/qchem447287/ 0
/usr/local/qchem-5.4.1/exe/qcprog.exe_s Q_in.in_447287.0 /scratch/ari.fischer/qChem2075278.hpc-mn1/qchem447287/
                  Welcome to Q-Chem
     A Quantum Leap Into The Future Of Chemistry


 Q-Chem 5.4, Q-Chem, Inc., Pleasanton, CA (2021)

 License issued to: Nanyang Technological University (site)

 E. Epifanovsky,  A. T. B. Gilbert,  Xintian Feng,  Joonho Lee,  Yuezhi Mao,  
 N. Mardirossian,  P. Pokhilko,  A. White,  M. Wormit,  M. P. Coons,  
 A. L. Dempwolff,  Zhengting Gan,  D. Hait,  P. R. Horn,  L. D. Jacobson,  
 I. Kaliman,  J. Kussmann,  A. W. Lange,  Ka Un Lao,  D. S. Levine,  Jie Liu,  
 S. C. McKenzie,  A. F. Morrison,  K. Nanda,  F. Plasser,  D. R. Rehn,  
 M. L. Vidal,  Zhi-Qiang You,  Ying Zhu,  B. Alam,  B. Albrecht,  
 A. Aldossary,  E. Alguire,  J. H. Andersen,  D. Barton,  K. Begam,  A. Behn,  
 Y. A. Bernard,  E. J. Berquist,  H. Burton,  A. Carreras,  K. Carter-Fenk,  
 R. Chakraborty,  A. D. Chien,  K. D. Closser,  V. Cofer-Shabica,  
 S. Dasgupta,  Jia Deng,  M. de Wergifosse,  M. Diedenhofen,  Hainam Do,  
 S. Ehlert,  Po-Tung Fang,  S. Fatehi,  Qingguo Feng,  T. Friedhoff,  
 J. Gayvert,  Qinghui Ge,  G. Gidofalvi,  M. Goldey,  J. Gomes,  
 C. Gonzalez-Espinoza,  S. Gulania,  A. Gunina,  M. W. D. Hanson-Heine,  
 P. H. P. Harbach,  A. W. Hauser,  M. F. Herbst,  M. Hernandez Vera,  
 M. Hodecker,  Z. C. Holden,  S. Houck,  Xunkun Huang,  Kerwin Hui,  
 B. C. Huynh,  M. Ivanov,  Hyunjun Ji,  Hanjie Jiang,  B. Kaduk,  S. Kaehler,  
 K. Khistyaev,  Jaehoon Kim,  P. Klunzinger,  Z. Koczor-Benda,  
 Joong Hoon Koh,  D. Kosenkov,  L. Koulias,  T. Kowalczyk,  C. M. Krauter,  
 K. Kue,  A. Kunitsa,  T. Kus,  A. Landau,  K. V. Lawler,  D. Lefrancois,  
 S. Lehtola,  Rain Li,  Yi-Pei Li,  Jiashu Liang,  M. Liebenthal,  
 Hung-Hsuan Lin,  You-Sheng Lin,  Fenglai Liu,  Kuan-Yu Liu,  
 M. Loipersberger,  A. Luenser,  A. Manjanath,  P. Manohar,  E. Mansoor,  
 S. F. Manzer,  Shan-Ping Mao,  A. V. Marenich,  T. Markovich,  S. Mason,  
 S. A. Maurer,  P. F. McLaughlin,  M. F. S. J. Menger,  J.-M. Mewes,  
 S. A. Mewes,  P. Morgante,  J. W. Mullinax,  K. J. Oosterbaan,  G. Paran,  
 Alexander C. Paul,  Suranjan K. Paul,  F. Pavosevic,  Zheng Pei,  S. Prager,  
 E. I. Proynov,  E. Ramos,  B. Rana,  A. E. Rask,  A. Rettig,  R. M. Richard,  
 F. Rob,  E. Rossomme,  T. Scheele,  M. Scheurer,  M. Schneider,  
 N. Sergueev,  S. M. Sharada,  W. Skomorowski,  D. W. Small,  C. J. Stein,  
 Yu-Chuan Su,  E. J. Sundstrom,  Zhen Tao,  J. Thirman,  T. Tsuchimochi,  
 N. M. Tubman,  S. P. Veccham,  O. Vydrov,  J. Wenzel,  J. Witte,  A. Yamada,  
 Kun Yao,  S. Yeganeh,  S. R. Yost,  A. Zech,  Igor Ying Zhang,  Xing Zhang,  
 Yu Zhang,  D. Zuev,  A. Aspuru-Guzik,  A. T. Bell,  N. A. Besley,  
 K. B. Bravaya,  B. R. Brooks,  D. Casanova,  Jeng-Da Chai,  S. Coriani,  
 C. J. Cramer,  A. E. DePrince, III,  R. A. DiStasio Jr.,  A. Dreuw,  
 B. D. Dunietz,  T. R. Furlani,  W. A. Goddard III,  S. Grimme,  
 S. Hammes-Schiffer,  T. Head-Gordon,  W. J. Hehre,  Chao-Ping Hsu,  
 T.-C. Jagau,  Yousung Jung,  A. Klamt,  Jing Kong,  D. S. Lambrecht,  
 WanZhen Liang,  N. J. Mayhall,  C. W. McCurdy,  J. B. Neaton,  
 C. Ochsenfeld,  J. A. Parkhill,  R. Peverati,  V. A. Rassolov,  Yihan Shao,  
 L. V. Slipchenko,  T. Stauch,  R. P. Steele,  J. E. Subotnik,  
 A. J. W. Thom,  A. Tkatchenko,  D. G. Truhlar,  T. Van Voorhis,  
 T. A. Wesolowski,  K. B. Whaley,  H. L. Woodcock III,  P. M. Zimmerman,  
 S. Faraji,  P. M. W. Gill,  M. Head-Gordon,  J. M. Herbert,  A. I. Krylov

 Additional authors for Version 5.4.1: 
 S. Kotaru,  Shaozhi Li,  Xiangyuan Li,  F. Matz,  A. Molle,  Haisheng Ren,  
 Yingli Su,  Hung-Yi Tsai,  C. Utku,  Fang Wang

 Contributors to earlier versions of Q-Chem not listed above: 
 R. D. Adamson,  B. Austin,  R. Baer,  J. Baker,  G. J. O. Beran,  
 K. Brandhorst,  S. T. Brown,  E. F. C. Byrd,  A. K. Chakraborty,  
 G. K. L. Chan,  Chun-Min Chang,  Yunqing Chen,  C.-L. Cheng,  
 Siu Hung Chien,  D. M. Chipman,  D. L. Crittenden,  H. Dachsel,  
 R. J. Doerksen,  A. D. Dutoi,  R. G. Edgar,  J. Fosso-Tande,  
 L. Fusti-Molnar,  D. Ghosh,  A. Ghysels,  A. Golubeva-Zadorozhnaya,  
 J. Gonthier,  M. S. Gordon,  S. R. Gwaltney,  G. Hawkins,  J. E. Herr,  
 A. Heyden,  S. Hirata,  E. G. Hohenstein,  G. Kedziora,  F. J. Keil,  
 C. Kelley,  Jihan Kim,  R. A. King,  R. Z. Khaliullin,  P. P. Korambath,  
 W. Kurlancheek,  A. Laurent,  A. M. Lee,  M. S. Lee,  S. V. Levchenko,  
 Ching Yeh Lin,  D. Liotard,  E. Livshits,  R. C. Lochan,  I. Lotan,  
 L. A. Martinez-Martinez,  P. E. Maslen,  N. Nair,  D. P. O'Neill,  
 D. Neuhauser,  E. Neuscamman,  C. M. Oana,  R. Olivares-Amaya,  R. Olson,  
 T. M. Perrine,  B. Peters,  P. A. Pieniazek,  A. Prociuk,  Y. M. Rhee,  
 J. Ritchie,  M. A. Rohrdanz,  E. Rosta,  N. J. Russ,  H. F. Schaefer III,  
 M. W. Schmidt,  N. E. Schultz,  S. Sharma,  N. Shenvi,  C. D. Sherrill,  
 A. C. Simmonett,  A. Sodt,  T. Stein,  D. Stuck,  K. S. Thanthiriwatte,  
 V. Vanovschi,  L. Vogt,  Tao Wang,  A. Warshel,  M. A. Watson,  
 C. F. Williams,  Q. Wu,  X. Xu,  Jun Yang,  W. Zhang,  Yan Zhao

 Please cite Q-Chem as follows:
 Y. Shao et al., Mol. Phys. 113, 184-215 (2015)
 DOI: 10.1080/00268976.2014.952696

 Q-Chem 5.4.1 for Intel X86 EM64T Linux

 Parts of Q-Chem use Armadillo 9.800.1 (Horizon Scraper).
 http://arma.sourceforge.net/

 Q-Chem begins on Thu Apr 25 13:35:58 2024  

 Host: 
0

     Scratch files written to /scratch/ari.fischer/qChem2075278.hpc-mn1/qchem447287//
 Aug1521 |scratch|qcdevops|jenkins|workspace|build_RNUM 8249   
 Processing $rem in /usr/local/qchem-5.4.1/config/preferences:
 Processing $rem in /home/ari.fischer/.qchemrc:
 Symmetry turned off for PCM/SM12/SMD calculation


!!********************************************.
!!******************Warning*******************.
!!Desired Analytical derivatives not available.
!!Finite difference job might take a long time.
!!********************************************.
!!********************************************.


 2-order derivative to be evaluated numerically with 1-order analytical derivatives

 Checking the input file for inconsistencies... 	...done.

--------------------------------------------------------------
User input:
--------------------------------------------------------------
$molecule
0 2
C        -1.1842358552    0.2177847230    0.8498135652
O        -1.4599085590    1.1580347255   -0.2102182900
O        -0.1549760569    1.6715134026   -0.6417252546
C         0.0146547178    0.8659133810    1.5259816276
O        -0.3246038574    2.0489689200    2.2167165251
C         0.8192277483    1.1311857166    0.2640519542
C         1.3715963692   -0.1647052023   -0.3197902282
O         1.8440613917   -1.0779311981    0.6238431996
C         0.3623859534   -1.2483944255   -0.4161622367
C        -0.8401078891   -1.1078443891    0.2405291943
H        -2.0772629875    0.1997492249    1.4671191791
H         0.5194358042    0.2050902616    2.2190132942
H        -0.7870798579    2.6418973218    1.6116818853
H         1.5822216222    1.8948570134    0.3949509249
H         2.0111201184   -0.0163349833   -1.1869240021
H         0.5873555261   -2.1066877796   -1.0271664362
H        -1.5853735883   -1.8889600122    0.2063345983
$end

$rem
BASIS = 6-311++G(2df,2p)
GUI = 2
JOB_TYPE = Frequency
METHOD = wB97M-V
SOLVENT_METHOD = SMD
SCF_ALGORITHM = DIIS_GDM
MAX_SCF_CYCLES = 400
SCF_CONVERGENCE = 7
THRESH = 12
$end

--------------------------------------------------------------
 ----------------------------------------------------------------
             Standard Nuclear Orientation (Angstroms)
    I     Atom           X                Y                Z
 ----------------------------------------------------------------
    1      C      -1.1842358552     0.2177847230     0.8498135652
    2      O      -1.4599085590     1.1580347255    -0.2102182900
    3      O      -0.1549760569     1.6715134026    -0.6417252546
    4      C       0.0146547178     0.8659133810     1.5259816276
    5      O      -0.3246038574     2.0489689200     2.2167165251
    6      C       0.8192277483     1.1311857166     0.2640519542
    7      C       1.3715963692    -0.1647052023    -0.3197902282
    8      O       1.8440613917    -1.0779311981     0.6238431996
    9      C       0.3623859534    -1.2483944255    -0.4161622367
   10      C      -0.8401078891    -1.1078443891     0.2405291943
   11      H      -2.0772629875     0.1997492249     1.4671191791
   12      H       0.5194358042     0.2050902616     2.2190132942
   13      H      -0.7870798579     2.6418973218     1.6116818853
   14      H       1.5822216222     1.8948570134     0.3949509249
   15      H       2.0111201184    -0.0163349833    -1.1869240021
   16      H       0.5873555261    -2.1066877796    -1.0271664362
   17      H      -1.5853735883    -1.8889600122     0.2063345983
 ----------------------------------------------------------------
 Nuclear Repulsion Energy =         580.73814342 hartrees
 There are       38 alpha and       37 beta electrons
 Requested basis set is 6-311++G(2df,2p)
 There are 122 shells and 410 basis functions

 Total QAlloc Memory Limit 288000 MB
 Mega-Array Size       188 MB
 MEM_STATIC part       192 MB
 
 Citation of the SMD model:
 Marenich, A.V.; Cramer, C.J.; Truhlar, D.G.
 J. Phys. Chem. B 2009, 113, 6378-6396.
 iSolventCode=           1
 Solvent: water                                                           
 
 vradii
            1           2           3           4           5           6
    1   1.8500000   1.5200000   1.5200000   1.8500000   1.5200000   1.8500000
            7           8           9          10          11          12
    1   1.8500000   1.5200000   1.8500000   1.8500000   1.2000000   1.2000000
           13          14          15          16          17
    1   1.2000000   1.2000000   1.2000000   1.2000000   1.2000000
 Changing PCM_VDW_RADII to SMD_RADIUS
 Discretize the solute cavity surface with Lebedev spheres
	Using 110 Lebedev grid points for each H atom
	Using 194 Lebedev grid points for other atoms
	Atomic van der Waals radii will be scaled by 1.20
 Remove points where switching function is < 1.0e-08
 Keep 1237 surface tesserae and discard 1473 interior tesserae
 Molecular Surface Area = 141.389 Angst**2
 A cutoff of  1.0D-12 yielded   7008 shell pairs
 There are     80093 function pairs (    100858 Cartesian)
 Smallest overlap matrix eigenvalue = 4.92E-06
 Guess from superposition of atomic densities
 Warning:  Energy on first SCF cycle will be non-variational
 SAD guess density has 75.000000 electrons

 -----------------------------------------------------------------------
  General SCF calculation program by
  Eric Jon Sundstrom, Paul Horn, Yuezhi Mao, Dmitri Zuev, Alec White,
  David Stuck, Shaama M.S., Shane Yost, Joonho Lee, David Small,
  Daniel Levine, Susi Lehtola, Hugh Burton, Evgeny Epifanovsky,
  Bang C. Huynh
 -----------------------------------------------------------------------
 Exchange:     0.1500 Hartree-Fock + 1.0000 wB97M-V + LR-HF
 Correlation:  1.0000 wB97M-V
 Using SG-2 standard quadrature grid
 Nonlocal Correlation:  VV10 with C = 0.0100 and b = 6.00 and scale = 1.00000
 Grid used for NLC:  SG-1 standard quadrature
 using 16 threads for integral computing
 -------------------------------------------------------
 OpenMP Integral computing Module                
 Release: version 1.0, May 2013, Q-Chem Inc. Pittsburgh 
 -------------------------------------------------------
 
 Citation of the SMD model:
 Marenich, A.V.; Cramer, C.J.; Truhlar, D.G.
 J. Phys. Chem. B 2009, 113, 6378-6396.
 iSolventCode=           1
 Solvent: water                                                           
 
 vradii
            1           2           3           4           5           6
    1   1.8500000   1.5200000   1.5200000   1.8500000   1.5200000   1.8500000
            7           8           9          10          11          12
    1   1.8500000   1.5200000   1.8500000   1.8500000   1.2000000   1.2000000
           13          14          15          16          17
    1   1.2000000   1.2000000   1.2000000   1.2000000   1.2000000
 -------------------------------------------------------
 OpenMP BLAS3 based DFT computing Module                
 Release: version 1.0, May 2013, Q-Chem Inc. Pittsburgh 
 -------------------------------------------------------
 A unrestricted SCF calculation will be
 performed using DIIS, GDM
 SCF converges when RMS gradient is below 1.0e-07
 ---------------------------------------
  Cycle       Energy         DIIS error
 ---------------------------------------
    1    -536.3093151934      1.25e-02  
    2    -533.4461488345      1.25e-03  Done DIIS. Switching to GDM
 ---------------------------------------
  Cycle       Energy        RMS Gradient
 ---------------------------------------
    1    -533.4461488345      1.42e-01   Descent step
    2    -533.5421341911      3.33e-02   Normal BFGS step
    3    -533.5604401802      2.02e-02   Normal BFGS step
    4    -533.5634284050      1.30e-02   Normal BFGS step
    5    -533.5646046876      7.12e-03   Normal BFGS step
    6    -533.5649545087      3.32e-03   Normal BFGS step
    7    -533.5650437759      1.72e-03   Normal BFGS step
    8    -533.5650656959      1.34e-03   Normal BFGS step
    9    -533.5650746028      6.28e-04   Normal BFGS step
   10    -533.5650773999      2.63e-04   Normal BFGS step
   11    -533.5650780405      1.20e-04   Normal BFGS step
   12    -533.5650782317      5.64e-05   Normal BFGS step
   13    -533.5650782671      3.55e-05   Normal BFGS step
   14    -533.5650782767      1.95e-05   Normal BFGS step
   15    -533.5650782782      1.35e-05   Normal BFGS step
   16    -533.5650782790      8.45e-06   Normal BFGS step
   17    -533.5650782793      3.47e-06   Normal BFGS step
   18    -533.5650782794      2.18e-06   Normal BFGS step
   19    -533.5650782795      4.58e-07   Normal BFGS step
   20    -533.5650782795      1.43e-07   Normal BFGS step
   21    -533.5650782794      5.78e-08  Convergence criterion met
 ---------------------------------------
 SCF time:   CPU 2751.07s  wall 186.00s 
<S^2> =          0.783774295
(3)  G-ENP(liq) elect-nuc-pol free energy of system     -533.565078279 a.u.
(4)  G-CDS(liq) cavity-dispersion-solvent structure 
     free energy                                                2.1290 kcal/mol
(6)  G-S(liq) free energy of system                     -533.561685536 a.u.
 SCF   energy in the final basis set =     -533.5616855360
 Total energy in the final basis set =     -533.5616855360
 
 --------------------------------------------------------------
 
                    Orbital Energies (a.u.)
 --------------------------------------------------------------
 
 Alpha MOs
 -- Occupied --
-19.4091 -19.4064 -19.3593 -19.3491 -10.4135 -10.4090 -10.4084 -10.4074
-10.3969 -10.3799  -1.2772  -1.1710  -1.1682  -1.0717  -0.9629  -0.8867
 -0.8283  -0.7670  -0.7307  -0.6995  -0.6806  -0.6284  -0.6139  -0.5917
 -0.5761  -0.5544  -0.5359  -0.5272  -0.5205  -0.4995  -0.4848  -0.4666
 -0.4571  -0.4418  -0.4051  -0.3992  -0.3616  -0.3363
 -- Virtual --
  0.0262   0.0367   0.0372   0.0470   0.0552   0.0573   0.0614   0.0845
  0.0864   0.0943   0.1029   0.1150   0.1301   0.1332   0.1366   0.1409
  0.1470   0.1522   0.1564   0.1575   0.1614   0.1670   0.1690   0.1706
  0.1835   0.1851   0.1871   0.2014   0.2083   0.2148   0.2245   0.2369
  0.2400   0.2501   0.2514   0.2640   0.2734   0.2908   0.2935   0.3115
  0.3174   0.3284   0.3351   0.3402   0.3474   0.3497   0.3591   0.3656
  0.3720   0.3745   0.3784   0.3847   0.3900   0.3925   0.3968   0.3997
  0.4065   0.4166   0.4246   0.4346   0.4497   0.4538   0.4655   0.4748
  0.4873   0.5070   0.5376   0.5699   0.5827   0.6019   0.6028   0.6102
  0.6278   0.6429   0.6529   0.6572   0.6641   0.6731   0.6855   0.6984
  0.7097   0.7117   0.7235   0.7331   0.7452   0.7554   0.7577   0.7717
  0.7796   0.8007   0.8051   0.8410   0.8457   0.8551   0.8790   0.9099
  0.9199   0.9428   0.9760   0.9944   1.0074   1.0219   1.0623   1.0846
  1.1035   1.1161   1.1245   1.1298   1.1353   1.1559   1.1628   1.1791
  1.1883   1.1944   1.2172   1.2373   1.2391   1.2476   1.2487   1.2658
  1.2693   1.2799   1.2891   1.2905   1.3032   1.3123   1.3226   1.3353
  1.3515   1.3564   1.3645   1.3703   1.3834   1.4049   1.4132   1.4275
  1.4496   1.4617   1.4733   1.4783   1.5001   1.5174   1.5202   1.5479
  1.5583   1.5741   1.5857   1.6078   1.6192   1.6330   1.6485   1.6827
  1.6969   1.7151   1.7573   1.7655   1.7899   1.8079   1.8495   1.8596
  1.8842   1.9083   1.9229   1.9551   1.9688   2.0072   2.0232   2.0382
  2.0552   2.0812   2.1016   2.1488   2.1684   2.2163   2.2711   2.2864
  2.2961   2.3909   2.4070   2.4186   2.4386   2.4477   2.5272   2.6205
  2.6511   2.6864   2.6947   2.7380   2.7692   2.7920   2.7999   2.8047
  2.8315   2.8417   2.8487   2.8946   2.9127   2.9317   2.9451   2.9548
  2.9741   3.0035   3.0194   3.0563   3.0607   3.0896   3.1095   3.1341
  3.1499   3.1774   3.1988   3.2609   3.2764   3.2876   3.2967   3.3157
  3.3361   3.3574   3.3683   3.3909   3.4079   3.4295   3.4458   3.4818
  3.4891   3.4997   3.5064   3.5260   3.5530   3.5587   3.5956   3.6018
  3.6272   3.6401   3.6604   3.6697   3.6849   3.7050   3.7332   3.7465
  3.7699   3.7821   3.8095   3.8189   3.8474   3.8546   3.8632   3.8667
  3.8771   3.9199   3.9374   3.9558   3.9653   3.9981   4.0093   4.0380
  4.0518   4.0873   4.1097   4.1283   4.1384   4.1828   4.1955   4.2304
  4.2388   4.2537   4.2632   4.3153   4.3190   4.3394   4.3692   4.3860
  4.3867   4.4233   4.4542   4.4615   4.4970   4.5365   4.5430   4.5524
  4.5875   4.6063   4.6174   4.6189   4.6710   4.6802   4.6913   4.7331
  4.7705   4.7944   4.8032   4.8593   4.9449   5.0076   5.0569   5.0955
  5.1933   5.2177   5.2343   5.2656   5.2845   5.2963   5.3048   5.3103
  5.3225   5.3527   5.3617   5.3720   5.4130   5.4313   5.4535   5.4643
  5.4846   5.4949   5.5241   5.5479   5.5508   5.5756   5.5848   5.6359
  5.6436   5.6945   5.7016   5.7424   5.7693   5.7916   5.8606   5.8666
  5.9031   5.9515   5.9910   6.0009   6.0410   6.0486   6.1434   6.2409
  6.5952   6.6188   6.6908   6.7567   6.7693   7.0144   7.0545   7.0917
  7.1212   7.2579   7.3014   7.3417   7.3593   7.4375   7.4525   7.4721
  7.4803   7.5201   7.5663   7.6255   7.7084   7.7436   7.8276   7.8808
  7.9287   8.2213  24.4039  24.7054  24.7792  24.8356  24.9046  25.0733
 50.5776  50.6439  50.6629  50.6842
 
 Beta MOs
 -- Occupied --
-19.4076 -19.4065 -19.3490 -19.3457 -10.4140 -10.4089 -10.4077 -10.4074
-10.3981 -10.3715  -1.2758  -1.1698  -1.1456  -1.0698  -0.9532  -0.8803
 -0.8200  -0.7650  -0.7236  -0.6956  -0.6794  -0.6238  -0.6073  -0.5813
 -0.5727  -0.5469  -0.5342  -0.5206  -0.5153  -0.4929  -0.4712  -0.4641
 -0.4483  -0.4202  -0.3911  -0.3892  -0.3567
 -- Virtual --
 -0.0503   0.0261   0.0365   0.0371   0.0486   0.0570   0.0576   0.0646
  0.0850   0.0943   0.0955   0.1041   0.1195   0.1298   0.1340   0.1363
  0.1416   0.1470   0.1546   0.1563   0.1584   0.1621   0.1670   0.1693
  0.1743   0.1835   0.1865   0.1871   0.2021   0.2091   0.2173   0.2245
  0.2369   0.2400   0.2502   0.2533   0.2673   0.2742   0.2920   0.2941
  0.3123   0.3194   0.3315   0.3369   0.3422   0.3482   0.3504   0.3600
  0.3667   0.3733   0.3751   0.3789   0.3849   0.3910   0.3933   0.3987
  0.4003   0.4072   0.4174   0.4256   0.4367   0.4525   0.4549   0.4675
  0.4766   0.4896   0.5084   0.5409   0.5736   0.5860   0.6035   0.6057
  0.6118   0.6316   0.6464   0.6536   0.6583   0.6700   0.6735   0.6882
  0.7005   0.7098   0.7130   0.7246   0.7344   0.7468   0.7574   0.7602
  0.7752   0.7828   0.8063   0.8071   0.8419   0.8474   0.8568   0.8810
  0.9125   0.9202   0.9446   0.9773   0.9965   1.0090   1.0248   1.0631
  1.0859   1.1047   1.1187   1.1264   1.1316   1.1368   1.1595   1.1647
  1.1808   1.1919   1.1956   1.2188   1.2407   1.2435   1.2502   1.2539
  1.2694   1.2725   1.2821   1.2907   1.2937   1.3049   1.3153   1.3256
  1.3370   1.3527   1.3586   1.3674   1.3721   1.3850   1.4082   1.4193
  1.4333   1.4523   1.4634   1.4750   1.4813   1.5032   1.5201   1.5248
  1.5494   1.5604   1.5765   1.5874   1.6109   1.6239   1.6345   1.6514
  1.6864   1.7027   1.7175   1.7619   1.7673   1.7920   1.8143   1.8558
  1.8644   1.8868   1.9121   1.9316   1.9575   1.9762   2.0112   2.0289
  2.0394   2.0585   2.0896   2.1055   2.1551   2.1730   2.2176   2.2757
  2.2874   2.2987   2.3919   2.4085   2.4265   2.4402   2.4507   2.5298
  2.6298   2.6535   2.6876   2.7026   2.7401   2.7720   2.7961   2.8064
  2.8137   2.8398   2.8496   2.8549   2.8940   2.9332   2.9407   2.9595
  2.9649   2.9861   3.0183   3.0289   3.0585   3.0651   3.0931   3.1140
  3.1401   3.1546   3.1816   3.2049   3.2683   3.2822   3.2930   3.3029
  3.3215   3.3394   3.3622   3.3758   3.4005   3.4149   3.4374   3.4518
  3.4852   3.4912   3.5072   3.5117   3.5360   3.5620   3.5659   3.5984
  3.6140   3.6300   3.6427   3.6654   3.6721   3.6893   3.7122   3.7490
  3.7521   3.7726   3.7887   3.8128   3.8233   3.8516   3.8566   3.8677
  3.8705   3.8812   3.9235   3.9419   3.9592   3.9695   4.0017   4.0116
  4.0424   4.0536   4.0920   4.1150   4.1314   4.1410   4.1881   4.2000
  4.2347   4.2479   4.2622   4.2700   4.3165   4.3236   4.3426   4.3734
  4.3875   4.3952   4.4266   4.4595   4.4654   4.5018   4.5438   4.5532
  4.5612   4.5948   4.6082   4.6209   4.6299   4.6748   4.6842   4.6960
  4.7342   4.7737   4.7974   4.8086   4.8664   4.9541   5.0152   5.0621
  5.1031   5.2044   5.2343   5.2440   5.2783   5.2874   5.3058   5.3094
  5.3269   5.3348   5.3683   5.3792   5.3819   5.4184   5.4442   5.4617
  5.4807   5.4942   5.5043   5.5363   5.5516   5.5588   5.5788   5.5872
  5.6420   5.6674   5.6965   5.7087   5.7487   5.7729   5.7972   5.8632
  5.8720   5.9075   5.9622   6.0050   6.0135   6.0455   6.0594   6.1491
  6.2421   6.5983   6.6205   6.6979   6.7594   6.7732   7.0164   7.1101
  7.1210   7.1444   7.2600   7.3030   7.3425   7.3606   7.4432   7.4672
  7.4743   7.4823   7.5227   7.6276   7.6304   7.7097   7.7708   7.8281
  7.8831   7.9304   8.2223  24.4068  24.7056  24.7794  24.8357  24.9050
 25.0775  50.5782  50.6442  50.6717  50.6853
 --------------------------------------------------------------
 
          Ground-State Mulliken Net Atomic Charges

     Atom                 Charge (a.u.)    Spin (a.u.)
  --------------------------------------------------------
      1 C                     0.075292      -0.024624
      2 O                    -0.134208       0.029431
      3 O                    -0.128742      -0.000737
      4 C                    -0.289008       0.005448
      5 O                    -0.428435       0.001677
      6 C                    -0.135712      -0.014618
      7 C                    -0.190576       0.084945
      8 O                    -0.357539       0.458684
      9 C                    -0.193462      -0.130692
     10 C                    -0.263140       0.590401
     11 H                     0.286924       0.003129
     12 H                     0.266705      -0.001902
     13 H                     0.340554       0.000099
     14 H                     0.275389       0.000731
     15 H                     0.258034       0.002320
     16 H                     0.310555       0.003065
     17 H                     0.307371      -0.007360
  --------------------------------------------------------
  Sum of atomic charges =    -0.000000
  Sum of spin   charges =     1.000000

 -----------------------------------------------------------------
                    Cartesian Multipole Moments
 -----------------------------------------------------------------
    Charge (ESU x 10^10)
                -0.0000
    Dipole Moment (Debye)
         X      -1.4055      Y      -1.6253      Z      -1.0517
       Tot       2.3923
    Quadrupole Moments (Debye-Ang)
        XX     -57.9482     XY       8.2130     YY     -58.4839
        XZ      -7.4222     YZ       1.7108     ZZ     -64.1448
    Octopole Moments (Debye-Ang^2)
       XXX     -19.4377    XXY     -11.1062    XYY     -10.8589
       YYY     -59.7702    XXZ     -25.2130    XYZ       2.0547
       YYZ     -33.1392    XZZ      -2.1187    YZZ     -38.4268
       ZZZ     -93.3516
    Hexadecapole Moments (Debye-Ang^3)
      XXXX    -459.6203   XXXY      95.5628   XXYY    -175.0203
      XYYY      61.1926   YYYY    -559.4612   XXXZ      -8.9773
      XXYZ     -19.1518   XYYZ      -9.9792   YYYZ     -74.8334
      XXZZ    -138.9214   XYZZ      20.8119   YYZZ    -204.6509
      XZZZ      21.9377   YZZZ    -139.9826   ZZZZ    -468.8466
 -----------------------------------------------------------------
 Calculating analytic gradient of the SCF energy
 Gradient of CDS energy
            1           2           3           4           5           6
    1  -0.0002034   0.0001181  -0.0001040  -0.0003047   0.0004264   0.0000143
    2   0.0002021   0.0000173  -0.0000637   0.0013427  -0.0014206   0.0001543
    3   0.0000051  -0.0000305   0.0000420   0.0010353  -0.0007735  -0.0001351
            7           8           9          10          11          12
    1   0.0022432  -0.0018591   0.0000844  -0.0002898  -0.0001829   0.0000996
    2  -0.0034353   0.0034644  -0.0002894  -0.0003227   0.0000794  -0.0001252
    3   0.0035459  -0.0035347  -0.0002281   0.0000423   0.0001189   0.0000477
           13          14          15          16          17
    1  -0.0001896   0.0000929   0.0001054   0.0000844  -0.0001351
    2   0.0004611   0.0002053   0.0000372  -0.0001653  -0.0001416
    3   0.0000864   0.0000427  -0.0001652  -0.0000929  -0.0000062
 Gradient of SCF Energy
            1           2           3           4           5           6
    1   0.0096467  -0.0016130   0.0001570   0.0002761   0.0045460  -0.0096085
    2   0.0044075  -0.0008889   0.0009041   0.0020147  -0.0023064  -0.0026424
    3  -0.0099194  -0.0016539  -0.0028038   0.0005248   0.0101794  -0.0045989
            7           8           9          10          11          12
    1  -0.0020292   0.0024867   0.0044572   0.0032724  -0.0092682   0.0001857
    2  -0.0020938  -0.0036503   0.0073898   0.0065816  -0.0019292  -0.0018155
    3   0.0111926   0.0021519  -0.0008410   0.0054672   0.0060341   0.0022957
           13          14          15          16          17
    1  -0.0039163   0.0061983   0.0041847   0.0004153  -0.0093909
    2   0.0048229   0.0048935   0.0015072  -0.0074470  -0.0097477
    3  -0.0049555   0.0001211  -0.0060630  -0.0067028  -0.0004288
 Max gradient component =       1.119E-02
 RMS gradient           =       5.235E-03
 Computing fast CPCM-SWIG gradient
 Updating gradient with PCM contributions...
 -- total gradient after adding PCM contribution --
---------------------------------------------------
  Atom         X              Y              Z     
---------------------------------------------------
   1       0.000007       0.000005      -0.000006
   2      -0.000008       0.000008       0.000040
   3       0.000023      -0.000013      -0.000010
   4      -0.000014       0.000009       0.000003
   5      -0.000022      -0.000016       0.000013
   6       0.000007      -0.000016       0.000012
   7       0.000034      -0.000096       0.000048
   8      -0.000022       0.000134      -0.000090
   9      -0.000121       0.000006       0.000116
  10       0.000184      -0.000025      -0.000082
  11      -0.000003      -0.000013      -0.000006
  12      -0.000004      -0.000012      -0.000004
  13       0.000009       0.000002       0.000006
  14      -0.000006       0.000006       0.000008
  15      -0.000023      -0.000002       0.000038
  16      -0.000045       0.000028      -0.000068
  17       0.000004      -0.000005      -0.000019
---------------------------------------------------
 Number of fixed atoms: 0
 Gradient time:  CPU 400.60 s  wall 31.79 s
 ######################################################
 ######################################################
 # Starting finite difference calculation for IDERIV  #
 Finite diff step size:  1.88973e-03 a.u.
 ----------------------------------------------------------------
             Standard Nuclear Orientation (Angstroms)
    I     Atom           X                Y                Z
 ----------------------------------------------------------------
    1      C      -1.1832358552     0.2177847230     0.8498135652
    2      O      -1.4599085590     1.1580347255    -0.2102182900
    3      O      -0.1549760569     1.6715134026    -0.6417252546
    4      C       0.0146547178     0.8659133810     1.5259816276
    5      O      -0.3246038574     2.0489689200     2.2167165251
    6      C       0.8192277483     1.1311857166     0.2640519542
    7      C       1.3715963692    -0.1647052023    -0.3197902282
    8      O       1.8440613917    -1.0779311981     0.6238431996
    9      C       0.3623859534    -1.2483944255    -0.4161622367
   10      C      -0.8401078891    -1.1078443891     0.2405291943
   11      H      -2.0772629875     0.1997492249     1.4671191791
   12      H       0.5194358042     0.2050902616     2.2190132942
   13      H      -0.7870798579     2.6418973218     1.6116818853
   14      H       1.5822216222     1.8948570134     0.3949509249
   15      H       2.0111201184    -0.0163349833    -1.1869240021
   16      H       0.5873555261    -2.1066877796    -1.0271664362
   17      H      -1.5853735883    -1.8889600122     0.2063345983
 ----------------------------------------------------------------
 Nuclear Repulsion Energy =         580.75609873 hartrees
 There are       38 alpha and       37 beta electrons
 Discretize the solute cavity surface with Lebedev spheres
	Using 110 Lebedev grid points for each H atom
	Using 194 Lebedev grid points for other atoms
	Atomic van der Waals radii will be scaled by 1.20
 Remove points where switching function is < 1.0e-08
 Keep 1236 surface tesserae and discard 1474 interior tesserae
 Molecular Surface Area = 141.388 Angst**2
 Requested basis set is 6-311++G(2df,2p)
 There are 122 shells and 410 basis functions
 A cutoff of  1.0D-12 yielded   7008 shell pairs
 There are     80093 function pairs (    100858 Cartesian)
 Smallest overlap matrix eigenvalue = 4.92E-06
 Guess MOs from SCF MO coefficient file

 -----------------------------------------------------------------------
  General SCF calculation program by
  Eric Jon Sundstrom, Paul Horn, Yuezhi Mao, Dmitri Zuev, Alec White,
  David Stuck, Shaama M.S., Shane Yost, Joonho Lee, David Small,
  Daniel Levine, Susi Lehtola, Hugh Burton, Evgeny Epifanovsky,
  Bang C. Huynh
 -----------------------------------------------------------------------
 Exchange:     0.1500 Hartree-Fock + 1.0000 wB97M-V + LR-HF
 Correlation:  1.0000 wB97M-V
 Using SG-2 standard quadrature grid
 Nonlocal Correlation:  VV10 with C = 0.0100 and b = 6.00 and scale = 1.00000
 Grid used for NLC:  SG-1 standard quadrature
 
 Citation of the SMD model:
 Marenich, A.V.; Cramer, C.J.; Truhlar, D.G.
 J. Phys. Chem. B 2009, 113, 6378-6396.
 iSolventCode=           1
 Solvent: water                                                           
 
 vradii
            1           2           3           4           5           6
    1   1.8500000   1.5200000   1.5200000   1.8500000   1.5200000   1.8500000
            7           8           9          10          11          12
    1   1.8500000   1.5200000   1.8500000   1.8500000   1.2000000   1.2000000
           13          14          15          16          17
    1   1.2000000   1.2000000   1.2000000   1.2000000   1.2000000
 -------------------------------------------------------
 OpenMP BLAS3 based DFT computing Module                
 Release: version 1.0, May 2013, Q-Chem Inc. Pittsburgh 
 -------------------------------------------------------
 A unrestricted SCF calculation will be
 performed using Roothaan-Hall, DIIS, GDM
 SCF converges when RMS gradient is below 1.0e-07
 ---------------------------------------
  Cycle       Energy         DIIS error
 ---------------------------------------
    1    -533.5340920105      1.76e-04  Roothaan Step
 ---------------------------------------
  Cycle       Energy         DIIS error
 ---------------------------------------
    1    -533.5595708542      2.12e-04  
    2    -533.5618570783      2.34e-04  Done DIIS. Switching to GDM
 ---------------------------------------
  Cycle       Energy        RMS Gradient
 ---------------------------------------
    1    -533.5618570783      1.47e-02   Normal BFGS step
    2    -533.5602884924      2.40e-02  Line search: overstep
    3    -533.5649282720      2.55e-03   Normal BFGS step
    4    -533.5650425442      1.17e-03   Normal BFGS step
    5    -533.5650682501      7.36e-04   Normal BFGS step
    6    -533.5650744443      4.34e-04   Normal BFGS step
    7    -533.5650757222      3.25e-04   Normal BFGS step
    8    -533.5650764610      1.52e-04   Normal BFGS step
    9    -533.5650766626      9.13e-05   Normal BFGS step
   10    -533.5650767378      4.51e-05   Normal BFGS step
   11    -533.5650767598      2.19e-05   Normal BFGS step
   12    -533.5650767652      8.12e-06   Normal BFGS step
   13    -533.5650767664      3.25e-06   Normal BFGS step
   14    -533.5650767666      2.70e-06   Normal BFGS step
   15    -533.5650767667      1.87e-06   Normal BFGS step
   16    -533.5650767667      1.15e-06   Normal BFGS step
   17    -533.5650767667      4.43e-07   Normal BFGS step
   18    -533.5650767667      2.03e-07   Normal BFGS step
   19    -533.5650767667      6.01e-08  Convergence criterion met
 ---------------------------------------
 SCF time:   CPU 2670.96s  wall 179.00s 
<S^2> =          0.783777144
(3)  G-ENP(liq) elect-nuc-pol free energy of system     -533.565076767 a.u.
(4)  G-CDS(liq) cavity-dispersion-solvent structure 
     free energy                                                2.1287 kcal/mol
(6)  G-S(liq) free energy of system                     -533.561684405 a.u.
 SCF   energy in the final basis set =     -533.5616844050
 Total energy in the final basis set =     -533.5616844050
 
 --------------------------------------------------------------
 
                    Orbital Energies (a.u.)
 --------------------------------------------------------------
 
 Alpha MOs
 -- Occupied --
-19.4091 -19.4063 -19.3594 -19.3491 -10.4135 -10.4090 -10.4084 -10.4074
-10.3969 -10.3799  -1.2772  -1.1710  -1.1682  -1.0716  -0.9630  -0.8868
 -0.8284  -0.7670  -0.7307  -0.6996  -0.6806  -0.6284  -0.6138  -0.5917
 -0.5761  -0.5544  -0.5359  -0.5273  -0.5205  -0.4995  -0.4848  -0.4666
 -0.4571  -0.4419  -0.4051  -0.3992  -0.3616  -0.3363
 -- Virtual --
  0.0262   0.0367   0.0372   0.0470   0.0552   0.0573   0.0614   0.0845
  0.0864   0.0943   0.1029   0.1150   0.1301   0.1332   0.1366   0.1409
  0.1470   0.1522   0.1564   0.1575   0.1614   0.1670   0.1690   0.1706
  0.1834   0.1851   0.1871   0.2014   0.2083   0.2148   0.2245   0.2369
  0.2400   0.2501   0.2514   0.2640   0.2734   0.2909   0.2935   0.3114
  0.3174   0.3284   0.3350   0.3402   0.3474   0.3497   0.3591   0.3656
  0.3721   0.3745   0.3784   0.3847   0.3900   0.3925   0.3968   0.3997
  0.4065   0.4166   0.4245   0.4346   0.4497   0.4538   0.4655   0.4748
  0.4873   0.5070   0.5376   0.5700   0.5827   0.6019   0.6028   0.6102
  0.6278   0.6429   0.6529   0.6572   0.6641   0.6732   0.6855   0.6984
  0.7096   0.7117   0.7235   0.7331   0.7452   0.7554   0.7576   0.7716
  0.7797   0.8007   0.8051   0.8410   0.8457   0.8551   0.8791   0.9099
  0.9199   0.9429   0.9761   0.9944   1.0075   1.0219   1.0624   1.0846
  1.1036   1.1161   1.1245   1.1298   1.1353   1.1559   1.1629   1.1791
  1.1884   1.1944   1.2172   1.2373   1.2392   1.2476   1.2487   1.2658
  1.2693   1.2799   1.2891   1.2905   1.3032   1.3123   1.3226   1.3354
  1.3515   1.3564   1.3645   1.3703   1.3834   1.4050   1.4133   1.4276
  1.4496   1.4617   1.4733   1.4784   1.5001   1.5175   1.5202   1.5479
  1.5583   1.5741   1.5856   1.6078   1.6193   1.6329   1.6485   1.6828
  1.6969   1.7151   1.7575   1.7655   1.7899   1.8080   1.8495   1.8597
  1.8841   1.9083   1.9229   1.9551   1.9689   2.0072   2.0233   2.0383
  2.0552   2.0812   2.1016   2.1488   2.1684   2.2165   2.2711   2.2866
  2.2962   2.3909   2.4070   2.4186   2.4387   2.4477   2.5272   2.6206
  2.6511   2.6865   2.6949   2.7383   2.7693   2.7921   2.7999   2.8047
  2.8316   2.8417   2.8487   2.8946   2.9127   2.9318   2.9451   2.9548
  2.9742   3.0035   3.0196   3.0565   3.0608   3.0897   3.1095   3.1342
  3.1499   3.1774   3.1989   3.2608   3.2766   3.2877   3.2968   3.3157
  3.3362   3.3573   3.3683   3.3909   3.4079   3.4297   3.4458   3.4819
  3.4890   3.4997   3.5063   3.5261   3.5529   3.5587   3.5957   3.6017
  3.6272   3.6401   3.6605   3.6696   3.6850   3.7050   3.7334   3.7466
  3.7699   3.7821   3.8096   3.8188   3.8475   3.8547   3.8632   3.8668
  3.8771   3.9200   3.9375   3.9559   3.9654   3.9983   4.0091   4.0383
  4.0519   4.0872   4.1099   4.1285   4.1384   4.1828   4.1956   4.2305
  4.2388   4.2537   4.2633   4.3153   4.3188   4.3395   4.3692   4.3859
  4.3867   4.4232   4.4541   4.4613   4.4969   4.5366   4.5430   4.5523
  4.5878   4.6062   4.6174   4.6190   4.6711   4.6802   4.6914   4.7332
  4.7706   4.7944   4.8032   4.8595   4.9449   5.0076   5.0569   5.0955
  5.1934   5.2179   5.2343   5.2657   5.2845   5.2963   5.3047   5.3103
  5.3225   5.3527   5.3616   5.3720   5.4129   5.4313   5.4535   5.4643
  5.4845   5.4949   5.5245   5.5477   5.5509   5.5756   5.5845   5.6359
  5.6437   5.6945   5.7016   5.7423   5.7696   5.7915   5.8605   5.8666
  5.9028   5.9515   5.9910   6.0009   6.0410   6.0486   6.1435   6.2403
  6.5948   6.6188   6.6908   6.7567   6.7694   7.0144   7.0545   7.0917
  7.1212   7.2578   7.3016   7.3417   7.3594   7.4376   7.4525   7.4720
  7.4803   7.5199   7.5663   7.6256   7.7085   7.7436   7.8277   7.8809
  7.9286   8.2213  24.4038  24.7053  24.7790  24.8364  24.9047  25.0735
 50.5776  50.6439  50.6629  50.6842
 
 Beta MOs
 -- Occupied --
-19.4076 -19.4064 -19.3490 -19.3457 -10.4140 -10.4088 -10.4077 -10.4074
-10.3981 -10.3715  -1.2758  -1.1698  -1.1456  -1.0697  -0.9533  -0.8804
 -0.8200  -0.7650  -0.7236  -0.6956  -0.6794  -0.6238  -0.6072  -0.5813
 -0.5727  -0.5469  -0.5341  -0.5206  -0.5153  -0.4929  -0.4711  -0.4641
 -0.4483  -0.4202  -0.3911  -0.3892  -0.3567
 -- Virtual --
 -0.0503   0.0261   0.0365   0.0371   0.0486   0.0570   0.0576   0.0646
  0.0850   0.0943   0.0955   0.1041   0.1195   0.1298   0.1340   0.1363
  0.1416   0.1470   0.1546   0.1563   0.1584   0.1621   0.1670   0.1693
  0.1743   0.1835   0.1865   0.1871   0.2021   0.2091   0.2173   0.2245
  0.2369   0.2400   0.2502   0.2533   0.2672   0.2741   0.2920   0.2941
  0.3123   0.3194   0.3314   0.3369   0.3422   0.3482   0.3504   0.3600
  0.3667   0.3734   0.3751   0.3789   0.3850   0.3910   0.3934   0.3987
  0.4003   0.4071   0.4175   0.4256   0.4367   0.4524   0.4549   0.4674
  0.4766   0.4897   0.5084   0.5409   0.5737   0.5859   0.6035   0.6057
  0.6118   0.6316   0.6464   0.6537   0.6583   0.6700   0.6736   0.6882
  0.7005   0.7097   0.7130   0.7245   0.7344   0.7469   0.7574   0.7601
  0.7752   0.7829   0.8063   0.8071   0.8419   0.8474   0.8568   0.8810
  0.9125   0.9203   0.9447   0.9774   0.9965   1.0090   1.0248   1.0632
  1.0859   1.1047   1.1187   1.1264   1.1316   1.1368   1.1595   1.1647
  1.1808   1.1919   1.1956   1.2188   1.2407   1.2434   1.2502   1.2539
  1.2694   1.2725   1.2821   1.2907   1.2937   1.3049   1.3152   1.3256
  1.3370   1.3528   1.3586   1.3673   1.3720   1.3850   1.4083   1.4193
  1.4333   1.4524   1.4634   1.4750   1.4813   1.5033   1.5201   1.5248
  1.5494   1.5604   1.5765   1.5873   1.6109   1.6240   1.6345   1.6513
  1.6865   1.7027   1.7175   1.7621   1.7674   1.7920   1.8144   1.8558
  1.8645   1.8868   1.9122   1.9316   1.9575   1.9763   2.0111   2.0290
  2.0394   2.0586   2.0896   2.1055   2.1551   2.1729   2.2177   2.2757
  2.2876   2.2988   2.3919   2.4084   2.4265   2.4403   2.4507   2.5298
  2.6299   2.6535   2.6877   2.7028   2.7404   2.7721   2.7962   2.8064
  2.8138   2.8400   2.8496   2.8549   2.8940   2.9332   2.9408   2.9595
  2.9650   2.9861   3.0183   3.0290   3.0586   3.0652   3.0932   3.1140
  3.1402   3.1546   3.1816   3.2051   3.2682   3.2824   3.2931   3.3030
  3.3215   3.3394   3.3621   3.3759   3.4005   3.4150   3.4376   3.4518
  3.4853   3.4911   3.5073   3.5117   3.5360   3.5619   3.5658   3.5985
  3.6140   3.6299   3.6427   3.6654   3.6721   3.6894   3.7122   3.7491
  3.7522   3.7726   3.7887   3.8129   3.8232   3.8517   3.8566   3.8678
  3.8705   3.8812   3.9236   3.9420   3.9593   3.9696   4.0018   4.0114
  4.0427   4.0537   4.0919   4.1151   4.1317   4.1410   4.1880   4.2001
  4.2349   4.2479   4.2622   4.2700   4.3165   4.3234   4.3428   4.3734
  4.3874   4.3951   4.4265   4.4594   4.4652   4.5017   4.5440   4.5531
  4.5613   4.5951   4.6081   4.6209   4.6300   4.6749   4.6843   4.6961
  4.7343   4.7738   4.7975   4.8085   4.8667   4.9541   5.0152   5.0621
  5.1031   5.2045   5.2346   5.2440   5.2783   5.2874   5.3058   5.3093
  5.3269   5.3348   5.3683   5.3792   5.3820   5.4184   5.4441   5.4617
  5.4806   5.4941   5.5042   5.5365   5.5516   5.5590   5.5789   5.5869
  5.6420   5.6674   5.6966   5.7087   5.7486   5.7731   5.7971   5.8632
  5.8720   5.9072   5.9621   6.0051   6.0135   6.0455   6.0594   6.1492
  6.2415   6.5979   6.6206   6.6979   6.7595   6.7733   7.0164   7.1101
  7.1211   7.1444   7.2599   7.3032   7.3426   7.3606   7.4432   7.4672
  7.4742   7.4823   7.5224   7.6277   7.6305   7.7097   7.7708   7.8282
  7.8832   7.9303   8.2223  24.4067  24.7056  24.7792  24.8366  24.9051
 25.0778  50.5782  50.6443  50.6717  50.6853
 --------------------------------------------------------------
 
          Ground-State Mulliken Net Atomic Charges

     Atom                 Charge (a.u.)    Spin (a.u.)
  --------------------------------------------------------
      1 C                     0.076534      -0.024644
      2 O                    -0.134262       0.029475
      3 O                    -0.128847      -0.000730
      4 C                    -0.289115       0.005446
      5 O                    -0.428433       0.001672
      6 C                    -0.135879      -0.014613
      7 C                    -0.190650       0.084958
      8 O                    -0.357513       0.458704
      9 C                    -0.192975      -0.130755
     10 C                    -0.264223       0.590399
     11 H                     0.286711       0.003127
     12 H                     0.266717      -0.001902
     13 H                     0.340564       0.000100
     14 H                     0.275380       0.000732
     15 H                     0.258057       0.002322
     16 H                     0.310543       0.003061
     17 H                     0.307392      -0.007352
  --------------------------------------------------------
  Sum of atomic charges =    -0.000000
  Sum of spin   charges =     1.000000

 -----------------------------------------------------------------
                    Cartesian Multipole Moments
 -----------------------------------------------------------------
    Charge (ESU x 10^10)
                -0.0000
    Dipole Moment (Debye)
         X      -1.4040      Y      -1.6267      Z      -1.0519
       Tot       2.3925
    Quadrupole Moments (Debye-Ang)
        XX     -57.9515     XY       8.2136     YY     -58.4823
        XZ      -7.4184     YZ       1.7109     ZZ     -64.1452
    Octopole Moments (Debye-Ang^2)
       XXX     -19.4392    XXY     -11.1104    XYY     -10.8679
       YYY     -59.7763    XXZ     -25.2209    XYZ       2.0560
       YYZ     -33.1366    XZZ      -2.1172    YZZ     -38.4262
       ZZZ     -93.3518
    Hexadecapole Moments (Debye-Ang^3)
      XXXX    -459.5761   XXXY      95.5620   XXYY    -175.0041
      XYYY      61.1939   YYYY    -559.4448   XXXZ      -8.9684
      XXYZ     -19.1559   XYYZ      -9.9782   YYYZ     -74.8278
      XXZZ    -138.9224   XYZZ      20.8114   YYZZ    -204.6475
      XZZZ      21.9429   YZZZ    -139.9775   ZZZZ    -468.8461
 -----------------------------------------------------------------
 Calculating analytic gradient of the SCF energy
 Gradient of CDS energy
            1           2           3           4           5           6
    1  -0.0002007   0.0001177  -0.0001040  -0.0003053   0.0004264   0.0000143
    2   0.0002020   0.0000172  -0.0000637   0.0013426  -0.0014206   0.0001543
    3   0.0000047  -0.0000303   0.0000420   0.0010349  -0.0007734  -0.0001351
            7           8           9          10          11          12
    1   0.0022432  -0.0018591   0.0000844  -0.0002904  -0.0001841   0.0000996
    2  -0.0034353   0.0034644  -0.0002895  -0.0003223   0.0000794  -0.0001252
    3   0.0035459  -0.0035347  -0.0002282   0.0000426   0.0001192   0.0000478
           13          14          15          16          17
    1  -0.0001897   0.0000929   0.0001054   0.0000844  -0.0001351
    2   0.0004611   0.0002053   0.0000372  -0.0001653  -0.0001416
    3   0.0000864   0.0000428  -0.0001652  -0.0000929  -0.0000062
 Gradient of SCF Energy
            1           2           3           4           5           6
    1   0.0108378  -0.0018015   0.0001384   0.0000030   0.0045623  -0.0096778
    2   0.0044595  -0.0008224   0.0008577   0.0019409  -0.0022974  -0.0026904
    3  -0.0101764  -0.0017322  -0.0027493   0.0004769   0.0101830  -0.0045803
            7           8           9          10          11          12
    1  -0.0020332   0.0024901   0.0044504   0.0030681  -0.0097163   0.0001719
    2  -0.0020924  -0.0036497   0.0074508   0.0066138  -0.0019251  -0.0018239
    3   0.0111905   0.0021514  -0.0008110   0.0055186   0.0062641   0.0022974
           13          14          15          16          17
    1  -0.0039116   0.0061954   0.0041873   0.0004104  -0.0093746
    2   0.0048220   0.0048929   0.0015068  -0.0074520  -0.0097913
    3  -0.0049540   0.0001285  -0.0060641  -0.0066976  -0.0004455
 Max gradient component =       1.119E-02
 RMS gradient           =       5.317E-03
 Computing fast CPCM-SWIG gradient
 Updating gradient with PCM contributions...
 -- total gradient after adding PCM contribution --
---------------------------------------------------
  Atom         X              Y              Z     
---------------------------------------------------
   1       0.001190       0.000057      -0.000268
   2      -0.000191       0.000076      -0.000043
   3       0.000006      -0.000060       0.000047
   4      -0.000286      -0.000069      -0.000050
   5      -0.000003      -0.000008       0.000019
   6      -0.000064      -0.000065       0.000031
   7       0.000032      -0.000094       0.000044
   8      -0.000019       0.000134      -0.000090
   9      -0.000131       0.000062       0.000145
  10      -0.000010       0.000005      -0.000034
  11      -0.000458      -0.000010       0.000238
  12      -0.000019      -0.000018      -0.000004
  13       0.000011       0.000001       0.000006
  14      -0.000008       0.000007       0.000015
  15      -0.000021      -0.000002       0.000038
  16      -0.000050       0.000025      -0.000061
  17       0.000023      -0.000041      -0.000033
---------------------------------------------------
 Number of fixed atoms: 0
 Gradient time:  CPU 399.67 s  wall 31.19 s
 ----------------------------------------------------------------
             Standard Nuclear Orientation (Angstroms)
    I     Atom           X                Y                Z
 ----------------------------------------------------------------
    1      C      -1.1852358552     0.2177847230     0.8498135652
    2      O      -1.4599085590     1.1580347255    -0.2102182900
    3      O      -0.1549760569     1.6715134026    -0.6417252546
    4      C       0.0146547178     0.8659133810     1.5259816276
    5      O      -0.3246038574     2.0489689200     2.2167165251
    6      C       0.8192277483     1.1311857166     0.2640519542
    7      C       1.3715963692    -0.1647052023    -0.3197902282
    8      O       1.8440613917    -1.0779311981     0.6238431996
    9      C       0.3623859534    -1.2483944255    -0.4161622367
   10      C      -0.8401078891    -1.1078443891     0.2405291943
   11      H      -2.0772629875     0.1997492249     1.4671191791
   12      H       0.5194358042     0.2050902616     2.2190132942
   13      H      -0.7870798579     2.6418973218     1.6116818853
   14      H       1.5822216222     1.8948570134     0.3949509249
   15      H       2.0111201184    -0.0163349833    -1.1869240021
   16      H       0.5873555261    -2.1066877796    -1.0271664362
   17      H      -1.5853735883    -1.8889600122     0.2063345983
 ----------------------------------------------------------------
 Nuclear Repulsion Energy =         580.72018572 hartrees
 There are       38 alpha and       37 beta electrons
 Discretize the solute cavity surface with Lebedev spheres
	Using 110 Lebedev grid points for each H atom
	Using 194 Lebedev grid points for other atoms
	Atomic van der Waals radii will be scaled by 1.20
 Remove points where switching function is < 1.0e-08
 Keep 1237 surface tesserae and discard 1473 interior tesserae
 Molecular Surface Area = 141.391 Angst**2
 Requested basis set is 6-311++G(2df,2p)
 There are 122 shells and 410 basis functions
 A cutoff of  1.0D-12 yielded   7008 shell pairs
 There are     80093 function pairs (    100858 Cartesian)
 Smallest overlap matrix eigenvalue = 4.93E-06
 Guess MOs from SCF MO coefficient file

 -----------------------------------------------------------------------
  General SCF calculation program by
  Eric Jon Sundstrom, Paul Horn, Yuezhi Mao, Dmitri Zuev, Alec White,
  David Stuck, Shaama M.S., Shane Yost, Joonho Lee, David Small,
  Daniel Levine, Susi Lehtola, Hugh Burton, Evgeny Epifanovsky,
  Bang C. Huynh
 -----------------------------------------------------------------------
 Exchange:     0.1500 Hartree-Fock + 1.0000 wB97M-V + LR-HF
 Correlation:  1.0000 wB97M-V
 Using SG-2 standard quadrature grid
 Nonlocal Correlation:  VV10 with C = 0.0100 and b = 6.00 and scale = 1.00000
 Grid used for NLC:  SG-1 standard quadrature
 
 Citation of the SMD model:
 Marenich, A.V.; Cramer, C.J.; Truhlar, D.G.
 J. Phys. Chem. B 2009, 113, 6378-6396.
 iSolventCode=           1
 Solvent: water                                                           
 
 vradii
            1           2           3           4           5           6
    1   1.8500000   1.5200000   1.5200000   1.8500000   1.5200000   1.8500000
            7           8           9          10          11          12
    1   1.8500000   1.5200000   1.8500000   1.8500000   1.2000000   1.2000000
           13          14          15          16          17
    1   1.2000000   1.2000000   1.2000000   1.2000000   1.2000000
 -------------------------------------------------------
 OpenMP BLAS3 based DFT computing Module                
 Release: version 1.0, May 2013, Q-Chem Inc. Pittsburgh 
 -------------------------------------------------------
 A unrestricted SCF calculation will be
 performed using Roothaan-Hall, DIIS, GDM
 SCF converges when RMS gradient is below 1.0e-07
 ---------------------------------------
  Cycle       Energy         DIIS error
 ---------------------------------------
    1    -533.5341012439      1.75e-04  Roothaan Step
 ---------------------------------------
  Cycle       Energy         DIIS error
 ---------------------------------------
    1    -533.5595778035      2.12e-04  
    2    -533.5618740546      2.33e-04  Done DIIS. Switching to GDM
 ---------------------------------------
  Cycle       Energy        RMS Gradient
 ---------------------------------------
    1    -533.5618740546      1.46e-02   Normal BFGS step
    2    -533.5603173713      2.39e-02  Line search: overstep
    3    -533.5649286807      2.57e-03   Normal BFGS step
    4    -533.5650432530      1.18e-03   Normal BFGS step
    5    -533.5650690041      7.60e-04   Normal BFGS step
    6    -533.5650752144      4.46e-04   Normal BFGS step
    7    -533.5650765079      3.33e-04   Normal BFGS step
    8    -533.5650772541      1.54e-04   Normal BFGS step
    9    -533.5650774552      9.13e-05   Normal BFGS step
   10    -533.5650775307      4.53e-05   Normal BFGS step
   11    -533.5650775529      2.20e-05   Normal BFGS step
   12    -533.5650775584      8.14e-06   Normal BFGS step
   13    -533.5650775595      3.21e-06   Normal BFGS step
   14    -533.5650775598      2.70e-06   Normal BFGS step
   15    -533.5650775598      1.91e-06   Normal BFGS step
   16    -533.5650775599      1.17e-06   Normal BFGS step
   17    -533.5650775598      4.50e-07   Normal BFGS step
   18    -533.5650775598      1.97e-07   Normal BFGS step
   19    -533.5650775598      5.91e-08  Convergence criterion met
 ---------------------------------------
 SCF time:   CPU 2675.31s  wall 181.00s 
<S^2> =          0.783771461
(3)  G-ENP(liq) elect-nuc-pol free energy of system     -533.565077560 a.u.
(4)  G-CDS(liq) cavity-dispersion-solvent structure 
     free energy                                                2.1292 kcal/mol
(6)  G-S(liq) free energy of system                     -533.561684429 a.u.
 SCF   energy in the final basis set =     -533.5616844293
 Total energy in the final basis set =     -533.5616844293
 
 --------------------------------------------------------------
 
                    Orbital Energies (a.u.)
 --------------------------------------------------------------
 
 Alpha MOs
 -- Occupied --
-19.4091 -19.4064 -19.3593 -19.3491 -10.4134 -10.4091 -10.4084 -10.4074
-10.3969 -10.3799  -1.2772  -1.1710  -1.1681  -1.0718  -0.9628  -0.8867
 -0.8283  -0.7670  -0.7307  -0.6995  -0.6806  -0.6284  -0.6139  -0.5917
 -0.5761  -0.5544  -0.5360  -0.5272  -0.5205  -0.4996  -0.4848  -0.4667
 -0.4570  -0.4418  -0.4051  -0.3991  -0.3616  -0.3363
 -- Virtual --
  0.0262   0.0367   0.0372   0.0470   0.0552   0.0573   0.0614   0.0846
  0.0863   0.0943   0.1029   0.1150   0.1301   0.1332   0.1366   0.1409
  0.1470   0.1522   0.1564   0.1575   0.1614   0.1670   0.1690   0.1706
  0.1835   0.1851   0.1871   0.2014   0.2083   0.2148   0.2244   0.2369
  0.2400   0.2501   0.2514   0.2640   0.2734   0.2907   0.2935   0.3115
  0.3174   0.3284   0.3351   0.3402   0.3474   0.3497   0.3592   0.3656
  0.3719   0.3746   0.3784   0.3846   0.3899   0.3924   0.3967   0.3997
  0.4065   0.4166   0.4246   0.4346   0.4497   0.4538   0.4655   0.4748
  0.4873   0.5070   0.5376   0.5698   0.5827   0.6019   0.6029   0.6102
  0.6278   0.6429   0.6529   0.6572   0.6641   0.6730   0.6855   0.6983
  0.7098   0.7117   0.7235   0.7331   0.7451   0.7554   0.7577   0.7717
  0.7796   0.8006   0.8051   0.8410   0.8457   0.8551   0.8790   0.9099
  0.9199   0.9428   0.9760   0.9943   1.0074   1.0219   1.0623   1.0846
  1.1035   1.1161   1.1245   1.1297   1.1353   1.1559   1.1628   1.1791
  1.1883   1.1944   1.2172   1.2373   1.2391   1.2476   1.2486   1.2657
  1.2693   1.2799   1.2891   1.2905   1.3033   1.3123   1.3226   1.3353
  1.3514   1.3564   1.3646   1.3703   1.3835   1.4048   1.4132   1.4275
  1.4495   1.4617   1.4733   1.4783   1.5000   1.5173   1.5202   1.5479
  1.5583   1.5741   1.5858   1.6077   1.6192   1.6330   1.6486   1.6827
  1.6969   1.7151   1.7572   1.7654   1.7899   1.8079   1.8495   1.8595
  1.8842   1.9082   1.9230   1.9551   1.9686   2.0072   2.0232   2.0382
  2.0551   2.0811   2.1015   2.1488   2.1684   2.2162   2.2711   2.2863
  2.2960   2.3909   2.4071   2.4186   2.4386   2.4477   2.5271   2.6205
  2.6512   2.6862   2.6945   2.7378   2.7692   2.7919   2.7998   2.8046
  2.8313   2.8417   2.8487   2.8946   2.9126   2.9316   2.9450   2.9548
  2.9739   3.0036   3.0192   3.0562   3.0606   3.0895   3.1094   3.1339
  3.1498   3.1775   3.1986   3.2610   3.2761   3.2875   3.2967   3.3157
  3.3360   3.3576   3.3682   3.3909   3.4079   3.4293   3.4458   3.4818
  3.4893   3.4996   3.5064   3.5259   3.5530   3.5588   3.5955   3.6019
  3.6273   3.6401   3.6604   3.6697   3.6848   3.7050   3.7330   3.7465
  3.7698   3.7821   3.8094   3.8190   3.8473   3.8546   3.8631   3.8666
  3.8771   3.9199   3.9373   3.9557   3.9652   3.9979   4.0096   4.0378
  4.0516   4.0874   4.1095   4.1280   4.1383   4.1828   4.1954   4.2302
  4.2388   4.2537   4.2631   4.3153   4.3191   4.3393   4.3692   4.3860
  4.3868   4.4234   4.4542   4.4618   4.4971   4.5364   4.5429   4.5524
  4.5872   4.6064   4.6173   4.6189   4.6709   4.6802   4.6913   4.7331
  4.7705   4.7943   4.8032   4.8591   4.9449   5.0077   5.0569   5.0955
  5.1933   5.2174   5.2342   5.2655   5.2844   5.2963   5.3049   5.3103
  5.3225   5.3526   5.3617   5.3719   5.4130   5.4314   5.4535   5.4643
  5.4847   5.4948   5.5238   5.5480   5.5508   5.5755   5.5850   5.6359
  5.6435   5.6945   5.7016   5.7425   5.7691   5.7917   5.8607   5.8666
  5.9035   5.9516   5.9909   6.0009   6.0411   6.0486   6.1433   6.2415
  6.5957   6.6188   6.6908   6.7566   6.7692   7.0144   7.0545   7.0917
  7.1212   7.2579   7.3012   7.3416   7.3593   7.4375   7.4524   7.4722
  7.4803   7.5204   7.5663   7.6254   7.7084   7.7436   7.8276   7.8807
  7.9288   8.2213  24.4040  24.7055  24.7794  24.8347  24.9045  25.0731
 50.5775  50.6439  50.6629  50.6842
 
 Beta MOs
 -- Occupied --
-19.4076 -19.4065 -19.3490 -19.3457 -10.4139 -10.4089 -10.4077 -10.4073
-10.3981 -10.3715  -1.2758  -1.1698  -1.1456  -1.0699  -0.9531  -0.8803
 -0.8200  -0.7650  -0.7236  -0.6956  -0.6793  -0.6238  -0.6073  -0.5812
 -0.5727  -0.5469  -0.5342  -0.5206  -0.5153  -0.4929  -0.4713  -0.4641
 -0.4483  -0.4202  -0.3910  -0.3892  -0.3567
 -- Virtual --
 -0.0503   0.0261   0.0365   0.0371   0.0486   0.0570   0.0576   0.0646
  0.0850   0.0943   0.0955   0.1040   0.1195   0.1298   0.1340   0.1363
  0.1416   0.1469   0.1546   0.1563   0.1584   0.1621   0.1670   0.1693
  0.1743   0.1835   0.1865   0.1871   0.2021   0.2091   0.2173   0.2244
  0.2369   0.2400   0.2502   0.2533   0.2673   0.2742   0.2919   0.2941
  0.3123   0.3193   0.3315   0.3370   0.3422   0.3482   0.3504   0.3600
  0.3667   0.3732   0.3752   0.3789   0.3849   0.3910   0.3933   0.3987
  0.4003   0.4072   0.4174   0.4257   0.4367   0.4525   0.4548   0.4675
  0.4766   0.4896   0.5084   0.5409   0.5735   0.5860   0.6035   0.6058
  0.6118   0.6316   0.6464   0.6536   0.6583   0.6700   0.6734   0.6882
  0.7005   0.7099   0.7130   0.7246   0.7344   0.7468   0.7574   0.7602
  0.7753   0.7828   0.8063   0.8071   0.8419   0.8474   0.8567   0.8810
  0.9125   0.9202   0.9445   0.9773   0.9964   1.0089   1.0248   1.0630
  1.0859   1.1046   1.1187   1.1264   1.1316   1.1368   1.1595   1.1646
  1.1808   1.1918   1.1956   1.2188   1.2406   1.2435   1.2502   1.2539
  1.2693   1.2724   1.2821   1.2907   1.2937   1.3049   1.3153   1.3255
  1.3370   1.3527   1.3586   1.3674   1.3721   1.3850   1.4081   1.4193
  1.4332   1.4523   1.4634   1.4750   1.4813   1.5032   1.5200   1.5248
  1.5494   1.5605   1.5765   1.5875   1.6108   1.6238   1.6345   1.6514
  1.6864   1.7027   1.7175   1.7618   1.7673   1.7920   1.8143   1.8557
  1.8643   1.8868   1.9121   1.9317   1.9575   1.9761   2.0112   2.0288
  2.0394   2.0585   2.0895   2.1055   2.1551   2.1730   2.2175   2.2757
  2.2873   2.2986   2.3919   2.4085   2.4265   2.4402   2.4507   2.5297
  2.6298   2.6535   2.6874   2.7024   2.7398   2.7719   2.7960   2.8064
  2.8136   2.8397   2.8496   2.8549   2.8940   2.9331   2.9406   2.9595
  2.9648   2.9860   3.0182   3.0288   3.0584   3.0650   3.0930   3.1140
  3.1399   3.1545   3.1817   3.2047   3.2683   3.2821   3.2929   3.3028
  3.3215   3.3393   3.3624   3.3757   3.4005   3.4148   3.4372   3.4518
  3.4851   3.4913   3.5072   3.5117   3.5359   3.5620   3.5660   3.5983
  3.6141   3.6300   3.6427   3.6654   3.6721   3.6892   3.7122   3.7489
  3.7520   3.7726   3.7887   3.8127   3.8234   3.8514   3.8565   3.8675
  3.8704   3.8812   3.9234   3.9418   3.9591   3.9694   4.0015   4.0119
  4.0421   4.0534   4.0922   4.1148   4.1312   4.1410   4.1881   4.2000
  4.2345   4.2478   4.2622   4.2699   4.3165   4.3237   4.3425   4.3734
  4.3877   4.3952   4.4267   4.4596   4.4656   4.5019   4.5437   4.5533
  4.5611   4.5944   4.6083   4.6209   4.6298   4.6747   4.6842   4.6960
  4.7342   4.7737   4.7974   4.8086   4.8662   4.9541   5.0153   5.0621
  5.1031   5.2043   5.2341   5.2439   5.2782   5.2874   5.3058   5.3094
  5.3269   5.3347   5.3683   5.3792   5.3819   5.4185   5.4442   5.4616
  5.4807   5.4942   5.5043   5.5361   5.5517   5.5587   5.5788   5.5874
  5.6420   5.6674   5.6965   5.7087   5.7488   5.7726   5.7973   5.8633
  5.8720   5.9079   5.9622   6.0049   6.0135   6.0456   6.0594   6.1490
  6.2427   6.5988   6.6205   6.6979   6.7593   6.7732   7.0163   7.1102
  7.1210   7.1443   7.2600   7.3028   7.3425   7.3605   7.4431   7.4671
  7.4744   7.4823   7.5229   7.6275   7.6304   7.7096   7.7708   7.8281
  7.8830   7.9305   8.2223  24.4069  24.7057  24.7796  24.8348  24.9049
 25.0773  50.5781  50.6442  50.6717  50.6853
 --------------------------------------------------------------
 
          Ground-State Mulliken Net Atomic Charges

     Atom                 Charge (a.u.)    Spin (a.u.)
  --------------------------------------------------------
      1 C                     0.074053      -0.024604
      2 O                    -0.134153       0.029387
      3 O                    -0.128637      -0.000743
      4 C                    -0.288903       0.005450
      5 O                    -0.428438       0.001682
      6 C                    -0.135545      -0.014623
      7 C                    -0.190504       0.084932
      8 O                    -0.357564       0.458665
      9 C                    -0.193948      -0.130629
     10 C                    -0.262059       0.590404
     11 H                     0.287137       0.003131
     12 H                     0.266693      -0.001901
     13 H                     0.340544       0.000099
     14 H                     0.275397       0.000731
     15 H                     0.258011       0.002319
     16 H                     0.310567       0.003068
     17 H                     0.307349      -0.007369
  --------------------------------------------------------
  Sum of atomic charges =    -0.000000
  Sum of spin   charges =     1.000000

 -----------------------------------------------------------------
                    Cartesian Multipole Moments
 -----------------------------------------------------------------
    Charge (ESU x 10^10)
                -0.0000
    Dipole Moment (Debye)
         X      -1.4069      Y      -1.6238      Z      -1.0515
       Tot       2.3920
    Quadrupole Moments (Debye-Ang)
        XX     -57.9449     XY       8.2124     YY     -58.4854
        XZ      -7.4259     YZ       1.7106     ZZ     -64.1445
    Octopole Moments (Debye-Ang^2)
       XXX     -19.4361    XXY     -11.1020    XYY     -10.8498
       YYY     -59.7640    XXZ     -25.2051    XYZ       2.0535
       YYZ     -33.1417    XZZ      -2.1201    YZZ     -38.4273
       ZZZ     -93.3515
    Hexadecapole Moments (Debye-Ang^3)
      XXXX    -459.6645   XXXY      95.5636   XXYY    -175.0365
      XYYY      61.1914   YYYY    -559.4776   XXXZ      -8.9861
      XXYZ     -19.1477   XYYZ      -9.9802   YYYZ     -74.8390
      XXZZ    -138.9206   XYZZ      20.8125   YYZZ    -204.6542
      XZZZ      21.9325   YZZZ    -139.9876   ZZZZ    -468.8471
 -----------------------------------------------------------------
 Calculating analytic gradient of the SCF energy
 Gradient of CDS energy
            1           2           3           4           5           6
    1  -0.0002062   0.0001185  -0.0001040  -0.0003042   0.0004263   0.0000142
    2   0.0002021   0.0000174  -0.0000637   0.0013429  -0.0014205   0.0001543
    3   0.0000054  -0.0000306   0.0000420   0.0010357  -0.0007736  -0.0001352
            7           8           9          10          11          12
    1   0.0022432  -0.0018591   0.0000844  -0.0002892  -0.0001817   0.0000996
    2  -0.0034353   0.0034644  -0.0002894  -0.0003231   0.0000794  -0.0001253
    3   0.0035459  -0.0035347  -0.0002281   0.0000420   0.0001187   0.0000476
           13          14          15          16          17
    1  -0.0001895   0.0000929   0.0001054   0.0000844  -0.0001351
    2   0.0004612   0.0002053   0.0000372  -0.0001653  -0.0001416
    3   0.0000864   0.0000427  -0.0001652  -0.0000929  -0.0000062
 Gradient of SCF Energy
            1           2           3           4           5           6
    1   0.0084548  -0.0014243   0.0001756   0.0005481   0.0045298  -0.0095394
    2   0.0043562  -0.0009553   0.0009504   0.0020878  -0.0023153  -0.0025944
    3  -0.0096597  -0.0015757  -0.0028583   0.0005719   0.0101759  -0.0046174
            7           8           9          10          11          12
    1  -0.0020252   0.0024833   0.0044639   0.0034767  -0.0088181   0.0001995
    2  -0.0020952  -0.0036509   0.0073289   0.0065493  -0.0019334  -0.0018071
    3   0.0111946   0.0021525  -0.0008709   0.0054158   0.0058023   0.0022940
           13          14          15          16          17
    1  -0.0039209   0.0062011   0.0041821   0.0004202  -0.0094072
    2   0.0048238   0.0048940   0.0015075  -0.0074420  -0.0097041
    3  -0.0049570   0.0001138  -0.0060618  -0.0067079  -0.0004121
 Max gradient component =       1.119E-02
 RMS gradient           =       5.160E-03
 Computing fast CPCM-SWIG gradient
 Updating gradient with PCM contributions...
 -- total gradient after adding PCM contribution --
---------------------------------------------------
  Atom         X              Y              Z     
---------------------------------------------------
   1      -0.001178      -0.000046       0.000260
   2       0.000176      -0.000059       0.000122
   3       0.000041       0.000035      -0.000067
   4       0.000257       0.000086       0.000055
   5      -0.000041      -0.000023       0.000008
   6       0.000077       0.000032      -0.000007
   7       0.000036      -0.000099       0.000051
   8      -0.000025       0.000134      -0.000090
   9      -0.000111      -0.000049       0.000086
  10       0.000379      -0.000055      -0.000130
  11       0.000455      -0.000017      -0.000252
  12       0.000010      -0.000006      -0.000004
  13       0.000007       0.000002       0.000006
  14      -0.000003       0.000006       0.000001
  15      -0.000024      -0.000001       0.000038
  16      -0.000040       0.000030      -0.000074
  17      -0.000016       0.000031      -0.000004
---------------------------------------------------
 Number of fixed atoms: 0
 Gradient time:  CPU 400.09 s  wall 31.21 s
 ----------------------------------------------------------------
             Standard Nuclear Orientation (Angstroms)
    I     Atom           X                Y                Z
 ----------------------------------------------------------------
    1      C      -1.1842358552     0.2187847230     0.8498135652
    2      O      -1.4599085590     1.1580347255    -0.2102182900
    3      O      -0.1549760569     1.6715134026    -0.6417252546
    4      C       0.0146547178     0.8659133810     1.5259816276
    5      O      -0.3246038574     2.0489689200     2.2167165251
    6      C       0.8192277483     1.1311857166     0.2640519542
    7      C       1.3715963692    -0.1647052023    -0.3197902282
    8      O       1.8440613917    -1.0779311981     0.6238431996
    9      C       0.3623859534    -1.2483944255    -0.4161622367
   10      C      -0.8401078891    -1.1078443891     0.2405291943
   11      H      -2.0772629875     0.1997492249     1.4671191791
   12      H       0.5194358042     0.2050902616     2.2190132942
   13      H      -0.7870798579     2.6418973218     1.6116818853
   14      H       1.5822216222     1.8948570134     0.3949509249
   15      H       2.0111201184    -0.0163349833    -1.1869240021
   16      H       0.5873555261    -2.1066877796    -1.0271664362
   17      H      -1.5853735883    -1.8889600122     0.2063345983
 ----------------------------------------------------------------
 Nuclear Repulsion Energy =         580.74640986 hartrees
 There are       38 alpha and       37 beta electrons
 Discretize the solute cavity surface with Lebedev spheres
	Using 110 Lebedev grid points for each H atom
	Using 194 Lebedev grid points for other atoms
	Atomic van der Waals radii will be scaled by 1.20
 Remove points where switching function is < 1.0e-08
 Keep 1238 surface tesserae and discard 1472 interior tesserae
 Molecular Surface Area = 141.388 Angst**2
 Requested basis set is 6-311++G(2df,2p)
 There are 122 shells and 410 basis functions
 A cutoff of  1.0D-12 yielded   7008 shell pairs
 There are     80093 function pairs (    100858 Cartesian)
 Smallest overlap matrix eigenvalue = 4.93E-06
 Guess MOs from SCF MO coefficient file

 -----------------------------------------------------------------------
  General SCF calculation program by
  Eric Jon Sundstrom, Paul Horn, Yuezhi Mao, Dmitri Zuev, Alec White,
  David Stuck, Shaama M.S., Shane Yost, Joonho Lee, David Small,
  Daniel Levine, Susi Lehtola, Hugh Burton, Evgeny Epifanovsky,
  Bang C. Huynh
 -----------------------------------------------------------------------
 Exchange:     0.1500 Hartree-Fock + 1.0000 wB97M-V + LR-HF
 Correlation:  1.0000 wB97M-V
 Using SG-2 standard quadrature grid
 Nonlocal Correlation:  VV10 with C = 0.0100 and b = 6.00 and scale = 1.00000
 Grid used for NLC:  SG-1 standard quadrature
 
 Citation of the SMD model:
 Marenich, A.V.; Cramer, C.J.; Truhlar, D.G.
 J. Phys. Chem. B 2009, 113, 6378-6396.
 iSolventCode=           1
 Solvent: water                                                           
 
 vradii
            1           2           3           4           5           6
    1   1.8500000   1.5200000   1.5200000   1.8500000   1.5200000   1.8500000
            7           8           9          10          11          12
    1   1.8500000   1.5200000   1.8500000   1.8500000   1.2000000   1.2000000
           13          14          15          16          17
    1   1.2000000   1.2000000   1.2000000   1.2000000   1.2000000
 -------------------------------------------------------
 OpenMP BLAS3 based DFT computing Module                
 Release: version 1.0, May 2013, Q-Chem Inc. Pittsburgh 
 -------------------------------------------------------
 A unrestricted SCF calculation will be
 performed using Roothaan-Hall, DIIS, GDM
 SCF converges when RMS gradient is below 1.0e-07
 ---------------------------------------
  Cycle       Energy         DIIS error
 ---------------------------------------
    1    -533.5340888881      1.76e-04  Roothaan Step
 ---------------------------------------
  Cycle       Energy         DIIS error
 ---------------------------------------
    1    -533.5595741747      2.12e-04  
    2    -533.5618620190      2.34e-04  Done DIIS. Switching to GDM
 ---------------------------------------
  Cycle       Energy        RMS Gradient
 ---------------------------------------
    1    -533.5618620190      1.46e-02   Normal BFGS step
    2    -533.5602967281      2.39e-02  Line search: overstep
    3    -533.5649292915      2.57e-03   Normal BFGS step
    4    -533.5650436155      1.18e-03   Normal BFGS step
    5    -533.5650693287      7.48e-04   Normal BFGS step
    6    -533.5650755327      4.38e-04   Normal BFGS step
    7    -533.5650768134      3.28e-04   Normal BFGS step
    8    -533.5650775515      1.54e-04   Normal BFGS step
    9    -533.5650777521      9.09e-05   Normal BFGS step
   10    -533.5650778272      4.51e-05   Normal BFGS step
   11    -533.5650778493      2.18e-05   Normal BFGS step
   12    -533.5650778547      8.18e-06   Normal BFGS step
   13    -533.5650778559      3.23e-06   Normal BFGS step
   14    -533.5650778561      2.70e-06   Normal BFGS step
   15    -533.5650778562      1.88e-06   Normal BFGS step
   16    -533.5650778562      1.16e-06   Normal BFGS step
   17    -533.5650778562      4.44e-07   Normal BFGS step
   18    -533.5650778562      2.00e-07   Normal BFGS step
   19    -533.5650778561      5.93e-08  Convergence criterion met
 ---------------------------------------
 SCF time:   CPU 2655.39s  wall 179.00s 
<S^2> =          0.783764811
(3)  G-ENP(liq) elect-nuc-pol free energy of system     -533.565077856 a.u.
(4)  G-CDS(liq) cavity-dispersion-solvent structure 
     free energy                                                2.1292 kcal/mol
(6)  G-S(liq) free energy of system                     -533.561684729 a.u.
 SCF   energy in the final basis set =     -533.5616847293
 Total energy in the final basis set =     -533.5616847293
 
 --------------------------------------------------------------
 
                    Orbital Energies (a.u.)
 --------------------------------------------------------------
 
 Alpha MOs
 -- Occupied --
-19.4091 -19.4064 -19.3593 -19.3490 -10.4135 -10.4090 -10.4084 -10.4074
-10.3969 -10.3799  -1.2773  -1.1710  -1.1681  -1.0718  -0.9628  -0.8868
 -0.8283  -0.7670  -0.7308  -0.6996  -0.6806  -0.6284  -0.6139  -0.5916
 -0.5761  -0.5543  -0.5360  -0.5273  -0.5205  -0.4995  -0.4849  -0.4666
 -0.4570  -0.4418  -0.4051  -0.3992  -0.3616  -0.3363
 -- Virtual --
  0.0262   0.0367   0.0372   0.0470   0.0552   0.0573   0.0614   0.0846
  0.0863   0.0943   0.1029   0.1150   0.1301   0.1332   0.1366   0.1409
  0.1470   0.1522   0.1564   0.1575   0.1614   0.1670   0.1690   0.1706
  0.1834   0.1851   0.1871   0.2014   0.2083   0.2148   0.2244   0.2369
  0.2400   0.2501   0.2514   0.2640   0.2734   0.2908   0.2935   0.3115
  0.3173   0.3285   0.3350   0.3402   0.3474   0.3497   0.3591   0.3656
  0.3720   0.3746   0.3785   0.3847   0.3899   0.3924   0.3968   0.3997
  0.4066   0.4166   0.4246   0.4346   0.4496   0.4538   0.4655   0.4748
  0.4873   0.5070   0.5376   0.5700   0.5827   0.6020   0.6028   0.6102
  0.6278   0.6429   0.6529   0.6572   0.6641   0.6731   0.6855   0.6984
  0.7097   0.7116   0.7235   0.7331   0.7451   0.7554   0.7577   0.7717
  0.7796   0.8007   0.8051   0.8410   0.8457   0.8551   0.8790   0.9099
  0.9199   0.9429   0.9760   0.9944   1.0074   1.0220   1.0623   1.0846
  1.1035   1.1161   1.1245   1.1297   1.1353   1.1558   1.1628   1.1791
  1.1884   1.1944   1.2172   1.2373   1.2391   1.2476   1.2486   1.2657
  1.2693   1.2799   1.2891   1.2904   1.3032   1.3123   1.3226   1.3353
  1.3515   1.3564   1.3645   1.3703   1.3835   1.4049   1.4132   1.4275
  1.4495   1.4617   1.4733   1.4783   1.5001   1.5174   1.5202   1.5479
  1.5583   1.5741   1.5857   1.6077   1.6193   1.6329   1.6486   1.6827
  1.6969   1.7151   1.7574   1.7654   1.7899   1.8078   1.8495   1.8597
  1.8842   1.9083   1.9229   1.9551   1.9688   2.0072   2.0233   2.0382
  2.0553   2.0812   2.1016   2.1488   2.1685   2.2164   2.2712   2.2866
  2.2962   2.3908   2.4072   2.4187   2.4387   2.4477   2.5272   2.6205
  2.6512   2.6864   2.6948   2.7379   2.7692   2.7919   2.7998   2.8047
  2.8314   2.8418   2.8487   2.8946   2.9127   2.9317   2.9451   2.9548
  2.9742   3.0037   3.0193   3.0562   3.0607   3.0898   3.1095   3.1341
  3.1499   3.1775   3.1987   3.2609   3.2765   3.2877   3.2968   3.3157
  3.3361   3.3574   3.3683   3.3909   3.4079   3.4294   3.4459   3.4818
  3.4891   3.4997   3.5064   3.5260   3.5530   3.5588   3.5955   3.6018
  3.6272   3.6401   3.6605   3.6697   3.6849   3.7050   3.7330   3.7466
  3.7697   3.7822   3.8095   3.8189   3.8472   3.8546   3.8632   3.8666
  3.8773   3.9201   3.9374   3.9558   3.9653   3.9983   4.0093   4.0379
  4.0520   4.0874   4.1097   4.1283   4.1383   4.1827   4.1954   4.2303
  4.2385   4.2537   4.2633   4.3152   4.3189   4.3395   4.3690   4.3859
  4.3863   4.4231   4.4543   4.4616   4.4970   4.5366   4.5429   4.5525
  4.5873   4.6060   4.6174   4.6190   4.6709   4.6801   4.6915   4.7330
  4.7707   4.7943   4.8033   4.8590   4.9446   5.0076   5.0566   5.0956
  5.1933   5.2181   5.2343   5.2656   5.2845   5.2963   5.3049   5.3103
  5.3225   5.3526   5.3618   5.3720   5.4131   5.4314   5.4538   5.4642
  5.4846   5.4947   5.5240   5.5479   5.5507   5.5756   5.5849   5.6359
  5.6436   5.6944   5.7015   5.7425   5.7695   5.7917   5.8610   5.8666
  5.9032   5.9516   5.9910   6.0009   6.0410   6.0486   6.1435   6.2412
  6.5972   6.6188   6.6908   6.7567   6.7693   7.0143   7.0545   7.0917
  7.1212   7.2580   7.3016   7.3417   7.3594   7.4376   7.4525   7.4722
  7.4804   7.5202   7.5663   7.6257   7.7085   7.7436   7.8276   7.8809
  7.9289   8.2214  24.4037  24.7053  24.7793  24.8363  24.9046  25.0728
 50.5777  50.6439  50.6629  50.6842
 
 Beta MOs
 -- Occupied --
-19.4077 -19.4065 -19.3490 -19.3457 -10.4140 -10.4088 -10.4077 -10.4074
-10.3981 -10.3715  -1.2759  -1.1698  -1.1456  -1.0699  -0.9532  -0.8803
 -0.8200  -0.7650  -0.7236  -0.6956  -0.6794  -0.6238  -0.6073  -0.5812
 -0.5727  -0.5469  -0.5342  -0.5206  -0.5153  -0.4929  -0.4713  -0.4641
 -0.4482  -0.4202  -0.3911  -0.3892  -0.3567
 -- Virtual --
 -0.0503   0.0261   0.0365   0.0371   0.0486   0.0570   0.0576   0.0646
  0.0850   0.0943   0.0955   0.1040   0.1195   0.1298   0.1340   0.1363
  0.1416   0.1469   0.1547   0.1563   0.1584   0.1621   0.1670   0.1693
  0.1743   0.1834   0.1865   0.1871   0.2021   0.2091   0.2173   0.2244
  0.2369   0.2400   0.2502   0.2533   0.2672   0.2742   0.2920   0.2941
  0.3123   0.3193   0.3315   0.3369   0.3422   0.3482   0.3504   0.3600
  0.3667   0.3733   0.3752   0.3790   0.3850   0.3910   0.3933   0.3987
  0.4003   0.4072   0.4174   0.4256   0.4367   0.4524   0.4549   0.4674
  0.4766   0.4896   0.5084   0.5409   0.5737   0.5859   0.6035   0.6057
  0.6118   0.6316   0.6465   0.6536   0.6583   0.6700   0.6735   0.6882
  0.7005   0.7098   0.7130   0.7246   0.7344   0.7467   0.7574   0.7601
  0.7752   0.7828   0.8063   0.8071   0.8419   0.8474   0.8568   0.8810
  0.9125   0.9203   0.9446   0.9773   0.9965   1.0090   1.0248   1.0631
  1.0859   1.1046   1.1187   1.1264   1.1316   1.1368   1.1595   1.1647
  1.1808   1.1919   1.1956   1.2188   1.2406   1.2434   1.2500   1.2539
  1.2693   1.2725   1.2821   1.2907   1.2936   1.3049   1.3153   1.3255
  1.3369   1.3527   1.3586   1.3674   1.3720   1.3850   1.4081   1.4193
  1.4333   1.4523   1.4634   1.4750   1.4813   1.5032   1.5200   1.5248
  1.5494   1.5605   1.5765   1.5874   1.6108   1.6239   1.6345   1.6514
  1.6864   1.7027   1.7175   1.7620   1.7673   1.7920   1.8142   1.8557
  1.8645   1.8868   1.9122   1.9316   1.9575   1.9762   2.0111   2.0290
  2.0394   2.0586   2.0895   2.1055   2.1552   2.1731   2.2177   2.2758
  2.2876   2.2987   2.3918   2.4087   2.4266   2.4404   2.4506   2.5298
  2.6298   2.6535   2.6875   2.7027   2.7400   2.7720   2.7961   2.8064
  2.8137   2.8398   2.8496   2.8550   2.8941   2.9331   2.9408   2.9595
  2.9650   2.9861   3.0183   3.0290   3.0583   3.0651   3.0933   3.1141
  3.1401   3.1546   3.1817   3.2048   3.2683   3.2823   3.2931   3.3029
  3.3215   3.3394   3.3622   3.3758   3.4005   3.4149   3.4372   3.4518
  3.4852   3.4912   3.5073   3.5118   3.5361   3.5620   3.5659   3.5983
  3.6141   3.6299   3.6427   3.6655   3.6721   3.6893   3.7122   3.7489
  3.7520   3.7725   3.7888   3.8127   3.8234   3.8515   3.8565   3.8676
  3.8705   3.8814   3.9236   3.9419   3.9592   3.9695   4.0018   4.0116
  4.0423   4.0537   4.0921   4.1150   4.1315   4.1410   4.1881   4.2000
  4.2347   4.2476   4.2623   4.2700   4.3164   4.3236   4.3427   4.3732
  4.3874   4.3947   4.4264   4.4597   4.4655   4.5019   4.5439   4.5532
  4.5613   4.5945   4.6080   4.6209   4.6299   4.6747   4.6842   4.6961
  4.7341   4.7739   4.7974   4.8086   4.8661   4.9538   5.0152   5.0618
  5.1031   5.2043   5.2347   5.2440   5.2783   5.2875   5.3058   5.3095
  5.3269   5.3348   5.3684   5.3792   5.3820   5.4186   5.4443   5.4618
[...]
 Applying Cartesian multipole field
    Component          Value
    ---------          -----
     (2,0,0)        1.00000E-11
     (0,2,0)        2.00000E-11
     (0,0,2)       -3.00000E-11
 Nucleus-field energy     =     0.0000000037 hartrees
 Requested basis set is 6-311++G(2df,2p)
 There are 122 shells and 410 basis functions
 A cutoff of  1.0D-12 yielded   7010 shell pairs
 There are     80135 function pairs (    100928 Cartesian)
 Smallest overlap matrix eigenvalue = 4.08E-06
 Guess MOs from SCF MO coefficient file

 -----------------------------------------------------------------------
  General SCF calculation program by
  Eric Jon Sundstrom, Paul Horn, Yuezhi Mao, Dmitri Zuev, Alec White,
  David Stuck, Shaama M.S., Shane Yost, Joonho Lee, David Small,
  Daniel Levine, Susi Lehtola, Hugh Burton, Evgeny Epifanovsky,
  Bang C. Huynh
 -----------------------------------------------------------------------
 Exchange:     0.1500 Hartree-Fock + 1.0000 wB97M-V + LR-HF
 Correlation:  1.0000 wB97M-V
 Using SG-2 standard quadrature grid
 Nonlocal Correlation:  VV10 with C = 0.0100 and b = 6.00 and scale = 1.00000
 Grid used for NLC:  SG-1 standard quadrature
 
 Citation of the SMD model:
 Marenich, A.V.; Cramer, C.J.; Truhlar, D.G.
 J. Phys. Chem. B 2009, 113, 6378-6396.
 iSolventCode=           1
 Solvent: water                                                           
 
 vradii
            1           2           3           4           5           6
    1   1.8500000   1.5200000   1.5200000   1.8500000   1.5200000   1.8500000
            7           8           9          10          11          12
    1   1.8500000   1.5200000   1.8500000   1.8500000   1.2000000   1.2000000
           13          14          15          16          17
    1   1.2000000   1.2000000   1.2000000   1.2000000   1.2000000
 -------------------------------------------------------
 OpenMP BLAS3 based DFT computing Module                
 Release: version 1.0, May 2013, Q-Chem Inc. Pittsburgh 
 -------------------------------------------------------
 A unrestricted SCF calculation will be
 performed using Roothaan-Hall, DIIS, GDM
 SCF converges when RMS gradient is below 1.0e-07
 ---------------------------------------
  Cycle       Energy         DIIS error
 ---------------------------------------
    1    -533.5454121947      1.67e-04  Roothaan Step
 ---------------------------------------
  Cycle       Energy         DIIS error
 ---------------------------------------
    1    -533.5691808242      1.85e-04  
    2    -533.5715275434      1.78e-04  Done DIIS. Switching to GDM
 ---------------------------------------
  Cycle       Energy        RMS Gradient
 ---------------------------------------
    1    -533.5715275434      5.79e-03   Normal BFGS step
    2    -533.5710423825      9.53e-03  Line search: overstep
    3    -533.5732900396      1.48e-03   Normal BFGS step
    4    -533.5733752389      6.11e-04   Normal BFGS step
    5    -533.5733879851      3.04e-04   Normal BFGS step
    6    -533.5733928456      1.64e-04   Normal BFGS step
    7    -533.5733930965      1.15e-04   Normal BFGS step
    8    -533.5733932574      7.37e-05   Normal BFGS step
    9    -533.5733932774      3.06e-05   Normal BFGS step
   10    -533.5733932867      1.38e-05   Normal BFGS step
   11    -533.5733932879      2.93e-06   Normal BFGS step
   12    -533.5733932881      1.32e-06   Normal BFGS step
   13    -533.5733932881      4.61e-07   Normal BFGS step
   14    -533.5733932881      3.21e-07   Normal BFGS step
   15    -533.5733932881      1.47e-07   Normal BFGS step
   16    -533.5733932881      7.71e-08  Convergence criterion met
 ---------------------------------------
 SCF time:   CPU 2285.00s  wall 154.00s 
<S^2> =          0.755520655
(3)  G-ENP(liq) elect-nuc-pol free energy of system     -533.573393288 a.u.
(4)  G-CDS(liq) cavity-dispersion-solvent structure 
     free energy                                                2.1063 kcal/mol
(6)  G-S(liq) free energy of system                     -533.570036703 a.u.
 SCF   energy in the final basis set =     -533.5700367034
 Total energy in the final basis set =     -533.5700367034
 
 --------------------------------------------------------------
 
                    Orbital Energies (a.u.)
 --------------------------------------------------------------
 
 Alpha MOs
 -- Occupied --
-19.4054 -19.4045 -19.3638 -19.3486 -10.4094 -10.4090 -10.4085 -10.4066
-10.4064 -10.3688  -1.2737  -1.2166  -1.1694  -1.0681  -0.9518  -0.8720
 -0.8240  -0.7645  -0.7275  -0.7074  -0.6809  -0.6290  -0.6145  -0.6004
 -0.5791  -0.5467  -0.5400  -0.5255  -0.5184  -0.4974  -0.4902  -0.4641
 -0.4507  -0.4335  -0.4097  -0.4003  -0.3615  -0.3134
 -- Virtual --
  0.0264   0.0369   0.0377   0.0469   0.0574   0.0586   0.0705   0.0861
  0.0920   0.0957   0.1122   0.1240   0.1295   0.1355   0.1397   0.1446
  0.1469   0.1562   0.1581   0.1612   0.1630   0.1667   0.1686   0.1818
  0.1844   0.1864   0.1889   0.2034   0.2092   0.2248   0.2312   0.2394
  0.2408   0.2478   0.2561   0.2688   0.2734   0.2840   0.2954   0.3088
  0.3143   0.3251   0.3341   0.3371   0.3440   0.3523   0.3589   0.3622
  0.3689   0.3756   0.3785   0.3860   0.3892   0.3933   0.3961   0.4024
  0.4081   0.4214   0.4253   0.4299   0.4445   0.4549   0.4613   0.4760
  0.4899   0.5071   0.5424   0.5749   0.5815   0.6008   0.6053   0.6125
  0.6290   0.6376   0.6524   0.6549   0.6703   0.6737   0.6835   0.6990
  0.7040   0.7145   0.7228   0.7316   0.7357   0.7469   0.7537   0.7611
  0.7700   0.7998   0.8105   0.8395   0.8506   0.8603   0.8821   0.8993
  0.9248   0.9410   0.9756   1.0024   1.0133   1.0297   1.0487   1.0770
  1.1129   1.1165   1.1214   1.1314   1.1361   1.1506   1.1702   1.1790
  1.1869   1.2012   1.2200   1.2312   1.2405   1.2493   1.2546   1.2651
  1.2736   1.2754   1.2870   1.2972   1.3083   1.3100   1.3271   1.3330
  1.3496   1.3629   1.3677   1.3761   1.3818   1.4033   1.4134   1.4250
  1.4459   1.4580   1.4769   1.4914   1.5142   1.5211   1.5259   1.5402
  1.5587   1.5815   1.5915   1.5957   1.6210   1.6463   1.6576   1.6731
  1.6847   1.7206   1.7567   1.7745   1.7914   1.8215   1.8317   1.8630
  1.8924   1.9005   1.9366   1.9684   1.9901   2.0031   2.0328   2.0512
  2.0899   2.1095   2.1200   2.1766   2.2037   2.2286   2.2625   2.2840
  2.2984   2.3882   2.3948   2.4188   2.4387   2.4626   2.5113   2.6177
  2.6534   2.6686   2.7038   2.7388   2.7541   2.7867   2.8043   2.8194
  2.8322   2.8540   2.8758   2.8953   2.9199   2.9312   2.9408   2.9605
  2.9865   3.0304   3.0326   3.0642   3.0722   3.0808   3.1106   3.1473
  3.1665   3.1793   3.2053   3.2470   3.2582   3.2781   3.3030   3.3203
  3.3359   3.3579   3.3751   3.3885   3.4114   3.4459   3.4513   3.4788
  3.4876   3.4979   3.5000   3.5253   3.5582   3.5852   3.6049   3.6082
  3.6175   3.6284   3.6617   3.6782   3.6886   3.7158   3.7312   3.7448
  3.7630   3.7844   3.7926   3.8137   3.8266   3.8417   3.8506   3.8743
  3.8949   3.9049   3.9184   3.9244   3.9688   4.0068   4.0098   4.0380
  4.0536   4.0694   4.1009   4.1405   4.1567   4.1689   4.2092   4.2431
  4.2482   4.2719   4.2788   4.3086   4.3187   4.3280   4.3541   4.3715
  4.3919   4.4020   4.4283   4.4462   4.4751   4.5000   4.5325   4.5596
  4.5644   4.5729   4.5935   4.6226   4.6632   4.6753   4.6786   4.7433
  4.7683   4.7958   4.8005   4.8792   4.9430   5.0025   5.0598   5.1236
  5.1927   5.2267   5.2480   5.2786   5.2866   5.2907   5.3087   5.3290
  5.3406   5.3527   5.3748   5.3992   5.4389   5.4523   5.4556   5.4961
  5.5269   5.5300   5.5447   5.5609   5.5976   5.6066   5.6360   5.6767
  5.6928   5.7146   5.7466   5.7620   5.7878   5.8428   5.8752   5.8935
  5.9434   5.9785   5.9838   6.0237   6.0362   6.1303   6.2358   6.4514
  6.5600   6.6046   6.6590   6.7456   6.7686   7.0136   7.1208   7.1702
  7.2498   7.2798   7.2939   7.3435   7.3561   7.4486   7.4682   7.4781
  7.4824   7.5209   7.6227   7.7068   7.7337   7.8235   7.8379   7.8856
  7.9304   8.2200  24.4706  24.7029  24.7427  24.8205  24.8908  24.9550
 50.5786  50.6426  50.6657  50.7039
 
 Beta MOs
 -- Occupied --
-19.4045 -19.4032 -19.3605 -19.3484 -10.4101 -10.4090 -10.4082 -10.4076
-10.4056 -10.3566  -1.2716  -1.2104  -1.1690  -1.0653  -0.9443  -0.8586
 -0.8204  -0.7617  -0.7222  -0.7012  -0.6789  -0.6241  -0.6092  -0.5964
 -0.5746  -0.5400  -0.5365  -0.5174  -0.5160  -0.4939  -0.4835  -0.4624
 -0.4441  -0.4226  -0.4063  -0.3971  -0.3571
 -- Virtual --
 -0.0184   0.0260   0.0365   0.0375   0.0485   0.0571   0.0587   0.0713
  0.0862   0.0947   0.0974   0.1121   0.1236   0.1290   0.1348   0.1397
  0.1450   0.1461   0.1557   0.1575   0.1601   0.1639   0.1665   0.1691
  0.1819   0.1848   0.1861   0.1909   0.2025   0.2089   0.2238   0.2308
  0.2395   0.2441   0.2471   0.2657   0.2719   0.2748   0.2850   0.2962
  0.3100   0.3170   0.3274   0.3366   0.3411   0.3443   0.3527   0.3613
  0.3628   0.3697   0.3763   0.3801   0.3865   0.3899   0.3937   0.3964
  0.4026   0.4091   0.4237   0.4281   0.4310   0.4467   0.4589   0.4629
  0.4765   0.4928   0.5087   0.5455   0.5801   0.5863   0.6036   0.6087
  0.6184   0.6318   0.6400   0.6546   0.6556   0.6698   0.6823   0.6932
  0.7008   0.7049   0.7152   0.7237   0.7346   0.7380   0.7512   0.7587
  0.7641   0.7723   0.8075   0.8149   0.8422   0.8521   0.8615   0.8851
  0.9028   0.9256   0.9436   0.9776   1.0045   1.0163   1.0309   1.0492
  1.0784   1.1139   1.1198   1.1239   1.1321   1.1389   1.1532   1.1730
  1.1805   1.1893   1.2049   1.2226   1.2344   1.2421   1.2507   1.2587
  1.2667   1.2755   1.2766   1.2889   1.2985   1.3124   1.3138   1.3303
  1.3344   1.3522   1.3639   1.3699   1.3788   1.3847   1.4084   1.4159
  1.4289   1.4484   1.4608   1.4780   1.4956   1.5178   1.5249   1.5312
  1.5421   1.5608   1.5829   1.5965   1.5995   1.6263   1.6502   1.6610
  1.6753   1.6901   1.7256   1.7602   1.7778   1.7955   1.8264   1.8375
  1.8662   1.8939   1.9032   1.9396   1.9732   1.9959   2.0060   2.0345
  2.0528   2.0932   2.1120   2.1255   2.1806   2.2059   2.2314   2.2660
  2.2862   2.3005   2.3890   2.3964   2.4212   2.4408   2.4666   2.5135
  2.6314   2.6573   2.6747   2.7154   2.7410   2.7595   2.7896   2.8137
  2.8330   2.8461   2.8646   2.8881   2.9061   2.9349   2.9552   2.9585
  2.9957   3.0100   3.0409   3.0475   3.0722   3.0810   3.0914   3.1204
  3.1556   3.1712   3.1875   3.2129   3.2554   3.2640   3.2846   3.3181
  3.3242   3.3482   3.3733   3.3874   3.4041   3.4257   3.4560   3.4650
  3.4880   3.4997   3.5054   3.5095   3.5291   3.5729   3.5945   3.6111
  3.6231   3.6322   3.6348   3.6666   3.6866   3.6984   3.7277   3.7397
  3.7606   3.7705   3.7916   3.8051   3.8229   3.8306   3.8473   3.8534
  3.8794   3.8988   3.9099   3.9269   3.9340   3.9759   4.0118   4.0165
  4.0446   4.0590   4.0754   4.1101   4.1497   4.1624   4.1743   4.2210
  4.2549   4.2589   4.2797   4.2909   4.3115   4.3253   4.3368   4.3572
  4.3753   4.4023   4.4129   4.4387   4.4593   4.4830   4.5115   4.5452
  4.5637   4.5780   4.5822   4.6037   4.6276   4.6671   4.6795   4.6853
  4.7447   4.7728   4.8013   4.8050   4.8856   4.9564   5.0164   5.0663
  5.1325   5.2096   5.2366   5.2503   5.2818   5.2905   5.2944   5.3116
  5.3327   5.3447   5.3587   5.3790   5.4018   5.4444   5.4555   5.4611
  5.5005   5.5309   5.5389   5.5485   5.5640   5.6049   5.6148   5.6503
  5.6797   5.6943   5.7178   5.7525   5.7657   5.8081   5.8468   5.8767
  5.9037   5.9492   5.9830   5.9926   6.0266   6.0378   6.1347   6.2377
  6.4608   6.5650   6.6063   6.6609   6.7473   6.7695   7.0160   7.1213
  7.1790   7.2533   7.2884   7.2965   7.3442   7.3578   7.4502   7.4720
  7.4792   7.4897   7.5237   7.6264   7.7073   7.7445   7.8266   7.8443
  7.8895   7.9329   8.2216  24.4759  24.7049  24.7427  24.8209  24.8924
 24.9586  50.5796  50.6434  50.6667  50.7055
 --------------------------------------------------------------
 
          Ground-State Mulliken Net Atomic Charges

     Atom                 Charge (a.u.)    Spin (a.u.)
  --------------------------------------------------------
      1 C                     0.082119      -0.016080
      2 O                    -0.142658       0.041221
      3 O                    -0.131202       0.003539
      4 C                    -0.329367       0.003213
      5 O                    -0.431071       0.003114
      6 C                    -0.074376      -0.001038
      7 C                    -0.283682       0.063514
      8 O                    -0.282208       0.082529
      9 C                    -0.046614      -0.043860
     10 C                    -0.340524       0.862137
     11 H                     0.283510       0.006934
     12 H                     0.268871      -0.000045
     13 H                     0.340569       0.000101
     14 H                     0.270429       0.000273
     15 H                     0.258870       0.001630
     16 H                     0.248005       0.006204
     17 H                     0.309330      -0.013387
  --------------------------------------------------------
  Sum of atomic charges =    -0.000000
  Sum of spin   charges =     1.000000

 -----------------------------------------------------------------
                    Cartesian Multipole Moments
 -----------------------------------------------------------------
    Charge (ESU x 10^10)
                -0.0000
    Dipole Moment (Debye)
         X      -0.2033      Y      -1.7912      Z      -0.8465
       Tot       1.9915
    Quadrupole Moments (Debye-Ang)
        XX     -56.7948     XY       7.0574     YY     -58.6419
        XZ      -6.5580     YZ       1.4330     ZZ     -64.0833
    Octopole Moments (Debye-Ang^2)
       XXX     -11.3406    XXY     -12.3130    XYY      -8.0600
       YYY     -60.0024    XXZ     -24.4066    XYZ       0.7991
       YYZ     -32.6259    XZZ      -0.1228    YZZ     -38.0880
       ZZZ     -93.5792
    Hexadecapole Moments (Debye-Ang^3)
      XXXX    -430.2469   XXXY      88.8296   XXYY    -172.6368
      XYYY      57.4520   YYYY    -575.9875   XXXZ      -0.5939
      XXYZ     -19.0265   XYYZ      -6.5898   YYYZ     -73.6236
      XXZZ    -133.3493   XYZZ      19.7081   YYZZ    -207.3871
      XZZZ      29.0767   YZZZ    -137.3381   ZZZZ    -465.0785
 -----------------------------------------------------------------
 Calculating analytic gradient of the SCF energy
 Gradient of CDS energy
            1           2           3           4           5           6
    1  -0.0001926   0.0001137  -0.0001012  -0.0002933   0.0004136  -0.0000044
    2   0.0002085   0.0000257  -0.0000650   0.0012930  -0.0013711   0.0001826
    3  -0.0000111  -0.0000264   0.0000405   0.0010065  -0.0007481  -0.0001086
            7           8           9          10          11          12
    1   0.0004509  -0.0001186   0.0002616  -0.0003629  -0.0001840   0.0001030
    2   0.0000021   0.0001094  -0.0004256  -0.0003362   0.0000851  -0.0001334
    3  -0.0000946   0.0000178  -0.0001528   0.0000663   0.0001174   0.0000514
           13          14          15          16          17
    1  -0.0001917   0.0000923   0.0001212   0.0000225  -0.0001300
    2   0.0004598   0.0002056   0.0000331  -0.0001400  -0.0001336
    3   0.0000880   0.0000452  -0.0001472  -0.0001288  -0.0000154
 Gradient of SCF Energy
            1           2           3           4           5           6
    1   0.0077947  -0.0023474   0.0007075  -0.0006743   0.0038999  -0.0108304
    2   0.0037469   0.0005873  -0.0005221   0.0023833  -0.0021880  -0.0028978
    3  -0.0105859  -0.0005824  -0.0036289   0.0012575   0.0098486  -0.0044519
            7           8           9          10          11          12
    1  -0.0024559   0.0021445   0.0029817   0.0040288  -0.0077296   0.0005610
    2  -0.0041133  -0.0020791   0.0089182   0.0050980  -0.0019996  -0.0027509
    3   0.0102375   0.0011324   0.0045862   0.0033638   0.0048611   0.0027793
           13          14          15          16          17
    1  -0.0033151   0.0070252   0.0049074   0.0005289  -0.0072268
    2   0.0043022   0.0045810   0.0019521  -0.0072007  -0.0078174
    3  -0.0044427   0.0004491  -0.0083569  -0.0057346  -0.0007326
 Max gradient component =       1.083E-02
 RMS gradient           =       5.044E-03
 Computing fast CPCM-SWIG gradient
 Updating gradient with PCM contributions...
 -- total gradient after adding PCM contribution --
---------------------------------------------------
  Atom         X              Y              Z     
---------------------------------------------------
   1      -0.000331       0.000398      -0.000255
   2      -0.000336       0.001335       0.000890
   3       0.000197      -0.001273      -0.000964
   4      -0.000226      -0.000268       0.000093
   5      -0.000112      -0.000282       0.000133
   6       0.000054      -0.000124       0.000110
   7      -0.000159      -0.000801       0.000254
   8       0.000602       0.000479      -0.000146
   9       0.000713       0.000835       0.000640
  10      -0.000146       0.000716      -0.000912
  11      -0.000225      -0.000448      -0.000018
  12      -0.000486      -0.000384       0.000185
  13       0.000145      -0.000106       0.000062
  14       0.000231      -0.000421       0.000182
  15      -0.000652       0.000485      -0.001306
  16       0.000298      -0.000416       0.000988
  17       0.000434       0.000275       0.000062
---------------------------------------------------
 Number of fixed atoms: 0
 Gradient time:  CPU 399.86 s  wall 31.02 s
rPathMan2.  file_steps = 952
 IRC --- Status = 4.  Checking bisector search.
 IRC --- Bisector search finished successfully.
 ------------------------------------------------------------------------
 Reaction path following.  The coordinates are cartesian              
 Step   6 E=    -533.570037 |G|=  0.003879 S_lin= 0.5401 S_tot= 0.5601
 ------------------------------------------------------------------------
  IRC -- convergence criterion reached.
 ----------------------------------------------------------------
             Standard Nuclear Orientation (Angstroms)
    I     Atom           X                Y                Z
 ----------------------------------------------------------------
    1      C      -1.1842358552     0.2177847230     0.8498135652
    2      O      -1.4599085590     1.1580347255    -0.2102182900
    3      O      -0.1549760569     1.6715134026    -0.6417252546
    4      C       0.0146547178     0.8659133810     1.5259816276
    5      O      -0.3246038574     2.0489689200     2.2167165251
    6      C       0.8192277483     1.1311857166     0.2640519542
    7      C       1.3715963692    -0.1647052023    -0.3197902282
    8      O       1.8440613917    -1.0779311981     0.6238431996
    9      C       0.3623859534    -1.2483944255    -0.4161622367
   10      C      -0.8401078891    -1.1078443891     0.2405291943
   11      H      -2.0772629875     0.1997492249     1.4671191791
   12      H       0.5194358042     0.2050902616     2.2190132942
   13      H      -0.7870798579     2.6418973218     1.6116818853
   14      H       1.5822216222     1.8948570134     0.3949509249
   15      H       2.0111201184    -0.0163349833    -1.1869240021
   16      H       0.5873555261    -2.1066877796    -1.0271664362
   17      H      -1.5853735883    -1.8889600122     0.2063345983
 ----------------------------------------------------------------
 Nuclear Repulsion Energy =         580.73814342 hartrees
 There are       38 alpha and       37 beta electrons
 Here is where we should summarize the reaction path
 Total job time:  14584.57s(wall), 212108.10s(cpu) 
 Thu Apr 25 23:42:48 2024

        *************************************************************
        *                                                           *
        *  Thank you very much for using Q-Chem.  Have a nice day.  *
        *                                                           *
        *************************************************************


