
Running Job 1 of 2 Q_in.in
qchem Q_in.in_130319.0 /scratch/ari.fischer/qChem2102890.hpc-mn1/qchem130319/ 0
/usr/local/qchem-5.4.1/exe/qcprog.exe_s Q_in.in_130319.0 /scratch/ari.fischer/qChem2102890.hpc-mn1/qchem130319/
                  Welcome to Q-Chem
     A Quantum Leap Into The Future Of Chemistry


 Q-Chem 5.4, Q-Chem, Inc., Pleasanton, CA (2021)

 License issued to: Nanyang Technological University (site)

 E. Epifanovsky,  A. T. B. Gilbert,  Xintian Feng,  Joonho Lee,  Yuezhi Mao,  
 N. Mardirossian,  P. Pokhilko,  A. White,  M. Wormit,  M. P. Coons,  
 A. L. Dempwolff,  Zhengting Gan,  D. Hait,  P. R. Horn,  L. D. Jacobson,  
 I. Kaliman,  J. Kussmann,  A. W. Lange,  Ka Un Lao,  D. S. Levine,  Jie Liu,  
 S. C. McKenzie,  A. F. Morrison,  K. Nanda,  F. Plasser,  D. R. Rehn,  
 M. L. Vidal,  Zhi-Qiang You,  Ying Zhu,  B. Alam,  B. Albrecht,  
 A. Aldossary,  E. Alguire,  J. H. Andersen,  D. Barton,  K. Begam,  A. Behn,  
 Y. A. Bernard,  E. J. Berquist,  H. Burton,  A. Carreras,  K. Carter-Fenk,  
 R. Chakraborty,  A. D. Chien,  K. D. Closser,  V. Cofer-Shabica,  
 S. Dasgupta,  Jia Deng,  M. de Wergifosse,  M. Diedenhofen,  Hainam Do,  
 S. Ehlert,  Po-Tung Fang,  S. Fatehi,  Qingguo Feng,  T. Friedhoff,  
 J. Gayvert,  Qinghui Ge,  G. Gidofalvi,  M. Goldey,  J. Gomes,  
 C. Gonzalez-Espinoza,  S. Gulania,  A. Gunina,  M. W. D. Hanson-Heine,  
 P. H. P. Harbach,  A. W. Hauser,  M. F. Herbst,  M. Hernandez Vera,  
 M. Hodecker,  Z. C. Holden,  S. Houck,  Xunkun Huang,  Kerwin Hui,  
 B. C. Huynh,  M. Ivanov,  Hyunjun Ji,  Hanjie Jiang,  B. Kaduk,  S. Kaehler,  
 K. Khistyaev,  Jaehoon Kim,  P. Klunzinger,  Z. Koczor-Benda,  
 Joong Hoon Koh,  D. Kosenkov,  L. Koulias,  T. Kowalczyk,  C. M. Krauter,  
 K. Kue,  A. Kunitsa,  T. Kus,  A. Landau,  K. V. Lawler,  D. Lefrancois,  
 S. Lehtola,  Rain Li,  Yi-Pei Li,  Jiashu Liang,  M. Liebenthal,  
 Hung-Hsuan Lin,  You-Sheng Lin,  Fenglai Liu,  Kuan-Yu Liu,  
 M. Loipersberger,  A. Luenser,  A. Manjanath,  P. Manohar,  E. Mansoor,  
 S. F. Manzer,  Shan-Ping Mao,  A. V. Marenich,  T. Markovich,  S. Mason,  
 S. A. Maurer,  P. F. McLaughlin,  M. F. S. J. Menger,  J.-M. Mewes,  
 S. A. Mewes,  P. Morgante,  J. W. Mullinax,  K. J. Oosterbaan,  G. Paran,  
 Alexander C. Paul,  Suranjan K. Paul,  F. Pavosevic,  Zheng Pei,  S. Prager,  
 E. I. Proynov,  E. Ramos,  B. Rana,  A. E. Rask,  A. Rettig,  R. M. Richard,  
 F. Rob,  E. Rossomme,  T. Scheele,  M. Scheurer,  M. Schneider,  
 N. Sergueev,  S. M. Sharada,  W. Skomorowski,  D. W. Small,  C. J. Stein,  
 Yu-Chuan Su,  E. J. Sundstrom,  Zhen Tao,  J. Thirman,  T. Tsuchimochi,  
 N. M. Tubman,  S. P. Veccham,  O. Vydrov,  J. Wenzel,  J. Witte,  A. Yamada,  
 Kun Yao,  S. Yeganeh,  S. R. Yost,  A. Zech,  Igor Ying Zhang,  Xing Zhang,  
 Yu Zhang,  D. Zuev,  A. Aspuru-Guzik,  A. T. Bell,  N. A. Besley,  
 K. B. Bravaya,  B. R. Brooks,  D. Casanova,  Jeng-Da Chai,  S. Coriani,  
 C. J. Cramer,  A. E. DePrince, III,  R. A. DiStasio Jr.,  A. Dreuw,  
 B. D. Dunietz,  T. R. Furlani,  W. A. Goddard III,  S. Grimme,  
 S. Hammes-Schiffer,  T. Head-Gordon,  W. J. Hehre,  Chao-Ping Hsu,  
 T.-C. Jagau,  Yousung Jung,  A. Klamt,  Jing Kong,  D. S. Lambrecht,  
 WanZhen Liang,  N. J. Mayhall,  C. W. McCurdy,  J. B. Neaton,  
 C. Ochsenfeld,  J. A. Parkhill,  R. Peverati,  V. A. Rassolov,  Yihan Shao,  
 L. V. Slipchenko,  T. Stauch,  R. P. Steele,  J. E. Subotnik,  
 A. J. W. Thom,  A. Tkatchenko,  D. G. Truhlar,  T. Van Voorhis,  
 T. A. Wesolowski,  K. B. Whaley,  H. L. Woodcock III,  P. M. Zimmerman,  
 S. Faraji,  P. M. W. Gill,  M. Head-Gordon,  J. M. Herbert,  A. I. Krylov

 Additional authors for Version 5.4.1: 
 S. Kotaru,  Shaozhi Li,  Xiangyuan Li,  F. Matz,  A. Molle,  Haisheng Ren,  
 Yingli Su,  Hung-Yi Tsai,  C. Utku,  Fang Wang

 Contributors to earlier versions of Q-Chem not listed above: 
 R. D. Adamson,  B. Austin,  R. Baer,  J. Baker,  G. J. O. Beran,  
 K. Brandhorst,  S. T. Brown,  E. F. C. Byrd,  A. K. Chakraborty,  
 G. K. L. Chan,  Chun-Min Chang,  Yunqing Chen,  C.-L. Cheng,  
 Siu Hung Chien,  D. M. Chipman,  D. L. Crittenden,  H. Dachsel,  
 R. J. Doerksen,  A. D. Dutoi,  R. G. Edgar,  J. Fosso-Tande,  
 L. Fusti-Molnar,  D. Ghosh,  A. Ghysels,  A. Golubeva-Zadorozhnaya,  
 J. Gonthier,  M. S. Gordon,  S. R. Gwaltney,  G. Hawkins,  J. E. Herr,  
 A. Heyden,  S. Hirata,  E. G. Hohenstein,  G. Kedziora,  F. J. Keil,  
 C. Kelley,  Jihan Kim,  R. A. King,  R. Z. Khaliullin,  P. P. Korambath,  
 W. Kurlancheek,  A. Laurent,  A. M. Lee,  M. S. Lee,  S. V. Levchenko,  
 Ching Yeh Lin,  D. Liotard,  E. Livshits,  R. C. Lochan,  I. Lotan,  
 L. A. Martinez-Martinez,  P. E. Maslen,  N. Nair,  D. P. O'Neill,  
 D. Neuhauser,  E. Neuscamman,  C. M. Oana,  R. Olivares-Amaya,  R. Olson,  
 T. M. Perrine,  B. Peters,  P. A. Pieniazek,  A. Prociuk,  Y. M. Rhee,  
 J. Ritchie,  M. A. Rohrdanz,  E. Rosta,  N. J. Russ,  H. F. Schaefer III,  
 M. W. Schmidt,  N. E. Schultz,  S. Sharma,  N. Shenvi,  C. D. Sherrill,  
 A. C. Simmonett,  A. Sodt,  T. Stein,  D. Stuck,  K. S. Thanthiriwatte,  
 V. Vanovschi,  L. Vogt,  Tao Wang,  A. Warshel,  M. A. Watson,  
 C. F. Williams,  Q. Wu,  X. Xu,  Jun Yang,  W. Zhang,  Yan Zhao

 Please cite Q-Chem as follows:
 Y. Shao et al., Mol. Phys. 113, 184-215 (2015)
 DOI: 10.1080/00268976.2014.952696

 Q-Chem 5.4.1 for Intel X86 EM64T Linux

 Parts of Q-Chem use Armadillo 9.800.1 (Horizon Scraper).
 http://arma.sourceforge.net/

 Q-Chem begins on Wed May 15 10:40:30 2024  

 Host: 
0

     Scratch files written to /scratch/ari.fischer/qChem2102890.hpc-mn1/qchem130319//
 Aug1521 |scratch|qcdevops|jenkins|workspace|build_RNUM 8249   
 Processing $rem in /usr/local/qchem-5.4.1/config/preferences:
 Processing $rem in /home/ari.fischer/.qchemrc:
 Symmetry turned off for PCM/SM12/SMD calculation


!!********************************************.
!!******************Warning*******************.
!!Desired Analytical derivatives not available.
!!Finite difference job might take a long time.
!!********************************************.
!!********************************************.


 2-order derivative to be evaluated numerically with 1-order analytical derivatives

 Checking the input file for inconsistencies... 	...done.

--------------------------------------------------------------
User input:
--------------------------------------------------------------
$molecule
0 2
H    0.4686273    0.9877723    1.6190427
C   -0.1383584    1.1728668    0.7432882
C   -1.2257957    1.9304152    0.8008346
H   -1.6351547    2.2359030    1.7585295
C   -2.0605263    2.1799782   -0.4309189
H   -3.0789131    2.1059972   -0.2822134
C   -1.6093021    1.3060229   -1.6131825
H   -2.1607828    1.5425610   -2.5194981
C   -0.0897682    1.4007382   -1.7466455
H    0.2472093    0.9340344   -2.6708689
C    0.2539379    0.5175230   -0.5550662
H    1.2735996    0.1428130   -0.5641162
O    0.4164406    2.7068847   -1.6083765
H    0.2864742    3.1702683   -2.4436478
O   -1.8386477   -0.0682083   -1.3072658
O   -0.5709407   -0.6223231   -0.8215539
O   -1.1865445    3.3808209   -0.3306863
$end

$rem
BASIS = 6-311++G(2df,2p)
GUI = 2
JOB_TYPE = Frequency
METHOD = wB97M-V
SCF_ALGORITHM = DIIS_GDM
MAX_SCF_CYCLES = 400
SCF_CONVERGENCE = 6
THRESH = 11
solvent_method = SMD
$end

--------------------------------------------------------------
 ----------------------------------------------------------------
             Standard Nuclear Orientation (Angstroms)
    I     Atom           X                Y                Z
 ----------------------------------------------------------------
    1      H       0.4686273000     0.9877723000     1.6190427000
    2      C      -0.1383584000     1.1728668000     0.7432882000
    3      C      -1.2257957000     1.9304152000     0.8008346000
    4      H      -1.6351547000     2.2359030000     1.7585295000
    5      C      -2.0605263000     2.1799782000    -0.4309189000
    6      H      -3.0789131000     2.1059972000    -0.2822134000
    7      C      -1.6093021000     1.3060229000    -1.6131825000
    8      H      -2.1607828000     1.5425610000    -2.5194981000
    9      C      -0.0897682000     1.4007382000    -1.7466455000
   10      H       0.2472093000     0.9340344000    -2.6708689000
   11      C       0.2539379000     0.5175230000    -0.5550662000
   12      H       1.2735996000     0.1428130000    -0.5641162000
   13      O       0.4164406000     2.7068847000    -1.6083765000
   14      H       0.2864742000     3.1702683000    -2.4436478000
   15      O      -1.8386477000    -0.0682083000    -1.3072658000
   16      O      -0.5709407000    -0.6223231000    -0.8215539000
   17      O      -1.1865445000     3.3808209000    -0.3306863000
 ----------------------------------------------------------------
 Nuclear Repulsion Energy =         589.55882198 hartrees
 There are       38 alpha and       37 beta electrons
 Requested basis set is 6-311++G(2df,2p)
 There are 122 shells and 410 basis functions

 Total QAlloc Memory Limit 288000 MB
 Mega-Array Size       188 MB
 MEM_STATIC part       192 MB
 
 Citation of the SMD model:
 Marenich, A.V.; Cramer, C.J.; Truhlar, D.G.
 J. Phys. Chem. B 2009, 113, 6378-6396.
 iSolventCode=           1
 Solvent: water                                                           
 
 vradii
            1           2           3           4           5           6
    1   1.2000000   1.8500000   1.8500000   1.2000000   1.8500000   1.2000000
            7           8           9          10          11          12
    1   1.8500000   1.2000000   1.8500000   1.2000000   1.8500000   1.2000000
           13          14          15          16          17
    1   1.5200000   1.2000000   1.5200000   1.5200000   1.5200000
 Changing PCM_VDW_RADII to SMD_RADIUS
 Discretize the solute cavity surface with Lebedev spheres
	Using 110 Lebedev grid points for each H atom
	Using 194 Lebedev grid points for other atoms
	Atomic van der Waals radii will be scaled by 1.20
 Remove points where switching function is < 1.0e-08
 Keep 1204 surface tesserae and discard 1506 interior tesserae
 Molecular Surface Area = 138.903 Angst**2
 A cutoff of  1.0D-11 yielded   6977 shell pairs
 There are     80160 function pairs (    101057 Cartesian)
 Smallest overlap matrix eigenvalue = 3.68E-06
 Guess from superposition of atomic densities
 Warning:  Energy on first SCF cycle will be non-variational
 SAD guess density has 75.000000 electrons

 -----------------------------------------------------------------------
  General SCF calculation program by
  Eric Jon Sundstrom, Paul Horn, Yuezhi Mao, Dmitri Zuev, Alec White,
  David Stuck, Shaama M.S., Shane Yost, Joonho Lee, David Small,
  Daniel Levine, Susi Lehtola, Hugh Burton, Evgeny Epifanovsky,
  Bang C. Huynh
 -----------------------------------------------------------------------
 Exchange:     0.1500 Hartree-Fock + 1.0000 wB97M-V + LR-HF
 Correlation:  1.0000 wB97M-V
 Using SG-2 standard quadrature grid
 Nonlocal Correlation:  VV10 with C = 0.0100 and b = 6.00 and scale = 1.00000
 Grid used for NLC:  SG-1 standard quadrature
 using 32 threads for integral computing
 -------------------------------------------------------
 OpenMP Integral computing Module                
 Release: version 1.0, May 2013, Q-Chem Inc. Pittsburgh 
 -------------------------------------------------------
 
 Citation of the SMD model:
 Marenich, A.V.; Cramer, C.J.; Truhlar, D.G.
 J. Phys. Chem. B 2009, 113, 6378-6396.
 iSolventCode=           1
 Solvent: water                                                           
 
 vradii
            1           2           3           4           5           6
    1   1.2000000   1.8500000   1.8500000   1.2000000   1.8500000   1.2000000
            7           8           9          10          11          12
    1   1.8500000   1.2000000   1.8500000   1.2000000   1.8500000   1.2000000
           13          14          15          16          17
    1   1.5200000   1.2000000   1.5200000   1.5200000   1.5200000
 -------------------------------------------------------
 OpenMP BLAS3 based DFT computing Module                
 Release: version 1.0, May 2013, Q-Chem Inc. Pittsburgh 
 -------------------------------------------------------
 A unrestricted SCF calculation will be
 performed using DIIS, GDM
 SCF converges when RMS gradient is below 1.0e-06
 ---------------------------------------
  Cycle       Energy         DIIS error
 ---------------------------------------
    1    -536.2778537979      1.24e-02  
    2    -533.3808842302      1.29e-03  Done DIIS. Switching to GDM
 ---------------------------------------
  Cycle       Energy        RMS Gradient
 ---------------------------------------
    1    -533.3808842302      1.47e-01   Descent step
    2    -533.4847397696      3.92e-02   Normal BFGS step
    3    -533.5038629740      3.34e-02   Normal BFGS step
    4    -533.5077636607      1.36e-02   Normal BFGS step
    5    -533.5094010048      9.14e-03   Normal BFGS step
    6    -533.5099074362      5.46e-03   Normal BFGS step
    7    -533.5100729233      3.30e-03   Normal BFGS step
    8    -533.5101372772      2.92e-03   Normal BFGS step
    9    -533.5101825884      1.69e-03   Normal BFGS step
   10    -533.5102022956      1.26e-03   Normal BFGS step
   11    -533.5102129771      8.03e-04   Normal BFGS step
   12    -533.5102174649      4.56e-04   Normal BFGS step
   13    -533.5102192148      3.34e-04   Normal BFGS step
   14    -533.5102200036      1.58e-04   Normal BFGS step
   15    -533.5102202162      7.59e-05   Normal BFGS step
   16    -533.5102202574      2.74e-05   Normal BFGS step
   17    -533.5102202651      1.01e-05   Normal BFGS step
   18    -533.5102202663      4.11e-06   Normal BFGS step
   19    -533.5102202667      2.38e-06   Normal BFGS step
   20    -533.5102202669      1.01e-06   Normal BFGS step
   21    -533.5102202667      2.44e-07  Convergence criterion met
 ---------------------------------------
 SCF time:   CPU 7608.16s  wall 324.00s 
<S^2> =          0.781472030
(3)  G-ENP(liq) elect-nuc-pol free energy of system     -533.510220267 a.u.
(4)  G-CDS(liq) cavity-dispersion-solvent structure 
     free energy                                                2.2310 kcal/mol
(6)  G-S(liq) free energy of system                     -533.506664921 a.u.
 SCF   energy in the final basis set =     -533.5066649212
 Total energy in the final basis set =     -533.5066649212
 
 --------------------------------------------------------------
 
                    Orbital Energies (a.u.)
 --------------------------------------------------------------
 
 Alpha MOs
 -- Occupied --
-19.4078 -19.4039 -19.3525 -19.3296 -10.4103 -10.4051 -10.4045 -10.4030
-10.3842 -10.3670  -1.2759  -1.1703  -1.1259  -1.0715  -0.9592  -0.8871
 -0.8313  -0.7596  -0.7297  -0.6928  -0.6677  -0.6291  -0.5997  -0.5807
 -0.5711  -0.5554  -0.5482  -0.5221  -0.5116  -0.4890  -0.4822  -0.4680
 -0.4490  -0.4279  -0.4074  -0.3755  -0.3354  -0.3345
 -- Virtual --
  0.0248   0.0358   0.0377   0.0462   0.0562   0.0592   0.0614   0.0849
  0.0892   0.0923   0.1099   0.1189   0.1288   0.1339   0.1354   0.1417
  0.1451   0.1459   0.1534   0.1549   0.1580   0.1599   0.1678   0.1707
  0.1883   0.1897   0.1924   0.2026   0.2090   0.2133   0.2288   0.2331
  0.2386   0.2456   0.2571   0.2735   0.2845   0.2911   0.2971   0.3020
  0.3184   0.3231   0.3310   0.3394   0.3540   0.3548   0.3609   0.3645
  0.3688   0.3798   0.3840   0.3884   0.3925   0.3965   0.3995   0.4055
  0.4115   0.4173   0.4262   0.4416   0.4491   0.4752   0.4821   0.4956
  0.4996   0.5066   0.5416   0.5610   0.5786   0.5955   0.6084   0.6169
  0.6357   0.6410   0.6499   0.6597   0.6792   0.6812   0.6927   0.7068
  0.7091   0.7202   0.7276   0.7357   0.7512   0.7578   0.7658   0.7854
  0.7945   0.8118   0.8192   0.8323   0.8368   0.8538   0.8763   0.9227
  0.9296   0.9520   0.9672   0.9995   1.0257   1.0455   1.0711   1.0819
  1.1043   1.1135   1.1233   1.1407   1.1465   1.1572   1.1614   1.1935
  1.1997   1.2081   1.2113   1.2213   1.2329   1.2438   1.2498   1.2525
  1.2652   1.2760   1.2908   1.2965   1.3197   1.3233   1.3410   1.3457
  1.3525   1.3690   1.3816   1.4033   1.4110   1.4185   1.4275   1.4518
  1.4552   1.4713   1.4818   1.4857   1.5107   1.5243   1.5323   1.5551
  1.5636   1.5836   1.5860   1.6127   1.6246   1.6423   1.6711   1.6938
  1.7178   1.7232   1.7501   1.7657   1.7962   1.8117   1.8203   1.8551
  1.8755   1.9076   1.9273   1.9470   1.9853   2.0017   2.0173   2.0526
  2.0798   2.1175   2.1505   2.1591   2.1715   2.2195   2.2720   2.2845
  2.3230   2.3465   2.3631   2.3955   2.4278   2.4823   2.5502   2.6459
  2.6780   2.6947   2.7136   2.7528   2.7731   2.7791   2.8122   2.8228
  2.8337   2.8601   2.8710   2.8867   2.9215   2.9283   2.9343   2.9540
  2.9754   2.9841   3.0243   3.0373   3.0495   3.0598   3.1251   3.1438
  3.1524   3.1702   3.1849   3.2517   3.2652   3.2674   3.2896   3.3119
  3.3460   3.3711   3.3844   3.3984   3.4182   3.4214   3.4601   3.4669
  3.4789   3.4913   3.5192   3.5484   3.5557   3.5758   3.6097   3.6307
  3.6396   3.6564   3.6619   3.6783   3.6915   3.7258   3.7400   3.7605
  3.7684   3.7944   3.8048   3.8300   3.8491   3.8587   3.8708   3.8869
  3.9048   3.9186   3.9271   3.9526   3.9762   3.9911   4.0255   4.0435
  4.0750   4.0920   4.1008   4.1202   4.1327   4.1706   4.2250   4.2463
  4.2629   4.2993   4.3020   4.3045   4.3322   4.3717   4.3765   4.3952
  4.4078   4.4318   4.4759   4.4955   4.5056   4.5391   4.5475   4.5882
  4.5914   4.6156   4.6428   4.6496   4.6972   4.7284   4.7304   4.7386
  4.7535   4.8047   4.8576   4.8828   4.9701   5.0260   5.0734   5.0916
  5.1852   5.2255   5.2448   5.2604   5.2715   5.2992   5.3072   5.3118
  5.3387   5.3521   5.3569   5.3861   5.4070   5.4440   5.4638   5.4684
  5.4917   5.5221   5.5320   5.5369   5.5514   5.5912   5.6239   5.6372
  5.6743   5.6968   5.7251   5.7579   5.7763   5.8136   5.8284   5.8484
  5.9125   5.9584   5.9929   6.0141   6.0428   6.0779   6.1805   6.2618
  6.4642   6.6297   6.6598   6.7356   6.7436   7.0152   7.0346   7.1046
  7.1882   7.2991   7.3390   7.3586   7.3865   7.3900   7.4252   7.4596
  7.5207   7.5392   7.5582   7.6221   7.7199   7.7766   7.8614   7.8941
  7.9472   8.2288  24.3773  24.7044  24.7698  24.8311  24.8537  25.2252
 50.5859  50.6324  50.6435  50.7042
 
 Beta MOs
 -- Occupied --
-19.4066 -19.4040 -19.3371 -19.3295 -10.4108 -10.4044 -10.4043 -10.4031
-10.3854 -10.3595  -1.2747  -1.1670  -1.1021  -1.0695  -0.9486  -0.8818
 -0.8229  -0.7574  -0.7244  -0.6911  -0.6632  -0.6265  -0.5900  -0.5772
 -0.5665  -0.5470  -0.5448  -0.5142  -0.5076  -0.4856  -0.4722  -0.4492
 -0.4331  -0.4144  -0.3962  -0.3699  -0.3266
 -- Virtual --
 -0.0457   0.0248   0.0359   0.0376   0.0474   0.0568   0.0593   0.0652
  0.0854   0.0907   0.0985   0.1108   0.1251   0.1290   0.1337   0.1354
  0.1423   0.1447   0.1463   0.1542   0.1579   0.1598   0.1606   0.1690
  0.1714   0.1886   0.1897   0.1926   0.2059   0.2115   0.2153   0.2288
  0.2333   0.2385   0.2454   0.2597   0.2742   0.2848   0.2913   0.2982
  0.3044   0.3199   0.3247   0.3317   0.3426   0.3544   0.3558   0.3613
  0.3669   0.3700   0.3808   0.3847   0.3885   0.3936   0.3966   0.4006
  0.4074   0.4132   0.4173   0.4270   0.4418   0.4512   0.4763   0.4832
  0.4962   0.5016   0.5079   0.5432   0.5614   0.5829   0.6008   0.6130
  0.6187   0.6370   0.6420   0.6508   0.6656   0.6795   0.6824   0.6938
  0.7090   0.7098   0.7212   0.7289   0.7364   0.7526   0.7614   0.7669
  0.7895   0.7983   0.8121   0.8208   0.8343   0.8400   0.8555   0.8791
  0.9234   0.9309   0.9533   0.9676   1.0016   1.0272   1.0475   1.0722
  1.0827   1.1057   1.1140   1.1262   1.1430   1.1484   1.1606   1.1639
  1.1960   1.2021   1.2096   1.2130   1.2229   1.2370   1.2466   1.2540
  1.2561   1.2672   1.2797   1.2921   1.3026   1.3231   1.3251   1.3430
  1.3472   1.3550   1.3712   1.3830   1.4071   1.4135   1.4199   1.4316
  1.4536   1.4617   1.4732   1.4867   1.4892   1.5131   1.5264   1.5354
  1.5580   1.5673   1.5851   1.5870   1.6145   1.6270   1.6459   1.6740
  1.6962   1.7216   1.7276   1.7508   1.7705   1.8046   1.8140   1.8249
  1.8580   1.8781   1.9174   1.9327   1.9516   1.9900   2.0081   2.0205
  2.0593   2.0822   2.1256   2.1544   2.1657   2.1744   2.2229   2.2752
  2.2880   2.3240   2.3529   2.3677   2.3986   2.4297   2.4846   2.5513
  2.6516   2.6820   2.7000   2.7162   2.7557   2.7746   2.7803   2.8201
  2.8275   2.8416   2.8659   2.8767   2.8887   2.9314   2.9369   2.9438
  2.9683   2.9841   2.9967   3.0319   3.0410   3.0533   3.0658   3.1296
  3.1452   3.1578   3.1751   3.1881   3.2588   3.2705   3.2725   3.2932
  3.3203   3.3491   3.3781   3.3917   3.4078   3.4247   3.4307   3.4656
  3.4741   3.4869   3.4938   3.5243   3.5540   3.5576   3.5787   3.6139
  3.6347   3.6445   3.6594   3.6656   3.6829   3.6949   3.7373   3.7440
  3.7644   3.7711   3.7999   3.8084   3.8326   3.8536   3.8624   3.8741
  3.8930   3.9069   3.9213   3.9302   3.9589   3.9793   3.9940   4.0299
  4.0442   4.0788   4.0953   4.1062   4.1226   4.1369   4.1754   4.2267
  4.2515   4.2655   4.3033   4.3071   4.3130   4.3364   4.3733   4.3792
  4.3994   4.4133   4.4361   4.4796   4.4982   4.5086   4.5409   4.5558
  4.5916   4.5987   4.6188   4.6473   4.6513   4.7001   4.7322   4.7360
  4.7429   4.7624   4.8077   4.8613   4.8948   4.9780   5.0323   5.0803
  5.0979   5.1913   5.2440   5.2539   5.2722   5.2887   5.3105   5.3158
  5.3249   5.3431   5.3599   5.3916   5.4022   5.4153   5.4555   5.4700
  5.4807   5.4993   5.5349   5.5366   5.5498   5.5591   5.6017   5.6308
  5.6425   5.6809   5.7152   5.7299   5.7675   5.7851   5.8179   5.8322
  5.8633   5.9234   5.9658   5.9947   6.0248   6.0451   6.0842   6.1850
  6.2627   6.4807   6.6325   6.6604   6.7383   6.7447   7.0176   7.0718
  7.1589   7.2020   7.3006   7.3416   7.3650   7.3925   7.4018   7.4314
  7.4609   7.5307   7.5572   7.6176   7.6250   7.7306   7.7941   7.8642
  7.8958   7.9487   8.2297  24.3798  24.7045  24.7701  24.8312  24.8538
 25.2292  50.5865  50.6393  50.6444  50.7076
 --------------------------------------------------------------
 
          Ground-State Mulliken Net Atomic Charges

     Atom                 Charge (a.u.)    Spin (a.u.)
  --------------------------------------------------------
      1 H                     0.312124      -0.007897
      2 C                    -0.250098       0.521719
      3 C                    -0.182195      -0.129553
      4 H                     0.299665       0.002000
      5 C                    -0.220458       0.089236
      6 H                     0.279190      -0.000795
      7 C                    -0.314757      -0.019978
      8 H                     0.278530       0.000957
      9 C                    -0.041935       0.005218
     10 H                     0.277005      -0.001645
     11 C                    -0.098911      -0.019205
     12 H                     0.283200       0.004036
     13 O                    -0.371420       0.000862
     14 H                     0.330848       0.000053
     15 O                    -0.141595      -0.000927
     16 O                    -0.134080       0.024102
     17 O                    -0.305114       0.531817
  --------------------------------------------------------
  Sum of atomic charges =     0.000000
  Sum of spin   charges =     1.000000

 -----------------------------------------------------------------
                    Cartesian Multipole Moments
 -----------------------------------------------------------------
    Charge (ESU x 10^10)
                 0.0000
    Dipole Moment (Debye)
         X       0.2345      Y       0.0114      Z      -1.1307
       Tot       1.1548
    Quadrupole Moments (Debye-Ang)
        XX     -53.8797     XY      -5.5553     YY     -73.7117
        XZ       0.6924     YZ      -7.5091     ZZ     -43.8616
    Octopole Moments (Debye-Ang^2)
       XXX     121.9224    XXY     -70.1495    XYY      51.4072
       YYY    -310.2017    XXZ      39.3124    XYZ       7.4540
       YYZ      22.8473    XZZ      38.7967    YZZ     -43.4486
       ZZZ      89.8071
    Hexadecapole Moments (Debye-Ang^3)
      XXXX    -514.8504   XXXY     153.3751   XXYY    -304.8177
      XYYY     269.3333   YYYY   -1489.4237   XXXZ     -73.3837
      XXYZ      40.6444   XYYZ     -21.7538   YYYZ      80.9018
      XXZZ    -170.4188   XYZZ      43.5393   YYZZ    -202.4562
      XZZZ     -74.6980   YZZZ      61.9243   ZZZZ    -436.0736
 -----------------------------------------------------------------
 Calculating analytic gradient of the SCF energy
 Gradient of CDS energy
            1           2           3           4           5           6
    1   0.0001127   0.0001905  -0.0000551  -0.0000777  -0.0004244  -0.0001211
    2  -0.0000344  -0.0000519   0.0001718   0.0000580   0.0004381  -0.0000770
    3   0.0001626   0.0003167   0.0003510   0.0001818  -0.0001260   0.0000086
            7           8           9          10          11          12
    1  -0.0001240  -0.0001217   0.0007836   0.0000117   0.0001193   0.0001778
    2  -0.0002701   0.0000102   0.0015943  -0.0001785  -0.0002687  -0.0001248
    3  -0.0001945  -0.0001664   0.0000881  -0.0001421  -0.0001719  -0.0000077
           13          14          15          16          17
    1  -0.0008323   0.0002311   0.0001008  -0.0000904   0.0001191
    2  -0.0015422   0.0003745  -0.0000444   0.0000358  -0.0000908
    3  -0.0000017  -0.0002797   0.0000495  -0.0000749   0.0000067
 Gradient of SCF Energy
            1           2           3           4           5           6
    1   0.0065896  -0.0414116   0.0478649  -0.0047705  -0.0882864   0.0360942
    2  -0.0000076   0.0257763  -0.0135817  -0.0057424  -0.0045047  -0.0210562
    3   0.0064694   0.0006681  -0.0066776   0.0106638  -0.0049152  -0.0061254
            7           8           9          10          11          12
    1   0.0049851  -0.0060522  -0.0028038   0.0031115  -0.0155612   0.0080638
    2  -0.0199604   0.0053349   0.0035549  -0.0003422  -0.0056794  -0.0026255
    3   0.0036194  -0.0080070   0.0108551  -0.0091116   0.0010641   0.0000641
           13          14          15          16          17
    1  -0.0355166  -0.0035815   0.0022013   0.0010792   0.0879940
    2   0.0179458   0.0043291   0.0008160  -0.0047964   0.0205394
    3   0.0462153  -0.0142275   0.0016065  -0.0040887  -0.0280729
 Max gradient component =       8.829E-02
 RMS gradient           =       2.380E-02
 Computing fast CPCM-SWIG gradient
 Updating gradient with PCM contributions...
 -- total gradient after adding PCM contribution --
---------------------------------------------------
  Atom         X              Y              Z     
---------------------------------------------------
   1       0.001727       0.001788      -0.000518
   2      -0.041111       0.024718       0.006269
   3       0.046886      -0.016951      -0.000723
   4      -0.002581      -0.005936       0.005243
   5      -0.093224      -0.007998      -0.000943
   6       0.043814      -0.019637      -0.006900
   7      -0.000374      -0.010052      -0.005718
   8      -0.000726       0.001731       0.001213
   9      -0.000915      -0.005515       0.002487
  10       0.000053       0.001798      -0.000356
  11      -0.003692      -0.003036       0.001608
  12       0.000168       0.000118      -0.000316
  13      -0.042502       0.020286       0.034256
  14      -0.000336       0.001366      -0.000503
  15       0.004149       0.002716       0.001589
  16       0.000704      -0.002277      -0.003731
  17       0.087961       0.016880      -0.032957
---------------------------------------------------
 Number of fixed atoms: 0
 Gradient time:  CPU 1010.92 s  wall 56.18 s
 ######################################################
 ######################################################
 # Starting finite difference calculation for IDERIV  #
 Finite diff step size:  1.88973e-03 a.u.
 ----------------------------------------------------------------
             Standard Nuclear Orientation (Angstroms)
    I     Atom           X                Y                Z
 ----------------------------------------------------------------
    1      H       0.4696273000     0.9877723000     1.6190427000
    2      C      -0.1383584000     1.1728668000     0.7432882000
    3      C      -1.2257957000     1.9304152000     0.8008346000
    4      H      -1.6351547000     2.2359030000     1.7585295000
    5      C      -2.0605263000     2.1799782000    -0.4309189000
    6      H      -3.0789131000     2.1059972000    -0.2822134000
    7      C      -1.6093021000     1.3060229000    -1.6131825000
    8      H      -2.1607828000     1.5425610000    -2.5194981000
    9      C      -0.0897682000     1.4007382000    -1.7466455000
   10      H       0.2472093000     0.9340344000    -2.6708689000
   11      C       0.2539379000     0.5175230000    -0.5550662000
   12      H       1.2735996000     0.1428130000    -0.5641162000
   13      O       0.4164406000     2.7068847000    -1.6083765000
   14      H       0.2864742000     3.1702683000    -2.4436478000
   15      O      -1.8386477000    -0.0682083000    -1.3072658000
   16      O      -0.5709407000    -0.6223231000    -0.8215539000
   17      O      -1.1865445000     3.3808209000    -0.3306863000
 ----------------------------------------------------------------
 Nuclear Repulsion Energy =         589.55573820 hartrees
 There are       38 alpha and       37 beta electrons
 Discretize the solute cavity surface with Lebedev spheres
	Using 110 Lebedev grid points for each H atom
	Using 194 Lebedev grid points for other atoms
	Atomic van der Waals radii will be scaled by 1.20
 Remove points where switching function is < 1.0e-08
 Keep 1204 surface tesserae and discard 1506 interior tesserae
 Molecular Surface Area = 138.907 Angst**2
 Requested basis set is 6-311++G(2df,2p)
 There are 122 shells and 410 basis functions
 A cutoff of  1.0D-11 yielded   6977 shell pairs
 There are     80160 function pairs (    101057 Cartesian)
 Smallest overlap matrix eigenvalue = 3.68E-06
 Guess MOs from SCF MO coefficient file

 -----------------------------------------------------------------------
  General SCF calculation program by
  Eric Jon Sundstrom, Paul Horn, Yuezhi Mao, Dmitri Zuev, Alec White,
  David Stuck, Shaama M.S., Shane Yost, Joonho Lee, David Small,
  Daniel Levine, Susi Lehtola, Hugh Burton, Evgeny Epifanovsky,
  Bang C. Huynh
 -----------------------------------------------------------------------
 Exchange:     0.1500 Hartree-Fock + 1.0000 wB97M-V + LR-HF
 Correlation:  1.0000 wB97M-V
 Using SG-2 standard quadrature grid
 Nonlocal Correlation:  VV10 with C = 0.0100 and b = 6.00 and scale = 1.00000
 Grid used for NLC:  SG-1 standard quadrature
 
 Citation of the SMD model:
 Marenich, A.V.; Cramer, C.J.; Truhlar, D.G.
 J. Phys. Chem. B 2009, 113, 6378-6396.
 iSolventCode=           1
 Solvent: water                                                           
 
 vradii
            1           2           3           4           5           6
    1   1.2000000   1.8500000   1.8500000   1.2000000   1.8500000   1.2000000
            7           8           9          10          11          12
    1   1.8500000   1.2000000   1.8500000   1.2000000   1.8500000   1.2000000
           13          14          15          16          17
    1   1.5200000   1.2000000   1.5200000   1.5200000   1.5200000
 -------------------------------------------------------
 OpenMP BLAS3 based DFT computing Module                
 Release: version 1.0, May 2013, Q-Chem Inc. Pittsburgh 
 -------------------------------------------------------
 A unrestricted SCF calculation will be
 performed using Roothaan-Hall, DIIS, GDM
 SCF converges when RMS gradient is below 1.0e-06
 ---------------------------------------
  Cycle       Energy         DIIS error
 ---------------------------------------
    1    -533.4738949888      2.15e-04  Roothaan Step
 ---------------------------------------
  Cycle       Energy         DIIS error
 ---------------------------------------
    1    -533.5019873289      2.61e-04  
    2    -533.5058772748      2.71e-04  Done DIIS. Switching to GDM
 ---------------------------------------
  Cycle       Energy        RMS Gradient
 ---------------------------------------
    1    -533.5058772748      1.51e-02   Normal BFGS step
    2    -533.5040533674      2.45e-02  Line search: overstep
    3    -533.5100102249      2.72e-03   Normal BFGS step
    4    -533.5101648117      5.80e-04   Normal BFGS step
    5    -533.5102102196      7.84e-04   Normal BFGS step
    6    -533.5102147562      4.70e-04   Normal BFGS step
    7    -533.5102160894      3.06e-04   Normal BFGS step
    8    -533.5102166110      1.97e-04   Normal BFGS step
    9    -533.5102168355      7.87e-05   Normal BFGS step
   10    -533.5102169145      6.09e-05   Normal BFGS step
   11    -533.5102169409      5.39e-05   Normal BFGS step
   12    -533.5102169550      4.21e-05   Normal BFGS step
   13    -533.5102169605      2.85e-05   Normal BFGS step
   14    -533.5102169648      1.51e-05   Normal BFGS step
   15    -533.5102169669      5.11e-06   Normal BFGS step
   16    -533.5102169675      2.23e-06   Normal BFGS step
   17    -533.5102169678      6.95e-07  Convergence criterion met
 ---------------------------------------
 SCF time:   CPU 6604.60s  wall 281.00s 
<S^2> =          0.781474811
(3)  G-ENP(liq) elect-nuc-pol free energy of system     -533.510216968 a.u.
(4)  G-CDS(liq) cavity-dispersion-solvent structure 
     free energy                                                2.2311 kcal/mol
(6)  G-S(liq) free energy of system                     -533.506661409 a.u.
 SCF   energy in the final basis set =     -533.5066614087
 Total energy in the final basis set =     -533.5066614087
 
 --------------------------------------------------------------
 
                    Orbital Energies (a.u.)
 --------------------------------------------------------------
 
 Alpha MOs
 -- Occupied --
-19.4078 -19.4039 -19.3525 -19.3296 -10.4103 -10.4051 -10.4045 -10.4030
-10.3842 -10.3670  -1.2759  -1.1703  -1.1259  -1.0715  -0.9591  -0.8871
 -0.8313  -0.7596  -0.7297  -0.6928  -0.6677  -0.6291  -0.5997  -0.5807
 -0.5711  -0.5554  -0.5482  -0.5221  -0.5116  -0.4890  -0.4822  -0.4680
 -0.4490  -0.4279  -0.4074  -0.3755  -0.3354  -0.3345
 -- Virtual --
  0.0248   0.0358   0.0377   0.0462   0.0562   0.0592   0.0614   0.0849
  0.0892   0.0923   0.1099   0.1189   0.1288   0.1339   0.1354   0.1417
  0.1451   0.1459   0.1534   0.1549   0.1580   0.1599   0.1678   0.1707
  0.1883   0.1897   0.1924   0.2026   0.2090   0.2133   0.2288   0.2331
  0.2385   0.2456   0.2571   0.2735   0.2845   0.2911   0.2971   0.3020
  0.3185   0.3231   0.3310   0.3394   0.3540   0.3548   0.3609   0.3645
  0.3688   0.3798   0.3840   0.3884   0.3925   0.3965   0.3995   0.4055
  0.4115   0.4173   0.4262   0.4416   0.4491   0.4752   0.4821   0.4956
  0.4997   0.5066   0.5416   0.5610   0.5786   0.5954   0.6084   0.6169
  0.6357   0.6410   0.6499   0.6597   0.6791   0.6812   0.6927   0.7067
  0.7091   0.7202   0.7276   0.7357   0.7512   0.7578   0.7658   0.7853
  0.7945   0.8118   0.8192   0.8323   0.8369   0.8538   0.8763   0.9226
  0.9296   0.9520   0.9671   0.9995   1.0257   1.0455   1.0711   1.0819
  1.1043   1.1135   1.1233   1.1407   1.1465   1.1572   1.1614   1.1935
  1.1997   1.2081   1.2113   1.2212   1.2330   1.2438   1.2498   1.2525
  1.2652   1.2760   1.2908   1.2965   1.3196   1.3233   1.3410   1.3457
  1.3524   1.3690   1.3815   1.4033   1.4109   1.4185   1.4275   1.4518
  1.4552   1.4713   1.4818   1.4857   1.5107   1.5243   1.5323   1.5550
  1.5635   1.5836   1.5860   1.6127   1.6246   1.6422   1.6711   1.6938
  1.7178   1.7232   1.7501   1.7657   1.7962   1.8117   1.8204   1.8550
  1.8754   1.9076   1.9273   1.9470   1.9853   2.0016   2.0172   2.0525
  2.0798   2.1176   2.1505   2.1591   2.1715   2.2195   2.2720   2.2845
  2.3230   2.3465   2.3631   2.3954   2.4279   2.4823   2.5502   2.6459
  2.6781   2.6948   2.7136   2.7528   2.7731   2.7791   2.8122   2.8228
  2.8336   2.8601   2.8709   2.8867   2.9215   2.9283   2.9342   2.9540
  2.9754   2.9840   3.0243   3.0373   3.0495   3.0598   3.1251   3.1438
  3.1524   3.1701   3.1849   3.2516   3.2651   3.2674   3.2895   3.3119
  3.3460   3.3711   3.3845   3.3984   3.4183   3.4212   3.4601   3.4668
  3.4789   3.4913   3.5192   3.5484   3.5556   3.5758   3.6097   3.6306
  3.6395   3.6564   3.6620   3.6782   3.6914   3.7258   3.7400   3.7605
  3.7684   3.7944   3.8047   3.8300   3.8490   3.8586   3.8707   3.8869
  3.9048   3.9185   3.9271   3.9526   3.9762   3.9911   4.0257   4.0435
  4.0749   4.0920   4.1008   4.1202   4.1325   4.1705   4.2249   4.2463
  4.2629   4.2992   4.3017   4.3045   4.3321   4.3717   4.3765   4.3951
  4.4077   4.4318   4.4758   4.4954   4.5055   4.5391   4.5473   4.5882
  4.5912   4.6155   4.6427   4.6496   4.6971   4.7284   4.7302   4.7386
  4.7535   4.8046   4.8576   4.8827   4.9698   5.0257   5.0733   5.0915
  5.1851   5.2255   5.2448   5.2604   5.2715   5.2992   5.3072   5.3118
  5.3387   5.3521   5.3569   5.3861   5.4070   5.4439   5.4638   5.4683
  5.4917   5.5220   5.5319   5.5368   5.5513   5.5909   5.6238   5.6372
  5.6743   5.6967   5.7251   5.7579   5.7763   5.8136   5.8284   5.8483
  5.9124   5.9582   5.9929   6.0139   6.0428   6.0777   6.1804   6.2618
  6.4642   6.6297   6.6598   6.7356   6.7436   7.0152   7.0346   7.1046
  7.1882   7.2991   7.3390   7.3586   7.3865   7.3900   7.4252   7.4596
  7.5207   7.5392   7.5582   7.6221   7.7199   7.7766   7.8614   7.8941
  7.9472   8.2288  24.3768  24.7044  24.7698  24.8311  24.8537  25.2249
 50.5859  50.6324  50.6435  50.7042
 
 Beta MOs
 -- Occupied --
-19.4066 -19.4040 -19.3371 -19.3295 -10.4108 -10.4044 -10.4043 -10.4031
-10.3854 -10.3596  -1.2747  -1.1670  -1.1021  -1.0695  -0.9486  -0.8818
 -0.8229  -0.7574  -0.7244  -0.6911  -0.6632  -0.6265  -0.5899  -0.5772
 -0.5665  -0.5470  -0.5448  -0.5142  -0.5076  -0.4856  -0.4722  -0.4493
 -0.4331  -0.4144  -0.3962  -0.3699  -0.3266
 -- Virtual --
 -0.0457   0.0248   0.0359   0.0376   0.0474   0.0568   0.0593   0.0652
  0.0854   0.0907   0.0985   0.1108   0.1251   0.1290   0.1337   0.1354
  0.1423   0.1447   0.1463   0.1542   0.1579   0.1598   0.1606   0.1690
  0.1714   0.1886   0.1897   0.1926   0.2059   0.2115   0.2153   0.2288
  0.2333   0.2385   0.2454   0.2597   0.2742   0.2848   0.2913   0.2982
  0.3043   0.3199   0.3247   0.3317   0.3426   0.3544   0.3558   0.3613
  0.3668   0.3700   0.3808   0.3847   0.3885   0.3936   0.3966   0.4005
  0.4074   0.4132   0.4173   0.4270   0.4418   0.4512   0.4763   0.4832
  0.4962   0.5016   0.5079   0.5432   0.5614   0.5829   0.6008   0.6129
  0.6187   0.6370   0.6419   0.6508   0.6656   0.6795   0.6824   0.6938
  0.7090   0.7097   0.7212   0.7289   0.7364   0.7526   0.7614   0.7668
  0.7895   0.7983   0.8121   0.8207   0.8343   0.8400   0.8555   0.8791
  0.9234   0.9308   0.9533   0.9676   1.0016   1.0271   1.0475   1.0722
  1.0827   1.1057   1.1140   1.1262   1.1430   1.1484   1.1606   1.1639
  1.1959   1.2021   1.2096   1.2130   1.2229   1.2370   1.2466   1.2539
  1.2561   1.2672   1.2797   1.2921   1.3027   1.3231   1.3250   1.3430
  1.3472   1.3550   1.3712   1.3830   1.4071   1.4134   1.4199   1.4315
  1.4535   1.4617   1.4732   1.4867   1.4891   1.5131   1.5264   1.5353
  1.5579   1.5672   1.5851   1.5870   1.6145   1.6270   1.6459   1.6740
  1.6961   1.7215   1.7275   1.7508   1.7704   1.8045   1.8140   1.8249
  1.8579   1.8781   1.9174   1.9327   1.9515   1.9900   2.0081   2.0205
  2.0593   2.0822   2.1257   2.1543   2.1656   2.1743   2.2229   2.2753
  2.2881   2.3240   2.3529   2.3677   2.3986   2.4297   2.4846   2.5513
  2.6516   2.6820   2.7001   2.7163   2.7557   2.7746   2.7803   2.8202
  2.8275   2.8415   2.8659   2.8767   2.8887   2.9314   2.9369   2.9438
  2.9683   2.9841   2.9966   3.0319   3.0410   3.0533   3.0658   3.1296
  3.1452   3.1578   3.1751   3.1881   3.2587   3.2704   3.2725   3.2932
  3.3203   3.3491   3.3780   3.3917   3.4079   3.4245   3.4308   3.4656
  3.4741   3.4869   3.4938   3.5243   3.5540   3.5575   3.5786   3.6139
  3.6346   3.6444   3.6594   3.6657   3.6828   3.6949   3.7373   3.7440
  3.7644   3.7711   3.7999   3.8084   3.8326   3.8535   3.8623   3.8740
  3.8931   3.9069   3.9213   3.9301   3.9589   3.9792   3.9940   4.0300
  4.0443   4.0788   4.0953   4.1062   4.1226   4.1366   4.1753   4.2266
  4.2514   4.2655   4.3033   4.3071   4.3126   4.3363   4.3733   4.3792
  4.3994   4.4133   4.4360   4.4795   4.4981   4.5086   4.5409   4.5556
  4.5916   4.5986   4.6187   4.6472   4.6513   4.7001   4.7322   4.7358
  4.7428   4.7624   4.8076   4.8612   4.8947   4.9777   5.0321   5.0802
  5.0978   5.1913   5.2439   5.2539   5.2722   5.2886   5.3105   5.3158
  5.3249   5.3431   5.3599   5.3915   5.4022   5.4153   5.4554   5.4700
  5.4806   5.4993   5.5348   5.5366   5.5497   5.5590   5.6014   5.6308
  5.6425   5.6808   5.7152   5.7299   5.7675   5.7851   5.8179   5.8322
  5.8632   5.9233   5.9656   5.9947   6.0245   6.0451   6.0839   6.1848
  6.2627   6.4807   6.6325   6.6604   6.7383   6.7447   7.0176   7.0718
  7.1589   7.2020   7.3006   7.3416   7.3650   7.3925   7.4018   7.4314
  7.4609   7.5307   7.5572   7.6176   7.6250   7.7306   7.7941   7.8642
  7.8958   7.9487   8.2297  24.3793  24.7045  24.7700  24.8312  24.8538
 25.2289  50.5865  50.6393  50.6444  50.7076
 --------------------------------------------------------------
 
          Ground-State Mulliken Net Atomic Charges

     Atom                 Charge (a.u.)    Spin (a.u.)
  --------------------------------------------------------
      1 H                     0.311905      -0.007919
      2 C                    -0.250009       0.521747
      3 C                    -0.182399      -0.129529
      4 H                     0.299679       0.002000
      5 C                    -0.220473       0.089200
      6 H                     0.279196      -0.000795
      7 C                    -0.314749      -0.019975
      8 H                     0.278529       0.000957
      9 C                    -0.041967       0.005227
     10 H                     0.276999      -0.001645
     11 C                    -0.098605      -0.019230
     12 H                     0.283237       0.004033
     13 O                    -0.371419       0.000864
     14 H                     0.330848       0.000052
     15 O                    -0.141598      -0.000929
     16 O                    -0.134083       0.024099
     17 O                    -0.305090       0.531843
  --------------------------------------------------------
  Sum of atomic charges =     0.000000
  Sum of spin   charges =     1.000000

 -----------------------------------------------------------------
                    Cartesian Multipole Moments
 -----------------------------------------------------------------
    Charge (ESU x 10^10)
                 0.0000
    Dipole Moment (Debye)
         X       0.2349      Y       0.0119      Z      -1.1310
       Tot       1.1553
    Quadrupole Moments (Debye-Ang)
        XX     -53.8787     XY      -5.5555     YY     -73.7108
        XZ       0.6938     YZ      -7.5095     ZZ     -43.8632
    Octopole Moments (Debye-Ang^2)
       XXX     121.9196    XXY     -70.1475    XYY      51.4044
       YYY    -310.1978    XXZ      39.3133    XYZ       7.4554
       YYZ      22.8456    XZZ      38.7982    YZZ     -43.4498
       ZZZ      89.8028
    Hexadecapole Moments (Debye-Ang^3)
      XXXX    -514.8511   XXXY     153.3696   XXYY    -304.8133
      XYYY     269.3224   YYYY   -1489.4063   XXXZ     -73.3858
      XXYZ      40.6447   XYYZ     -21.7531   YYYZ      80.8966
      XXZZ    -170.4173   XYZZ      43.5400   YYZZ    -202.4588
      XZZZ     -74.6974   YZZZ      61.9202   ZZZZ    -436.0891
 -----------------------------------------------------------------
 Calculating analytic gradient of the SCF energy
 Gradient of CDS energy
            1           2           3           4           5           6
    1   0.0001133   0.0001899  -0.0000550  -0.0000777  -0.0004244  -0.0001211
    2  -0.0000345  -0.0000518   0.0001718   0.0000580   0.0004381  -0.0000770
    3   0.0001632   0.0003161   0.0003510   0.0001818  -0.0001260   0.0000086
            7           8           9          10          11          12
    1  -0.0001240  -0.0001217   0.0007836   0.0000117   0.0001193   0.0001778
    2  -0.0002701   0.0000102   0.0015943  -0.0001785  -0.0002686  -0.0001248
    3  -0.0001945  -0.0001664   0.0000881  -0.0001421  -0.0001718  -0.0000077
           13          14          15          16          17
    1  -0.0008323   0.0002311   0.0001008  -0.0000904   0.0001191
    2  -0.0015422   0.0003745  -0.0000444   0.0000358  -0.0000908
    3  -0.0000017  -0.0002797   0.0000495  -0.0000749   0.0000067
 Gradient of SCF Energy
            1           2           3           4           5           6
    1   0.0068622  -0.0416846   0.0478514  -0.0047705  -0.0882874   0.0360935
    2  -0.0000984   0.0258507  -0.0135684  -0.0057476  -0.0044958  -0.0210564
    3   0.0067330   0.0004221  -0.0067171   0.0106617  -0.0049160  -0.0061256
            7           8           9          10          11          12
    1   0.0049839  -0.0060523  -0.0028037   0.0031117  -0.0155448   0.0080656
    2  -0.0199589   0.0053351   0.0035556  -0.0003425  -0.0056796  -0.0026266
    3   0.0036187  -0.0080071   0.0108595  -0.0091105   0.0010837   0.0000636
           13          14          15          16          17
    1  -0.0355170  -0.0035815   0.0022016   0.0010794   0.0879924
    2   0.0179452   0.0043296   0.0008156  -0.0047955   0.0205379
    3   0.0462155  -0.0142277   0.0016069  -0.0040871  -0.0280736
 Max gradient component =       8.829E-02
 RMS gradient           =       2.381E-02
 Computing fast CPCM-SWIG gradient
 Updating gradient with PCM contributions...
 -- total gradient after adding PCM contribution --
---------------------------------------------------
  Atom         X              Y              Z     
---------------------------------------------------
   1       0.001991       0.001699      -0.000248
   2      -0.041376       0.024794       0.006018
   3       0.046874      -0.016941      -0.000761
   4      -0.002581      -0.005941       0.005243
   5      -0.093225      -0.007988      -0.000945
   6       0.043814      -0.019638      -0.006900
   7      -0.000375      -0.010052      -0.005717
   8      -0.000726       0.001731       0.001213
   9      -0.000916      -0.005514       0.002491
  10       0.000053       0.001798      -0.000355
  11      -0.003677      -0.003037       0.001623
  12       0.000169       0.000117      -0.000317
  13      -0.042502       0.020286       0.034256
  14      -0.000336       0.001366      -0.000503
  15       0.004150       0.002716       0.001590
  16       0.000704      -0.002276      -0.003729
  17       0.087959       0.016879      -0.032958
---------------------------------------------------
 Number of fixed atoms: 0
 Gradient time:  CPU 1008.71 s  wall 55.60 s
 ----------------------------------------------------------------
             Standard Nuclear Orientation (Angstroms)
    I     Atom           X                Y                Z
 ----------------------------------------------------------------
    1      H       0.4676273000     0.9877723000     1.6190427000
    2      C      -0.1383584000     1.1728668000     0.7432882000
    3      C      -1.2257957000     1.9304152000     0.8008346000
    4      H      -1.6351547000     2.2359030000     1.7585295000
    5      C      -2.0605263000     2.1799782000    -0.4309189000
    6      H      -3.0789131000     2.1059972000    -0.2822134000
    7      C      -1.6093021000     1.3060229000    -1.6131825000
    8      H      -2.1607828000     1.5425610000    -2.5194981000
    9      C      -0.0897682000     1.4007382000    -1.7466455000
   10      H       0.2472093000     0.9340344000    -2.6708689000
   11      C       0.2539379000     0.5175230000    -0.5550662000
   12      H       1.2735996000     0.1428130000    -0.5641162000
   13      O       0.4164406000     2.7068847000    -1.6083765000
   14      H       0.2864742000     3.1702683000    -2.4436478000
   15      O      -1.8386477000    -0.0682083000    -1.3072658000
   16      O      -0.5709407000    -0.6223231000    -0.8215539000
   17      O      -1.1865445000     3.3808209000    -0.3306863000
 ----------------------------------------------------------------
 Nuclear Repulsion Energy =         589.56190544 hartrees
 There are       38 alpha and       37 beta electrons
 Discretize the solute cavity surface with Lebedev spheres
	Using 110 Lebedev grid points for each H atom
	Using 194 Lebedev grid points for other atoms
	Atomic van der Waals radii will be scaled by 1.20
 Remove points where switching function is < 1.0e-08
 Keep 1204 surface tesserae and discard 1506 interior tesserae
 Molecular Surface Area = 138.900 Angst**2
 Requested basis set is 6-311++G(2df,2p)
 There are 122 shells and 410 basis functions
 A cutoff of  1.0D-11 yielded   6978 shell pairs
 There are     80165 function pairs (    101063 Cartesian)
 Smallest overlap matrix eigenvalue = 3.68E-06
 Guess MOs from SCF MO coefficient file

 -----------------------------------------------------------------------
  General SCF calculation program by
  Eric Jon Sundstrom, Paul Horn, Yuezhi Mao, Dmitri Zuev, Alec White,
  David Stuck, Shaama M.S., Shane Yost, Joonho Lee, David Small,
  Daniel Levine, Susi Lehtola, Hugh Burton, Evgeny Epifanovsky,
  Bang C. Huynh
 -----------------------------------------------------------------------
 Exchange:     0.1500 Hartree-Fock + 1.0000 wB97M-V + LR-HF
 Correlation:  1.0000 wB97M-V
 Using SG-2 standard quadrature grid
 Nonlocal Correlation:  VV10 with C = 0.0100 and b = 6.00 and scale = 1.00000
 Grid used for NLC:  SG-1 standard quadrature
 
 Citation of the SMD model:
 Marenich, A.V.; Cramer, C.J.; Truhlar, D.G.
 J. Phys. Chem. B 2009, 113, 6378-6396.
 iSolventCode=           1
 Solvent: water                                                           
 
 vradii
            1           2           3           4           5           6
    1   1.2000000   1.8500000   1.8500000   1.2000000   1.8500000   1.2000000
            7           8           9          10          11          12
    1   1.8500000   1.2000000   1.8500000   1.2000000   1.8500000   1.2000000
           13          14          15          16          17
    1   1.5200000   1.2000000   1.5200000   1.5200000   1.5200000
 -------------------------------------------------------
 OpenMP BLAS3 based DFT computing Module                
 Release: version 1.0, May 2013, Q-Chem Inc. Pittsburgh 
 -------------------------------------------------------
 A unrestricted SCF calculation will be
 performed using Roothaan-Hall, DIIS, GDM
 SCF converges when RMS gradient is below 1.0e-06
 ---------------------------------------
  Cycle       Energy         DIIS error
 ---------------------------------------
    1    -533.4739078080      2.15e-04  Roothaan Step
 ---------------------------------------
  Cycle       Energy         DIIS error
 ---------------------------------------
    1    -533.5019881997      2.61e-04  
    2    -533.5058754864      2.71e-04  Done DIIS. Switching to GDM
 ---------------------------------------
  Cycle       Energy        RMS Gradient
 ---------------------------------------
    1    -533.5058754864      1.51e-02   Normal BFGS step
    2    -533.5040443625      2.46e-02  Line search: overstep
    3    -533.5100161047      2.70e-03   Normal BFGS step
    4    -533.5101708833      5.80e-04   Normal BFGS step
    5    -533.5102162896      7.79e-04   Normal BFGS step
    6    -533.5102208483      4.67e-04   Normal BFGS step
    7    -533.5102221834      3.04e-04   Normal BFGS step
    8    -533.5102227081      1.96e-04   Normal BFGS step
    9    -533.5102229335      7.96e-05   Normal BFGS step
   10    -533.5102230130      6.17e-05   Normal BFGS step
   11    -533.5102230396      5.45e-05   Normal BFGS step
   12    -533.5102230540      4.23e-05   Normal BFGS step
   13    -533.5102230595      2.86e-05   Normal BFGS step
   14    -533.5102230639      1.50e-05   Normal BFGS step
   15    -533.5102230660      5.17e-06   Normal BFGS step
   16    -533.5102230666      2.29e-06   Normal BFGS step
   17    -533.5102230669      7.14e-07  Convergence criterion met
 ---------------------------------------
 SCF time:   CPU 6686.32s  wall 286.00s 
<S^2> =          0.781470023
(3)  G-ENP(liq) elect-nuc-pol free energy of system     -533.510223067 a.u.
(4)  G-CDS(liq) cavity-dispersion-solvent structure 
     free energy                                                2.2309 kcal/mol
(6)  G-S(liq) free energy of system                     -533.506667934 a.u.
 SCF   energy in the final basis set =     -533.5066679339
 Total energy in the final basis set =     -533.5066679339
 
 --------------------------------------------------------------
 
                    Orbital Energies (a.u.)
 --------------------------------------------------------------
 
 Alpha MOs
 -- Occupied --
-19.4078 -19.4039 -19.3524 -19.3296 -10.4103 -10.4051 -10.4045 -10.4030
-10.3842 -10.3669  -1.2759  -1.1703  -1.1259  -1.0715  -0.9592  -0.8871
 -0.8313  -0.7595  -0.7297  -0.6928  -0.6677  -0.6291  -0.5997  -0.5807
 -0.5711  -0.5554  -0.5482  -0.5221  -0.5116  -0.4890  -0.4822  -0.4680
 -0.4490  -0.4279  -0.4074  -0.3755  -0.3354  -0.3345
 -- Virtual --
  0.0248   0.0358   0.0377   0.0462   0.0562   0.0592   0.0614   0.0849
  0.0892   0.0923   0.1099   0.1189   0.1288   0.1339   0.1354   0.1417
  0.1451   0.1459   0.1534   0.1549   0.1580   0.1599   0.1678   0.1707
  0.1883   0.1897   0.1924   0.2026   0.2090   0.2133   0.2288   0.2331
  0.2386   0.2456   0.2571   0.2735   0.2845   0.2912   0.2971   0.3020
  0.3184   0.3231   0.3311   0.3394   0.3539   0.3548   0.3609   0.3645
  0.3688   0.3798   0.3841   0.3884   0.3925   0.3965   0.3995   0.4055
  0.4115   0.4173   0.4262   0.4416   0.4491   0.4752   0.4821   0.4956
  0.4996   0.5066   0.5416   0.5610   0.5787   0.5955   0.6084   0.6169
  0.6357   0.6410   0.6500   0.6597   0.6792   0.6812   0.6927   0.7068
  0.7091   0.7202   0.7276   0.7357   0.7512   0.7578   0.7659   0.7854
  0.7945   0.8118   0.8193   0.8323   0.8368   0.8539   0.8763   0.9227
  0.9296   0.9520   0.9672   0.9995   1.0258   1.0455   1.0712   1.0819
  1.1042   1.1135   1.1233   1.1407   1.1465   1.1572   1.1614   1.1935
  1.1997   1.2082   1.2113   1.2213   1.2329   1.2438   1.2499   1.2525
  1.2653   1.2760   1.2908   1.2965   1.3197   1.3233   1.3410   1.3457
  1.3526   1.3690   1.3816   1.4033   1.4110   1.4185   1.4275   1.4518
  1.4552   1.4713   1.4819   1.4856   1.5107   1.5243   1.5324   1.5551
  1.5637   1.5836   1.5860   1.6127   1.6247   1.6423   1.6711   1.6938
  1.7179   1.7232   1.7501   1.7658   1.7963   1.8117   1.8203   1.8551
  1.8755   1.9077   1.9273   1.9470   1.9853   2.0017   2.0173   2.0526
  2.0798   2.1175   2.1506   2.1592   2.1715   2.2195   2.2720   2.2845
  2.3230   2.3465   2.3632   2.3955   2.4278   2.4823   2.5502   2.6458
  2.6780   2.6946   2.7136   2.7528   2.7732   2.7790   2.8122   2.8228
  2.8339   2.8602   2.8710   2.8867   2.9214   2.9283   2.9343   2.9540
  2.9754   2.9841   3.0243   3.0373   3.0495   3.0598   3.1251   3.1438
  3.1524   3.1703   3.1850   3.2517   3.2652   3.2673   3.2896   3.3119
  3.3460   3.3712   3.3844   3.3984   3.4181   3.4217   3.4601   3.4669
  3.4789   3.4914   3.5193   3.5484   3.5557   3.5758   3.6097   3.6308
  3.6396   3.6564   3.6619   3.6783   3.6915   3.7258   3.7400   3.7605
  3.7684   3.7944   3.8048   3.8300   3.8492   3.8588   3.8709   3.8868
  3.9047   3.9186   3.9272   3.9527   3.9762   3.9911   4.0254   4.0434
  4.0751   4.0920   4.1008   4.1202   4.1329   4.1707   4.2250   4.2464
  4.2628   4.2994   4.3023   4.3046   4.3323   4.3717   4.3765   4.3952
  4.4078   4.4319   4.4760   4.4955   4.5056   4.5392   4.5478   4.5882
  4.5915   4.6157   4.6428   4.6496   4.6972   4.7284   4.7305   4.7386
  4.7536   4.8047   4.8576   4.8829   4.9704   5.0262   5.0734   5.0917
  5.1852   5.2256   5.2448   5.2605   5.2715   5.2993   5.3072   5.3118
  5.3387   5.3521   5.3570   5.3861   5.4070   5.4441   5.4639   5.4684
  5.4918   5.5222   5.5321   5.5371   5.5516   5.5914   5.6240   5.6372
  5.6743   5.6968   5.7251   5.7579   5.7763   5.8136   5.8285   5.8485
  5.9125   5.9586   5.9929   6.0143   6.0428   6.0781   6.1807   6.2618
  6.4642   6.6297   6.6598   6.7356   6.7436   7.0152   7.0346   7.1046
  7.1882   7.2991   7.3390   7.3586   7.3865   7.3900   7.4252   7.4596
  7.5207   7.5392   7.5582   7.6221   7.7199   7.7766   7.8614   7.8941
  7.9472   8.2288  24.3779  24.7044  24.7699  24.8311  24.8537  25.2256
 50.5859  50.6324  50.6435  50.7042
 
 Beta MOs
 -- Occupied --
-19.4066 -19.4040 -19.3371 -19.3295 -10.4108 -10.4044 -10.4043 -10.4031
-10.3854 -10.3594  -1.2747  -1.1670  -1.1021  -1.0695  -0.9486  -0.8818
 -0.8229  -0.7574  -0.7245  -0.6911  -0.6633  -0.6265  -0.5900  -0.5772
 -0.5665  -0.5470  -0.5449  -0.5142  -0.5076  -0.4856  -0.4722  -0.4492
 -0.4331  -0.4144  -0.3962  -0.3699  -0.3266
 -- Virtual --
 -0.0457   0.0248   0.0359   0.0376   0.0474   0.0568   0.0593   0.0652
  0.0854   0.0907   0.0985   0.1108   0.1251   0.1290   0.1337   0.1354
  0.1423   0.1447   0.1463   0.1542   0.1579   0.1598   0.1606   0.1690
  0.1714   0.1886   0.1897   0.1926   0.2059   0.2115   0.2153   0.2288
  0.2333   0.2385   0.2454   0.2597   0.2742   0.2848   0.2913   0.2982
  0.3044   0.3199   0.3247   0.3317   0.3426   0.3544   0.3558   0.3613
  0.3669   0.3700   0.3808   0.3847   0.3885   0.3936   0.3966   0.4006
  0.4074   0.4132   0.4173   0.4270   0.4418   0.4512   0.4763   0.4832
  0.4962   0.5016   0.5079   0.5432   0.5614   0.5830   0.6008   0.6130
  0.6187   0.6370   0.6420   0.6508   0.6656   0.6796   0.6824   0.6938
  0.7091   0.7098   0.7213   0.7289   0.7364   0.7526   0.7614   0.7669
  0.7895   0.7983   0.8121   0.8208   0.8343   0.8399   0.8556   0.8791
  0.9234   0.9309   0.9534   0.9677   1.0016   1.0272   1.0475   1.0723
  1.0827   1.1056   1.1140   1.1262   1.1430   1.1484   1.1606   1.1639
  1.1960   1.2021   1.2096   1.2129   1.2230   1.2369   1.2465   1.2540
  1.2562   1.2673   1.2797   1.2921   1.3026   1.3231   1.3251   1.3430
  1.3473   1.3551   1.3712   1.3830   1.4071   1.4135   1.4200   1.4316
  1.4536   1.4617   1.4732   1.4867   1.4892   1.5131   1.5264   1.5354
  1.5580   1.5674   1.5851   1.5870   1.6145   1.6271   1.6460   1.6740
  1.6962   1.7216   1.7276   1.7508   1.7705   1.8047   1.8140   1.8248
  1.8580   1.8781   1.9174   1.9326   1.9516   1.9900   2.0082   2.0205
  2.0593   2.0821   2.1256   2.1544   2.1658   2.1744   2.2228   2.2752
  2.2880   2.3240   2.3530   2.3677   2.3986   2.4296   2.4846   2.5513
  2.6515   2.6819   2.7000   2.7162   2.7557   2.7746   2.7803   2.8201
  2.8275   2.8417   2.8660   2.8767   2.8887   2.9313   2.9369   2.9438
  2.9682   2.9841   2.9968   3.0319   3.0411   3.0533   3.0659   3.1296
  3.1452   3.1578   3.1752   3.1882   3.2588   3.2706   3.2725   3.2932
  3.3203   3.3491   3.3781   3.3917   3.4078   3.4249   3.4307   3.4657
  3.4742   3.4869   3.4938   3.5243   3.5540   3.5576   3.5787   3.6140
  3.6348   3.6446   3.6594   3.6656   3.6829   3.6949   3.7373   3.7440
  3.7644   3.7711   3.7999   3.8085   3.8326   3.8536   3.8624   3.8742
  3.8930   3.9069   3.9214   3.9303   3.9590   3.9793   3.9940   4.0298
  4.0442   4.0789   4.0954   4.1062   4.1226   4.1371   4.1755   4.2267
  4.2515   4.2654   4.3034   4.3071   4.3134   4.3365   4.3733   4.3792
  4.3995   4.4134   4.4361   4.4797   4.4983   4.5087   4.5409   4.5560
  4.5916   4.5989   4.6189   4.6473   4.6513   4.7002   4.7322   4.7361
  4.7429   4.7624   4.8077   4.8613   4.8949   4.9783   5.0326   5.0804
  5.0980   5.1913   5.2440   5.2540   5.2722   5.2887   5.3105   5.3158
  5.3250   5.3431   5.3599   5.3916   5.4022   5.4153   5.4555   5.4700
  5.4807   5.4994   5.5350   5.5366   5.5500   5.5593   5.6020   5.6308
  5.6426   5.6809   5.7152   5.7299   5.7675   5.7852   5.8179   5.8323
  5.8633   5.9234   5.9659   5.9947   6.0250   6.0451   6.0844   6.1852
  6.2627   6.4807   6.6325   6.6604   6.7383   6.7447   7.0176   7.0719
  7.1589   7.2020   7.3006   7.3416   7.3650   7.3925   7.4018   7.4314
  7.4609   7.5307   7.5572   7.6176   7.6250   7.7306   7.7941   7.8642
  7.8958   7.9487   8.2297  24.3804  24.7045  24.7701  24.8312  24.8538
 25.2296  50.5865  50.6393  50.6444  50.7076
 --------------------------------------------------------------
 
          Ground-State Mulliken Net Atomic Charges

     Atom                 Charge (a.u.)    Spin (a.u.)
  --------------------------------------------------------
      1 H                     0.312344      -0.007875
      2 C                    -0.250185       0.521693
      3 C                    -0.181988      -0.129581
      4 H                     0.299652       0.002000
      5 C                    -0.220441       0.089272
      6 H                     0.279183      -0.000794
      7 C                    -0.314766      -0.019981
      8 H                     0.278531       0.000957
      9 C                    -0.041900       0.005210
     10 H                     0.277010      -0.001645
     11 C                    -0.099222      -0.019181
     12 H                     0.283164       0.004038
     13 O                    -0.371422       0.000860
     14 H                     0.330848       0.000054
     15 O                    -0.141593      -0.000925
     16 O                    -0.134078       0.024104
     17 O                    -0.305138       0.531794
  --------------------------------------------------------
  Sum of atomic charges =     0.000000
  Sum of spin   charges =     1.000000

 -----------------------------------------------------------------
                    Cartesian Multipole Moments
 -----------------------------------------------------------------
    Charge (ESU x 10^10)
                 0.0000
    Dipole Moment (Debye)
         X       0.2340      Y       0.0110      Z      -1.1304
       Tot       1.1544
    Quadrupole Moments (Debye-Ang)
        XX     -53.8807     XY      -5.5551     YY     -73.7125
        XZ       0.6909     YZ      -7.5087     ZZ     -43.8599
    Octopole Moments (Debye-Ang^2)
       XXX     121.9254    XXY     -70.1515    XYY      51.4100
       YYY    -310.2057    XXZ      39.3115    XYZ       7.4525
       YYZ      22.8490    XZZ      38.7952    YZZ     -43.4473
       ZZZ      89.8114
    Hexadecapole Moments (Debye-Ang^3)
      XXXX    -514.8499   XXXY     153.3807   XXYY    -304.8220
      XYYY     269.3441   YYYY   -1489.4413   XXXZ     -73.3815
      XXYZ      40.6441   XYYZ     -21.7545   YYYZ      80.9070
      XXZZ    -170.4203   XYZZ      43.5387   YYZZ    -202.4538
      XZZZ     -74.6987   YZZZ      61.9284   ZZZZ    -436.0583
 -----------------------------------------------------------------
 Calculating analytic gradient of the SCF energy
 Gradient of CDS energy
            1           2           3           4           5           6
    1   0.0001122   0.0001911  -0.0000551  -0.0000777  -0.0004244  -0.0001211
    2  -0.0000343  -0.0000520   0.0001718   0.0000580   0.0004381  -0.0000770
    3   0.0001621   0.0003173   0.0003510   0.0001818  -0.0001260   0.0000086
            7           8           9          10          11          12
    1  -0.0001240  -0.0001217   0.0007836   0.0000117   0.0001193   0.0001778
    2  -0.0002701   0.0000102   0.0015943  -0.0001785  -0.0002687  -0.0001248
    3  -0.0001945  -0.0001664   0.0000881  -0.0001421  -0.0001719  -0.0000077
           13          14          15          16          17
    1  -0.0008323   0.0002311   0.0001008  -0.0000904   0.0001191
    2  -0.0015422   0.0003745  -0.0000444   0.0000358  -0.0000908
    3  -0.0000017  -0.0002797   0.0000495  -0.0000749   0.0000067
 Gradient of SCF Energy
            1           2           3           4           5           6
    1   0.0063167  -0.0411380   0.0478784  -0.0047706  -0.0882855   0.0360947
    2   0.0000835   0.0257013  -0.0135949  -0.0057372  -0.0045139  -0.0210560
    3   0.0062047   0.0009147  -0.0066381   0.0106661  -0.0049145  -0.0061251
            7           8           9          10          11          12
    1   0.0049864  -0.0060521  -0.0028041   0.0031113  -0.0155776   0.0080618
    2  -0.0199624   0.0053349   0.0035540  -0.0003418  -0.0056791  -0.0026244
    3   0.0036199  -0.0080069   0.0108508  -0.0091126   0.0010449   0.0000646
           13          14          15          16          17
    1  -0.0355162  -0.0035815   0.0022012   0.0010791   0.0879960
    2   0.0179467   0.0043286   0.0008167  -0.0047972   0.0205411
    3   0.0462152  -0.0142273   0.0016061  -0.0040903  -0.0280720
 Max gradient component =       8.829E-02
 RMS gradient           =       2.378E-02
 Computing fast CPCM-SWIG gradient
 Updating gradient with PCM contributions...
 -- total gradient after adding PCM contribution --
---------------------------------------------------
  Atom         X              Y              Z     
---------------------------------------------------
   1       0.001462       0.001878      -0.000790
   2      -0.040846       0.024643       0.006520
   3       0.046897      -0.016961      -0.000685
   4      -0.002580      -0.005931       0.005242
   5      -0.093223      -0.008008      -0.000940
   6       0.043814      -0.019637      -0.006900
   7      -0.000374      -0.010053      -0.005719
   8      -0.000726       0.001731       0.001213
   9      -0.000915      -0.005516       0.002484
  10       0.000053       0.001799      -0.000357
  11      -0.003708      -0.003036       0.001593
  12       0.000167       0.000119      -0.000314
  13      -0.042502       0.020286       0.034257
  14      -0.000336       0.001366      -0.000503
  15       0.004149       0.002717       0.001589
  16       0.000704      -0.002278      -0.003732
  17       0.087963       0.016882      -0.032956
---------------------------------------------------
 Number of fixed atoms: 0
 Gradient time:  CPU 1009.63 s  wall 55.19 s
 ----------------------------------------------------------------
             Standard Nuclear Orientation (Angstroms)
    I     Atom           X                Y                Z
 ----------------------------------------------------------------
    1      H       0.4686273000     0.9887723000     1.6190427000
    2      C      -0.1383584000     1.1728668000     0.7432882000
    3      C      -1.2257957000     1.9304152000     0.8008346000
    4      H      -1.6351547000     2.2359030000     1.7585295000
    5      C      -2.0605263000     2.1799782000    -0.4309189000
    6      H      -3.0789131000     2.1059972000    -0.2822134000
    7      C      -1.6093021000     1.3060229000    -1.6131825000
    8      H      -2.1607828000     1.5425610000    -2.5194981000
    9      C      -0.0897682000     1.4007382000    -1.7466455000
   10      H       0.2472093000     0.9340344000    -2.6708689000
   11      C       0.2539379000     0.5175230000    -0.5550662000
   12      H       1.2735996000     0.1428130000    -0.5641162000
   13      O       0.4164406000     2.7068847000    -1.6083765000
   14      H       0.2864742000     3.1702683000    -2.4436478000
   15      O      -1.8386477000    -0.0682083000    -1.3072658000
   16      O      -0.5709407000    -0.6223231000    -0.8215539000
   17      O      -1.1865445000     3.3808209000    -0.3306863000
 ----------------------------------------------------------------
 Nuclear Repulsion Energy =         589.55973006 hartrees
 There are       38 alpha and       37 beta electrons
 Discretize the solute cavity surface with Lebedev spheres
	Using 110 Lebedev grid points for each H atom
	Using 194 Lebedev grid points for other atoms
	Atomic van der Waals radii will be scaled by 1.20
 Remove points where switching function is < 1.0e-08
 Keep 1204 surface tesserae and discard 1506 interior tesserae
 Molecular Surface Area = 138.902 Angst**2
 Requested basis set is 6-311++G(2df,2p)
 There are 122 shells and 410 basis functions
 A cutoff of  1.0D-11 yielded   6978 shell pairs
 There are     80165 function pairs (    101063 Cartesian)
 Smallest overlap matrix eigenvalue = 3.68E-06
 Guess MOs from SCF MO coefficient file

 -----------------------------------------------------------------------
  General SCF calculation program by
  Eric Jon Sundstrom, Paul Horn, Yuezhi Mao, Dmitri Zuev, Alec White,
  David Stuck, Shaama M.S., Shane Yost, Joonho Lee, David Small,
  Daniel Levine, Susi Lehtola, Hugh Burton, Evgeny Epifanovsky,
  Bang C. Huynh
 -----------------------------------------------------------------------
 Exchange:     0.1500 Hartree-Fock + 1.0000 wB97M-V + LR-HF
 Correlation:  1.0000 wB97M-V
 Using SG-2 standard quadrature grid
 Nonlocal Correlation:  VV10 with C = 0.0100 and b = 6.00 and scale = 1.00000
 Grid used for NLC:  SG-1 standard quadrature
 
 Citation of the SMD model:
 Marenich, A.V.; Cramer, C.J.; Truhlar, D.G.
 J. Phys. Chem. B 2009, 113, 6378-6396.
 iSolventCode=           1
 Solvent: water                                                           
 
 vradii
            1           2           3           4           5           6
    1   1.2000000   1.8500000   1.8500000   1.2000000   1.8500000   1.2000000
            7           8           9          10          11          12
    1   1.8500000   1.2000000   1.8500000   1.2000000   1.8500000   1.2000000
           13          14          15          16          17
    1   1.5200000   1.2000000   1.5200000   1.5200000   1.5200000
 -------------------------------------------------------
 OpenMP BLAS3 based DFT computing Module                
 Release: version 1.0, May 2013, Q-Chem Inc. Pittsburgh 
 -------------------------------------------------------
 A unrestricted SCF calculation will be
 performed using Roothaan-Hall, DIIS, GDM
 SCF converges when RMS gradient is below 1.0e-06
 ---------------------------------------
  Cycle       Energy         DIIS error
 ---------------------------------------
    1    -533.4738962675      2.15e-04  Roothaan Step
 ---------------------------------------
  Cycle       Energy         DIIS error
 ---------------------------------------
    1    -533.5019871148      2.61e-04  
    2    -533.5058757861      2.71e-04  Done DIIS. Switching to GDM
 ---------------------------------------
  Cycle       Energy        RMS Gradient
 ---------------------------------------
    1    -533.5058757861      1.51e-02   Normal BFGS step
    2    -533.5040503275      2.46e-02  Line search: overstep
    3    -533.5100100294      2.73e-03   Normal BFGS step
    4    -533.5101646079      5.80e-04   Normal BFGS step
    5    -533.5102099988      7.88e-04   Normal BFGS step
    6    -533.5102145369      4.72e-04   Normal BFGS step
    7    -533.5102158697      3.07e-04   Normal BFGS step
    8    -533.5102163914      1.97e-04   Normal BFGS step
    9    -533.5102166160      7.85e-05   Normal BFGS step
   10    -533.5102166950      6.07e-05   Normal BFGS step
   11    -533.5102167213      5.38e-05   Normal BFGS step
   12    -533.5102167354      4.20e-05   Normal BFGS step
   13    -533.5102167408      2.85e-05   Normal BFGS step
   14    -533.5102167452      1.51e-05   Normal BFGS step
   15    -533.5102167472      5.10e-06   Normal BFGS step
   16    -533.5102167478      2.21e-06   Normal BFGS step
   17    -533.5102167481      6.93e-07  Convergence criterion met
 ---------------------------------------
 SCF time:   CPU 6656.72s  wall 284.00s 
<S^2> =          0.781474630
(3)  G-ENP(liq) elect-nuc-pol free energy of system     -533.510216748 a.u.
(4)  G-CDS(liq) cavity-dispersion-solvent structure 
     free energy                                                2.2310 kcal/mol
(6)  G-S(liq) free energy of system                     -533.506661467 a.u.
 SCF   energy in the final basis set =     -533.5066614673
 Total energy in the final basis set =     -533.5066614673
 
 --------------------------------------------------------------
 
                    Orbital Energies (a.u.)
 --------------------------------------------------------------
 
 Alpha MOs
 -- Occupied --
-19.4078 -19.4039 -19.3525 -19.3296 -10.4103 -10.4050 -10.4045 -10.4030
-10.3842 -10.3670  -1.2759  -1.1703  -1.1259  -1.0715  -0.9592  -0.8871
 -0.8313  -0.7595  -0.7297  -0.6928  -0.6677  -0.6291  -0.5997  -0.5807
 -0.5711  -0.5554  -0.5482  -0.5221  -0.5116  -0.4890  -0.4822  -0.4680
 -0.4490  -0.4279  -0.4074  -0.3755  -0.3354  -0.3345
 -- Virtual --
  0.0248   0.0358   0.0377   0.0462   0.0562   0.0592   0.0614   0.0849
  0.0892   0.0923   0.1099   0.1189   0.1288   0.1339   0.1354   0.1417
  0.1451   0.1459   0.1534   0.1549   0.1580   0.1599   0.1678   0.1707
  0.1883   0.1897   0.1924   0.2026   0.2090   0.2133   0.2288   0.2331
  0.2385   0.2456   0.2571   0.2735   0.2845   0.2911   0.2971   0.3020
  0.3184   0.3231   0.3310   0.3394   0.3540   0.3548   0.3609   0.3645
  0.3688   0.3798   0.3840   0.3884   0.3925   0.3965   0.3995   0.4055
  0.4115   0.4173   0.4262   0.4416   0.4491   0.4752   0.4821   0.4955
  0.4997   0.5066   0.5416   0.5610   0.5787   0.5955   0.6084   0.6169
  0.6357   0.6410   0.6499   0.6597   0.6792   0.6812   0.6927   0.7068
  0.7091   0.7202   0.7276   0.7357   0.7512   0.7578   0.7659   0.7853
  0.7945   0.8118   0.8192   0.8323   0.8368   0.8538   0.8763   0.9226
  0.9296   0.9520   0.9672   0.9995   1.0257   1.0455   1.0712   1.0819
  1.1043   1.1135   1.1233   1.1407   1.1465   1.1572   1.1614   1.1935
  1.1997   1.2081   1.2113   1.2213   1.2330   1.2438   1.2498   1.2525
  1.2653   1.2760   1.2908   1.2965   1.3197   1.3233   1.3410   1.3457
  1.3525   1.3689   1.3816   1.4033   1.4110   1.4185   1.4275   1.4518
  1.4552   1.4713   1.4818   1.4856   1.5107   1.5243   1.5323   1.5550
  1.5636   1.5836   1.5860   1.6127   1.6247   1.6423   1.6711   1.6938
  1.7178   1.7232   1.7501   1.7657   1.7963   1.8117   1.8204   1.8551
  1.8755   1.9076   1.9273   1.9470   1.9853   2.0017   2.0172   2.0526
  2.0798   2.1175   2.1505   2.1591   2.1715   2.2195   2.2720   2.2845
  2.3230   2.3465   2.3631   2.3954   2.4279   2.4823   2.5502   2.6458
  2.6780   2.6947   2.7136   2.7528   2.7732   2.7790   2.8122   2.8228
  2.8336   2.8601   2.8710   2.8867   2.9215   2.9283   2.9343   2.9540
  2.9754   2.9841   3.0243   3.0373   3.0496   3.0598   3.1251   3.1438
  3.1524   3.1702   3.1849   3.2517   3.2652   3.2674   3.2895   3.3119
  3.3460   3.3711   3.3843   3.3984   3.4181   3.4215   3.4602   3.4669
  3.4789   3.4914   3.5193   3.5485   3.5556   3.5759   3.6097   3.6307
  3.6396   3.6564   3.6619   3.6783   3.6915   3.7258   3.7400   3.7605
  3.7684   3.7944   3.8047   3.8300   3.8492   3.8587   3.8709   3.8869
  3.9048   3.9186   3.9272   3.9526   3.9762   3.9911   4.0254   4.0435
  4.0750   4.0920   4.1008   4.1202   4.1328   4.1705   4.2250   4.2463
  4.2629   4.2995   4.3021   4.3045   4.3322   4.3717   4.3765   4.3951
  4.4078   4.4319   4.4759   4.4955   4.5055   4.5392   4.5477   4.5882
  4.5914   4.6156   4.6428   4.6496   4.6972   4.7283   4.7304   4.7386
  4.7535   4.8047   4.8576   4.8828   4.9703   5.0261   5.0734   5.0917
  5.1852   5.2255   5.2448   5.2604   5.2716   5.2992   5.3072   5.3118
  5.3387   5.3521   5.3569   5.3861   5.4070   5.4440   5.4639   5.4684
  5.4917   5.5221   5.5320   5.5370   5.5515   5.5912   5.6240   5.6372
  5.6743   5.6968   5.7251   5.7579   5.7763   5.8136   5.8284   5.8484
  5.9125   5.9584   5.9929   6.0141   6.0429   6.0779   6.1806   6.2618
  6.4642   6.6298   6.6598   6.7356   6.7436   7.0152   7.0346   7.1046
  7.1882   7.2991   7.3390   7.3586   7.3865   7.3900   7.4252   7.4596
  7.5207   7.5392   7.5582   7.6221   7.7199   7.7766   7.8614   7.8941
  7.9472   8.2288  24.3775  24.7044  24.7698  24.8311  24.8537  25.2253
 50.5859  50.6324  50.6435  50.7042
 
 Beta MOs
 -- Occupied --
-19.4066 -19.4040 -19.3371 -19.3295 -10.4108 -10.4044 -10.4043 -10.4031
-10.3854 -10.3595  -1.2747  -1.1670  -1.1021  -1.0695  -0.9486  -0.8818
 -0.8229  -0.7574  -0.7245  -0.6911  -0.6632  -0.6265  -0.5900  -0.5772
 -0.5665  -0.5470  -0.5449  -0.5142  -0.5076  -0.4856  -0.4722  -0.4492
 -0.4332  -0.4144  -0.3962  -0.3699  -0.3266
 -- Virtual --
 -0.0457   0.0248   0.0359   0.0376   0.0474   0.0568   0.0593   0.0652
  0.0855   0.0907   0.0985   0.1108   0.1251   0.1290   0.1337   0.1354
  0.1423   0.1447   0.1463   0.1542   0.1579   0.1598   0.1606   0.1690
  0.1714   0.1886   0.1897   0.1926   0.2059   0.2115   0.2152   0.2288
  0.2333   0.2385   0.2454   0.2597   0.2742   0.2848   0.2913   0.2982
  0.3044   0.3199   0.3247   0.3317   0.3426   0.3544   0.3558   0.3613
  0.3669   0.3700   0.3808   0.3847   0.3885   0.3936   0.3966   0.4005
  0.4074   0.4132   0.4173   0.4270   0.4418   0.4512   0.4763   0.4832
  0.4962   0.5016   0.5080   0.5432   0.5614   0.5829   0.6008   0.6130
  0.6187   0.6370   0.6420   0.6508   0.6656   0.6796   0.6824   0.6938
  0.7091   0.7098   0.7212   0.7289   0.7364   0.7526   0.7614   0.7669
  0.7895   0.7983   0.8121   0.8208   0.8343   0.8399   0.8555   0.8791
  0.9234   0.9309   0.9534   0.9677   1.0016   1.0271   1.0475   1.0723
  1.0827   1.1057   1.1140   1.1262   1.1430   1.1484   1.1605   1.1639
  1.1959   1.2021   1.2096   1.2130   1.2229   1.2370   1.2466   1.2540
  1.2561   1.2673   1.2797   1.2921   1.3026   1.3231   1.3251   1.3430
  1.3473   1.3550   1.3711   1.3830   1.4071   1.4135   1.4200   1.4316
  1.4536   1.4617   1.4732   1.4867   1.4892   1.5131   1.5264   1.5353
  1.5579   1.5673   1.5851   1.5870   1.6145   1.6270   1.6460   1.6740
  1.6962   1.7215   1.7276   1.7508   1.7704   1.8047   1.8140   1.8249
  1.8580   1.8781   1.9173   1.9327   1.9516   1.9900   2.0082   2.0205
  2.0593   2.0822   2.1256   2.1544   2.1657   2.1744   2.2229   2.2752
  2.2880   2.3240   2.3530   2.3677   2.3986   2.4297   2.4846   2.5513
  2.6515   2.6819   2.7000   2.7162   2.7557   2.7746   2.7803   2.8201
  2.8275   2.8415   2.8659   2.8767   2.8886   2.9314   2.9369   2.9438
  2.9682   2.9841   2.9967   3.0319   3.0410   3.0533   3.0659   3.1296
  3.1452   3.1578   3.1751   3.1881   3.2588   3.2706   3.2725   3.2932
  3.3203   3.3491   3.3780   3.3916   3.4078   3.4248   3.4306   3.4657
  3.4741   3.4869   3.4938   3.5243   3.5540   3.5575   3.5787   3.6140
  3.6347   3.6445   3.6594   3.6656   3.6829   3.6949   3.7373   3.7439
  3.7644   3.7711   3.7999   3.8084   3.8326   3.8536   3.8623   3.8742
  3.8931   3.9069   3.9213   3.9303   3.9590   3.9793   3.9940   4.0298
  4.0443   4.0788   4.0954   4.1063   4.1226   4.1369   4.1754   4.2267
  4.2515   4.2655   4.3034   4.3071   4.3133   4.3364   4.3733   4.3792
  4.3994   4.4133   4.4361   4.4796   4.4982   4.5086   4.5409   4.5559
  4.5916   4.5988   4.6188   4.6473   4.6513   4.7001   4.7322   4.7360
  4.7429   4.7624   4.8077   4.8613   4.8948   4.9782   5.0325   5.0803
  5.0979   5.1913   5.2440   5.2539   5.2722   5.2887   5.3106   5.3158
  5.3249   5.3431   5.3599   5.3916   5.4022   5.4153   5.4555   5.4700
  5.4807   5.4993   5.5349   5.5366   5.5499   5.5592   5.6018   5.6308
  5.6426   5.6809   5.7152   5.7298   5.7675   5.7851   5.8179   5.8323
  5.8633   5.9234   5.9658   5.9947   6.0248   6.0451   6.0842   6.1850
  6.2627   6.4807   6.6325   6.6604   6.7383   6.7447   7.0176   7.0718
  7.1589   7.2020   7.3006   7.3416   7.3650   7.3924   7.4018   7.4314
  7.4609   7.5307   7.5572   7.6176   7.6250   7.7306   7.7941   7.8642
  7.8958   7.9487   8.2297  24.3800  24.7045  24.7701  24.8312  24.8538
 25.2294  50.5865  50.6393  50.6444  50.7076
[...]

 -----------------------------------------------------------------
                    Cartesian Multipole Moments
 -----------------------------------------------------------------
    Charge (ESU x 10^10)
                 0.0000
    Dipole Moment (Debye)
         X       0.6812      Y      -0.2801      Z      -1.1007
       Tot       1.3244
    Quadrupole Moments (Debye-Ang)
        XX     -55.9958     XY      -4.1778     YY     -74.0801
        XZ       1.1410     YZ      -7.6732     ZZ     -43.3822
    Octopole Moments (Debye-Ang^2)
       XXX     126.4551    XXY     -76.6520    XYY      56.9440
       YYY    -313.5069    XXZ      40.7414    XYZ       9.5712
       YYZ      20.2509    XZZ      38.3920    YZZ     -42.2472
       ZZZ      88.4661
    Hexadecapole Moments (Debye-Ang^3)
      XXXX    -571.9526   XXXY     173.5289   XXYY    -326.9003
      XYYY     300.0577   YYYY   -1472.0931   XXXZ     -61.4043
      XXYZ      39.6672   XYYZ     -11.8461   YYYZ      68.9068
      XXZZ    -184.0815   XYZZ      43.4264   YYZZ    -196.7622
      XZZZ     -62.7407   YZZZ      53.5286   ZZZZ    -452.0618
 -----------------------------------------------------------------
 Calculating analytic gradient of the SCF energy
 Gradient of CDS energy
            1           2           3           4           5           6
    1   0.0001130   0.0002910  -0.0001422  -0.0000892   0.0017996  -0.0002028
    2  -0.0000283  -0.0000200   0.0000898   0.0001107   0.0052265  -0.0000708
    3   0.0001573   0.0003068   0.0003155   0.0001566   0.0007666   0.0000040
            7           8           9          10          11          12
    1  -0.0001168  -0.0001205   0.0014661  -0.0000236   0.0000977   0.0001693
    2  -0.0001805   0.0000077   0.0023119  -0.0001971  -0.0002667  -0.0001335
    3  -0.0001082  -0.0001753  -0.0000650  -0.0001216  -0.0001793  -0.0000035
           13          14          15          16          17
    1  -0.0014453   0.0002095   0.0000951  -0.0000837  -0.0020169
    2  -0.0023019   0.0003921  -0.0000435   0.0000385  -0.0049348
    3   0.0001229  -0.0002884   0.0000377  -0.0000821  -0.0008441
 Gradient of SCF Energy
            1           2           3           4           5           6
    1   0.0054756  -0.0006865  -0.0007091  -0.0020645   0.0034446  -0.0055749
    2  -0.0017800   0.0031887   0.0008270  -0.0001605   0.0020940  -0.0005920
    3   0.0075657  -0.0071961  -0.0055227   0.0057862  -0.0043519   0.0001977
            7           8           9          10          11          12
    1   0.0039886  -0.0049122  -0.0004372   0.0023163  -0.0117116   0.0085603
    2  -0.0098358   0.0037483   0.0078693  -0.0027644  -0.0014325  -0.0034464
    3   0.0108995  -0.0095941   0.0073603  -0.0083203  -0.0011572   0.0004660
           13          14          15          16          17
    1   0.0058765  -0.0046932  -0.0016384  -0.0001929   0.0029586
    2  -0.0019019   0.0041242  -0.0018968  -0.0027224   0.0046812
    3   0.0145465  -0.0137401  -0.0007209   0.0002835   0.0034977
 Max gradient component =       1.455E-02
 RMS gradient           =       5.618E-03
 Computing fast CPCM-SWIG gradient
 Updating gradient with PCM contributions...
 -- total gradient after adding PCM contribution --
---------------------------------------------------
  Atom         X              Y              Z     
---------------------------------------------------
   1      -0.000007       0.000026       0.000004
   2       0.000045       0.000010      -0.000019
   3      -0.000076      -0.000006       0.000056
   4      -0.000012       0.000007      -0.000006
   5      -0.000098      -0.000265      -0.000303
   6      -0.000006       0.000008       0.000174
   7       0.000012       0.000019      -0.000003
   8       0.000013      -0.000014      -0.000008
   9       0.000002       0.000016      -0.000004
  10       0.000021      -0.000017       0.000019
  11       0.000016       0.000012       0.000013
  12       0.000005       0.000007       0.000018
  13       0.000031      -0.000039      -0.000036
  14      -0.000020       0.000005       0.000008
  15       0.000006      -0.000010      -0.000015
  16      -0.000002       0.000013       0.000024
  17       0.000068       0.000229       0.000075
---------------------------------------------------
 Number of fixed atoms: 0
 Gradient time:  CPU 1094.45 s  wall 58.89 s
 Geometry Optimization Parameters
   NAtoms,    NIC,     NZ,  NCons,   NDum,   NFix, NCnnct, MaxDiis
       17     151       0       0       0       0       0       0

 Cartesian Hessian Update
 Hessian updated using Powell/Murtagh-Sargent update
  Mixing factors:     0.894202 Powell                      0.105798 Murtagh-Sargent


** GEOMETRY OPTIMIZATION IN DELOCALIZED INTERNAL COORDINATES **
   Searching for a Transition State

   Optimization Cycle:  26

                       Coordinates (Angstroms)
     ATOM                X               Y               Z
      1  H         0.5643351856    1.0791751925    1.5991855334
      2  C        -0.0592235506    1.2354449499    0.7308863522
      3  C        -1.2680417063    1.8891887846    0.8406238885
      4  H        -1.6698649318    2.1938916555    1.7926958364
      5  C        -2.0816217619    2.1231268658   -0.3784005668
      6  H        -3.1617226836    2.0468876914   -0.2623457484
      7  C        -1.5711533067    1.3873676731   -1.6126056913
      8  H        -2.1020025468    1.6792028603   -2.5160800136
      9  C        -0.0452002679    1.3855260551   -1.7762055398
     10  H         0.1910144875    0.8147636343   -2.6753486889
     11  C         0.2720541663    0.5377388971   -0.5570291713
     12  H         1.2646753328    0.0979670165   -0.5693184569
     13  O         0.6498976524    2.6062281815   -1.7540141159
     14  H         0.3809260370    3.1239688342   -2.5208469368
     15  O        -1.8240012324   -0.0075684114   -1.4281339249
     16  O        -0.6451923206   -0.5574847049   -0.7347898011
     17  O        -1.5433238530    3.3886425244   -0.1506179547
   Point Group: c1    Number of degrees of freedom:    45


   Energy is   -533.551113089

 Hessian updated using Powell/Murtagh-Sargent update
  Mixing factors:     0.494889 Powell                      0.505111 Murtagh-Sargent

 45 Hessian modes will be used to form the next step
  Hessian Eigenvalues:
    -0.037918    0.000775    0.005101    0.007891    0.011202    0.012495
     0.018123    0.023295    0.028706    0.033698    0.040984    0.042506
     0.047935    0.052405    0.057400    0.057962    0.061300    0.070901
     0.074371    0.085765    0.094125    0.103574    0.108832    0.114779
     0.155584    0.169990    0.171596    0.198270    0.212699    0.217335
     0.224886    0.252344    0.262418    0.297143    0.323423    0.338198
     0.348687    0.352526    0.354283    0.361978    0.455703    0.459990
     0.489457    0.524888    0.596075

 Transition state search - taking P-RFO step
 Searching for Lamda that Maximizes Along the Lowest mode
 Value Taken    Lamda =   0.00000001
 Searching for Lamda that Minimizes Along All other modes
 Value Taken    Lamda =  -0.00000143
 Step Taken.  Stepsize is  0.021321

                             Maximum     Tolerance    Cnvgd?
         Gradient           0.000090      0.000300     YES
         Displacement       0.008612      0.001200      NO
         Energy change     -0.000000      0.000001     YES

 Final energy is   -533.551113089183     


 ******************************
 **  OPTIMIZATION CONVERGED  **
 ******************************

                       Coordinates (Angstroms)
     ATOM                X               Y               Z
      1  H         0.5643351856    1.0791751925    1.5991855334
      2  C        -0.0592235506    1.2354449499    0.7308863522
      3  C        -1.2680417063    1.8891887846    0.8406238885
      4  H        -1.6698649318    2.1938916555    1.7926958364
      5  C        -2.0816217619    2.1231268658   -0.3784005668
      6  H        -3.1617226836    2.0468876914   -0.2623457484
      7  C        -1.5711533067    1.3873676731   -1.6126056913
      8  H        -2.1020025468    1.6792028603   -2.5160800136
      9  C        -0.0452002679    1.3855260551   -1.7762055398
     10  H         0.1910144875    0.8147636343   -2.6753486889
     11  C         0.2720541663    0.5377388971   -0.5570291713
     12  H         1.2646753328    0.0979670165   -0.5693184569
     13  O         0.6498976524    2.6062281815   -1.7540141159
     14  H         0.3809260370    3.1239688342   -2.5208469368
     15  O        -1.8240012324   -0.0075684114   -1.4281339249
     16  O        -0.6451923206   -0.5574847049   -0.7347898011
     17  O        -1.5433238530    3.3886425244   -0.1506179547

Z-matrix Print:
$molecule
0 2
O 
C  1 1.429618
H  2 1.087766 1 106.417915
O  1 1.474016 2 106.455796 3 150.540686 0
C  4 1.439602 1 106.487229 2 -0.963204 0
H  5 1.085747 4 105.840352 1 -150.070797 0
C  5 1.501754 4 108.590333 1 87.678232 0
H  7 1.080365 5 119.652896 4 103.996540 0
C  7 1.378646 5 118.815528 4 -65.700605 0
H  9 1.077380 7 122.104885 5 164.549451 0
C  9 1.484136 7 119.342027 5 -12.228867 0
H  11 1.088990 9 116.432305 7 143.418454 0
O  11 1.393980 9 78.299122 7 -103.846709 0
C  5 1.518481 4 101.098391 1 -30.867530 0
H  14 1.090883 5 108.930147 4 -62.798746 0
O  14 1.404908 5 111.657424 4 174.091699 0
H  16 0.963553 14 108.432713 5 -177.102892 0
$end

 
 --------------------------------------------------------------
 
                    Orbital Energies (a.u.)
 --------------------------------------------------------------
 
 Alpha MOs
 -- Occupied --
-19.4076 -19.4065 -19.3567 -19.3483 -10.4134 -10.4111 -10.4077 -10.4064
-10.3945 -10.3786  -1.2740  -1.1755  -1.1626  -1.0742  -0.9585  -0.8869
 -0.8277  -0.7656  -0.7306  -0.6959  -0.6708  -0.6315  -0.6059  -0.5841
 -0.5763  -0.5623  -0.5511  -0.5295  -0.5144  -0.4936  -0.4851  -0.4684
 -0.4556  -0.4275  -0.4107  -0.3873  -0.3585  -0.3368
 -- Virtual --
  0.0252   0.0361   0.0373   0.0461   0.0537   0.0586   0.0601   0.0827
  0.0866   0.0915   0.1066   0.1170   0.1301   0.1344   0.1361   0.1411
  0.1454   0.1473   0.1523   0.1556   0.1560   0.1611   0.1676   0.1713
  0.1883   0.1901   0.1914   0.2037   0.2073   0.2219   0.2262   0.2318
  0.2380   0.2483   0.2559   0.2697   0.2816   0.2924   0.3000   0.3056
  0.3159   0.3247   0.3278   0.3403   0.3490   0.3571   0.3588   0.3641
  0.3682   0.3783   0.3807   0.3837   0.3901   0.3958   0.3959   0.4074
  0.4100   0.4192   0.4246   0.4342   0.4433   0.4544   0.4765   0.4806
  0.4877   0.5064   0.5405   0.5480   0.5815   0.5943   0.6020   0.6097
  0.6326   0.6416   0.6438   0.6619   0.6740   0.6793   0.6982   0.7063
  0.7122   0.7157   0.7251   0.7297   0.7491   0.7533   0.7645   0.7778
  0.7841   0.7953   0.8182   0.8299   0.8440   0.8538   0.8681   0.9094
  0.9162   0.9415   0.9627   0.9786   1.0252   1.0341   1.0596   1.0840
  1.0913   1.1141   1.1153   1.1319   1.1420   1.1523   1.1671   1.1738
  1.1944   1.1968   1.2022   1.2246   1.2347   1.2405   1.2419   1.2570
  1.2671   1.2869   1.2920   1.2963   1.3008   1.3108   1.3245   1.3438
  1.3486   1.3553   1.3639   1.3784   1.3960   1.4045   1.4108   1.4224
  1.4343   1.4587   1.4724   1.4839   1.4964   1.5082   1.5300   1.5462
  1.5602   1.5737   1.5823   1.6040   1.6212   1.6290   1.6557   1.6802
  1.6953   1.7384   1.7415   1.7713   1.7914   1.8230   1.8414   1.8588
  1.8642   1.8985   1.9146   1.9489   1.9540   1.9864   2.0273   2.0718
  2.0758   2.1045   2.1247   2.1511   2.1703   2.2181   2.2531   2.2780
  2.3077   2.3584   2.3901   2.4148   2.4194   2.4572   2.5524   2.6319
  2.6776   2.6935   2.7143   2.7401   2.7715   2.7881   2.8078   2.8158
  2.8249   2.8474   2.8682   2.8911   2.9061   2.9282   2.9371   2.9487
  2.9637   2.9930   3.0147   3.0340   3.0399   3.0428   3.1123   3.1267
  3.1523   3.1809   3.2022   3.2440   3.2558   3.2741   3.3010   3.3132
  3.3403   3.3479   3.3790   3.3946   3.3982   3.4073   3.4495   3.4577
  3.4672   3.4924   3.5107   3.5251   3.5723   3.5737   3.5973   3.6101
  3.6331   3.6478   3.6580   3.6694   3.6918   3.7017   3.7227   3.7360
  3.7480   3.7754   3.7956   3.8132   3.8368   3.8551   3.8648   3.8827
  3.8862   3.9012   3.9197   3.9250   3.9652   3.9880   4.0075   4.0277
  4.0477   4.0738   4.0861   4.1029   4.1416   4.1691   4.2119   4.2298
  4.2474   4.2628   4.2942   4.3075   4.3357   4.3574   4.3643   4.3778
  4.3997   4.4135   4.4420   4.4547   4.4931   4.5194   4.5294   4.5378
  4.5730   4.5837   4.6051   4.6215   4.6358   4.6847   4.6937   4.7286
  4.7510   4.7729   4.8111   4.8505   4.9500   4.9944   5.0616   5.0887
  5.1905   5.2235   5.2397   5.2718   5.2826   5.2867   5.2976   5.3059
  5.3373   5.3455   5.3664   5.3817   5.3995   5.4164   5.4352   5.4530
  5.4622   5.4987   5.5084   5.5314   5.5402   5.5979   5.6147   5.6286
  5.6563   5.6812   5.6949   5.7478   5.7670   5.7960   5.8092   5.8752
  5.9363   5.9645   5.9663   6.0203   6.0653   6.0670   6.1236   6.2592
  6.6053   6.6410   6.6799   6.7241   6.7829   7.0225   7.0521   7.0938
  7.1168   7.2872   7.3112   7.3391   7.3933   7.4150   7.4304   7.4704
  7.4740   7.5081   7.5743   7.6216   7.7191   7.7479   7.8369   7.8805
  7.9341   8.2279  24.4037  24.7021  24.7781  24.8164  24.8974  25.0610
 50.5821  50.6388  50.6486  50.6789
 
 Beta MOs
 -- Occupied --
-19.4066 -19.4061 -19.3482 -19.3431 -10.4139 -10.4109 -10.4077 -10.4057
-10.3959 -10.3701  -1.2726  -1.1731  -1.1412  -1.0723  -0.9491  -0.8805
 -0.8196  -0.7625  -0.7245  -0.6934  -0.6667  -0.6283  -0.5960  -0.5803
 -0.5716  -0.5554  -0.5451  -0.5224  -0.5095  -0.4921  -0.4722  -0.4555
 -0.4479  -0.4141  -0.3942  -0.3786  -0.3523
 -- Virtual --
 -0.0516   0.0253   0.0361   0.0372   0.0471   0.0559   0.0591   0.0629
  0.0849   0.0917   0.0946   0.1073   0.1224   0.1298   0.1343   0.1360
  0.1415   0.1454   0.1471   0.1534   0.1558   0.1604   0.1627   0.1678
  0.1722   0.1886   0.1904   0.1915   0.2063   0.2078   0.2247   0.2261
  0.2326   0.2378   0.2474   0.2579   0.2714   0.2825   0.2937   0.3002
  0.3085   0.3169   0.3253   0.3285   0.3435   0.3494   0.3582   0.3603
  0.3656   0.3694   0.3796   0.3808   0.3845   0.3902   0.3970   0.3975
  0.4079   0.4126   0.4198   0.4258   0.4351   0.4451   0.4570   0.4786
  0.4823   0.4886   0.5081   0.5416   0.5500   0.5856   0.5978   0.6081
  0.6126   0.6342   0.6418   0.6501   0.6630   0.6749   0.6800   0.6995
  0.7070   0.7128   0.7175   0.7267   0.7322   0.7504   0.7540   0.7696
  0.7814   0.7868   0.7969   0.8213   0.8302   0.8476   0.8563   0.8714
  0.9107   0.9168   0.9438   0.9632   0.9810   1.0270   1.0356   1.0610
  1.0853   1.0926   1.1173   1.1176   1.1332   1.1439   1.1545   1.1693
  1.1761   1.1963   1.1998   1.2038   1.2262   1.2377   1.2416   1.2458
  1.2622   1.2737   1.2893   1.2936   1.2975   1.3031   1.3141   1.3267
  1.3454   1.3505   1.3573   1.3653   1.3822   1.3984   1.4076   1.4131
  1.4287   1.4416   1.4610   1.4778   1.4857   1.4997   1.5102   1.5318
  1.5501   1.5615   1.5770   1.5848   1.6066   1.6233   1.6335   1.6584
  1.6829   1.6993   1.7404   1.7471   1.7737   1.7951   1.8257   1.8450
  1.8602   1.8728   1.9027   1.9197   1.9546   1.9598   1.9895   2.0304
  2.0779   2.0835   2.1078   2.1290   2.1583   2.1756   2.2215   2.2545
  2.2799   2.3101   2.3607   2.3921   2.4199   2.4236   2.4598   2.5541
  2.6387   2.6804   2.6972   2.7179   2.7437   2.7747   2.7911   2.8158
  2.8233   2.8331   2.8509   2.8769   2.8962   2.9204   2.9389   2.9527
  2.9568   2.9690   3.0046   3.0270   3.0386   3.0437   3.0532   3.1169
  3.1290   3.1558   3.1886   3.2101   3.2532   3.2615   3.2794   3.3094
  3.3187   3.3446   3.3525   3.3850   3.3960   3.4080   3.4169   3.4564
  3.4688   3.4715   3.4963   3.5132   3.5328   3.5745   3.5811   3.6031
  3.6176   3.6394   3.6553   3.6653   3.6733   3.6982   3.7109   3.7276
  3.7409   3.7544   3.7789   3.8006   3.8176   3.8395   3.8572   3.8699
  3.8882   3.8889   3.9059   3.9231   3.9273   3.9707   3.9910   4.0089
  4.0320   4.0516   4.0797   4.0909   4.1062   4.1449   4.1766   4.2172
  4.2366   4.2505   4.2738   4.2982   4.3112   4.3386   4.3590   4.3669
  4.3835   4.4037   4.4182   4.4456   4.4604   4.4973   4.5259   4.5360
  4.5462   4.5789   4.5902   4.6090   4.6250   4.6464   4.6880   4.6975
  4.7316   4.7556   4.7764   4.8178   4.8568   4.9601   5.0028   5.0676
  5.0971   5.1993   5.2365   5.2531   5.2802   5.2862   5.2936   5.3100
  5.3267   5.3463   5.3532   5.3856   5.3928   5.4066   5.4319   5.4386
  5.4654   5.4747   5.5061   5.5170   5.5394   5.5496   5.6042   5.6195
  5.6356   5.6762   5.6850   5.7010   5.7558   5.7702   5.8008   5.8135
  5.8796   5.9459   5.9698   5.9801   6.0343   6.0716   6.0782   6.1254
  6.2604   6.6084   6.6432   6.6845   6.7267   6.7890   7.0245   7.1066
  7.1164   7.1471   7.2891   7.3125   7.3406   7.3970   7.4234   7.4321
  7.4721   7.4853   7.5106   7.6236   7.6381   7.7195   7.7745   7.8389
  7.8824   7.9359   8.2289  24.4067  24.7022  24.7784  24.8165  24.8978
 25.0651  50.5827  50.6410  50.6495  50.6860
 --------------------------------------------------------------
 
          Ground-State Mulliken Net Atomic Charges

     Atom                 Charge (a.u.)    Spin (a.u.)
  --------------------------------------------------------
      1 H                     0.326248      -0.009466
      2 C                    -0.226059       0.589703
      3 C                    -0.269206      -0.132011
      4 H                     0.311016       0.004372
      5 C                    -0.118297       0.083447
      6 H                     0.265408       0.001852
      7 C                    -0.307935      -0.016776
      8 H                     0.278182       0.001021
      9 C                    -0.070044       0.006198
     10 H                     0.296929      -0.001419
     11 C                    -0.068367      -0.021872
     12 H                     0.295052       0.003298
     13 O                    -0.429157      -0.000594
     14 H                     0.341727       0.000066
     15 O                    -0.121058      -0.000664
     16 O                    -0.139659       0.029685
     17 O                    -0.364780       0.463162
  --------------------------------------------------------
  Sum of atomic charges =     0.000000
  Sum of spin   charges =     1.000000

 -----------------------------------------------------------------
                    Cartesian Multipole Moments
 -----------------------------------------------------------------
    Charge (ESU x 10^10)
                 0.0000
    Dipole Moment (Debye)
         X       0.6812      Y      -0.2801      Z      -1.1007
       Tot       1.3244
    Quadrupole Moments (Debye-Ang)
        XX     -55.9958     XY      -4.1778     YY     -74.0801
        XZ       1.1410     YZ      -7.6732     ZZ     -43.3822
    Octopole Moments (Debye-Ang^2)
       XXX     126.4551    XXY     -76.6520    XYY      56.9440
       YYY    -313.5069    XXZ      40.7414    XYZ       9.5712
       YYZ      20.2509    XZZ      38.3920    YZZ     -42.2472
       ZZZ      88.4661
    Hexadecapole Moments (Debye-Ang^3)
      XXXX    -571.9526   XXXY     173.5289   XXYY    -326.9003
      XYYY     300.0577   YYYY   -1472.0931   XXXZ     -61.4043
      XXYZ      39.6672   XYYZ     -11.8461   YYYZ      68.9068
      XXZZ    -184.0815   XYZZ      43.4264   YYZZ    -196.7622
      XZZZ     -62.7407   YZZZ      53.5286   ZZZZ    -452.0618
 -----------------------------------------------------------------
 Total job time:  10225.45s(wall), 230909.76s(cpu) 
 Wed May 15 23:20:22 2024

        *************************************************************
        *                                                           *
        *  Thank you very much for using Q-Chem.  Have a nice day.  *
        *                                                           *
        *************************************************************


