
Running Job 1 of 1 Q_in.in
qchem Q_in.in_133512.0 /scratch/ari.fischer/qChem2267632.hpc-mn1/qchem133512/ 0
/usr/local/qchem-5.4.1/exe/qcprog.exe_s Q_in.in_133512.0 /scratch/ari.fischer/qChem2267632.hpc-mn1/qchem133512/
                  Welcome to Q-Chem
     A Quantum Leap Into The Future Of Chemistry


 Q-Chem 5.4, Q-Chem, Inc., Pleasanton, CA (2021)

 License issued to: Nanyang Technological University (site)

 E. Epifanovsky,  A. T. B. Gilbert,  Xintian Feng,  Joonho Lee,  Yuezhi Mao,  
 N. Mardirossian,  P. Pokhilko,  A. White,  M. Wormit,  M. P. Coons,  
 A. L. Dempwolff,  Zhengting Gan,  D. Hait,  P. R. Horn,  L. D. Jacobson,  
 I. Kaliman,  J. Kussmann,  A. W. Lange,  Ka Un Lao,  D. S. Levine,  Jie Liu,  
 S. C. McKenzie,  A. F. Morrison,  K. Nanda,  F. Plasser,  D. R. Rehn,  
 M. L. Vidal,  Zhi-Qiang You,  Ying Zhu,  B. Alam,  B. Albrecht,  
 A. Aldossary,  E. Alguire,  J. H. Andersen,  D. Barton,  K. Begam,  A. Behn,  
 Y. A. Bernard,  E. J. Berquist,  H. Burton,  A. Carreras,  K. Carter-Fenk,  
 R. Chakraborty,  A. D. Chien,  K. D. Closser,  V. Cofer-Shabica,  
 S. Dasgupta,  Jia Deng,  M. de Wergifosse,  M. Diedenhofen,  Hainam Do,  
 S. Ehlert,  Po-Tung Fang,  S. Fatehi,  Qingguo Feng,  T. Friedhoff,  
 J. Gayvert,  Qinghui Ge,  G. Gidofalvi,  M. Goldey,  J. Gomes,  
 C. Gonzalez-Espinoza,  S. Gulania,  A. Gunina,  M. W. D. Hanson-Heine,  
 P. H. P. Harbach,  A. W. Hauser,  M. F. Herbst,  M. Hernandez Vera,  
 M. Hodecker,  Z. C. Holden,  S. Houck,  Xunkun Huang,  Kerwin Hui,  
 B. C. Huynh,  M. Ivanov,  Hyunjun Ji,  Hanjie Jiang,  B. Kaduk,  S. Kaehler,  
 K. Khistyaev,  Jaehoon Kim,  P. Klunzinger,  Z. Koczor-Benda,  
 Joong Hoon Koh,  D. Kosenkov,  L. Koulias,  T. Kowalczyk,  C. M. Krauter,  
 K. Kue,  A. Kunitsa,  T. Kus,  A. Landau,  K. V. Lawler,  D. Lefrancois,  
 S. Lehtola,  Rain Li,  Yi-Pei Li,  Jiashu Liang,  M. Liebenthal,  
 Hung-Hsuan Lin,  You-Sheng Lin,  Fenglai Liu,  Kuan-Yu Liu,  
 M. Loipersberger,  A. Luenser,  A. Manjanath,  P. Manohar,  E. Mansoor,  
 S. F. Manzer,  Shan-Ping Mao,  A. V. Marenich,  T. Markovich,  S. Mason,  
 S. A. Maurer,  P. F. McLaughlin,  M. F. S. J. Menger,  J.-M. Mewes,  
 S. A. Mewes,  P. Morgante,  J. W. Mullinax,  K. J. Oosterbaan,  G. Paran,  
 Alexander C. Paul,  Suranjan K. Paul,  F. Pavosevic,  Zheng Pei,  S. Prager,  
 E. I. Proynov,  E. Ramos,  B. Rana,  A. E. Rask,  A. Rettig,  R. M. Richard,  
 F. Rob,  E. Rossomme,  T. Scheele,  M. Scheurer,  M. Schneider,  
 N. Sergueev,  S. M. Sharada,  W. Skomorowski,  D. W. Small,  C. J. Stein,  
 Yu-Chuan Su,  E. J. Sundstrom,  Zhen Tao,  J. Thirman,  T. Tsuchimochi,  
 N. M. Tubman,  S. P. Veccham,  O. Vydrov,  J. Wenzel,  J. Witte,  A. Yamada,  
 Kun Yao,  S. Yeganeh,  S. R. Yost,  A. Zech,  Igor Ying Zhang,  Xing Zhang,  
 Yu Zhang,  D. Zuev,  A. Aspuru-Guzik,  A. T. Bell,  N. A. Besley,  
 K. B. Bravaya,  B. R. Brooks,  D. Casanova,  Jeng-Da Chai,  S. Coriani,  
 C. J. Cramer,  A. E. DePrince, III,  R. A. DiStasio Jr.,  A. Dreuw,  
 B. D. Dunietz,  T. R. Furlani,  W. A. Goddard III,  S. Grimme,  
 S. Hammes-Schiffer,  T. Head-Gordon,  W. J. Hehre,  Chao-Ping Hsu,  
 T.-C. Jagau,  Yousung Jung,  A. Klamt,  Jing Kong,  D. S. Lambrecht,  
 WanZhen Liang,  N. J. Mayhall,  C. W. McCurdy,  J. B. Neaton,  
 C. Ochsenfeld,  J. A. Parkhill,  R. Peverati,  V. A. Rassolov,  Yihan Shao,  
 L. V. Slipchenko,  T. Stauch,  R. P. Steele,  J. E. Subotnik,  
 A. J. W. Thom,  A. Tkatchenko,  D. G. Truhlar,  T. Van Voorhis,  
 T. A. Wesolowski,  K. B. Whaley,  H. L. Woodcock III,  P. M. Zimmerman,  
 S. Faraji,  P. M. W. Gill,  M. Head-Gordon,  J. M. Herbert,  A. I. Krylov

 Additional authors for Version 5.4.1: 
 S. Kotaru,  Shaozhi Li,  Xiangyuan Li,  F. Matz,  A. Molle,  Haisheng Ren,  
 Yingli Su,  Hung-Yi Tsai,  C. Utku,  Fang Wang

 Contributors to earlier versions of Q-Chem not listed above: 
 R. D. Adamson,  B. Austin,  R. Baer,  J. Baker,  G. J. O. Beran,  
 K. Brandhorst,  S. T. Brown,  E. F. C. Byrd,  A. K. Chakraborty,  
 G. K. L. Chan,  Chun-Min Chang,  Yunqing Chen,  C.-L. Cheng,  
 Siu Hung Chien,  D. M. Chipman,  D. L. Crittenden,  H. Dachsel,  
 R. J. Doerksen,  A. D. Dutoi,  R. G. Edgar,  J. Fosso-Tande,  
 L. Fusti-Molnar,  D. Ghosh,  A. Ghysels,  A. Golubeva-Zadorozhnaya,  
 J. Gonthier,  M. S. Gordon,  S. R. Gwaltney,  G. Hawkins,  J. E. Herr,  
 A. Heyden,  S. Hirata,  E. G. Hohenstein,  G. Kedziora,  F. J. Keil,  
 C. Kelley,  Jihan Kim,  R. A. King,  R. Z. Khaliullin,  P. P. Korambath,  
 W. Kurlancheek,  A. Laurent,  A. M. Lee,  M. S. Lee,  S. V. Levchenko,  
 Ching Yeh Lin,  D. Liotard,  E. Livshits,  R. C. Lochan,  I. Lotan,  
 L. A. Martinez-Martinez,  P. E. Maslen,  N. Nair,  D. P. O'Neill,  
 D. Neuhauser,  E. Neuscamman,  C. M. Oana,  R. Olivares-Amaya,  R. Olson,  
 T. M. Perrine,  B. Peters,  P. A. Pieniazek,  A. Prociuk,  Y. M. Rhee,  
 J. Ritchie,  M. A. Rohrdanz,  E. Rosta,  N. J. Russ,  H. F. Schaefer III,  
 M. W. Schmidt,  N. E. Schultz,  S. Sharma,  N. Shenvi,  C. D. Sherrill,  
 A. C. Simmonett,  A. Sodt,  T. Stein,  D. Stuck,  K. S. Thanthiriwatte,  
 V. Vanovschi,  L. Vogt,  Tao Wang,  A. Warshel,  M. A. Watson,  
 C. F. Williams,  Q. Wu,  X. Xu,  Jun Yang,  W. Zhang,  Yan Zhao

 Please cite Q-Chem as follows:
 Y. Shao et al., Mol. Phys. 113, 184-215 (2015)
 DOI: 10.1080/00268976.2014.952696

 Q-Chem 5.4.1 for Intel X86 EM64T Linux

 Parts of Q-Chem use Armadillo 9.800.1 (Horizon Scraper).
 http://arma.sourceforge.net/

 Q-Chem begins on Fri Aug  9 08:25:03 2024  

 Host: 
0

     Scratch files written to /scratch/ari.fischer/qChem2267632.hpc-mn1/qchem133512//
 Aug1521 |scratch|qcdevops|jenkins|workspace|build_RNUM 8249   
 Processing $rem in /usr/local/qchem-5.4.1/config/preferences:
 Processing $rem in /home/ari.fischer/.qchemrc:
 Symmetry turned off for PCM/SM12/SMD calculation


!!********************************************.
!!******************Warning*******************.
!!Desired Analytical derivatives not available.
!!Finite difference job might take a long time.
!!********************************************.
!!********************************************.


 2-order derivative to be evaluated numerically with 1-order analytical derivatives

 Checking the input file for inconsistencies... 	...done.

--------------------------------------------------------------
User input:
--------------------------------------------------------------
$molecule
0 2
C    0.8711538   -0.1653791    0.1616539
O    0.5791104   -1.4658627    0.6375090
C    2.3763280    0.0794856    0.1265123
O    3.0433695   -0.7893116   -0.7150949
O    2.5298621    1.4831179   -0.3922435
O    2.2877499    1.5462599   -1.6686106
C    3.0157690    0.0974477    1.4841060
C    4.3203900    0.1901204    1.6976170
C    5.3807895    0.2769660    0.6353318
O    6.4807402    0.9355858    1.2061411
O    5.8100247   -1.0233680    0.2485790
H    0.3975181    0.6039928    0.7714560
H    0.4890908   -0.0946533   -0.8563808
H    0.6163495   -1.4618182    1.6000755
H    2.5539263   -0.8685240   -1.5456438
H    2.3382102    0.0271351    2.3251113
H    4.6944927    0.1777724    2.7152753
H    5.0341497    0.8161968   -0.2465638
H    7.0837250    1.1869598    0.4970865
H    5.0951707   -1.4025883   -0.2805771
$end

$rem
BASIS = 6-311++G(2df,2p)
GUI = 2
JOB_TYPE = Frequency
METHOD = wB97M-V
SOLVENT_METHOD = SMD
SCF_ALGORITHM = DIIS_GDM
MAX_SCF_CYCLES = 400
SCF_CONVERGENCE = 7
THRESH = 12
$end
--------------------------------------------------------------
 ----------------------------------------------------------------
             Standard Nuclear Orientation (Angstroms)
    I     Atom           X                Y                Z
 ----------------------------------------------------------------
    1      C       0.8711538000    -0.1653791000     0.1616539000
    2      O       0.5791104000    -1.4658627000     0.6375090000
    3      C       2.3763280000     0.0794856000     0.1265123000
    4      O       3.0433695000    -0.7893116000    -0.7150949000
    5      O       2.5298621000     1.4831179000    -0.3922435000
    6      O       2.2877499000     1.5462599000    -1.6686106000
    7      C       3.0157690000     0.0974477000     1.4841060000
    8      C       4.3203900000     0.1901204000     1.6976170000
    9      C       5.3807895000     0.2769660000     0.6353318000
   10      O       6.4807402000     0.9355858000     1.2061411000
   11      O       5.8100247000    -1.0233680000     0.2485790000
   12      H       0.3975181000     0.6039928000     0.7714560000
   13      H       0.4890908000    -0.0946533000    -0.8563808000
   14      H       0.6163495000    -1.4618182000     1.6000755000
   15      H       2.5539263000    -0.8685240000    -1.5456438000
   16      H       2.3382102000     0.0271351000     2.3251113000
   17      H       4.6944927000     0.1777724000     2.7152753000
   18      H       5.0341497000     0.8161968000    -0.2465638000
   19      H       7.0837250000     1.1869598000     0.4970865000
   20      H       5.0951707000    -1.4025883000    -0.2805771000
 ----------------------------------------------------------------
 Nuclear Repulsion Energy =         684.20516467 hartrees
 There are       44 alpha and       43 beta electrons
 Requested basis set is 6-311++G(2df,2p)
 There are 142 shells and 464 basis functions

 Total QAlloc Memory Limit 288000 MB
 Mega-Array Size       188 MB
 MEM_STATIC part       192 MB
 
 Citation of the SMD model:
 Marenich, A.V.; Cramer, C.J.; Truhlar, D.G.
 J. Phys. Chem. B 2009, 113, 6378-6396.
 iSolventCode=           1
 Solvent: water                                                           
 
 vradii
            1           2           3           4           5           6
    1   1.8500000   1.5200000   1.8500000   1.5200000   1.5200000   1.5200000
            7           8           9          10          11          12
    1   1.8500000   1.8500000   1.8500000   1.5200000   1.5200000   1.2000000
           13          14          15          16          17          18
    1   1.2000000   1.2000000   1.2000000   1.2000000   1.2000000   1.2000000
           19          20
    1   1.2000000   1.2000000
 Changing PCM_VDW_RADII to SMD_RADIUS
 Discretize the solute cavity surface with Lebedev spheres
	Using 110 Lebedev grid points for each H atom
	Using 194 Lebedev grid points for other atoms
	Atomic van der Waals radii will be scaled by 1.20
 Remove points where switching function is < 1.0e-08
 Keep 1564 surface tesserae and discard 1560 interior tesserae
 Molecular Surface Area = 175.142 Angst**2
 A cutoff of  1.0D-12 yielded   8757 shell pairs
 There are     92698 function pairs (    115063 Cartesian)
 Smallest overlap matrix eigenvalue = 3.32E-06
 Guess from superposition of atomic densities
 Warning:  Energy on first SCF cycle will be non-variational
 SAD guess density has 87.000000 electrons

 -----------------------------------------------------------------------
  General SCF calculation program by
  Eric Jon Sundstrom, Paul Horn, Yuezhi Mao, Dmitri Zuev, Alec White,
  David Stuck, Shaama M.S., Shane Yost, Joonho Lee, David Small,
  Daniel Levine, Susi Lehtola, Hugh Burton, Evgeny Epifanovsky,
  Bang C. Huynh
 -----------------------------------------------------------------------
 Exchange:     0.1500 Hartree-Fock + 1.0000 wB97M-V + LR-HF
 Correlation:  1.0000 wB97M-V
 Using SG-2 standard quadrature grid
 Nonlocal Correlation:  VV10 with C = 0.0100 and b = 6.00 and scale = 1.00000
 Grid used for NLC:  SG-1 standard quadrature
 using 16 threads for integral computing
 -------------------------------------------------------
 OpenMP Integral computing Module                
 Release: version 1.0, May 2013, Q-Chem Inc. Pittsburgh 
 -------------------------------------------------------
 
 Citation of the SMD model:
 Marenich, A.V.; Cramer, C.J.; Truhlar, D.G.
 J. Phys. Chem. B 2009, 113, 6378-6396.
 iSolventCode=           1
 Solvent: water                                                           
 
 vradii
            1           2           3           4           5           6
    1   1.8500000   1.5200000   1.8500000   1.5200000   1.5200000   1.5200000
            7           8           9          10          11          12
    1   1.8500000   1.8500000   1.8500000   1.5200000   1.5200000   1.2000000
           13          14          15          16          17          18
    1   1.2000000   1.2000000   1.2000000   1.2000000   1.2000000   1.2000000
           19          20
    1   1.2000000   1.2000000
 -------------------------------------------------------
 OpenMP BLAS3 based DFT computing Module                
 Release: version 1.0, May 2013, Q-Chem Inc. Pittsburgh 
 -------------------------------------------------------
 A unrestricted SCF calculation will be
 performed using DIIS, GDM
 SCF converges when RMS gradient is below 1.0e-07
 ---------------------------------------
  Cycle       Energy         DIIS error
 ---------------------------------------
    1    -649.4522945371      1.15e-02  
    2    -646.9785053620      1.53e-03  Done DIIS. Switching to GDM
 ---------------------------------------
  Cycle       Energy        RMS Gradient
 ---------------------------------------
    1    -646.9785053620      1.15e-01   Descent step
    2    -647.1498915956      2.88e-02   Normal BFGS step
    3    -647.1773077930      2.91e-02   Normal BFGS step
    4    -647.1801959978      1.34e-02   Normal BFGS step
    5    -647.1824159317      4.45e-03   Normal BFGS step
    6    -647.1826009467      3.76e-03   Normal BFGS step
    7    -647.1826874102      1.96e-03   Normal BFGS step
    8    -647.1827115820      9.71e-04   Normal BFGS step
    9    -647.1827149282      6.93e-04   Normal BFGS step
   10    -647.1827167272      4.18e-04   Normal BFGS step
   11    -647.1827176038      3.46e-04   Normal BFGS step
   12    -647.1827183283      3.04e-04   Normal BFGS step
   13    -647.1827188480      1.44e-04   Normal BFGS step
   14    -647.1827189781      4.21e-05   Normal BFGS step
   15    -647.1827189998      1.96e-05   Normal BFGS step
   16    -647.1827190041      6.82e-06   Normal BFGS step
   17    -647.1827190047      2.45e-06   Normal BFGS step
   18    -647.1827190048      8.77e-07   Normal BFGS step
   19    -647.1827190049      5.53e-07   Normal BFGS step
   20    -647.1827190049      3.39e-07   Normal BFGS step
   21    -647.1827190049      2.41e-07   Normal BFGS step
   22    -647.1827190048      9.47e-08  Convergence criterion met
 ---------------------------------------
 SCF time:   CPU 3065.44s  wall 210.00s 
<S^2> =          0.754055488
(3)  G-ENP(liq) elect-nuc-pol free energy of system     -647.182719005 a.u.
(4)  G-CDS(liq) cavity-dispersion-solvent structure 
     free energy                                                3.6003 kcal/mol
(6)  G-S(liq) free energy of system                     -647.176981503 a.u.
 SCF   energy in the final basis set =     -647.1769815030
 Total energy in the final basis set =     -647.1769815030
 
 --------------------------------------------------------------
 
                    Orbital Energies (a.u.)
 --------------------------------------------------------------
 
 Alpha MOs
 -- Occupied --
-19.4626 -19.4207 -19.3677 -19.3490 -19.3476 -19.3406 -10.4743 -10.4501
-10.3970 -10.3588 -10.3574  -1.3482  -1.2045  -1.1990  -1.1645  -1.1339
 -1.0158  -0.9265  -0.8636  -0.8059  -0.7566  -0.6881  -0.6870  -0.6686
 -0.6462  -0.6376  -0.6171  -0.6137  -0.5965  -0.5773  -0.5547  -0.5365
 -0.5145  -0.5044  -0.4813  -0.4754  -0.4573  -0.4545  -0.4281  -0.4195
 -0.4053  -0.3964  -0.3814  -0.3766
 -- Virtual --
  0.0251   0.0350   0.0381   0.0471   0.0482   0.0572   0.0632   0.0723
  0.0801   0.0933   0.1016   0.1087   0.1215   0.1268   0.1296   0.1400
  0.1476   0.1520   0.1562   0.1643   0.1702   0.1712   0.1757   0.1789
  0.1848   0.1854   0.1952   0.2057   0.2211   0.2305   0.2325   0.2355
  0.2483   0.2534   0.2572   0.2662   0.2762   0.2783   0.2826   0.2917
  0.2992   0.2999   0.3051   0.3120   0.3185   0.3254   0.3266   0.3346
  0.3443   0.3476   0.3545   0.3575   0.3600   0.3688   0.3703   0.3773
  0.3882   0.3896   0.3983   0.4044   0.4096   0.4142   0.4236   0.4260
  0.4415   0.4453   0.4578   0.4724   0.4802   0.4978   0.5035   0.5142
  0.5272   0.5701   0.5725   0.5986   0.6018   0.6027   0.6274   0.6315
  0.6399   0.6502   0.6521   0.6609   0.6809   0.6848   0.6867   0.7000
  0.7097   0.7157   0.7225   0.7354   0.7386   0.7628   0.7753   0.7890
  0.7984   0.8098   0.8299   0.8371   0.8591   0.8634   0.8769   0.8876
  0.9180   0.9247   0.9577   0.9736   0.9949   1.0089   1.0169   1.0280
  1.0567   1.0655   1.0768   1.0942   1.1028   1.1064   1.1213   1.1341
  1.1375   1.1457   1.1553   1.1678   1.1742   1.1792   1.1936   1.1970
  1.2093   1.2241   1.2277   1.2377   1.2442   1.2467   1.2497   1.2661
  1.2735   1.2836   1.2941   1.3018   1.3243   1.3391   1.3552   1.3670
  1.3850   1.4041   1.4157   1.4171   1.4233   1.4440   1.4561   1.4616
  1.4783   1.4929   1.5223   1.5252   1.5383   1.5537   1.5626   1.5698
  1.5769   1.5889   1.5989   1.6245   1.6257   1.6325   1.6564   1.6629
  1.6895   1.6978   1.7266   1.7392   1.7533   1.7588   1.7951   1.8004
  1.8240   1.8413   1.8834   1.8959   1.9259   1.9615   1.9902   1.9973
  2.0243   2.0477   2.0804   2.1163   2.1608   2.1783   2.1912   2.2061
  2.2343   2.2448   2.2928   2.3152   2.3308   2.3476   2.3522   2.3852
  2.4015   2.4287   2.4335   2.4552   2.4919   2.5218   2.5631   2.6304
  2.6659   2.6980   2.7406   2.7571   2.7841   2.7999   2.8137   2.8364
  2.8587   2.8747   2.8927   2.9099   2.9226   2.9504   2.9634   2.9838
  3.0036   3.0333   3.0740   3.0923   3.1251   3.1694   3.1900   3.2081
  3.2409   3.2469   3.2716   3.3012   3.3133   3.3199   3.3413   3.3527
  3.3713   3.4037   3.4151   3.4450   3.4575   3.4736   3.4840   3.4956
  3.4971   3.5134   3.5634   3.5787   3.5863   3.6104   3.6304   3.6470
  3.6674   3.7113   3.7299   3.7356   3.7450   3.7640   3.7805   3.7950
  3.8035   3.8232   3.8349   3.8504   3.8595   3.8660   3.8917   3.9087
  3.9131   3.9284   3.9454   3.9528   3.9685   3.9992   4.0424   4.0521
  4.0909   4.1316   4.1416   4.1792   4.1907   4.1966   4.2244   4.2360
  4.2612   4.2882   4.2958   4.3061   4.3372   4.3481   4.3838   4.4019
  4.4035   4.4492   4.4531   4.4683   4.4826   4.5220   4.5477   4.5779
  4.6098   4.6156   4.6449   4.6643   4.7379   4.7859   4.8214   4.8617
  4.8765   4.9137   4.9371   4.9908   5.0721   5.0870   5.0975   5.1140
  5.1788   5.2074   5.2378   5.2392   5.2544   5.2658   5.2814   5.2891
  5.2928   5.3001   5.3111   5.3168   5.3293   5.3419   5.3627   5.3835
  5.4085   5.4354   5.4530   5.4661   5.4784   5.4985   5.5358   5.5385
  5.5631   5.5759   5.5884   5.5999   5.6131   5.6357   5.6614   5.6925
  5.7029   5.7307   5.7534   5.7608   5.8107   5.8645   5.9204   5.9358
  5.9911   6.0065   6.0240   6.0491   6.0676   6.1315   6.1496   6.3271
  6.4835   6.5541   6.5942   6.6381   6.7376   6.7609   6.8564   6.9048
  6.9764   7.0638   7.0922   7.1054   7.1390   7.1446   7.1962   7.2602
  7.2802   7.2952   7.3126   7.3183   7.3310   7.3350   7.3478   7.3688
  7.3991   7.4161   7.4324   7.4479   7.4515   7.5416   7.6336   7.6483
  7.7220   7.7465   7.7855   7.7867   7.8376   7.8911   7.9082   8.0626
  8.1390  24.4007  24.7228  24.7940  24.8425  25.2412  50.4502  50.5777
 50.5997  50.6106  50.6199  50.6906
 
 Beta MOs
 -- Occupied --
-19.4522 -19.4019 -19.3677 -19.3490 -19.3475 -19.3406 -10.4746 -10.4501
-10.3968 -10.3589 -10.3573  -1.3225  -1.2036  -1.1981  -1.1643  -1.1339
 -0.9898  -0.9193  -0.8567  -0.8054  -0.7535  -0.6864  -0.6796  -0.6640
 -0.6442  -0.6268  -0.6131  -0.6003  -0.5712  -0.5600  -0.5461  -0.5301
 -0.5087  -0.4971  -0.4799  -0.4745  -0.4525  -0.4505  -0.4275  -0.4080
 -0.3956  -0.3825  -0.3734
 -- Virtual --
 -0.0324   0.0252   0.0352   0.0385   0.0477   0.0488   0.0575   0.0636
  0.0726   0.0804   0.0936   0.1022   0.1096   0.1217   0.1270   0.1299
  0.1402   0.1481   0.1525   0.1571   0.1647   0.1706   0.1717   0.1764
  0.1798   0.1850   0.1869   0.1962   0.2061   0.2226   0.2312   0.2364
  0.2371   0.2496   0.2556   0.2590   0.2678   0.2784   0.2813   0.2858
  0.2928   0.3006   0.3015   0.3059   0.3126   0.3200   0.3262   0.3284
  0.3357   0.3447   0.3483   0.3549   0.3595   0.3608   0.3700   0.3708
  0.3777   0.3886   0.3899   0.3994   0.4048   0.4101   0.4147   0.4254
  0.4268   0.4418   0.4464   0.4590   0.4736   0.4818   0.4982   0.5044
  0.5153   0.5277   0.5703   0.5728   0.5988   0.6020   0.6030   0.6277
  0.6322   0.6400   0.6507   0.6523   0.6612   0.6813   0.6854   0.6874
  0.7003   0.7100   0.7163   0.7226   0.7357   0.7389   0.7630   0.7754
  0.7901   0.7987   0.8103   0.8307   0.8375   0.8593   0.8639   0.8781
  0.8877   0.9181   0.9253   0.9588   0.9742   0.9977   1.0094   1.0177
  1.0290   1.0581   1.0673   1.0773   1.0949   1.1037   1.1068   1.1242
  1.1354   1.1387   1.1506   1.1563   1.1706   1.1789   1.1861   1.1977
  1.2005   1.2126   1.2274   1.2359   1.2413   1.2460   1.2482   1.2516
  1.2685   1.2820   1.2875   1.2959   1.3042   1.3274   1.3421   1.3599
  1.3684   1.3863   1.4047   1.4176   1.4180   1.4241   1.4449   1.4570
  1.4698   1.4809   1.4940   1.5241   1.5273   1.5410   1.5579   1.5642
  1.5710   1.5815   1.5916   1.5999   1.6262   1.6326   1.6357   1.6593
  1.6707   1.6918   1.7036   1.7282   1.7448   1.7604   1.7756   1.7967
  1.8021   1.8304   1.8467   1.8874   1.9005   1.9284   1.9667   1.9909
  1.9995   2.0265   2.0525   2.0818   2.1180   2.1621   2.1801   2.1967
  2.2070   2.2422   2.2473   2.3037   2.3208   2.3321   2.3536   2.3543
  2.3880   2.4018   2.4307   2.4337   2.4590   2.4933   2.5231   2.5650
  2.6307   2.6707   2.7009   2.7418   2.7577   2.7847   2.8011   2.8139
  2.8372   2.8594   2.8752   2.8935   2.9100   2.9229   2.9507   2.9636
  2.9847   3.0037   3.0334   3.0746   3.0930   3.1258   3.1698   3.1904
  3.2087   3.2410   3.2474   3.2723   3.3016   3.3136   3.3200   3.3413
  3.3529   3.3717   3.4041   3.4154   3.4452   3.4578   3.4737   3.4847
  3.4959   3.4976   3.5135   3.5635   3.5791   3.5866   3.6107   3.6309
  3.6473   3.6678   3.7118   3.7304   3.7361   3.7450   3.7640   3.7807
  3.7951   3.8038   3.8233   3.8355   3.8504   3.8598   3.8665   3.8920
  3.9095   3.9134   3.9286   3.9456   3.9530   3.9687   3.9996   4.0429
  4.0522   4.0912   4.1320   4.1421   4.1796   4.1909   4.1968   4.2246
  4.2363   4.2622   4.2883   4.2960   4.3062   4.3375   4.3491   4.3842
  4.4034   4.4038   4.4495   4.4533   4.4693   4.4832   4.5244   4.5501
  4.5797   4.6132   4.6222   4.6556   4.6732   4.7571   4.7877   4.8297
  4.8775   4.8799   4.9153   4.9446   5.0035   5.0828   5.1342   5.1440
  5.1856   5.2076   5.2188   5.2411   5.2513   5.2720   5.2843   5.2902
  5.2911   5.2948   5.3053   5.3143   5.3274   5.3427   5.3562   5.3674
  5.3907   5.4193   5.4369   5.4587   5.4727   5.4823   5.5013   5.5412
  5.5435   5.5661   5.5790   5.5894   5.6052   5.6257   5.6379   5.6621
  5.6954   5.7038   5.7320   5.7544   5.7739   5.8141   5.8720   5.9206
  5.9386   5.9913   6.0073   6.0254   6.0535   6.0679   6.1318   6.1502
  6.3384   6.5301   6.5546   6.6022   6.6443   6.7406   6.7613   6.9403
  6.9839   7.0342   7.0639   7.1064   7.1103   7.1416   7.1705   7.2135
  7.2807   7.2833   7.2989   7.3139   7.3199   7.3359   7.3378   7.3493
  7.3726   7.4077   7.4220   7.4426   7.4630   7.4865   7.5551   7.6338
  7.6493   7.7256   7.7469   7.7861   7.7872   7.8421   7.8984   7.9083
  8.0767   8.1573  24.4007  24.7228  24.7940  24.8424  25.2412  50.4632
 50.5843  50.6004  50.6118  50.6200  50.6918
 --------------------------------------------------------------
 
          Ground-State Mulliken Net Atomic Charges

     Atom                 Charge (a.u.)    Spin (a.u.)
  --------------------------------------------------------
      1 C                    -0.295232       0.008076
      2 O                    -0.413169       0.003371
      3 C                    -0.360705       0.002608
      4 O                    -0.359825      -0.001505
      5 O                     0.102999       0.315287
      6 O                    -0.222294       0.670051
      7 C                    -0.024992       0.007174
      8 C                    -0.057224      -0.003826
      9 C                    -0.263443      -0.000724
     10 O                    -0.433476       0.000084
     11 O                    -0.431232      -0.000083
     12 H                     0.266204      -0.000789
     13 H                     0.224606       0.000623
     14 H                     0.333535      -0.000481
     15 H                     0.375372       0.000111
     16 H                     0.297900       0.000193
     17 H                     0.286500       0.000043
     18 H                     0.305147      -0.000136
     19 H                     0.335378      -0.000054
     20 H                     0.333952      -0.000025
  --------------------------------------------------------
  Sum of atomic charges =    -0.000000
  Sum of spin   charges =     1.000000

 -----------------------------------------------------------------
                    Cartesian Multipole Moments
 -----------------------------------------------------------------
    Charge (ESU x 10^10)
                -0.0000
    Dipole Moment (Debye)
         X      -3.5814      Y       0.3128      Z       0.3939
       Tot       3.6166
    Quadrupole Moments (Debye-Ang)
        XX     -91.4760     XY       4.7908     YY     -74.6161
        XZ     -11.1487     YZ       2.2624     ZZ     -59.5456
    Octopole Moments (Debye-Ang^2)
       XXX    -807.1372    XXY      58.8785    XYY    -237.9089
       YYY     -19.7923    XXZ    -112.8140    XYZ       3.7958
       YYZ     -22.4814    XZZ    -223.8169    YZZ     -24.1101
       ZZZ     -50.0408
    Hexadecapole Moments (Debye-Ang^3)
      XXXX   -6674.7203   XXXY     429.0366   XXYY   -1101.9699
      XYYY    -131.1513   YYYY    -441.4353   XXXZ    -959.1739
      XXYZ      -5.7340   XYYZ    -140.6559   YYYZ      40.6795
      XXZZ   -1157.7898   XYZZ     -84.9019   YYZZ    -158.7940
      XZZZ    -319.7859   YZZZ      32.1894   ZZZZ    -443.8368
 -----------------------------------------------------------------
 Calculating analytic gradient of the SCF energy
 Gradient of CDS energy
            1           2           3           4           5           6
    1  -0.0011407   0.0004119   0.0013503  -0.0014590   0.0000157   0.0000253
    2  -0.0004439   0.0005723  -0.0017284   0.0019751  -0.0000447   0.0000937
    3   0.0000110  -0.0003045  -0.0018755   0.0018703  -0.0000882   0.0000422
            7           8           9          10          11          12
    1  -0.0001566   0.0000447   0.0029367  -0.0026818   0.0000018   0.0002385
    2   0.0000520  -0.0000560   0.0018471  -0.0018070   0.0001643   0.0001455
    3   0.0001768   0.0002948   0.0010328  -0.0012582   0.0002159   0.0002220
           13          14          15          16          17          18
    1   0.0002165  -0.0002144   0.0000817  -0.0000894   0.0001303  -0.0002108
    2  -0.0000217  -0.0003150  -0.0002597   0.0000152   0.0000234  -0.0000907
    3  -0.0001651   0.0003367  -0.0003798   0.0000522   0.0001753  -0.0000626
           19          20
    1   0.0004340   0.0000653
    2   0.0002682  -0.0003897
    3  -0.0000645  -0.0002317
 Gradient of SCF Energy
            1           2           3           4           5           6
    1   0.0093935  -0.0007411   0.0010004   0.0044266  -0.0014541   0.0012302
    2  -0.0132792  -0.0031099   0.0023297   0.0007470  -0.0004114   0.0028761
    3   0.0037440  -0.0198500  -0.0054208   0.0134033   0.0010342  -0.0007585
            7           8           9          10          11          12
    1   0.0067870   0.0048537  -0.0027459  -0.0032718   0.0071519  -0.0051568
    2   0.0019489   0.0020088  -0.0033989  -0.0035269  -0.0015605   0.0081334
    3  -0.0048427  -0.0093626   0.0040100   0.0112054   0.0046204   0.0086770
           13          14          15          16          17          18
    1  -0.0028478   0.0009315  -0.0069399  -0.0106283  -0.0013460  -0.0006505
    2   0.0018256   0.0035744  -0.0024324  -0.0012406  -0.0003383   0.0023399
    3  -0.0096027   0.0187401  -0.0128010   0.0117206   0.0032495  -0.0042968
           19          20
    1   0.0043092  -0.0043017
    2   0.0039617  -0.0004473
    3  -0.0091675  -0.0043019
 Max gradient component =       1.985E-02
 RMS gradient           =       6.681E-03
 Computing fast CPCM-SWIG gradient
 Updating gradient with PCM contributions...
 -- total gradient after adding PCM contribution --
---------------------------------------------------
  Atom         X              Y              Z     
---------------------------------------------------
   1      -0.000008      -0.000006      -0.000002
   2       0.000020      -0.000005       0.000011
   3       0.000017      -0.000049      -0.000015
   4      -0.000017       0.000011       0.000001
   5      -0.000005       0.000011       0.000011
   6      -0.000009      -0.000011       0.000005
   7       0.000012       0.000021       0.000006
   8      -0.000003      -0.000017      -0.000008
   9      -0.000015       0.000057      -0.000010
  10      -0.000001       0.000002      -0.000006
  11      -0.000011       0.000004       0.000006
  12       0.000001      -0.000020       0.000003
  13      -0.000002      -0.000009       0.000006
  14       0.000001      -0.000008      -0.000006
  15       0.000008      -0.000002       0.000003
  16       0.000002       0.000007      -0.000005
  17       0.000003      -0.000010      -0.000004
  18      -0.000001      -0.000006       0.000003
  19      -0.000011       0.000018       0.000005
  20       0.000019       0.000012      -0.000004
---------------------------------------------------
 Number of fixed atoms: 0
 Gradient time:  CPU 383.22 s  wall 32.59 s
 ######################################################
 ######################################################
 # Starting finite difference calculation for IDERIV  #
 Finite diff step size:  1.88973e-03 a.u.
 ----------------------------------------------------------------
             Standard Nuclear Orientation (Angstroms)
    I     Atom           X                Y                Z
 ----------------------------------------------------------------
    1      C       0.8721538000    -0.1653791000     0.1616539000
    2      O       0.5791104000    -1.4658627000     0.6375090000
    3      C       2.3763280000     0.0794856000     0.1265123000
    4      O       3.0433695000    -0.7893116000    -0.7150949000
    5      O       2.5298621000     1.4831179000    -0.3922435000
    6      O       2.2877499000     1.5462599000    -1.6686106000
    7      C       3.0157690000     0.0974477000     1.4841060000
    8      C       4.3203900000     0.1901204000     1.6976170000
    9      C       5.3807895000     0.2769660000     0.6353318000
   10      O       6.4807402000     0.9355858000     1.2061411000
   11      O       5.8100247000    -1.0233680000     0.2485790000
   12      H       0.3975181000     0.6039928000     0.7714560000
   13      H       0.4890908000    -0.0946533000    -0.8563808000
   14      H       0.6163495000    -1.4618182000     1.6000755000
   15      H       2.5539263000    -0.8685240000    -1.5456438000
   16      H       2.3382102000     0.0271351000     2.3251113000
   17      H       4.6944927000     0.1777724000     2.7152753000
   18      H       5.0341497000     0.8161968000    -0.2465638000
   19      H       7.0837250000     1.1869598000     0.4970865000
   20      H       5.0951707000    -1.4025883000    -0.2805771000
 ----------------------------------------------------------------
 Nuclear Repulsion Energy =         684.22431055 hartrees
 There are       44 alpha and       43 beta electrons
 Discretize the solute cavity surface with Lebedev spheres
	Using 110 Lebedev grid points for each H atom
	Using 194 Lebedev grid points for other atoms
	Atomic van der Waals radii will be scaled by 1.20
 Remove points where switching function is < 1.0e-08
 Keep 1564 surface tesserae and discard 1560 interior tesserae
 Molecular Surface Area = 175.135 Angst**2
 Requested basis set is 6-311++G(2df,2p)
 There are 142 shells and 464 basis functions
 A cutoff of  1.0D-12 yielded   8757 shell pairs
 There are     92698 function pairs (    115063 Cartesian)
 Smallest overlap matrix eigenvalue = 3.32E-06
 Guess MOs from SCF MO coefficient file

 -----------------------------------------------------------------------
  General SCF calculation program by
  Eric Jon Sundstrom, Paul Horn, Yuezhi Mao, Dmitri Zuev, Alec White,
  David Stuck, Shaama M.S., Shane Yost, Joonho Lee, David Small,
  Daniel Levine, Susi Lehtola, Hugh Burton, Evgeny Epifanovsky,
  Bang C. Huynh
 -----------------------------------------------------------------------
 Exchange:     0.1500 Hartree-Fock + 1.0000 wB97M-V + LR-HF
 Correlation:  1.0000 wB97M-V
 Using SG-2 standard quadrature grid
 Nonlocal Correlation:  VV10 with C = 0.0100 and b = 6.00 and scale = 1.00000
 Grid used for NLC:  SG-1 standard quadrature
 
 Citation of the SMD model:
 Marenich, A.V.; Cramer, C.J.; Truhlar, D.G.
 J. Phys. Chem. B 2009, 113, 6378-6396.
 iSolventCode=           1
 Solvent: water                                                           
 
 vradii
            1           2           3           4           5           6
    1   1.8500000   1.5200000   1.8500000   1.5200000   1.5200000   1.5200000
            7           8           9          10          11          12
    1   1.8500000   1.8500000   1.8500000   1.5200000   1.5200000   1.2000000
           13          14          15          16          17          18
    1   1.2000000   1.2000000   1.2000000   1.2000000   1.2000000   1.2000000
           19          20
    1   1.2000000   1.2000000
 -------------------------------------------------------
 OpenMP BLAS3 based DFT computing Module                
 Release: version 1.0, May 2013, Q-Chem Inc. Pittsburgh 
 -------------------------------------------------------
 A unrestricted SCF calculation will be
 performed using Roothaan-Hall, DIIS, GDM
 SCF converges when RMS gradient is below 1.0e-07
 ---------------------------------------
  Cycle       Energy         DIIS error
 ---------------------------------------
    1    -647.1348952742      2.01e-04  Roothaan Step
 ---------------------------------------
  Cycle       Energy         DIIS error
 ---------------------------------------
    1    -647.1746994122      2.25e-04  
    2    -647.1799232887      1.86e-04  Done DIIS. Switching to GDM
 ---------------------------------------
  Cycle       Energy        RMS Gradient
 ---------------------------------------
    1    -647.1799232887      7.68e-03   Normal BFGS step
    2    -647.1796618865      1.23e-02  Line search: overstep
    3    -647.1825192170      2.24e-03   Normal BFGS step
    4    -647.1826672383      1.45e-03   Normal BFGS step
    5    -647.1827037975      1.05e-03   Normal BFGS step
    6    -647.1827150128      1.03e-04   Normal BFGS step
    7    -647.1827157292      1.15e-04   Normal BFGS step
    8    -647.1827159351      6.93e-05   Normal BFGS step
    9    -647.1827159736      4.70e-05   Normal BFGS step
   10    -647.1827159907      1.44e-05   Normal BFGS step
   11    -647.1827159940      1.09e-05   Normal BFGS step
   12    -647.1827159947      8.67e-06   Normal BFGS step
   13    -647.1827159951      6.76e-06   Normal BFGS step
   14    -647.1827159953      4.72e-06   Normal BFGS step
   15    -647.1827159955      1.96e-06   Normal BFGS step
   16    -647.1827159956      8.47e-07   Normal BFGS step
   17    -647.1827159956      1.91e-07   Normal BFGS step
   18    -647.1827159956      6.96e-08  Convergence criterion met
 ---------------------------------------
 SCF time:   CPU 2725.84s  wall 186.00s 
<S^2> =          0.754055118
(3)  G-ENP(liq) elect-nuc-pol free energy of system     -647.182715996 a.u.
(4)  G-CDS(liq) cavity-dispersion-solvent structure 
     free energy                                                3.5990 kcal/mol
(6)  G-S(liq) free energy of system                     -647.176980639 a.u.
 SCF   energy in the final basis set =     -647.1769806395
 Total energy in the final basis set =     -647.1769806395
 
 --------------------------------------------------------------
 
                    Orbital Energies (a.u.)
 --------------------------------------------------------------
 
 Alpha MOs
 -- Occupied --
-19.4626 -19.4207 -19.3677 -19.3490 -19.3476 -19.3406 -10.4743 -10.4501
-10.3970 -10.3588 -10.3574  -1.3482  -1.2045  -1.1990  -1.1645  -1.1339
 -1.0159  -0.9265  -0.8637  -0.8059  -0.7566  -0.6881  -0.6870  -0.6686
 -0.6462  -0.6376  -0.6171  -0.6136  -0.5966  -0.5773  -0.5547  -0.5365
 -0.5145  -0.5044  -0.4813  -0.4754  -0.4572  -0.4544  -0.4281  -0.4195
 -0.4054  -0.3964  -0.3815  -0.3766
 -- Virtual --
  0.0251   0.0350   0.0381   0.0471   0.0482   0.0572   0.0632   0.0723
  0.0801   0.0933   0.1016   0.1087   0.1215   0.1268   0.1296   0.1400
  0.1476   0.1520   0.1563   0.1643   0.1702   0.1712   0.1757   0.1789
  0.1848   0.1854   0.1952   0.2057   0.2211   0.2305   0.2325   0.2355
  0.2483   0.2534   0.2572   0.2662   0.2761   0.2783   0.2826   0.2917
  0.2992   0.2999   0.3051   0.3120   0.3185   0.3255   0.3266   0.3346
  0.3444   0.3476   0.3544   0.3575   0.3600   0.3689   0.3703   0.3773
  0.3882   0.3896   0.3983   0.4044   0.4096   0.4142   0.4236   0.4260
  0.4415   0.4453   0.4578   0.4724   0.4803   0.4978   0.5035   0.5143
  0.5272   0.5701   0.5725   0.5986   0.6018   0.6027   0.6274   0.6315
  0.6399   0.6502   0.6521   0.6609   0.6809   0.6848   0.6867   0.7001
  0.7097   0.7157   0.7224   0.7354   0.7386   0.7629   0.7753   0.7890
  0.7984   0.8098   0.8299   0.8371   0.8591   0.8634   0.8770   0.8877
  0.9180   0.9248   0.9577   0.9736   0.9949   1.0089   1.0169   1.0279
  1.0567   1.0655   1.0768   1.0941   1.1028   1.1064   1.1213   1.1341
  1.1374   1.1457   1.1553   1.1678   1.1741   1.1792   1.1936   1.1970
  1.2093   1.2241   1.2277   1.2377   1.2443   1.2466   1.2497   1.2661
  1.2735   1.2836   1.2941   1.3019   1.3243   1.3390   1.3552   1.3670
  1.3849   1.4041   1.4158   1.4172   1.4233   1.4440   1.4561   1.4616
  1.4783   1.4930   1.5223   1.5252   1.5382   1.5537   1.5626   1.5698
  1.5769   1.5889   1.5990   1.6245   1.6257   1.6325   1.6563   1.6629
  1.6896   1.6979   1.7266   1.7393   1.7534   1.7588   1.7951   1.8004
  1.8241   1.8413   1.8834   1.8959   1.9259   1.9615   1.9903   1.9973
  2.0243   2.0476   2.0805   2.1163   2.1608   2.1784   2.1912   2.2061
  2.2343   2.2448   2.2928   2.3152   2.3308   2.3476   2.3522   2.3852
  2.4016   2.4287   2.4335   2.4553   2.4921   2.5218   2.5631   2.6304
  2.6660   2.6981   2.7409   2.7571   2.7841   2.8002   2.8137   2.8364
  2.8587   2.8747   2.8928   2.9099   2.9226   2.9505   2.9634   2.9837
  3.0036   3.0333   3.0741   3.0923   3.1253   3.1695   3.1900   3.2081
  3.2410   3.2469   3.2716   3.3013   3.3133   3.3201   3.3413   3.3528
  3.3713   3.4037   3.4150   3.4450   3.4576   3.4737   3.4840   3.4958
  3.4971   3.5133   3.5634   3.5787   3.5863   3.6105   3.6304   3.6470
  3.6675   3.7113   3.7299   3.7356   3.7449   3.7640   3.7805   3.7949
  3.8034   3.8232   3.8349   3.8503   3.8594   3.8659   3.8917   3.9087
  3.9131   3.9284   3.9454   3.9528   3.9685   3.9992   4.0422   4.0524
  4.0910   4.1316   4.1417   4.1796   4.1909   4.1966   4.2245   4.2361
  4.2618   4.2883   4.2959   4.3062   4.3372   4.3482   4.3841   4.4015
  4.4034   4.4492   4.4531   4.4682   4.4826   4.5219   4.5480   4.5781
  4.6099   4.6156   4.6450   4.6643   4.7379   4.7861   4.8214   4.8618
  4.8766   4.9137   4.9372   4.9907   5.0720   5.0870   5.0975   5.1140
  5.1788   5.2074   5.2377   5.2392   5.2544   5.2658   5.2815   5.2891
  5.2928   5.3001   5.3111   5.3168   5.3293   5.3419   5.3627   5.3835
  5.4085   5.4354   5.4532   5.4662   5.4785   5.4984   5.5358   5.5385
  5.5630   5.5757   5.5884   5.5999   5.6131   5.6358   5.6614   5.6926
  5.7029   5.7304   5.7530   5.7609   5.8107   5.8645   5.9204   5.9359
  5.9911   6.0062   6.0241   6.0490   6.0676   6.1315   6.1498   6.3271
  6.4835   6.5541   6.5940   6.6378   6.7377   6.7609   6.8564   6.9048
  6.9765   7.0638   7.0922   7.1054   7.1390   7.1446   7.1962   7.2602
  7.2802   7.2952   7.3126   7.3183   7.3310   7.3350   7.3479   7.3688
  7.3992   7.4162   7.4325   7.4479   7.4515   7.5417   7.6336   7.6482
  7.7221   7.7465   7.7855   7.7867   7.8377   7.8911   7.9082   8.0627
  8.1390  24.4008  24.7219  24.7947  24.8428  25.2412  50.4502  50.5778
 50.5997  50.6106  50.6199  50.6906
 
 Beta MOs
 -- Occupied --
-19.4522 -19.4019 -19.3677 -19.3490 -19.3475 -19.3406 -10.4746 -10.4501
-10.3968 -10.3589 -10.3573  -1.3225  -1.2036  -1.1981  -1.1642  -1.1339
 -0.9899  -0.9193  -0.8568  -0.8053  -0.7535  -0.6864  -0.6796  -0.6641
 -0.6442  -0.6268  -0.6130  -0.6003  -0.5712  -0.5600  -0.5461  -0.5300
 -0.5087  -0.4971  -0.4799  -0.4745  -0.4525  -0.4505  -0.4275  -0.4080
 -0.3956  -0.3826  -0.3734
 -- Virtual --
 -0.0325   0.0252   0.0352   0.0385   0.0477   0.0488   0.0575   0.0636
  0.0726   0.0804   0.0936   0.1022   0.1096   0.1217   0.1270   0.1299
  0.1402   0.1481   0.1525   0.1571   0.1648   0.1706   0.1717   0.1763
  0.1798   0.1850   0.1869   0.1962   0.2061   0.2226   0.2312   0.2364
  0.2371   0.2496   0.2555   0.2590   0.2678   0.2784   0.2813   0.2858
  0.2928   0.3006   0.3015   0.3059   0.3126   0.3200   0.3263   0.3284
  0.3357   0.3448   0.3484   0.3549   0.3595   0.3609   0.3700   0.3708
  0.3778   0.3886   0.3900   0.3994   0.4048   0.4101   0.4147   0.4254
  0.4268   0.4418   0.4464   0.4590   0.4736   0.4818   0.4983   0.5044
  0.5153   0.5277   0.5703   0.5728   0.5988   0.6020   0.6030   0.6277
  0.6322   0.6401   0.6507   0.6523   0.6612   0.6813   0.6854   0.6874
  0.7003   0.7100   0.7162   0.7226   0.7357   0.7389   0.7631   0.7754
  0.7901   0.7987   0.8103   0.8307   0.8375   0.8594   0.8639   0.8781
  0.8878   0.9182   0.9253   0.9588   0.9742   0.9977   1.0094   1.0177
  1.0290   1.0581   1.0673   1.0774   1.0949   1.1037   1.1068   1.1242
  1.1353   1.1387   1.1506   1.1563   1.1706   1.1789   1.1861   1.1977
  1.2005   1.2127   1.2274   1.2359   1.2413   1.2460   1.2482   1.2517
  1.2685   1.2819   1.2875   1.2959   1.3043   1.3275   1.3421   1.3599
  1.3684   1.3863   1.4048   1.4177   1.4181   1.4241   1.4449   1.4570
  1.4698   1.4809   1.4941   1.5241   1.5273   1.5409   1.5580   1.5642
  1.5710   1.5815   1.5916   1.6000   1.6262   1.6327   1.6357   1.6592
  1.6707   1.6919   1.7036   1.7282   1.7448   1.7605   1.7757   1.7967
  1.8021   1.8304   1.8468   1.8874   1.9005   1.9284   1.9668   1.9910
  1.9996   2.0265   2.0525   2.0818   2.1180   2.1621   2.1801   2.1967
  2.2070   2.2422   2.2473   2.3037   2.3208   2.3321   2.3537   2.3543
  2.3880   2.4019   2.4306   2.4337   2.4591   2.4935   2.5231   2.5650
  2.6308   2.6708   2.7010   2.7421   2.7577   2.7848   2.8013   2.8139
  2.8372   2.8594   2.8752   2.8935   2.9100   2.9230   2.9508   2.9636
  2.9846   3.0037   3.0334   3.0746   3.0930   3.1260   3.1698   3.1904
  3.2088   3.2410   3.2474   3.2722   3.3017   3.3136   3.3202   3.3413
  3.3529   3.3717   3.4041   3.4154   3.4452   3.4579   3.4737   3.4847
  3.4961   3.4976   3.5135   3.5635   3.5791   3.5866   3.6107   3.6309
  3.6474   3.6679   3.7118   3.7305   3.7361   3.7449   3.7640   3.7807
  3.7951   3.8038   3.8233   3.8355   3.8504   3.8596   3.8664   3.8919
  3.9095   3.9134   3.9285   3.9456   3.9530   3.9687   3.9995   4.0427
  4.0525   4.0913   4.1320   4.1422   4.1800   4.1911   4.1968   4.2247
  4.2364   4.2628   4.2883   4.2960   4.3063   4.3375   4.3492   4.3844
  4.4031   4.4037   4.4495   4.4533   4.4692   4.4832   4.5244   4.5504
  4.5799   4.6132   4.6222   4.6557   4.6732   4.7571   4.7879   4.8297
  4.8776   4.8800   4.9154   4.9447   5.0035   5.0827   5.1342   5.1440
  5.1856   5.2076   5.2188   5.2411   5.2513   5.2720   5.2843   5.2902
  5.2912   5.2948   5.3054   5.3143   5.3274   5.3427   5.3563   5.3674
  5.3907   5.4193   5.4369   5.4589   5.4728   5.4824   5.5013   5.5412
  5.5434   5.5661   5.5788   5.5893   5.6051   5.6257   5.6379   5.6621
  5.6955   5.7039   5.7317   5.7539   5.7739   5.8141   5.8720   5.9206
  5.9386   5.9913   6.0070   6.0255   6.0535   6.0679   6.1318   6.1505
  6.3385   6.5301   6.5546   6.6020   6.6441   6.7407   6.7613   6.9403
  6.9839   7.0342   7.0639   7.1064   7.1103   7.1416   7.1705   7.2136
  7.2807   7.2833   7.2989   7.3139   7.3199   7.3358   7.3378   7.3494
  7.3726   7.4077   7.4220   7.4426   7.4630   7.4865   7.5552   7.6338
  7.6492   7.7257   7.7469   7.7861   7.7873   7.8422   7.8985   7.9083
  8.0767   8.1574  24.4008  24.7220  24.7947  24.8427  25.2412  50.4632
 50.5843  50.6003  50.6118  50.6200  50.6918
 --------------------------------------------------------------
 
          Ground-State Mulliken Net Atomic Charges

     Atom                 Charge (a.u.)    Spin (a.u.)
  --------------------------------------------------------
      1 C                    -0.295410       0.008038
      2 O                    -0.413353       0.003363
      3 C                    -0.360381       0.002616
      4 O                    -0.359804      -0.001507
      5 O                     0.103027       0.315240
      6 O                    -0.222218       0.670130
      7 C                    -0.024891       0.007176
      8 C                    -0.057406      -0.003828
      9 C                    -0.263445      -0.000724
     10 O                    -0.433475       0.000084
     11 O                    -0.431235      -0.000083
     12 H                     0.266184      -0.000787
     13 H                     0.224609       0.000624
     14 H                     0.333537      -0.000481
     15 H                     0.375367       0.000114
     16 H                     0.297903       0.000194
     17 H                     0.286505       0.000044
     18 H                     0.305143      -0.000135
     19 H                     0.335379      -0.000054
     20 H                     0.333965      -0.000025
  --------------------------------------------------------
  Sum of atomic charges =    -0.000000
  Sum of spin   charges =     1.000000

 -----------------------------------------------------------------
                    Cartesian Multipole Moments
 -----------------------------------------------------------------
    Charge (ESU x 10^10)
                -0.0000
    Dipole Moment (Debye)
         X      -3.5796      Y       0.3142      Z       0.3931
       Tot       3.6148
    Quadrupole Moments (Debye-Ang)
        XX     -91.4692     XY       4.7930     YY     -74.6162
        XZ     -11.1491     YZ       2.2614     ZZ     -59.5451
    Octopole Moments (Debye-Ang^2)
       XXX    -807.1254    XXY      58.8842    XYY    -237.9114
       YYY     -19.7861    XXZ    -112.8125    XYZ       3.7937
       YYZ     -22.4849    XZZ    -223.8166    YZZ     -24.1068
       ZZZ     -50.0428
    Hexadecapole Moments (Debye-Ang^3)
      XXXX   -6674.6479   XXXY     429.0565   XXYY   -1101.9655
      XYYY    -131.1343   YYYY    -441.4363   XXXZ    -959.1617
      XXYZ      -5.7394   XYYZ    -140.6633   YYYZ      40.6764
      XXZZ   -1157.7758   XYZZ     -84.8938   YYZZ    -158.7920
      XZZZ    -319.7875   YZZZ      32.1853   ZZZZ    -443.8289
 -----------------------------------------------------------------
 Calculating analytic gradient of the SCF energy
 Gradient of CDS energy
            1           2           3           4           5           6
    1  -0.0011303   0.0004045   0.0013495  -0.0014590   0.0000156   0.0000253
    2  -0.0004111   0.0005395  -0.0017285   0.0019751  -0.0000447   0.0000937
    3  -0.0000003  -0.0002931  -0.0018755   0.0018703  -0.0000882   0.0000422
            7           8           9          10          11          12
    1  -0.0001566   0.0000447   0.0029367  -0.0026818   0.0000018   0.0002376
    2   0.0000520  -0.0000560   0.0018471  -0.0018070   0.0001643   0.0001460
    3   0.0001768   0.0002948   0.0010328  -0.0012582   0.0002159   0.0002225
           13          14          15          16          17          18
    1   0.0002155  -0.0002146   0.0000817  -0.0000894   0.0001303  -0.0002108
    2  -0.0000222  -0.0003148  -0.0002597   0.0000152   0.0000234  -0.0000907
    3  -0.0001657   0.0003368  -0.0003798   0.0000522   0.0001753  -0.0000626
           19          20
    1   0.0004340   0.0000653
    2   0.0002682  -0.0003897
    3  -0.0000645  -0.0002317
 Gradient of SCF Energy
            1           2           3           4           5           6
    1   0.0103651  -0.0008764   0.0006375   0.0043780  -0.0014554   0.0012259
    2  -0.0133200  -0.0032038   0.0023281   0.0007559  -0.0004253   0.0028749
    3   0.0037496  -0.0198104  -0.0054298   0.0134173   0.0010410  -0.0007624
            7           8           9          10          11          12
    1   0.0067544   0.0048539  -0.0027459  -0.0032720   0.0071530  -0.0053722
    2   0.0019458   0.0020081  -0.0034010  -0.0035274  -0.0015603   0.0082725
    3  -0.0048569  -0.0093620   0.0040139   0.0112060   0.0046204   0.0088020
           13          14          15          16          17          18
    1  -0.0030227   0.0009272  -0.0069351  -0.0106263  -0.0013450  -0.0006516
    2   0.0018286   0.0035786  -0.0024319  -0.0012410  -0.0003380   0.0023414
    3  -0.0097636   0.0187319  -0.0128019   0.0117236   0.0032513  -0.0042992
           19          20
    1   0.0043100  -0.0043025
    2   0.0039622  -0.0004476
    3  -0.0091684  -0.0043024
 Max gradient component =       1.981E-02
 RMS gradient           =       6.718E-03
 Computing fast CPCM-SWIG gradient
 Updating gradient with PCM contributions...
 -- total gradient after adding PCM contribution --
---------------------------------------------------
  Atom         X              Y              Z     
---------------------------------------------------
   1       0.000922      -0.000054       0.000008
   2      -0.000106      -0.000096       0.000044
   3      -0.000341      -0.000055      -0.000030
   4      -0.000062       0.000021       0.000017
   5      -0.000006      -0.000004       0.000018
   6      -0.000012      -0.000011       0.000002
   7      -0.000020       0.000015      -0.000006
   8      -0.000002      -0.000017      -0.000008
   9      -0.000016       0.000057      -0.000009
  10      -0.000000       0.000002      -0.000006
  11      -0.000010       0.000003       0.000005
  12      -0.000198       0.000130       0.000136
  13      -0.000164      -0.000005      -0.000163
  14      -0.000005      -0.000006      -0.000009
  15       0.000009      -0.000001       0.000003
  16       0.000002       0.000006      -0.000002
  17       0.000004      -0.000010      -0.000004
  18      -0.000002      -0.000006       0.000003
  19      -0.000011       0.000018       0.000005
  20       0.000019       0.000012      -0.000003
---------------------------------------------------
 Number of fixed atoms: 0
 Gradient time:  CPU 380.94 s  wall 31.59 s
 ----------------------------------------------------------------
             Standard Nuclear Orientation (Angstroms)
    I     Atom           X                Y                Z
 ----------------------------------------------------------------
    1      C       0.8701538000    -0.1653791000     0.1616539000
    2      O       0.5791104000    -1.4658627000     0.6375090000
    3      C       2.3763280000     0.0794856000     0.1265123000
    4      O       3.0433695000    -0.7893116000    -0.7150949000
    5      O       2.5298621000     1.4831179000    -0.3922435000
    6      O       2.2877499000     1.5462599000    -1.6686106000
    7      C       3.0157690000     0.0974477000     1.4841060000
    8      C       4.3203900000     0.1901204000     1.6976170000
    9      C       5.3807895000     0.2769660000     0.6353318000
   10      O       6.4807402000     0.9355858000     1.2061411000
   11      O       5.8100247000    -1.0233680000     0.2485790000
   12      H       0.3975181000     0.6039928000     0.7714560000
   13      H       0.4890908000    -0.0946533000    -0.8563808000
   14      H       0.6163495000    -1.4618182000     1.6000755000
   15      H       2.5539263000    -0.8685240000    -1.5456438000
   16      H       2.3382102000     0.0271351000     2.3251113000
   17      H       4.6944927000     0.1777724000     2.7152753000
   18      H       5.0341497000     0.8161968000    -0.2465638000
   19      H       7.0837250000     1.1869598000     0.4970865000
   20      H       5.0951707000    -1.4025883000    -0.2805771000
 ----------------------------------------------------------------
 Nuclear Repulsion Energy =         684.18602440 hartrees
 There are       44 alpha and       43 beta electrons
 Discretize the solute cavity surface with Lebedev spheres
	Using 110 Lebedev grid points for each H atom
	Using 194 Lebedev grid points for other atoms
	Atomic van der Waals radii will be scaled by 1.20
 Remove points where switching function is < 1.0e-08
 Keep 1564 surface tesserae and discard 1560 interior tesserae
 Molecular Surface Area = 175.148 Angst**2
 Requested basis set is 6-311++G(2df,2p)
 There are 142 shells and 464 basis functions
 A cutoff of  1.0D-12 yielded   8757 shell pairs
 There are     92698 function pairs (    115063 Cartesian)
 Smallest overlap matrix eigenvalue = 3.32E-06
 Guess MOs from SCF MO coefficient file

 -----------------------------------------------------------------------
  General SCF calculation program by
  Eric Jon Sundstrom, Paul Horn, Yuezhi Mao, Dmitri Zuev, Alec White,
  David Stuck, Shaama M.S., Shane Yost, Joonho Lee, David Small,
  Daniel Levine, Susi Lehtola, Hugh Burton, Evgeny Epifanovsky,
  Bang C. Huynh
 -----------------------------------------------------------------------
 Exchange:     0.1500 Hartree-Fock + 1.0000 wB97M-V + LR-HF
 Correlation:  1.0000 wB97M-V
 Using SG-2 standard quadrature grid
 Nonlocal Correlation:  VV10 with C = 0.0100 and b = 6.00 and scale = 1.00000
 Grid used for NLC:  SG-1 standard quadrature
 
 Citation of the SMD model:
 Marenich, A.V.; Cramer, C.J.; Truhlar, D.G.
 J. Phys. Chem. B 2009, 113, 6378-6396.
 iSolventCode=           1
 Solvent: water                                                           
 
 vradii
            1           2           3           4           5           6
    1   1.8500000   1.5200000   1.8500000   1.5200000   1.5200000   1.5200000
            7           8           9          10          11          12
    1   1.8500000   1.8500000   1.8500000   1.5200000   1.5200000   1.2000000
           13          14          15          16          17          18
    1   1.2000000   1.2000000   1.2000000   1.2000000   1.2000000   1.2000000
           19          20
    1   1.2000000   1.2000000
 -------------------------------------------------------
 OpenMP BLAS3 based DFT computing Module                
 Release: version 1.0, May 2013, Q-Chem Inc. Pittsburgh 
 -------------------------------------------------------
 A unrestricted SCF calculation will be
 performed using Roothaan-Hall, DIIS, GDM
 SCF converges when RMS gradient is below 1.0e-07
 ---------------------------------------
  Cycle       Energy         DIIS error
 ---------------------------------------
    1    -647.1349023237      2.01e-04  Roothaan Step
 ---------------------------------------
  Cycle       Energy         DIIS error
 ---------------------------------------
    1    -647.1747075744      2.25e-04  
    2    -647.1799384061      1.86e-04  Done DIIS. Switching to GDM
 ---------------------------------------
  Cycle       Energy        RMS Gradient
 ---------------------------------------
    1    -647.1799384061      7.61e-03   Normal BFGS step
    2    -647.1796823795      1.22e-02  Line search: overstep
    3    -647.1825231530      2.26e-03   Normal BFGS step
    4    -647.1826714846      1.45e-03   Normal BFGS step
    5    -647.1827080288      1.06e-03   Normal BFGS step
    6    -647.1827192791      1.02e-04   Normal BFGS step
    7    -647.1827200040      1.14e-04   Normal BFGS step
    8    -647.1827202143      7.13e-05   Normal BFGS step
    9    -647.1827202553      4.77e-05   Normal BFGS step
   10    -647.1827202738      1.82e-05   Normal BFGS step
   11    -647.1827202777      1.49e-05   Normal BFGS step
   12    -647.1827202787      1.18e-05   Normal BFGS step
   13    -647.1827202794      8.63e-06   Normal BFGS step
   14    -647.1827202799      5.10e-06   Normal BFGS step
   15    -647.1827202802      2.35e-06   Normal BFGS step
   16    -647.1827202803      8.35e-07   Normal BFGS step
   17    -647.1827202804      1.78e-07   Normal BFGS step
   18    -647.1827202803      7.59e-08  Convergence criterion met
 ---------------------------------------
 SCF time:   CPU 2738.15s  wall 187.00s 
<S^2> =          0.754055867
(3)  G-ENP(liq) elect-nuc-pol free energy of system     -647.182720280 a.u.
(4)  G-CDS(liq) cavity-dispersion-solvent structure 
     free energy                                                3.6017 kcal/mol
(6)  G-S(liq) free energy of system                     -647.176980613 a.u.
 SCF   energy in the final basis set =     -647.1769806130
 Total energy in the final basis set =     -647.1769806130
 
 --------------------------------------------------------------
 
                    Orbital Energies (a.u.)
 --------------------------------------------------------------
 
 Alpha MOs
 -- Occupied --
-19.4626 -19.4207 -19.3677 -19.3490 -19.3476 -19.3406 -10.4743 -10.4501
-10.3970 -10.3588 -10.3573  -1.3481  -1.2045  -1.1990  -1.1646  -1.1339
 -1.0158  -0.9265  -0.8635  -0.8059  -0.7566  -0.6880  -0.6870  -0.6686
 -0.6462  -0.6376  -0.6171  -0.6138  -0.5964  -0.5773  -0.5547  -0.5366
 -0.5145  -0.5044  -0.4813  -0.4754  -0.4573  -0.4545  -0.4281  -0.4195
 -0.4053  -0.3964  -0.3813  -0.3765
 -- Virtual --
  0.0251   0.0350   0.0381   0.0471   0.0482   0.0572   0.0632   0.0723
  0.0801   0.0933   0.1016   0.1087   0.1215   0.1268   0.1296   0.1400
  0.1476   0.1520   0.1562   0.1643   0.1702   0.1712   0.1757   0.1790
  0.1848   0.1854   0.1952   0.2057   0.2211   0.2306   0.2325   0.2355
  0.2484   0.2535   0.2572   0.2662   0.2762   0.2783   0.2826   0.2916
  0.2992   0.2999   0.3051   0.3120   0.3185   0.3254   0.3266   0.3346
  0.3443   0.3476   0.3545   0.3575   0.3600   0.3688   0.3703   0.3772
  0.3881   0.3896   0.3982   0.4044   0.4096   0.4142   0.4235   0.4260
  0.4415   0.4453   0.4578   0.4724   0.4802   0.4977   0.5035   0.5142
  0.5272   0.5702   0.5725   0.5986   0.6018   0.6027   0.6274   0.6315
  0.6398   0.6501   0.6521   0.6608   0.6809   0.6848   0.6867   0.7000
  0.7097   0.7157   0.7225   0.7355   0.7386   0.7628   0.7753   0.7889
  0.7984   0.8098   0.8299   0.8371   0.8591   0.8634   0.8769   0.8876
  0.9180   0.9247   0.9577   0.9736   0.9949   1.0088   1.0169   1.0280
  1.0567   1.0655   1.0768   1.0942   1.1028   1.1064   1.1213   1.1341
  1.1375   1.1457   1.1553   1.1678   1.1742   1.1791   1.1936   1.1970
  1.2093   1.2241   1.2277   1.2378   1.2442   1.2467   1.2496   1.2661
  1.2735   1.2836   1.2941   1.3017   1.3242   1.3391   1.3552   1.3670
  1.3850   1.4041   1.4156   1.4171   1.4233   1.4440   1.4561   1.4616
  1.4783   1.4928   1.5223   1.5252   1.5383   1.5537   1.5626   1.5698
  1.5769   1.5890   1.5988   1.6244   1.6256   1.6324   1.6564   1.6628
  1.6894   1.6978   1.7265   1.7391   1.7532   1.7588   1.7950   1.8004
  1.8240   1.8413   1.8833   1.8959   1.9259   1.9614   1.9902   1.9973
  2.0244   2.0477   2.0804   2.1163   2.1608   2.1782   2.1912   2.2061
  2.2343   2.2448   2.2928   2.3151   2.3308   2.3475   2.3521   2.3851
  2.4014   2.4288   2.4335   2.4551   2.4917   2.5217   2.5632   2.6304
  2.6658   2.6979   2.7403   2.7571   2.7841   2.7997   2.8137   2.8364
  2.8587   2.8747   2.8927   2.9099   2.9225   2.9504   2.9634   2.9838
  3.0035   3.0333   3.0740   3.0923   3.1249   3.1693   3.1900   3.2081
  3.2409   3.2469   3.2717   3.3012   3.3134   3.3197   3.3413   3.3527
  3.3713   3.4036   3.4151   3.4449   3.4573   3.4736   3.4839   3.4954
  3.4971   3.5134   3.5634   3.5787   3.5864   3.6104   3.6304   3.6469
  3.6674   3.7114   3.7299   3.7356   3.7451   3.7640   3.7805   3.7950
  3.8035   3.8232   3.8349   3.8504   3.8596   3.8662   3.8918   3.9087
  3.9132   3.9285   3.9454   3.9528   3.9684   3.9992   4.0426   4.0519
  4.0907   4.1317   4.1416   4.1788   4.1905   4.1966   4.2244   4.2359
  4.2606   4.2882   4.2958   4.3060   4.3371   4.3479   4.3835   4.4022
  4.4035   4.4492   4.4531   4.4684   4.4826   4.5220   4.5474   4.5777
  4.6098   4.6155   4.6449   4.6643   4.7379   4.7857   4.8213   4.8617
  4.8763   4.9136   4.9370   4.9908   5.0722   5.0870   5.0975   5.1140
  5.1788   5.2074   5.2378   5.2392   5.2544   5.2658   5.2814   5.2891
  5.2927   5.3001   5.3111   5.3167   5.3293   5.3418   5.3627   5.3835
  5.4086   5.4354   5.4528   5.4661   5.4782   5.4986   5.5358   5.5385
  5.5631   5.5761   5.5884   5.6000   5.6131   5.6357   5.6613   5.6924
  5.7028   5.7310   5.7538   5.7608   5.8108   5.8645   5.9204   5.9358
  5.9912   6.0068   6.0239   6.0491   6.0676   6.1314   6.1493   6.3270
  6.4835   6.5542   6.5943   6.6383   6.7374   6.7609   6.8563   6.9048
  6.9764   7.0638   7.0921   7.1053   7.1390   7.1446   7.1961   7.2602
  7.2802   7.2951   7.3126   7.3183   7.3311   7.3350   7.3478   7.3688
  7.3991   7.4161   7.4324   7.4479   7.4515   7.5415   7.6336   7.6484
  7.7219   7.7465   7.7855   7.7867   7.8375   7.8910   7.9082   8.0626
  8.1390  24.4006  24.7236  24.7933  24.8422  25.2411  50.4502  50.5777
 50.5998  50.6107  50.6199  50.6906
 
 Beta MOs
 -- Occupied --
-19.4522 -19.4019 -19.3677 -19.3490 -19.3475 -19.3406 -10.4746 -10.4501
-10.3967 -10.3588 -10.3573  -1.3225  -1.2035  -1.1981  -1.1644  -1.1339
 -0.9898  -0.9192  -0.8565  -0.8054  -0.7535  -0.6863  -0.6796  -0.6640
 -0.6442  -0.6268  -0.6131  -0.6003  -0.5712  -0.5601  -0.5461  -0.5301
 -0.5087  -0.4971  -0.4799  -0.4745  -0.4526  -0.4506  -0.4275  -0.4079
 -0.3956  -0.3825  -0.3733
 -- Virtual --
 -0.0324   0.0252   0.0352   0.0385   0.0477   0.0488   0.0575   0.0636
  0.0726   0.0804   0.0936   0.1022   0.1096   0.1217   0.1270   0.1299
  0.1402   0.1481   0.1525   0.1571   0.1647   0.1706   0.1717   0.1764
  0.1798   0.1850   0.1869   0.1962   0.2061   0.2226   0.2312   0.2365
  0.2371   0.2496   0.2556   0.2590   0.2679   0.2784   0.2813   0.2859
  0.2928   0.3006   0.3015   0.3059   0.3126   0.3200   0.3262   0.3284
  0.3357   0.3447   0.3483   0.3549   0.3595   0.3608   0.3700   0.3708
  0.3776   0.3886   0.3899   0.3994   0.4047   0.4101   0.4147   0.4254
  0.4268   0.4418   0.4464   0.4590   0.4736   0.4818   0.4982   0.5044
  0.5153   0.5277   0.5704   0.5728   0.5988   0.6020   0.6030   0.6277
  0.6323   0.6400   0.6507   0.6523   0.6612   0.6812   0.6854   0.6874
  0.7003   0.7100   0.7163   0.7226   0.7357   0.7389   0.7630   0.7754
  0.7900   0.7987   0.8103   0.8307   0.8375   0.8593   0.8639   0.8780
  0.8877   0.9181   0.9252   0.9588   0.9742   0.9977   1.0094   1.0177
  1.0290   1.0581   1.0674   1.0773   1.0949   1.1038   1.1067   1.1242
  1.1354   1.1387   1.1506   1.1563   1.1706   1.1789   1.1860   1.1977
  1.2005   1.2126   1.2274   1.2358   1.2413   1.2460   1.2482   1.2516
  1.2685   1.2820   1.2875   1.2959   1.3041   1.3274   1.3422   1.3599
  1.3684   1.3863   1.4047   1.4175   1.4179   1.4241   1.4449   1.4570
  1.4698   1.4809   1.4939   1.5241   1.5272   1.5410   1.5579   1.5642
  1.5710   1.5816   1.5916   1.5998   1.6261   1.6326   1.6356   1.6593
  1.6707   1.6917   1.7036   1.7281   1.7447   1.7603   1.7756   1.7967
  1.8020   1.8303   1.8467   1.8873   1.9005   1.9284   1.9667   1.9909
  1.9995   2.0265   2.0526   2.0817   2.1180   2.1621   2.1800   2.1967
  2.2070   2.2422   2.2473   2.3037   2.3207   2.3322   2.3536   2.3543
  2.3879   2.4017   2.4307   2.4337   2.4588   2.4932   2.5230   2.5650
  2.6307   2.6706   2.7009   2.7415   2.7577   2.7847   2.8008   2.8139
  2.8372   2.8594   2.8752   2.8934   2.9100   2.9229   2.9507   2.9636
  2.9847   3.0036   3.0334   3.0745   3.0931   3.1256   3.1697   3.1904
  3.2087   3.2410   3.2474   3.2723   3.3016   3.3136   3.3198   3.3413
  3.3528   3.3717   3.4041   3.4154   3.4451   3.4576   3.4737   3.4846
  3.4957   3.4976   3.5136   3.5635   3.5791   3.5866   3.6106   3.6309
  3.6472   3.6678   3.7118   3.7304   3.7360   3.7451   3.7640   3.7807
  3.7951   3.8039   3.8233   3.8355   3.8505   3.8599   3.8666   3.8921
  3.9095   3.9135   3.9286   3.9455   3.9530   3.9686   3.9996   4.0432
  4.0520   4.0910   4.1320   4.1420   4.1793   4.1907   4.1968   4.2246
  4.2362   4.2616   4.2883   4.2960   4.3060   4.3374   4.3489   4.3839
  4.4035   4.4041   4.4495   4.4533   4.4694   4.4832   4.5245   4.5498
  4.5795   4.6132   4.6221   4.6556   4.6732   4.7570   4.7875   4.8296
  4.8774   4.8798   4.9153   4.9445   5.0036   5.0829   5.1342   5.1440
  5.1856   5.2076   5.2188   5.2411   5.2513   5.2720   5.2843   5.2901
  5.2911   5.2947   5.3053   5.3143   5.3273   5.3428   5.3562   5.3674
  5.3907   5.4194   5.4369   5.4585   5.4726   5.4822   5.5014   5.5412
  5.5436   5.5661   5.5791   5.5894   5.6053   5.6257   5.6378   5.6620
  5.6954   5.7038   5.7323   5.7549   5.7738   5.8141   5.8720   5.9206
  5.9385   5.9913   6.0077   6.0254   6.0536   6.0679   6.1317   6.1500
  6.3383   6.5301   6.5547   6.6024   6.6445   6.7405   6.7613   6.9402
  6.9839   7.0342   7.0639   7.1063   7.1102   7.1416   7.1705   7.2135
  7.2807   7.2833   7.2988   7.3139   7.3199   7.3359   7.3378   7.3493
  7.3726   7.4077   7.4219   7.4426   7.4630   7.4865   7.5550   7.6338
  7.6494   7.7255   7.7469   7.7861   7.7872   7.8420   7.8984   7.9083
  8.0767   8.1573  24.4006  24.7237  24.7933  24.8421  25.2411  50.4632
 50.5843  50.6004  50.6118  50.6200  50.6917
 --------------------------------------------------------------
 
          Ground-State Mulliken Net Atomic Charges

     Atom                 Charge (a.u.)    Spin (a.u.)
  --------------------------------------------------------
      1 C                    -0.295054       0.008114
      2 O                    -0.412986       0.003378
      3 C                    -0.361030       0.002600
      4 O                    -0.359845      -0.001503
      5 O                     0.102971       0.315334
      6 O                    -0.222370       0.669970
      7 C                    -0.025093       0.007172
      8 C                    -0.057042      -0.003824
      9 C                    -0.263441      -0.000723
     10 O                    -0.433476       0.000084
     11 O                    -0.431228      -0.000083
     12 H                     0.266225      -0.000791
     13 H                     0.224603       0.000623
     14 H                     0.333532      -0.000481
     15 H                     0.375377       0.000109
     16 H                     0.297897       0.000193
     17 H                     0.286496       0.000043
     18 H                     0.305151      -0.000137
     19 H                     0.335377      -0.000054
     20 H                     0.333938      -0.000024
  --------------------------------------------------------
  Sum of atomic charges =    -0.000000
  Sum of spin   charges =     1.000000

 -----------------------------------------------------------------
                    Cartesian Multipole Moments
 -----------------------------------------------------------------
    Charge (ESU x 10^10)
                -0.0000
    Dipole Moment (Debye)
         X      -3.5833      Y       0.3115      Z       0.3947
       Tot       3.6184
    Quadrupole Moments (Debye-Ang)
        XX     -91.4829     XY       4.7886     YY     -74.6160
        XZ     -11.1484     YZ       2.2634     ZZ     -59.5461
    Octopole Moments (Debye-Ang^2)
       XXX    -807.1490    XXY      58.8728    XYY    -237.9064
       YYY     -19.7984    XXZ    -112.8154    XYZ       3.7979
       YYZ     -22.4778    XZZ    -223.8172    YZZ     -24.1134
       ZZZ     -50.0388
    Hexadecapole Moments (Debye-Ang^3)
      XXXX   -6674.7926   XXXY     429.0166   XXYY   -1101.9742
      XYYY    -131.1683   YYYY    -441.4343   XXXZ    -959.1861
      XXYZ      -5.7286   XYYZ    -140.6483   YYYZ      40.6827
      XXZZ   -1157.8039   XYZZ     -84.9101   YYZZ    -158.7960
      XZZZ    -319.7843   YZZZ      32.1935   ZZZZ    -443.8447
 -----------------------------------------------------------------
 Calculating analytic gradient of the SCF energy
 Gradient of CDS energy
            1           2           3           4           5           6
    1  -0.0011512   0.0004195   0.0013510  -0.0014590   0.0000157   0.0000254
    2  -0.0004777   0.0006062  -0.0017283   0.0019751  -0.0000448   0.0000937
    3   0.0000226  -0.0003163  -0.0018755   0.0018703  -0.0000882   0.0000421
            7           8           9          10          11          12
    1  -0.0001566   0.0000447   0.0029367  -0.0026818   0.0000018   0.0002394
    2   0.0000520  -0.0000560   0.0018471  -0.0018070   0.0001643   0.0001450
    3   0.0001768   0.0002948   0.0010328  -0.0012582   0.0002159   0.0002215
           13          14          15          16          17          18
    1   0.0002176  -0.0002142   0.0000816  -0.0000894   0.0001303  -0.0002108
    2  -0.0000211  -0.0003152  -0.0002597   0.0000152   0.0000234  -0.0000907
    3  -0.0001644   0.0003367  -0.0003798   0.0000522   0.0001753  -0.0000626
           19          20
    1   0.0004340   0.0000653
    2   0.0002682  -0.0003897
    3  -0.0000645  -0.0002317
 Gradient of SCF Energy
            1           2           3           4           5           6
    1   0.0084249  -0.0006057   0.0013608   0.0044751  -0.0014528   0.0012344
    2  -0.0132385  -0.0030151   0.0023307   0.0007382  -0.0003975   0.0028773
    3   0.0037387  -0.0198900  -0.0054116   0.0133892   0.0010274  -0.0007547
            7           8           9          10          11          12
    1   0.0068195   0.0048535  -0.0027459  -0.0032716   0.0071507  -0.0049415
    2   0.0019520   0.0020095  -0.0033968  -0.0035265  -0.0015606   0.0079939
    3  -0.0048284  -0.0093631   0.0040061   0.0112049   0.0046204   0.0085516
           13          14          15          16          17          18
    1  -0.0026732   0.0009359  -0.0069447  -0.0106303  -0.0013470  -0.0006493
    2   0.0018225   0.0035702  -0.0024329  -0.0012402  -0.0003387   0.0023383
    3  -0.0094416   0.0187482  -0.0128001   0.0117176   0.0032476  -0.0042944
           19          20
    1   0.0043083  -0.0043010
    2   0.0039612  -0.0004470
    3  -0.0091665  -0.0043015
 Max gradient component =       1.989E-02
 RMS gradient           =       6.647E-03
 Computing fast CPCM-SWIG gradient
 Updating gradient with PCM contributions...
 -- total gradient after adding PCM contribution --
---------------------------------------------------
  Atom         X              Y              Z     
---------------------------------------------------
   1      -0.000934       0.000042      -0.000011
   2       0.000147       0.000087      -0.000023
   3       0.000373      -0.000045      -0.000001
   4       0.000028       0.000001      -0.000015
   5      -0.000004       0.000026       0.000004
   6      -0.000007      -0.000010       0.000009
   7       0.000044       0.000026       0.000018
   8      -0.000004      -0.000017      -0.000008
   9      -0.000013       0.000057      -0.000011
  10      -0.000002       0.000002      -0.000006
  11      -0.000012       0.000005       0.000007
  12       0.000200      -0.000170      -0.000131
  13       0.000160      -0.000012       0.000175
  14       0.000006      -0.000009      -0.000004
  15       0.000006      -0.000002       0.000004
  16       0.000002       0.000007      -0.000007
  17       0.000003      -0.000011      -0.000004
  18      -0.000001      -0.000006       0.000003
  19      -0.000011       0.000018       0.000005
  20       0.000018       0.000012      -0.000004
---------------------------------------------------
 Number of fixed atoms: 0
 Gradient time:  CPU 381.33 s  wall 31.93 s
 ----------------------------------------------------------------
             Standard Nuclear Orientation (Angstroms)
    I     Atom           X                Y                Z
 ----------------------------------------------------------------
    1      C       0.8711538000    -0.1643791000     0.1616539000
    2      O       0.5791104000    -1.4658627000     0.6375090000
    3      C       2.3763280000     0.0794856000     0.1265123000
    4      O       3.0433695000    -0.7893116000    -0.7150949000
    5      O       2.5298621000     1.4831179000    -0.3922435000
    6      O       2.2877499000     1.5462599000    -1.6686106000
    7      C       3.0157690000     0.0974477000     1.4841060000
    8      C       4.3203900000     0.1901204000     1.6976170000
    9      C       5.3807895000     0.2769660000     0.6353318000
   10      O       6.4807402000     0.9355858000     1.2061411000
   11      O       5.8100247000    -1.0233680000     0.2485790000
   12      H       0.3975181000     0.6039928000     0.7714560000
   13      H       0.4890908000    -0.0946533000    -0.8563808000
   14      H       0.6163495000    -1.4618182000     1.6000755000
   15      H       2.5539263000    -0.8685240000    -1.5456438000
   16      H       2.3382102000     0.0271351000     2.3251113000
   17      H       4.6944927000     0.1777724000     2.7152753000
   18      H       5.0341497000     0.8161968000    -0.2465638000
   19      H       7.0837250000     1.1869598000     0.4970865000
   20      H       5.0951707000    -1.4025883000    -0.2805771000
 ----------------------------------------------------------------
 Nuclear Repulsion Energy =         684.20046598 hartrees
 There are       44 alpha and       43 beta electrons
 Discretize the solute cavity surface with Lebedev spheres
	Using 110 Lebedev grid points for each H atom
	Using 194 Lebedev grid points for other atoms
	Atomic van der Waals radii will be scaled by 1.20
 Remove points where switching function is < 1.0e-08
 Keep 1564 surface tesserae and discard 1560 interior tesserae
 Molecular Surface Area = 175.143 Angst**2
 Requested basis set is 6-311++G(2df,2p)
 There are 142 shells and 464 basis functions
 A cutoff of  1.0D-12 yielded   8757 shell pairs
 There are     92698 function pairs (    115063 Cartesian)
 Smallest overlap matrix eigenvalue = 3.32E-06
 Guess MOs from SCF MO coefficient file

 -----------------------------------------------------------------------
  General SCF calculation program by
  Eric Jon Sundstrom, Paul Horn, Yuezhi Mao, Dmitri Zuev, Alec White,
  David Stuck, Shaama M.S., Shane Yost, Joonho Lee, David Small,
  Daniel Levine, Susi Lehtola, Hugh Burton, Evgeny Epifanovsky,
  Bang C. Huynh
 -----------------------------------------------------------------------
 Exchange:     0.1500 Hartree-Fock + 1.0000 wB97M-V + LR-HF
 Correlation:  1.0000 wB97M-V
 Using SG-2 standard quadrature grid
 Nonlocal Correlation:  VV10 with C = 0.0100 and b = 6.00 and scale = 1.00000
 Grid used for NLC:  SG-1 standard quadrature
 
 Citation of the SMD model:
 Marenich, A.V.; Cramer, C.J.; Truhlar, D.G.
 J. Phys. Chem. B 2009, 113, 6378-6396.
 iSolventCode=           1
 Solvent: water                                                           
 
 vradii
            1           2           3           4           5           6
    1   1.8500000   1.5200000   1.8500000   1.5200000   1.5200000   1.5200000
            7           8           9          10          11          12
    1   1.8500000   1.8500000   1.8500000   1.5200000   1.5200000   1.2000000
           13          14          15          16          17          18
    1   1.2000000   1.2000000   1.2000000   1.2000000   1.2000000   1.2000000
           19          20
    1   1.2000000   1.2000000
 -------------------------------------------------------
 OpenMP BLAS3 based DFT computing Module                
 Release: version 1.0, May 2013, Q-Chem Inc. Pittsburgh 
 -------------------------------------------------------
 A unrestricted SCF calculation will be
 performed using Roothaan-Hall, DIIS, GDM
 SCF converges when RMS gradient is below 1.0e-07
 ---------------------------------------
  Cycle       Energy         DIIS error
 ---------------------------------------
    1    -647.1348835885      2.01e-04  Roothaan Step
 ---------------------------------------
  Cycle       Energy         DIIS error
 ---------------------------------------
    1    -647.1746904500      2.25e-04  
    2    -647.1799162959      1.87e-04  Done DIIS. Switching to GDM
 ---------------------------------------
  Cycle       Energy        RMS Gradient
 ---------------------------------------
    1    -647.1799162959      7.69e-03   Normal BFGS step
    2    -647.1796526064      1.24e-02  Line search: overstep
    3    -647.1825202155      2.25e-03   Normal BFGS step
    4    -647.1826684038      1.44e-03   Normal BFGS step
    5    -647.1827050256      1.05e-03   Normal BFGS step
    6    -647.1827162503      1.02e-04   Normal BFGS step
    7    -647.1827169697      1.15e-04   Normal BFGS step
    8    -647.1827171768      6.96e-05   Normal BFGS step
    9    -647.1827172158      4.72e-05   Normal BFGS step
   10    -647.1827172333      1.47e-05   Normal BFGS step
   11    -647.1827172368      1.22e-05   Normal BFGS step
   12    -647.1827172375      9.68e-06   Normal BFGS step
   13    -647.1827172380      7.40e-06   Normal BFGS step
   14    -647.1827172383      4.91e-06   Normal BFGS step
   15    -647.1827172386      2.14e-06   Normal BFGS step
   16    -647.1827172386      8.63e-07   Normal BFGS step
   17    -647.1827172387      1.86e-07   Normal BFGS step
   18    -647.1827172386      7.21e-08  Convergence criterion met
 ---------------------------------------
 SCF time:   CPU 2725.12s  wall 186.00s 
<S^2> =          0.754055615
(3)  G-ENP(liq) elect-nuc-pol free energy of system     -647.182717239 a.u.
(4)  G-CDS(liq) cavity-dispersion-solvent structure 
     free energy                                                3.5999 kcal/mol
(6)  G-S(liq) free energy of system                     -647.176980441 a.u.
 SCF   energy in the final basis set =     -647.1769804408
 Total energy in the final basis set =     -647.1769804408
 
 --------------------------------------------------------------
 
                    Orbital Energies (a.u.)
 --------------------------------------------------------------
 
 Alpha MOs
 -- Occupied --
-19.4626 -19.4207 -19.3678 -19.3490 -19.3476 -19.3406 -10.4743 -10.4501
-10.3970 -10.3588 -10.3574  -1.3482  -1.2045  -1.1990  -1.1643  -1.1339
 -1.0158  -0.9265  -0.8637  -0.8059  -0.7566  -0.6881  -0.6870  -0.6686
 -0.6461  -0.6376  -0.6171  -0.6137  -0.5965  -0.5773  -0.5546  -0.5365
 -0.5145  -0.5044  -0.4813  -0.4754  -0.4574  -0.4545  -0.4282  -0.4195
 -0.4053  -0.3964  -0.3815  -0.3766
 -- Virtual --
  0.0251   0.0350   0.0381   0.0471   0.0482   0.0572   0.0632   0.0723
  0.0801   0.0933   0.1016   0.1087   0.1214   0.1268   0.1296   0.1400
  0.1476   0.1520   0.1563   0.1643   0.1702   0.1712   0.1757   0.1789
  0.1848   0.1854   0.1952   0.2057   0.2211   0.2305   0.2325   0.2355
  0.2483   0.2534   0.2572   0.2662   0.2761   0.2783   0.2827   0.2916
  0.2992   0.2999   0.3051   0.3120   0.3184   0.3254   0.3267   0.3346
  0.3443   0.3476   0.3545   0.3575   0.3600   0.3688   0.3703   0.3773
  0.3882   0.3896   0.3982   0.4044   0.4096   0.4142   0.4236   0.4260
  0.4415   0.4453   0.4578   0.4723   0.4802   0.4978   0.5035   0.5142
[...]
 Force Cnst:      1.3991                 1.0266                 2.2798
 Red. Mass:       1.7220                 1.1838                 2.5695
 IR Active:          YES                    YES                    YES
 IR Intens:       13.154                 67.242                120.919
 Raman Active:       YES                    YES                    YES
               X      Y      Z        X      Y      Z        X      Y      Z
 C         -0.065  0.050 -0.026    0.010  0.063  0.016   -0.026 -0.246  0.075
 O          0.005 -0.021  0.011   -0.017 -0.069  0.016    0.029  0.215 -0.067
 C          0.163 -0.056 -0.048   -0.004 -0.025 -0.015   -0.014 -0.000  0.029
 O         -0.032  0.037  0.048   -0.019  0.017 -0.003    0.012 -0.008  0.001
 O         -0.014 -0.009 -0.008   -0.001  0.001 -0.012    0.010  0.010  0.005
 O          0.002  0.001  0.013    0.001 -0.003  0.015   -0.000  0.001 -0.008
 C         -0.017  0.006  0.013   -0.020  0.007 -0.011   -0.016 -0.001 -0.036
 C          0.000 -0.006 -0.010    0.000 -0.002  0.019    0.003 -0.002  0.030
 C          0.050  0.048  0.047   -0.014 -0.015 -0.001   -0.009 -0.013 -0.003
 O         -0.059 -0.036 -0.022    0.012  0.010  0.018    0.007  0.009  0.018
 O          0.041 -0.017  0.005    0.003  0.002 -0.001    0.003  0.003 -0.001
 H          0.056  0.186 -0.097   -0.268 -0.159  0.069   -0.240 -0.510  0.237
 H         -0.253 -0.170  0.028    0.400  0.332 -0.113   -0.082 -0.195  0.097
 H         -0.069 -0.262  0.013    0.133  0.403  0.016    0.021  0.124 -0.079
 H         -0.149  0.140  0.105    0.232 -0.199 -0.126   -0.087  0.075  0.048
 H         -0.289 -0.026 -0.210   -0.216 -0.056 -0.172   -0.263 -0.033 -0.236
 H          0.287  0.021 -0.113    0.391  0.038 -0.121    0.415  0.044 -0.118
 H          0.251 -0.010 -0.071    0.132  0.009 -0.042    0.177  0.015 -0.058
 H         -0.204 -0.118 -0.174   -0.130 -0.077 -0.138   -0.158 -0.093 -0.163
 H         -0.281  0.458  0.076   -0.026  0.045  0.004   -0.030  0.047  0.008
 TransDip   0.030  0.102  0.047    0.109  0.064 -0.230   -0.183 -0.286  0.095

 Mode:                34                     35                     36
 Frequency:      1268.28                1272.76                1277.76
 Force Cnst:      7.8961                 1.2828                 1.6186
 Red. Mass:       8.3316                 1.3441                 1.6826
 IR Active:          YES                    YES                    YES
 IR Intens:       21.694                  5.648                227.009
 Raman Active:       YES                    YES                    YES
               X      Y      Z        X      Y      Z        X      Y      Z
 C          0.002  0.031 -0.027    0.022  0.011 -0.018    0.029  0.018 -0.039
 O          0.004 -0.036  0.019   -0.000 -0.015  0.008    0.001 -0.028  0.018
 C         -0.085 -0.026  0.051   -0.080  0.032  0.042   -0.136  0.056  0.104
 O          0.021 -0.015 -0.009    0.027 -0.024 -0.016    0.064 -0.049 -0.026
 O          0.093 -0.008  0.485   -0.006  0.002 -0.046   -0.003  0.000 -0.041
 O         -0.085  0.017 -0.469    0.008 -0.001  0.042    0.008  0.002  0.033
 C          0.004  0.027 -0.056    0.018 -0.004 -0.020   -0.023 -0.012 -0.071
 C          0.012 -0.005  0.046    0.003 -0.009  0.066    0.017  0.005  0.020
 C          0.010 -0.004 -0.022    0.052  0.001 -0.041   -0.046 -0.012  0.009
 O         -0.006  0.006  0.018   -0.035  0.004  0.018    0.033  0.006  0.009
 O         -0.006  0.005 -0.001   -0.023  0.013 -0.002    0.017 -0.006  0.000
 H          0.268  0.237 -0.078    0.155  0.119 -0.046    0.296  0.218 -0.075
 H          0.095  0.136 -0.055   -0.025  0.023  0.002   -0.011  0.104 -0.015
 H         -0.014 -0.127  0.022   -0.022 -0.084  0.009   -0.030 -0.165  0.022
 H         -0.095  0.072  0.051   -0.090  0.073  0.041   -0.306  0.250  0.155
 H         -0.192 -0.040 -0.221    0.025  0.012 -0.011   -0.225 -0.005 -0.233
 H          0.175  0.009 -0.011   -0.139 -0.002  0.123    0.525  0.064 -0.165
 H          0.267  0.088 -0.064    0.618  0.265 -0.103   -0.258 -0.181 -0.009
 H         -0.211 -0.125 -0.208   -0.389 -0.230 -0.374    0.111  0.068  0.099
 H          0.027 -0.044 -0.007    0.134 -0.215 -0.036   -0.112  0.176  0.032
 TransDip  -0.085 -0.025 -0.120   -0.071 -0.019 -0.019   -0.294  0.332  0.191

 Mode:                37                     38                     39
 Frequency:      1325.62                1370.17                1394.48
 Force Cnst:      1.6125                 1.4917                 1.4781
 Red. Mass:       1.5574                 1.3486                 1.2901
 IR Active:          YES                    YES                    YES
 IR Intens:      171.139                 48.761                 35.590
 Raman Active:       YES                    YES                    YES
               X      Y      Z        X      Y      Z        X      Y      Z
 C          0.010  0.001  0.000   -0.003 -0.002  0.078   -0.015 -0.014  0.067
 O         -0.001  0.001  0.003   -0.005 -0.027 -0.039   -0.003 -0.026 -0.045
 C         -0.022  0.003  0.000   -0.009 -0.018 -0.090   -0.003  0.008 -0.005
 O          0.007 -0.005 -0.001    0.023 -0.005  0.022    0.002 -0.001  0.002
 O          0.001  0.001  0.000    0.003  0.006  0.009    0.001  0.001 -0.001
 O          0.000 -0.001  0.001   -0.001 -0.003 -0.002    0.001 -0.000  0.001
 C         -0.033 -0.004  0.010   -0.029 -0.001 -0.039   -0.001 -0.002  0.014
 C          0.026  0.014 -0.034   -0.045 -0.012  0.046    0.016  0.015 -0.003
 C          0.124  0.004  0.087   -0.003  0.008  0.053    0.002 -0.042 -0.099
 O         -0.089 -0.031 -0.087   -0.013 -0.007 -0.033    0.016  0.014  0.035
 O         -0.023 -0.004  0.005   -0.009  0.013 -0.011    0.025 -0.024  0.023
 H         -0.025 -0.028  0.009    0.038  0.183 -0.117    0.185  0.269 -0.118
 H          0.032  0.036 -0.006    0.030 -0.187  0.055   -0.072 -0.267  0.079
 H          0.002 -0.010  0.003    0.091  0.452 -0.038    0.108  0.494 -0.045
 H         -0.024  0.023  0.014   -0.259  0.235  0.155   -0.031  0.025  0.017
 H         -0.213 -0.025 -0.132    0.394  0.030  0.305   -0.101 -0.038 -0.066
 H          0.196  0.008 -0.091    0.301  0.026 -0.078   -0.115 -0.009  0.046
 H          0.005  0.581  0.489    0.297 -0.122 -0.137   -0.337  0.406  0.293
 H          0.231  0.119  0.254    0.144  0.087  0.142   -0.150 -0.095 -0.153
 H          0.198 -0.297 -0.061    0.041 -0.065 -0.010   -0.128  0.216  0.035
 TransDip   0.393  0.065  0.129    0.012  0.218  0.047   -0.122  0.071 -0.129

 Mode:                40                     41                     42
 Frequency:      1411.63                1419.28                1441.04
 Force Cnst:      1.5882                 1.7982                 2.0841
 Red. Mass:       1.3528                 1.5151                 1.7034
 IR Active:          YES                    YES                    YES
 IR Intens:       53.387                 46.523                 28.699
 Raman Active:       YES                    YES                    YES
               X      Y      Z        X      Y      Z        X      Y      Z
 C          0.037  0.031 -0.039   -0.156 -0.109  0.012    0.005  0.032 -0.034
 O         -0.003  0.012  0.032    0.026  0.029  0.007   -0.005 -0.012 -0.014
 C          0.002 -0.023 -0.048    0.060  0.027 -0.002    0.057  0.034  0.175
 O          0.010  0.000  0.012   -0.019  0.007  0.001   -0.036  0.006 -0.035
 O          0.000  0.001  0.006   -0.000  0.002 -0.010   -0.005 -0.014 -0.004
 O         -0.001 -0.001 -0.002    0.001 -0.000  0.009   -0.000  0.007 -0.009
 C         -0.019 -0.000 -0.047    0.003 -0.002 -0.008    0.022  0.005 -0.065
 C         -0.047  0.006  0.054   -0.031 -0.001  0.005   -0.068 -0.007  0.022
 C         -0.038 -0.062 -0.079   -0.024 -0.021 -0.005   -0.086 -0.043  0.020
 O          0.018  0.017  0.008    0.005  0.005 -0.009    0.015  0.012 -0.030
 O          0.031 -0.021  0.021    0.008 -0.004  0.004    0.017 -0.004  0.001
 H         -0.280 -0.263  0.066    0.524  0.290  0.050    0.138  0.024  0.087
 H          0.014  0.170 -0.029    0.567  0.334 -0.239   -0.320 -0.374  0.078
 H         -0.081 -0.330  0.033   -0.016 -0.149  0.008    0.014  0.103 -0.015
 H         -0.143  0.121  0.085    0.082 -0.068 -0.046    0.379 -0.344 -0.229
 H          0.385  0.026  0.277    0.123  0.015  0.090    0.135  0.008  0.012
 H          0.176  0.001 -0.026    0.029  0.007 -0.019    0.176  0.017 -0.075
 H         -0.019  0.473  0.229    0.095  0.142  0.047    0.374  0.218  0.006
 H          0.003 -0.006 -0.014    0.062  0.034  0.052    0.205  0.114  0.176
 H         -0.153  0.265  0.041   -0.028  0.052  0.005   -0.043  0.084  0.005
 TransDip  -0.201 -0.070 -0.097   -0.035 -0.205  0.067    0.132 -0.005  0.110

 Mode:                43                     44                     45
 Frequency:      1479.90                1496.33                1760.19
 Force Cnst:      1.5232                 2.2286                13.7132
 Red. Mass:       1.1805                 1.6894                 7.5122
 IR Active:          YES                    YES                    YES
 IR Intens:       40.157                114.079                  7.474
 Raman Active:       YES                    YES                    YES
               X      Y      Z        X      Y      Z        X      Y      Z
 C          0.031 -0.079  0.035   -0.001 -0.042  0.002   -0.006 -0.006  0.007
 O          0.007  0.005 -0.003    0.005  0.004 -0.001    0.000  0.000 -0.001
 C          0.002 -0.001 -0.002    0.065  0.017  0.078    0.088  0.010  0.059
 O         -0.005  0.002  0.001   -0.023  0.007 -0.012   -0.014  0.004 -0.006
 O          0.001  0.002 -0.001   -0.002 -0.007 -0.001   -0.004 -0.007  0.001
 O         -0.000 -0.000  0.001   -0.000  0.003 -0.004   -0.001  0.002 -0.003
 C          0.028  0.002  0.022   -0.064 -0.002 -0.082   -0.504 -0.030 -0.154
 C          0.004 -0.001 -0.018   -0.058 -0.002  0.054    0.535  0.039  0.012
 C         -0.064 -0.024  0.014    0.157  0.054 -0.031   -0.113 -0.019  0.022
 O          0.011  0.007 -0.013   -0.026 -0.016  0.024    0.001  0.002  0.004
 O          0.011 -0.003  0.001   -0.025  0.006 -0.003    0.007  0.001  0.002
 H         -0.241  0.248 -0.562   -0.057  0.145 -0.261   -0.003  0.018 -0.016
 H         -0.301  0.562  0.193   -0.224  0.234  0.104   -0.010  0.019  0.014
 H          0.016  0.026 -0.002   -0.008 -0.025 -0.001   -0.003 -0.001 -0.000
 H          0.028 -0.019 -0.016    0.194 -0.170 -0.113    0.070 -0.073 -0.043
 H         -0.089 -0.010 -0.076    0.310  0.031  0.219    0.081 -0.008  0.396
 H         -0.094 -0.005  0.013    0.316  0.017 -0.074   -0.206 -0.022  0.349
 H          0.206  0.095 -0.016   -0.463 -0.199  0.048    0.237  0.038 -0.071
 H          0.105  0.059  0.090   -0.221 -0.126 -0.191    0.020  0.015  0.028
 H         -0.038  0.068  0.008    0.101 -0.176 -0.026   -0.025  0.044  0.006
 TransDip  -0.203 -0.011  0.000    0.336 -0.061 -0.019    0.070 -0.026  0.045

 Mode:                46                     47                     48
 Frequency:      3075.47                3086.67                3132.81
 Force Cnst:      5.9004                 6.0985                 6.4150
 Red. Mass:       1.0588                 1.0864                 1.1094
 IR Active:          YES                    YES                    YES
 IR Intens:       26.986                 41.691                 18.091
 Raman Active:       YES                    YES                    YES
               X      Y      Z        X      Y      Z        X      Y      Z
 C         -0.048  0.047 -0.013   -0.000  0.000  0.000    0.001 -0.033 -0.090
 O          0.000  0.000  0.000    0.000 -0.000 -0.000    0.000  0.001  0.002
 C          0.001  0.001 -0.000    0.000 -0.000 -0.000    0.000 -0.001 -0.002
 O          0.000 -0.000 -0.000   -0.000 -0.000 -0.000   -0.000  0.000  0.000
 O         -0.000 -0.000  0.000   -0.000  0.000 -0.000   -0.000 -0.000  0.000
 O          0.000  0.000  0.000    0.000 -0.000  0.000    0.000  0.000 -0.000
 C          0.001  0.000 -0.000    0.000 -0.000 -0.001   -0.001  0.000  0.001
 C         -0.000 -0.000 -0.000    0.001  0.000  0.004   -0.000  0.000 -0.000
 C          0.000 -0.000  0.000   -0.024  0.040 -0.070   -0.000  0.000 -0.000
 O         -0.000 -0.000 -0.000   -0.000 -0.000  0.001   -0.000 -0.000  0.000
 O         -0.000  0.000  0.000    0.000  0.001  0.001   -0.000 -0.000  0.000
 H          0.334 -0.531 -0.441    0.002 -0.004 -0.003   -0.284  0.438  0.356
 H          0.222 -0.031  0.597    0.000  0.000  0.000    0.280 -0.044  0.714
 H          0.001 -0.002 -0.007   -0.000 -0.000  0.000   -0.007 -0.007 -0.012
 H          0.000  0.001  0.004   -0.001 -0.000  0.001   -0.003  0.002  0.004
 H         -0.005 -0.000  0.005   -0.003  0.001  0.006    0.011  0.001 -0.010
 H         -0.001 -0.000 -0.001   -0.017  0.002 -0.038    0.001 -0.000  0.002
 H         -0.001  0.002 -0.004    0.310 -0.489  0.810    0.001 -0.002  0.003
 H         -0.000  0.000  0.000    0.001 -0.003 -0.007   -0.000 -0.000 -0.000
 H          0.000 -0.000 -0.000   -0.004  0.005  0.003    0.000  0.000  0.000
 TransDip  -0.053  0.152 -0.041   -0.092  0.118 -0.143    0.016 -0.056 -0.123

 Mode:                49                     50                     51
 Frequency:      3175.62                3200.46                3778.66
 Force Cnst:      6.4625                 6.6151                 8.9663
 Red. Mass:       1.0877                 1.0961                 1.0658
 IR Active:          YES                    YES                    YES
 IR Intens:        4.281                  3.557                317.649
 Raman Active:       YES                    YES                    YES
               X      Y      Z        X      Y      Z        X      Y      Z
 C         -0.000  0.000  0.001    0.000 -0.000 -0.002    0.000  0.000  0.000
 O         -0.000  0.000 -0.000    0.000 -0.000  0.000   -0.000  0.000 -0.000
 C         -0.000  0.000 -0.000    0.001 -0.000  0.002   -0.000 -0.000 -0.000
 O         -0.000 -0.000 -0.000    0.000  0.000  0.000   -0.019 -0.004 -0.033
 O         -0.000  0.000 -0.000    0.000 -0.000  0.000   -0.000  0.000 -0.000
 O          0.000 -0.000  0.000   -0.000  0.000 -0.000   -0.000  0.000  0.000
 C         -0.016 -0.002  0.025    0.055  0.006 -0.061   -0.000  0.000  0.000
 C         -0.029  0.000 -0.074   -0.017 -0.000 -0.030    0.000  0.000 -0.000
 C         -0.003  0.002 -0.002   -0.001  0.000 -0.000   -0.001 -0.001 -0.001
 O          0.000  0.000  0.000    0.000  0.000  0.000   -0.000  0.000  0.001
 O          0.000 -0.000 -0.000    0.000 -0.000 -0.000   -0.035 -0.021 -0.027
 H          0.004 -0.005 -0.004   -0.007  0.009  0.007   -0.001  0.000  0.001
 H         -0.001 -0.000 -0.003    0.000 -0.000  0.006    0.000  0.000 -0.002
 H          0.001  0.001 -0.000   -0.001 -0.001  0.001    0.000  0.000  0.001
 H         -0.000 -0.000  0.000   -0.000  0.000 -0.000    0.303  0.058  0.522
 H          0.227  0.024 -0.286   -0.581 -0.060  0.721   -0.000 -0.001  0.000
 H          0.316 -0.009  0.870    0.126 -0.003  0.340    0.000 -0.000  0.001
 H          0.012 -0.021  0.034    0.002 -0.005  0.008   -0.000  0.003  0.001
 H          0.003  0.001 -0.001    0.001  0.001 -0.000    0.008  0.003 -0.009
 H         -0.002 -0.000 -0.000   -0.001  0.000  0.000    0.573  0.328  0.438
 TransDip  -0.044  0.006 -0.049    0.000  0.010 -0.060    0.331  0.213  0.413

 Mode:                52                     53                     54
 Frequency:      3780.34                3822.50                3828.16
 Force Cnst:      8.9688                 9.1822                 9.2126
 Red. Mass:       1.0652                 1.0666                 1.0670
 IR Active:          YES                    YES                    YES
 IR Intens:       24.226                147.401                135.256
 Raman Active:       YES                    YES                    YES
               X      Y      Z        X      Y      Z        X      Y      Z
 C          0.000  0.000  0.000    0.000 -0.000 -0.000   -0.001 -0.001 -0.002
 O         -0.000 -0.000 -0.000   -0.000 -0.000 -0.000   -0.002  0.002 -0.063
 C         -0.001 -0.001 -0.001    0.000 -0.000  0.000    0.000 -0.000 -0.000
 O         -0.024 -0.005 -0.042   -0.000 -0.000 -0.000    0.000  0.000  0.000
 O         -0.000  0.000 -0.000   -0.000  0.000 -0.000   -0.000 -0.000  0.000
 O         -0.000  0.000  0.000   -0.000  0.000 -0.000   -0.000 -0.000  0.000
 C          0.000  0.000  0.000   -0.000  0.000  0.000    0.000  0.000  0.000
 C          0.000 -0.000  0.000   -0.000 -0.000 -0.000    0.000 -0.000 -0.000
 C          0.001  0.000  0.001   -0.000  0.000 -0.002    0.000  0.000 -0.000
 O          0.000 -0.000 -0.000    0.040  0.017 -0.045   -0.000 -0.000  0.000
 O          0.027  0.016  0.021   -0.001 -0.001 -0.001   -0.000 -0.000 -0.000
 H         -0.002  0.000  0.001   -0.000 -0.000  0.000   -0.002 -0.002  0.004
 H          0.001  0.000 -0.003   -0.000 -0.000  0.000    0.003 -0.002  0.013
 H          0.000  0.000  0.004    0.000  0.000  0.005    0.033 -0.004  0.997
 H          0.393  0.078  0.684    0.001  0.000  0.002   -0.002 -0.000 -0.003
 H          0.000 -0.000  0.001   -0.000  0.000  0.000   -0.000 -0.001 -0.001
 H          0.000  0.000 -0.001    0.000 -0.000  0.002   -0.000 -0.000 -0.000
 H         -0.000 -0.002 -0.001   -0.002 -0.004  0.003    0.000  0.000  0.000
 H         -0.004 -0.002  0.005   -0.630 -0.269  0.725    0.003  0.001 -0.003
 H         -0.440 -0.251 -0.335    0.010  0.005  0.007    0.001  0.000  0.001
 TransDip  -0.069 -0.047  0.134   -0.291 -0.143  0.215   -0.038 -0.089  0.360

 STANDARD THERMODYNAMIC QUANTITIES AT   298.15 K  AND     1.00 ATM

   This Molecule has  0 Imaginary Frequencies
   Zero point vibrational energy:       96.025 kcal/mol

   Atom    1 Element C  Has Mass   12.00000
   Atom    2 Element O  Has Mass   15.99491
   Atom    3 Element C  Has Mass   12.00000
   Atom    4 Element O  Has Mass   15.99491
   Atom    5 Element O  Has Mass   15.99491
   Atom    6 Element O  Has Mass   15.99491
   Atom    7 Element C  Has Mass   12.00000
   Atom    8 Element C  Has Mass   12.00000
   Atom    9 Element C  Has Mass   12.00000
   Atom   10 Element O  Has Mass   15.99491
   Atom   11 Element O  Has Mass   15.99491
   Atom   12 Element H  Has Mass    1.00783
   Atom   13 Element H  Has Mass    1.00783
   Atom   14 Element H  Has Mass    1.00783
   Atom   15 Element H  Has Mass    1.00783
   Atom   16 Element H  Has Mass    1.00783
   Atom   17 Element H  Has Mass    1.00783
   Atom   18 Element H  Has Mass    1.00783
   Atom   19 Element H  Has Mass    1.00783
   Atom   20 Element H  Has Mass    1.00783
   Molecular Mass:   165.039930 amu
   Principal axes and moments of inertia in amu*Bohr^2:
                             1           2           3
    Eigenvalues --     1039.75076  2588.73790  2933.35572
          X               0.97506     0.07090    -0.21031
          Y               0.08510     0.75576     0.64930
          Z               0.20498    -0.65101     0.73087
   Rotational Symmetry Number is   1
   The Molecule is an Asymmetric Top
   Translational Enthalpy:        0.889 kcal/mol
   Rotational Enthalpy:           0.889 kcal/mol
   Vibrational Enthalpy:        102.046 kcal/mol
   gas constant (RT):             0.592 kcal/mol
   Translational Entropy:        41.211  cal/mol.K
   Rotational Entropy:           30.446  cal/mol.K
   Vibrational Entropy:          37.580  cal/mol.K

   Total Enthalpy:              104.415 kcal/mol
   Total Entropy:               109.237  cal/mol.K
 Total job time:  26970.03s(wall), 384900.81s(cpu) 
 Fri Aug  9 15:54:33 2024

        *************************************************************
        *                                                           *
        *  Thank you very much for using Q-Chem.  Have a nice day.  *
        *                                                           *
        *************************************************************


