
Running Job 1 of 1 Q_in.in
qchem Q_in.in_384445.0 /scratch/ari.fischer/qChem2084469.hpc-mn1/qchem384445/ 0
/usr/local/qchem-5.4.1/exe/qcprog.exe_s Q_in.in_384445.0 /scratch/ari.fischer/qChem2084469.hpc-mn1/qchem384445/
                  Welcome to Q-Chem
     A Quantum Leap Into The Future Of Chemistry


 Q-Chem 5.4, Q-Chem, Inc., Pleasanton, CA (2021)

 License issued to: Nanyang Technological University (site)

 E. Epifanovsky,  A. T. B. Gilbert,  Xintian Feng,  Joonho Lee,  Yuezhi Mao,  
 N. Mardirossian,  P. Pokhilko,  A. White,  M. Wormit,  M. P. Coons,  
 A. L. Dempwolff,  Zhengting Gan,  D. Hait,  P. R. Horn,  L. D. Jacobson,  
 I. Kaliman,  J. Kussmann,  A. W. Lange,  Ka Un Lao,  D. S. Levine,  Jie Liu,  
 S. C. McKenzie,  A. F. Morrison,  K. Nanda,  F. Plasser,  D. R. Rehn,  
 M. L. Vidal,  Zhi-Qiang You,  Ying Zhu,  B. Alam,  B. Albrecht,  
 A. Aldossary,  E. Alguire,  J. H. Andersen,  D. Barton,  K. Begam,  A. Behn,  
 Y. A. Bernard,  E. J. Berquist,  H. Burton,  A. Carreras,  K. Carter-Fenk,  
 R. Chakraborty,  A. D. Chien,  K. D. Closser,  V. Cofer-Shabica,  
 S. Dasgupta,  Jia Deng,  M. de Wergifosse,  M. Diedenhofen,  Hainam Do,  
 S. Ehlert,  Po-Tung Fang,  S. Fatehi,  Qingguo Feng,  T. Friedhoff,  
 J. Gayvert,  Qinghui Ge,  G. Gidofalvi,  M. Goldey,  J. Gomes,  
 C. Gonzalez-Espinoza,  S. Gulania,  A. Gunina,  M. W. D. Hanson-Heine,  
 P. H. P. Harbach,  A. W. Hauser,  M. F. Herbst,  M. Hernandez Vera,  
 M. Hodecker,  Z. C. Holden,  S. Houck,  Xunkun Huang,  Kerwin Hui,  
 B. C. Huynh,  M. Ivanov,  Hyunjun Ji,  Hanjie Jiang,  B. Kaduk,  S. Kaehler,  
 K. Khistyaev,  Jaehoon Kim,  P. Klunzinger,  Z. Koczor-Benda,  
 Joong Hoon Koh,  D. Kosenkov,  L. Koulias,  T. Kowalczyk,  C. M. Krauter,  
 K. Kue,  A. Kunitsa,  T. Kus,  A. Landau,  K. V. Lawler,  D. Lefrancois,  
 S. Lehtola,  Rain Li,  Yi-Pei Li,  Jiashu Liang,  M. Liebenthal,  
 Hung-Hsuan Lin,  You-Sheng Lin,  Fenglai Liu,  Kuan-Yu Liu,  
 M. Loipersberger,  A. Luenser,  A. Manjanath,  P. Manohar,  E. Mansoor,  
 S. F. Manzer,  Shan-Ping Mao,  A. V. Marenich,  T. Markovich,  S. Mason,  
 S. A. Maurer,  P. F. McLaughlin,  M. F. S. J. Menger,  J.-M. Mewes,  
 S. A. Mewes,  P. Morgante,  J. W. Mullinax,  K. J. Oosterbaan,  G. Paran,  
 Alexander C. Paul,  Suranjan K. Paul,  F. Pavosevic,  Zheng Pei,  S. Prager,  
 E. I. Proynov,  E. Ramos,  B. Rana,  A. E. Rask,  A. Rettig,  R. M. Richard,  
 F. Rob,  E. Rossomme,  T. Scheele,  M. Scheurer,  M. Schneider,  
 N. Sergueev,  S. M. Sharada,  W. Skomorowski,  D. W. Small,  C. J. Stein,  
 Yu-Chuan Su,  E. J. Sundstrom,  Zhen Tao,  J. Thirman,  T. Tsuchimochi,  
 N. M. Tubman,  S. P. Veccham,  O. Vydrov,  J. Wenzel,  J. Witte,  A. Yamada,  
 Kun Yao,  S. Yeganeh,  S. R. Yost,  A. Zech,  Igor Ying Zhang,  Xing Zhang,  
 Yu Zhang,  D. Zuev,  A. Aspuru-Guzik,  A. T. Bell,  N. A. Besley,  
 K. B. Bravaya,  B. R. Brooks,  D. Casanova,  Jeng-Da Chai,  S. Coriani,  
 C. J. Cramer,  A. E. DePrince, III,  R. A. DiStasio Jr.,  A. Dreuw,  
 B. D. Dunietz,  T. R. Furlani,  W. A. Goddard III,  S. Grimme,  
 S. Hammes-Schiffer,  T. Head-Gordon,  W. J. Hehre,  Chao-Ping Hsu,  
 T.-C. Jagau,  Yousung Jung,  A. Klamt,  Jing Kong,  D. S. Lambrecht,  
 WanZhen Liang,  N. J. Mayhall,  C. W. McCurdy,  J. B. Neaton,  
 C. Ochsenfeld,  J. A. Parkhill,  R. Peverati,  V. A. Rassolov,  Yihan Shao,  
 L. V. Slipchenko,  T. Stauch,  R. P. Steele,  J. E. Subotnik,  
 A. J. W. Thom,  A. Tkatchenko,  D. G. Truhlar,  T. Van Voorhis,  
 T. A. Wesolowski,  K. B. Whaley,  H. L. Woodcock III,  P. M. Zimmerman,  
 S. Faraji,  P. M. W. Gill,  M. Head-Gordon,  J. M. Herbert,  A. I. Krylov

 Additional authors for Version 5.4.1: 
 S. Kotaru,  Shaozhi Li,  Xiangyuan Li,  F. Matz,  A. Molle,  Haisheng Ren,  
 Yingli Su,  Hung-Yi Tsai,  C. Utku,  Fang Wang

 Contributors to earlier versions of Q-Chem not listed above: 
 R. D. Adamson,  B. Austin,  R. Baer,  J. Baker,  G. J. O. Beran,  
 K. Brandhorst,  S. T. Brown,  E. F. C. Byrd,  A. K. Chakraborty,  
 G. K. L. Chan,  Chun-Min Chang,  Yunqing Chen,  C.-L. Cheng,  
 Siu Hung Chien,  D. M. Chipman,  D. L. Crittenden,  H. Dachsel,  
 R. J. Doerksen,  A. D. Dutoi,  R. G. Edgar,  J. Fosso-Tande,  
 L. Fusti-Molnar,  D. Ghosh,  A. Ghysels,  A. Golubeva-Zadorozhnaya,  
 J. Gonthier,  M. S. Gordon,  S. R. Gwaltney,  G. Hawkins,  J. E. Herr,  
 A. Heyden,  S. Hirata,  E. G. Hohenstein,  G. Kedziora,  F. J. Keil,  
 C. Kelley,  Jihan Kim,  R. A. King,  R. Z. Khaliullin,  P. P. Korambath,  
 W. Kurlancheek,  A. Laurent,  A. M. Lee,  M. S. Lee,  S. V. Levchenko,  
 Ching Yeh Lin,  D. Liotard,  E. Livshits,  R. C. Lochan,  I. Lotan,  
 L. A. Martinez-Martinez,  P. E. Maslen,  N. Nair,  D. P. O'Neill,  
 D. Neuhauser,  E. Neuscamman,  C. M. Oana,  R. Olivares-Amaya,  R. Olson,  
 T. M. Perrine,  B. Peters,  P. A. Pieniazek,  A. Prociuk,  Y. M. Rhee,  
 J. Ritchie,  M. A. Rohrdanz,  E. Rosta,  N. J. Russ,  H. F. Schaefer III,  
 M. W. Schmidt,  N. E. Schultz,  S. Sharma,  N. Shenvi,  C. D. Sherrill,  
 A. C. Simmonett,  A. Sodt,  T. Stein,  D. Stuck,  K. S. Thanthiriwatte,  
 V. Vanovschi,  L. Vogt,  Tao Wang,  A. Warshel,  M. A. Watson,  
 C. F. Williams,  Q. Wu,  X. Xu,  Jun Yang,  W. Zhang,  Yan Zhao

 Please cite Q-Chem as follows:
 Y. Shao et al., Mol. Phys. 113, 184-215 (2015)
 DOI: 10.1080/00268976.2014.952696

 Q-Chem 5.4.1 for Intel X86 EM64T Linux

 Parts of Q-Chem use Armadillo 9.800.1 (Horizon Scraper).
 http://arma.sourceforge.net/

 Q-Chem begins on Mon May  6 17:21:22 2024  

 Host: 
0

     Scratch files written to /scratch/ari.fischer/qChem2084469.hpc-mn1/qchem384445//
 Aug1521 |scratch|qcdevops|jenkins|workspace|build_RNUM 8249   
 Processing $rem in /usr/local/qchem-5.4.1/config/preferences:
 Processing $rem in /home/ari.fischer/.qchemrc:
 Symmetry turned off for PCM/SM12/SMD calculation

 Checking the input file for inconsistencies... 	...done.

--------------------------------------------------------------
User input:
--------------------------------------------------------------
$molecule
0 2
C         0.8663210151   -0.1764445280    0.1659943097
O         0.5742061701   -1.4815203996    0.6292980544
C         2.3756506233    0.0647248489    0.1453664299
O         3.0431476109   -0.8289116792   -0.6799703554
O         2.5476503941    1.4550571012   -0.4000675578
O         2.3449306183    1.4665849186   -1.6945499127
C         3.0104654551    0.0932644371    1.5077343374
C         4.3210045330    0.2165677911    1.7128098052
C         5.3721986833    0.3036246899    0.6327862535
O         6.4938214456    0.9227056337    1.2073859936
O         5.7569064579   -0.9956811937    0.2056226974
H         0.3825626657    0.5978770815    0.7714181858
H         0.4960919794   -0.1008681113   -0.8613495889
H         0.6175811719   -1.4676525774    1.5990598726
H         2.6151510420   -0.8002947784   -1.5565922941
H         2.3333988109    0.0130326902    2.3545531906
H         4.7050497662    0.2121981782    2.7316491465
H         5.0131718092    0.8784949892   -0.2295923924
H         7.1235265267    1.0916024173    0.4868301239
H         5.0050832216   -1.3148265095   -0.3270458992
$end

$rem
BASIS = 6-311++G(2df,2p)
GUI = 2
JOB_TYPE = Optimization
METHOD = wB97M-V
SCF_ALGORITHM = DIIS_GDM
MAX_SCF_CYCLES = 400
GEOM_OPT_MAX_CYCLES = 150
SCF_CONVERGENCE = 7
THRESH = 12
Solvent_method = SMD
$end
--------------------------------------------------------------
 ----------------------------------------------------------------
             Standard Nuclear Orientation (Angstroms)
    I     Atom           X                Y                Z
 ----------------------------------------------------------------
    1      C       0.8663210151    -0.1764445280     0.1659943097
    2      O       0.5742061701    -1.4815203996     0.6292980544
    3      C       2.3756506233     0.0647248489     0.1453664299
    4      O       3.0431476109    -0.8289116792    -0.6799703554
    5      O       2.5476503941     1.4550571012    -0.4000675578
    6      O       2.3449306183     1.4665849186    -1.6945499127
    7      C       3.0104654551     0.0932644371     1.5077343374
    8      C       4.3210045330     0.2165677911     1.7128098052
    9      C       5.3721986833     0.3036246899     0.6327862535
   10      O       6.4938214456     0.9227056337     1.2073859936
   11      O       5.7569064579    -0.9956811937     0.2056226974
   12      H       0.3825626657     0.5978770815     0.7714181858
   13      H       0.4960919794    -0.1008681113    -0.8613495889
   14      H       0.6175811719    -1.4676525774     1.5990598726
   15      H       2.6151510420    -0.8002947784    -1.5565922941
   16      H       2.3333988109     0.0130326902     2.3545531906
   17      H       4.7050497662     0.2121981782     2.7316491465
   18      H       5.0131718092     0.8784949892    -0.2295923924
   19      H       7.1235265267     1.0916024173     0.4868301239
   20      H       5.0050832216    -1.3148265095    -0.3270458992
 ----------------------------------------------------------------
 Nuclear Repulsion Energy =         685.22691350 hartrees
 There are       44 alpha and       43 beta electrons
 Requested basis set is 6-311++G(2df,2p)
 There are 142 shells and 464 basis functions

 Total QAlloc Memory Limit 288000 MB
 Mega-Array Size       188 MB
 MEM_STATIC part       192 MB
 
 Citation of the SMD model:
 Marenich, A.V.; Cramer, C.J.; Truhlar, D.G.
 J. Phys. Chem. B 2009, 113, 6378-6396.
 iSolventCode=           1
 Solvent: water                                                           
 
 vradii
            1           2           3           4           5           6
    1   1.8500000   1.5200000   1.8500000   1.5200000   1.5200000   1.5200000
            7           8           9          10          11          12
    1   1.8500000   1.8500000   1.8500000   1.5200000   1.5200000   1.2000000
           13          14          15          16          17          18
    1   1.2000000   1.2000000   1.2000000   1.2000000   1.2000000   1.2000000
           19          20
    1   1.2000000   1.2000000
 Changing PCM_VDW_RADII to SMD_RADIUS
 Discretize the solute cavity surface with Lebedev spheres
	Using 110 Lebedev grid points for each H atom
	Using 194 Lebedev grid points for other atoms
	Atomic van der Waals radii will be scaled by 1.20
 Remove points where switching function is < 1.0e-08
 Keep 1555 surface tesserae and discard 1569 interior tesserae
 Molecular Surface Area = 174.397 Angst**2
 A cutoff of  1.0D-12 yielded   8767 shell pairs
 There are     92776 function pairs (    115161 Cartesian)
 Smallest overlap matrix eigenvalue = 3.30E-06

 Scale SEOQF with 1.000000e-02/1.000000e-01/1.000000e-01

 Standard Electronic Orientation quadrupole field applied
 Guess from superposition of atomic densities
 Warning:  Energy on first SCF cycle will be non-variational
 SAD guess density has 87.000000 electrons

 -----------------------------------------------------------------------
  General SCF calculation program by
  Eric Jon Sundstrom, Paul Horn, Yuezhi Mao, Dmitri Zuev, Alec White,
  David Stuck, Shaama M.S., Shane Yost, Joonho Lee, David Small,
  Daniel Levine, Susi Lehtola, Hugh Burton, Evgeny Epifanovsky,
  Bang C. Huynh
 -----------------------------------------------------------------------
 Exchange:     0.1500 Hartree-Fock + 1.0000 wB97M-V + LR-HF
 Correlation:  1.0000 wB97M-V
 Using SG-2 standard quadrature grid
 Nonlocal Correlation:  VV10 with C = 0.0100 and b = 6.00 and scale = 1.00000
 Grid used for NLC:  SG-1 standard quadrature
 
 Citation of the SMD model:
 Marenich, A.V.; Cramer, C.J.; Truhlar, D.G.
 J. Phys. Chem. B 2009, 113, 6378-6396.
 iSolventCode=           1
 Solvent: water                                                           
 
 vradii
            1           2           3           4           5           6
    1   1.8500000   1.5200000   1.8500000   1.5200000   1.5200000   1.5200000
            7           8           9          10          11          12
    1   1.8500000   1.8500000   1.8500000   1.5200000   1.5200000   1.2000000
           13          14          15          16          17          18
    1   1.2000000   1.2000000   1.2000000   1.2000000   1.2000000   1.2000000
           19          20
    1   1.2000000   1.2000000
 using 16 threads for integral computing
 -------------------------------------------------------
 OpenMP Integral computing Module                
 Release: version 1.0, May 2013, Q-Chem Inc. Pittsburgh 
 -------------------------------------------------------
 -------------------------------------------------------
 OpenMP BLAS3 based DFT computing Module                
 Release: version 1.0, May 2013, Q-Chem Inc. Pittsburgh 
 -------------------------------------------------------
 A unrestricted SCF calculation will be
 performed using DIIS, GDM
 SCF converges when RMS gradient is below 1.0e-07
 ---------------------------------------
  Cycle       Energy         DIIS error
 ---------------------------------------
    1    -649.3804935830      1.14e-02  
    2    -646.9771819041      1.53e-03  Done DIIS. Switching to GDM
 ---------------------------------------
  Cycle       Energy        RMS Gradient
 ---------------------------------------
    1    -646.9771819041      1.00e-01   Descent step
    2    -647.1485868670      3.13e-02   Normal BFGS step
    3    -647.1759069617      3.23e-02   Normal BFGS step
    4    -647.1789358576      1.43e-02   Normal BFGS step
    5    -647.1812854949      5.55e-03   Normal BFGS step
    6    -647.1814914670      4.27e-03   Normal BFGS step
    7    -647.1815899172      2.24e-03   Normal BFGS step
    8    -647.1816167152      1.10e-03   Normal BFGS step
    9    -647.1816206202      7.89e-04   Normal BFGS step
   10    -647.1816227146      4.50e-04   Normal BFGS step
   11    -647.1816236907      3.85e-04   Normal BFGS step
   12    -647.1816244880      3.62e-04   Normal BFGS step
   13    -647.1816250678      1.75e-04   Normal BFGS step
   14    -647.1816252223      6.70e-05   Normal BFGS step
   15    -647.1816252491      1.76e-05   Normal BFGS step
   16    -647.1816252543      7.81e-06   Normal BFGS step
   17    -647.1816252550      2.70e-06   Normal BFGS step
   18    -647.1816252552      1.37e-06   Normal BFGS step
   19    -647.1816252552      6.94e-07   Normal BFGS step
   20    -647.1816252552      5.46e-07   Normal BFGS step
   21    -647.1816252553      3.11e-07   Normal BFGS step
   22    -647.1816252552      1.07e-07   Normal BFGS step
   23    -647.1816252552      5.12e-08  Convergence criterion met
 ---------------------------------------
 SCF time:   CPU 3541.28s  wall 244.00s 
<S^2> =          0.754103697
(3)  G-ENP(liq) elect-nuc-pol free energy of system     -647.181625255 a.u.
(4)  G-CDS(liq) cavity-dispersion-solvent structure 
     free energy                                                3.5348 kcal/mol
(6)  G-S(liq) free energy of system                     -647.175992114 a.u.
 SCF   energy in the final basis set =     -647.1759921139
 Total energy in the final basis set =     -647.1759921139
 
 --------------------------------------------------------------
 
                    Orbital Energies (a.u.)
 --------------------------------------------------------------
 
 Alpha MOs
 -- Occupied --
-19.4647 -19.4239 -19.3689 -19.3498 -19.3488 -19.3405 -10.4757 -10.4507
-10.3981 -10.3608 -10.3593  -1.3451  -1.2037  -1.1973  -1.1638  -1.1327
 -1.0178  -0.9251  -0.8622  -0.8034  -0.7531  -0.6882  -0.6832  -0.6679
 -0.6467  -0.6353  -0.6169  -0.6122  -0.5936  -0.5768  -0.5524  -0.5366
 -0.5162  -0.5050  -0.4824  -0.4764  -0.4578  -0.4517  -0.4293  -0.4218
 -0.4098  -0.3943  -0.3820  -0.3758
 -- Virtual --
  0.0252   0.0349   0.0380   0.0462   0.0488   0.0571   0.0626   0.0727
  0.0794   0.0938   0.1018   0.1087   0.1223   0.1271   0.1290   0.1391
  0.1472   0.1513   0.1553   0.1644   0.1702   0.1709   0.1766   0.1787
  0.1844   0.1861   0.1948   0.2050   0.2225   0.2293   0.2298   0.2352
  0.2491   0.2511   0.2588   0.2661   0.2733   0.2789   0.2820   0.2899
  0.2976   0.2982   0.3039   0.3114   0.3181   0.3229   0.3256   0.3352
  0.3448   0.3483   0.3530   0.3551   0.3586   0.3675   0.3701   0.3768
  0.3892   0.3905   0.3950   0.4042   0.4076   0.4115   0.4239   0.4266
  0.4389   0.4439   0.4568   0.4702   0.4825   0.5003   0.5021   0.5090
  0.5250   0.5696   0.5732   0.5958   0.5985   0.6054   0.6247   0.6364
  0.6372   0.6473   0.6500   0.6619   0.6784   0.6832   0.6870   0.6964
  0.7096   0.7125   0.7200   0.7286   0.7380   0.7583   0.7724   0.7878
  0.7986   0.8099   0.8359   0.8413   0.8577   0.8638   0.8761   0.8937
  0.9157   0.9263   0.9608   0.9791   0.9904   1.0034   1.0155   1.0289
  1.0562   1.0665   1.0773   1.0951   1.1014   1.1052   1.1204   1.1361
  1.1374   1.1454   1.1513   1.1690   1.1760   1.1803   1.1922   1.1975
  1.2096   1.2191   1.2271   1.2365   1.2452   1.2483   1.2498   1.2645
  1.2733   1.2860   1.2919   1.3002   1.3176   1.3470   1.3615   1.3682
  1.3821   1.4052   1.4101   1.4189   1.4272   1.4368   1.4503   1.4614
  1.4771   1.4905   1.5174   1.5295   1.5348   1.5471   1.5588   1.5680
  1.5704   1.5962   1.6023   1.6189   1.6229   1.6352   1.6580   1.6674
  1.6837   1.7041   1.7257   1.7351   1.7514   1.7718   1.7943   1.8075
  1.8286   1.8416   1.8757   1.9117   1.9235   1.9429   1.9902   1.9940
  2.0287   2.0505   2.0816   2.1219   2.1661   2.1823   2.1894   2.2029
  2.2284   2.2465   2.2869   2.3128   2.3337   2.3529   2.3598   2.3918
  2.4055   2.4313   2.4340   2.4552   2.4960   2.5316   2.5572   2.6321
  2.6656   2.6973   2.7340   2.7539   2.7898   2.8012   2.8194   2.8317
  2.8593   2.8750   2.8969   2.9124   2.9290   2.9537   2.9662   2.9845
  3.0047   3.0316   3.0680   3.0852   3.1166   3.1597   3.1881   3.1966
  3.2407   3.2422   3.2731   3.3011   3.3090   3.3184   3.3371   3.3515
  3.3720   3.4003   3.4134   3.4410   3.4515   3.4723   3.4820   3.4862
  3.5008   3.5168   3.5588   3.5734   3.5809   3.6100   3.6264   3.6438
  3.6736   3.7086   3.7223   3.7364   3.7448   3.7572   3.7826   3.7865
  3.7975   3.8222   3.8285   3.8482   3.8528   3.8660   3.8805   3.9011
  3.9106   3.9294   3.9490   3.9580   3.9670   3.9906   4.0266   4.0485
  4.0834   4.1253   4.1356   4.1732   4.1771   4.1962   4.2212   4.2288
  4.2557   4.2717   4.2887   4.3012   4.3243   4.3421   4.3795   4.3956
  4.4011   4.4362   4.4381   4.4548   4.4843   4.5140   4.5431   4.5670
  4.5948   4.6081   4.6439   4.6556   4.7336   4.7682   4.8097   4.8525
  4.8645   4.8927   4.9182   4.9806   5.0629   5.0879   5.1000   5.1130
  5.1795   5.2076   5.2295   5.2346   5.2619   5.2653   5.2805   5.2857
  5.2948   5.2998   5.3065   5.3195   5.3310   5.3500   5.3700   5.3804
  5.4063   5.4366   5.4465   5.4634   5.4707   5.4967   5.5283   5.5440
  5.5638   5.5783   5.5867   5.5899   5.6092   5.6244   5.6491   5.6766
  5.6975   5.7108   5.7328   5.7509   5.8058   5.8496   5.9178   5.9308
  5.9770   5.9830   6.0090   6.0269   6.0632   6.1071   6.1140   6.3238
  6.4429   6.5448   6.5599   6.6315   6.7278   6.7644   6.8604   6.8993
  6.9666   7.0624   7.0952   7.1046   7.1292   7.1412   7.1990   7.2454
  7.2629   7.2636   7.2927   7.2975   7.3284   7.3345   7.3474   7.3709
  7.3957   7.4140   7.4336   7.4519   7.4674   7.5288   7.6144   7.6374
  7.7127   7.7526   7.7812   7.7864   7.8276   7.8877   7.9147   8.0503
  8.1218  24.3868  24.7078  24.7783  24.8232  25.2058  50.4402  50.5688
 50.5960  50.6097  50.6171  50.6871
 
 Beta MOs
 -- Occupied --
-19.4544 -19.4050 -19.3688 -19.3498 -19.3487 -19.3405 -10.4761 -10.4507
-10.3978 -10.3609 -10.3592  -1.3196  -1.2029  -1.1962  -1.1635  -1.1327
 -0.9907  -0.9181  -0.8557  -0.8028  -0.7502  -0.6826  -0.6794  -0.6634
 -0.6448  -0.6250  -0.6114  -0.5972  -0.5716  -0.5593  -0.5465  -0.5293
 -0.5089  -0.4972  -0.4810  -0.4752  -0.4521  -0.4491  -0.4287  -0.4097
 -0.3937  -0.3829  -0.3741
 -- Virtual --
 -0.0362   0.0254   0.0352   0.0384   0.0471   0.0489   0.0574   0.0630
  0.0729   0.0796   0.0941   0.1026   0.1096   0.1226   0.1273   0.1293
  0.1394   0.1477   0.1520   0.1563   0.1649   0.1706   0.1713   0.1774
  0.1796   0.1846   0.1879   0.1958   0.2054   0.2238   0.2312   0.2346
  0.2362   0.2502   0.2532   0.2607   0.2679   0.2781   0.2800   0.2834
  0.2914   0.2984   0.2998   0.3053   0.3120   0.3193   0.3237   0.3267
  0.3363   0.3456   0.3488   0.3543   0.3561   0.3596   0.3680   0.3711
  0.3772   0.3897   0.3908   0.3960   0.4045   0.4081   0.4121   0.4257
  0.4272   0.4393   0.4448   0.4581   0.4710   0.4841   0.5009   0.5027
  0.5103   0.5257   0.5698   0.5735   0.5961   0.5986   0.6056   0.6249
  0.6369   0.6378   0.6481   0.6502   0.6622   0.6790   0.6834   0.6878
  0.6968   0.7098   0.7130   0.7201   0.7290   0.7384   0.7585   0.7726
  0.7889   0.7990   0.8101   0.8364   0.8421   0.8580   0.8645   0.8768
  0.8940   0.9158   0.9267   0.9619   0.9797   0.9921   1.0044   1.0166
  1.0307   1.0588   1.0679   1.0779   1.0960   1.1018   1.1064   1.1219
  1.1375   1.1387   1.1485   1.1534   1.1729   1.1798   1.1862   1.1984
  1.1986   1.2130   1.2216   1.2350   1.2404   1.2474   1.2507   1.2527
  1.2661   1.2807   1.2903   1.2940   1.3032   1.3222   1.3505   1.3622
  1.3722   1.3834   1.4060   1.4123   1.4197   1.4278   1.4377   1.4568
  1.4640   1.4796   1.4919   1.5181   1.5317   1.5374   1.5514   1.5605
  1.5710   1.5716   1.5994   1.6051   1.6210   1.6292   1.6392   1.6604
  1.6750   1.6863   1.7076   1.7304   1.7416   1.7568   1.7894   1.7960
  1.8094   1.8363   1.8422   1.8822   1.9142   1.9286   1.9461   1.9916
  1.9965   2.0308   2.0550   2.0829   2.1232   2.1683   2.1846   2.1942
  2.2043   2.2388   2.2467   2.3001   2.3176   2.3354   2.3563   2.3624
  2.3937   2.4058   2.4340   2.4350   2.4575   2.4979   2.5326   2.5593
  2.6325   2.6693   2.7013   2.7352   2.7544   2.7903   2.8025   2.8195
  2.8322   2.8601   2.8755   2.8976   2.9125   2.9293   2.9543   2.9666
  2.9853   3.0049   3.0318   3.0685   3.0858   3.1174   3.1602   3.1885
  3.1972   3.2410   3.2424   3.2737   3.3015   3.3094   3.3186   3.3372
  3.3516   3.3725   3.4007   3.4138   3.4412   3.4517   3.4724   3.4823
  3.4868   3.5014   3.5170   3.5590   3.5738   3.5811   3.6103   3.6270
  3.6440   3.6740   3.7090   3.7225   3.7369   3.7453   3.7572   3.7827
  3.7868   3.7979   3.8223   3.8290   3.8483   3.8531   3.8662   3.8809
  3.9014   3.9114   3.9296   3.9491   3.9581   3.9672   3.9910   4.0269
  4.0488   4.0838   4.1257   4.1360   4.1736   4.1776   4.1964   4.2213
  4.2291   4.2567   4.2719   4.2888   4.3014   4.3245   4.3431   4.3800
  4.3969   4.4019   4.4367   4.4383   4.4557   4.4850   4.5157   4.5452
  4.5688   4.5998   4.6131   4.6511   4.6685   4.7531   4.7691   4.8147
  4.8630   4.8771   4.8941   4.9253   4.9945   5.0685   5.1369   5.1463
  5.1887   5.2079   5.2186   5.2369   5.2520   5.2680   5.2807   5.2870
  5.2897   5.2994   5.3069   5.3144   5.3283   5.3457   5.3630   5.3757
  5.3887   5.4143   5.4377   5.4519   5.4702   5.4744   5.5003   5.5342
  5.5494   5.5676   5.5812   5.5888   5.5959   5.6166   5.6258   5.6513
  5.6787   5.7001   5.7123   5.7335   5.7631   5.8085   5.8580   5.9183
  5.9335   5.9772   5.9833   6.0098   6.0321   6.0633   6.1076   6.1145
  6.3351   6.4889   6.5452   6.5702   6.6344   6.7309   6.7648   6.9440
  6.9784   7.0246   7.0625   7.1025   7.1195   7.1400   7.1562   7.2122
  7.2559   7.2664   7.2708   7.2961   7.3111   7.3299   7.3371   7.3485
  7.3754   7.4030   7.4216   7.4476   7.4804   7.4869   7.5402   7.6145
  7.6385   7.7162   7.7532   7.7814   7.7874   7.8332   7.8946   7.9149
  8.0644   8.1397  24.3868  24.7078  24.7783  24.8231  25.2057  50.4531
 50.5748  50.5965  50.6107  50.6177  50.6885
 --------------------------------------------------------------
 
          Ground-State Mulliken Net Atomic Charges

     Atom                 Charge (a.u.)    Spin (a.u.)
  --------------------------------------------------------
      1 C                    -0.283053       0.006821
      2 O                    -0.414573       0.003400
      3 C                    -0.366767       0.004996
      4 O                    -0.363603      -0.001408
      5 O                     0.107378       0.310922
      6 O                    -0.219498       0.673615
      7 C                    -0.036978       0.007510
      8 C                    -0.027356      -0.003923
      9 C                    -0.275153      -0.000628
     10 O                    -0.438253       0.000099
     11 O                    -0.438190      -0.000034
     12 H                     0.262240      -0.000753
     13 H                     0.221249       0.000453
     14 H                     0.333901      -0.000487
     15 H                     0.377730      -0.000283
     16 H                     0.298921       0.000151
     17 H                     0.285224       0.000011
     18 H                     0.299980      -0.000374
     19 H                     0.336979      -0.000053
     20 H                     0.339822      -0.000036
  --------------------------------------------------------
  Sum of atomic charges =    -0.000000
  Sum of spin   charges =     1.000000

 -----------------------------------------------------------------
                    Cartesian Multipole Moments
 -----------------------------------------------------------------
    Charge (ESU x 10^10)
                -0.0000
    Dipole Moment (Debye)
         X      -3.5375      Y       0.6946      Z       0.3797
       Tot       3.6250
    Quadrupole Moments (Debye-Ang)
        XX     -90.8201     XY       5.1976     YY     -75.4792
        XZ     -11.0599     YZ       1.7192     ZZ     -59.1540
    Octopole Moments (Debye-Ang^2)
       XXX    -797.9249    XXY      56.6463    XYY    -242.8689
       YYY     -15.9572    XXZ    -111.1719    XYZ       2.3220
       YYZ     -22.4556    XZZ    -222.3625    YZZ     -22.9046
       ZZZ     -50.2467
    Hexadecapole Moments (Debye-Ang^3)
      XXXX   -6559.3185   XXXY     387.5978   XXYY   -1129.2983
      XYYY    -130.8379   YYYY    -433.5186   XXXZ    -940.5737
      XXYZ     -13.8927   XYYZ    -138.8495   YYYZ      34.6762
      XXZZ   -1151.3571   XYZZ     -84.7479   YYZZ    -157.8570
      XZZZ    -316.5517   YZZZ      28.7358   ZZZZ    -447.4704
 -----------------------------------------------------------------
 Calculating analytic gradient of the SCF energy
 Gradient of CDS energy
            1           2           3           4           5           6
    1  -0.0011324   0.0004111   0.0013062  -0.0014253   0.0000298   0.0000144
    2  -0.0004424   0.0005574  -0.0017158   0.0019665  -0.0000474   0.0001006
    3  -0.0000192  -0.0002962  -0.0017891   0.0018103  -0.0000863   0.0000532
            7           8           9          10          11          12
    1  -0.0001615   0.0000477   0.0029001  -0.0026443   0.0000002   0.0002276
    2   0.0000413  -0.0000517   0.0016934  -0.0016434   0.0001709   0.0001514
    3   0.0001854   0.0003022   0.0009757  -0.0012187   0.0002263   0.0002257
           13          14          15          16          17          18
    1   0.0002123  -0.0002114   0.0000922  -0.0000942   0.0001384  -0.0002161
    2  -0.0000228  -0.0003167  -0.0002549   0.0000134   0.0000239  -0.0000838
    3  -0.0001676   0.0003333  -0.0003882   0.0000545   0.0001753  -0.0000662
           19          20
    1   0.0004532   0.0000521
    2   0.0002333  -0.0003731
    3  -0.0000644  -0.0002461
 Gradient of SCF Energy
            1           2           3           4           5           6
    1   0.0093501  -0.0008398  -0.0004068   0.0089042   0.0008927  -0.0001509
    2  -0.0164441  -0.0064530   0.0029716  -0.0055348   0.0025597   0.0011024
    3   0.0072567  -0.0291058  -0.0076310   0.0200968   0.0099204  -0.0089524
            7           8           9          10          11          12
    1   0.0026659   0.0093470   0.0025223  -0.0076938   0.0120275  -0.0068202
    2   0.0009691   0.0048324  -0.0063545  -0.0025067  -0.0019793   0.0114822
    3  -0.0062134  -0.0098191   0.0018983   0.0191426   0.0082143   0.0097781
           13          14          15          16          17          18
    1  -0.0037873   0.0018552  -0.0092100  -0.0128764  -0.0001404  -0.0035380
    2   0.0022868   0.0060399   0.0013376  -0.0016471  -0.0005882   0.0043613
    3  -0.0122996   0.0254366  -0.0187391   0.0145200   0.0061557  -0.0070489
           19          20
    1   0.0077003  -0.0098015
    2   0.0032122   0.0003526
    3  -0.0150568  -0.0075534
 Max gradient component =       2.911E-02
 RMS gradient           =       9.607E-03
 Computing fast CPCM-SWIG gradient
 Updating gradient with PCM contributions...
 -- total gradient after adding PCM contribution --
---------------------------------------------------
  Atom         X              Y              Z     
---------------------------------------------------
   1       0.000254      -0.002895       0.003546
   2      -0.000174      -0.002766      -0.008998
   3      -0.001376       0.001161      -0.001839
   4       0.005675      -0.003502       0.005797
   5       0.002337       0.002740       0.008627
   6      -0.001322      -0.001884      -0.007990
   7      -0.004811      -0.001381      -0.001792
   8       0.005087       0.001922      -0.000204
   9       0.004305      -0.002543      -0.002808
  10      -0.004273       0.000070       0.008208
  11       0.005750       0.000656       0.004126
  12      -0.001537       0.003012       0.001245
  13      -0.001115       0.000206      -0.002880
  14       0.000886       0.002018       0.006815
  15      -0.003572       0.001962      -0.005673
  16      -0.002142      -0.000259       0.002696
  17       0.001164      -0.000327       0.002888
  18      -0.002486       0.002043      -0.002552
  19       0.003279      -0.000019      -0.006014
  20      -0.005930      -0.000213      -0.003197
---------------------------------------------------
 Number of fixed atoms: 0
 Gradient time:  CPU 433.67 s  wall 36.54 s
 Geometry Optimization Parameters
   NAtoms,    NIC,     NZ,  NCons,   NDum,   NFix, NCnnct, MaxDiis
       20     128       0       0       0       0       0       0


** GEOMETRY OPTIMIZATION IN DELOCALIZED INTERNAL COORDINATES **
   Searching for a Minimum

   Optimization Cycle:   1

                       Coordinates (Angstroms)
     ATOM                X               Y               Z
      1  C         0.8663210151   -0.1764445280    0.1659943097
      2  O         0.5742061701   -1.4815203996    0.6292980544
      3  C         2.3756506233    0.0647248489    0.1453664299
      4  O         3.0431476109   -0.8289116792   -0.6799703554
      5  O         2.5476503941    1.4550571012   -0.4000675578
      6  O         2.3449306183    1.4665849186   -1.6945499127
      7  C         3.0104654551    0.0932644371    1.5077343374
      8  C         4.3210045330    0.2165677911    1.7128098052
      9  C         5.3721986833    0.3036246899    0.6327862535
     10  O         6.4938214456    0.9227056337    1.2073859936
     11  O         5.7569064579   -0.9956811937    0.2056226974
     12  H         0.3825626657    0.5978770815    0.7714181858
     13  H         0.4960919794   -0.1008681113   -0.8613495889
     14  H         0.6175811719   -1.4676525774    1.5990598726
     15  H         2.6151510420   -0.8002947784   -1.5565922941
     16  H         2.3333988109    0.0130326902    2.3545531906
     17  H         4.7050497662    0.2121981782    2.7316491465
     18  H         5.0131718092    0.8784949892   -0.2295923924
     19  H         7.1235265267    1.0916024173    0.4868301239
     20  H         5.0050832216   -1.3148265095   -0.3270458992
   Point Group: c1    Number of degrees of freedom:    54


   Energy is   -647.175992114


 Attempting to generate delocalized internal coordinates
 Initial Hessian constructed with Jon Baker's OPTIMIZE code

 54 Hessian modes will be used to form the next step
  Hessian Eigenvalues:
     0.002000    0.005394    0.007902    0.008745    0.012894    0.013615
     0.015105    0.017291    0.017767    0.018182    0.031375    0.051230
     0.054871    0.061314    0.069223    0.074223    0.079229    0.094132
     0.098915    0.113247    0.138235    0.159884    0.159998    0.160000
     0.160000    0.160000    0.160000    0.183384    0.186420    0.189797
     0.201641    0.220001    0.220032    0.220731    0.250000    0.295517
     0.313858    0.320269    0.320356    0.340332    0.341840    0.342829
     0.349486    0.351407    0.423405    0.431690    0.449497    0.477461
     0.521807    0.523475    0.530254    0.532076    0.589877    0.644093

 Minimum search - taking simple RFO step
 Searching for Lamda that Minimizes Along All modes
 Value Taken    Lamda =  -0.00162044
 Step Taken.  Stepsize is  0.176261

                             Maximum     Tolerance    Cnvgd?
         Gradient           0.011974      0.000300      NO
         Displacement       0.073881      0.001200      NO
         Energy change     *********      0.000001      NO


 New Cartesian Coordinates Obtained by Inverse Iteration

 Displacement from previous Coordinates is:  0.463744
 ----------------------------------------------------------------
             Standard Nuclear Orientation (Angstroms)
    I     Atom           X                Y                Z
 ----------------------------------------------------------------
    1      C       0.8622349978    -0.1614334906     0.1683626373
    2      O       0.5522986731    -1.4557759679     0.6505103071
    3      C       2.3708910789     0.0606781257     0.1250271875
    4      O       3.0140383876    -0.8321499582    -0.7167983492
    5      O       2.5417034797     1.4549343132    -0.4075189695
    6      O       2.2549052681     1.5198995583    -1.6776118577
    7      C       3.0165085565     0.0766507329     1.4804117630
    8      C       4.3197382913     0.1929753839     1.6953298454
    9      C       5.3880936310     0.2881057037     0.6379487224
   10      O       6.4798721724     0.9553262663     1.2158175857
   11      O       5.8318943704    -1.0047152350     0.2469913981
   12      H       0.4021558554     0.6162753069     0.7781289565
   13      H       0.4780052839    -0.0850880835    -0.8486889859
   14      H       0.6014118216    -1.4528902782     1.6132585658
   15      H       2.5739756979    -0.8213288299    -1.5802063643
   16      H       2.3419096683     0.0012194359     2.3230062297
   17      H       4.6870999324     0.2004358051     2.7152990372
   18      H       5.0409543148     0.8311836914    -0.2420850860
   19      H       7.1183424920     1.1466935336     0.5177576605
   20      H       5.1218860273    -1.3814610137    -0.2935998835
 ----------------------------------------------------------------
 Nuclear Repulsion Energy =         683.02606822 hartrees
 There are       44 alpha and       43 beta electrons
 Discretize the solute cavity surface with Lebedev spheres
	Using 110 Lebedev grid points for each H atom
	Using 194 Lebedev grid points for other atoms
	Atomic van der Waals radii will be scaled by 1.20
 Remove points where switching function is < 1.0e-08
 Keep 1573 surface tesserae and discard 1551 interior tesserae
 Molecular Surface Area = 175.272 Angst**2
 Applying Cartesian multipole field
    Component          Value
    ---------          -----
     (2,0,0)        1.00000E-12
     (0,2,0)        2.00000E-11
     (0,0,2)       -3.00000E-11
 Requested basis set is 6-311++G(2df,2p)
 There are 142 shells and 464 basis functions
 A cutoff of  1.0D-12 yielded   8750 shell pairs
 There are     92607 function pairs (    114938 Cartesian)
 Smallest overlap matrix eigenvalue = 3.29E-06
 Guess MOs from SCF MO coefficient file

 -----------------------------------------------------------------------
  General SCF calculation program by
  Eric Jon Sundstrom, Paul Horn, Yuezhi Mao, Dmitri Zuev, Alec White,
  David Stuck, Shaama M.S., Shane Yost, Joonho Lee, David Small,
  Daniel Levine, Susi Lehtola, Hugh Burton, Evgeny Epifanovsky,
  Bang C. Huynh
 -----------------------------------------------------------------------
 Exchange:     0.1500 Hartree-Fock + 1.0000 wB97M-V + LR-HF
 Correlation:  1.0000 wB97M-V
 Using SG-2 standard quadrature grid
 Nonlocal Correlation:  VV10 with C = 0.0100 and b = 6.00 and scale = 1.00000
 Grid used for NLC:  SG-1 standard quadrature
 
 Citation of the SMD model:
 Marenich, A.V.; Cramer, C.J.; Truhlar, D.G.
 J. Phys. Chem. B 2009, 113, 6378-6396.
 iSolventCode=           1
 Solvent: water                                                           
 
 vradii
            1           2           3           4           5           6
    1   1.8500000   1.5200000   1.8500000   1.5200000   1.5200000   1.5200000
            7           8           9          10          11          12
    1   1.8500000   1.8500000   1.8500000   1.5200000   1.5200000   1.2000000
           13          14          15          16          17          18
    1   1.2000000   1.2000000   1.2000000   1.2000000   1.2000000   1.2000000
           19          20
    1   1.2000000   1.2000000
 -------------------------------------------------------
 OpenMP BLAS3 based DFT computing Module                
 Release: version 1.0, May 2013, Q-Chem Inc. Pittsburgh 
 -------------------------------------------------------
 A unrestricted SCF calculation will be
 performed using Roothaan-Hall, DIIS, GDM
 SCF converges when RMS gradient is below 1.0e-07
 ---------------------------------------
  Cycle       Energy         DIIS error
 ---------------------------------------
    1    -647.1275446420      2.96e-04  Roothaan Step
 ---------------------------------------
  Cycle       Energy         DIIS error
 ---------------------------------------
    1    -647.1736530386      2.28e-04  
    2    -647.1795992194      1.82e-04  Done DIIS. Switching to GDM
 ---------------------------------------
  Cycle       Energy        RMS Gradient
 ---------------------------------------
    1    -647.1795992194      8.67e-03   Normal BFGS step
    2    -647.1794779698      1.18e-02  Line search: overstep
    3    -647.1821122683      3.88e-03   Normal BFGS step
    4    -647.1823220505      1.80e-03   Normal BFGS step
    5    -647.1823670683      1.36e-03   Normal BFGS step
    6    -647.1823886362      7.95e-04   Normal BFGS step
    7    -647.1823920617      7.26e-04   Normal BFGS step
    8    -647.1823950893      6.02e-04   Normal BFGS step
    9    -647.1823971621      3.88e-04   Normal BFGS step
   10    -647.1823981420      3.42e-04   Normal BFGS step
   11    -647.1823988181      1.47e-04   Normal BFGS step
   12    -647.1823989372      2.52e-05   Normal BFGS step
   13    -647.1823989505      1.11e-05   Normal BFGS step
   14    -647.1823989549      7.47e-06   Normal BFGS step
   15    -647.1823989555      4.58e-06   Normal BFGS step
   16    -647.1823989557      1.92e-06   Normal BFGS step
   17    -647.1823989557      7.83e-07   Normal BFGS step
   18    -647.1823989558      3.32e-07   Normal BFGS step
   19    -647.1823989558      8.93e-08  Convergence criterion met
 ---------------------------------------
 SCF time:   CPU 3231.30s  wall 222.00s 
<S^2> =          0.754063944
(3)  G-ENP(liq) elect-nuc-pol free energy of system     -647.182398956 a.u.
(4)  G-CDS(liq) cavity-dispersion-solvent structure 
     free energy                                                3.5807 kcal/mol
(6)  G-S(liq) free energy of system                     -647.176692787 a.u.
 SCF   energy in the final basis set =     -647.1766927867
 Total energy in the final basis set =     -647.1766927867
 
 --------------------------------------------------------------
 
                    Orbital Energies (a.u.)
 --------------------------------------------------------------
 
 Alpha MOs
 -- Occupied --
-19.4638 -19.4226 -19.3670 -19.3489 -19.3475 -19.3418 -10.4749 -10.4507
-10.3964 -10.3596 -10.3581  -1.3477  -1.2036  -1.1983  -1.1639  -1.1340
 -1.0173  -0.9266  -0.8640  -0.8057  -0.7554  -0.6887  -0.6859  -0.6681
 -0.6469  -0.6372  -0.6186  -0.6127  -0.5949  -0.5777  -0.5535  -0.5363
 -0.5152  -0.5040  -0.4818  -0.4773  -0.4574  -0.4525  -0.4295  -0.4203
 -0.4066  -0.3954  -0.3813  -0.3778
 -- Virtual --
  0.0251   0.0349   0.0380   0.0469   0.0484   0.0572   0.0627   0.0720
  0.0800   0.0932   0.1020   0.1088   0.1221   0.1268   0.1292   0.1398
  0.1477   0.1514   0.1558   0.1642   0.1699   0.1716   0.1760   0.1792
  0.1846   0.1849   0.1951   0.2064   0.2217   0.2293   0.2319   0.2358
  0.2479   0.2536   0.2579   0.2664   0.2747   0.2791   0.2820   0.2897
  0.2983   0.2996   0.3035   0.3115   0.3180   0.3236   0.3257   0.3346
  0.3451   0.3477   0.3527   0.3559   0.3600   0.3677   0.3698   0.3772
  0.3882   0.3889   0.3984   0.4038   0.4083   0.4132   0.4237   0.4258
  0.4387   0.4454   0.4580   0.4724   0.4787   0.4974   0.4990   0.5130
  0.5249   0.5707   0.5723   0.5980   0.6006   0.6044   0.6253   0.6343
  0.6390   0.6469   0.6513   0.6611   0.6803   0.6849   0.6866   0.6948
  0.7100   0.7117   0.7230   0.7325   0.7342   0.7622   0.7744   0.7903
  0.8016   0.8096   0.8324   0.8391   0.8581   0.8613   0.8765   0.8892
  0.9169   0.9249   0.9589   0.9757   0.9904   1.0055   1.0144   1.0261
  1.0587   1.0657   1.0767   1.0927   1.1018   1.1052   1.1195   1.1339
  1.1355   1.1464   1.1535   1.1695   1.1731   1.1779   1.1913   1.1967
  1.2073   1.2207   1.2247   1.2382   1.2439   1.2470   1.2478   1.2611
  1.2724   1.2837   1.2902   1.2990   1.3247   1.3374   1.3634   1.3674
  1.3794   1.4036   1.4104   1.4187   1.4284   1.4376   1.4551   1.4608
  1.4756   1.4904   1.5205   1.5250   1.5365   1.5491   1.5592   1.5708
  1.5789   1.5941   1.6000   1.6226   1.6272   1.6362   1.6512   1.6634
  1.6861   1.6981   1.7284   1.7414   1.7451   1.7608   1.7869   1.8005
  1.8254   1.8399   1.8742   1.8954   1.9284   1.9503   1.9890   1.9953
  2.0286   2.0505   2.0792   2.1066   2.1637   2.1790   2.1876   2.2025
  2.2313   2.2436   2.2864   2.3151   2.3287   2.3482   2.3503   2.3835
  2.4007   2.4285   2.4356   2.4531   2.4945   2.5220   2.5566   2.6287
  2.6694   2.6960   2.7369   2.7457   2.7857   2.8004   2.8159   2.8328
  2.8584   2.8725   2.8941   2.9181   2.9255   2.9508   2.9635   2.9842
  3.0043   3.0295   3.0722   3.0924   3.1205   3.1632   3.1905   3.2021
  3.2418   3.2445   3.2731   3.2966   3.3124   3.3177   3.3396   3.3503
  3.3687   3.4014   3.4121   3.4415   3.4535   3.4703   3.4811   3.4904
  3.4974   3.5132   3.5598   3.5764   3.5805   3.6101   3.6289   3.6413
  3.6633   3.7098   3.7291   3.7368   3.7440   3.7616   3.7864   3.7906
  3.8005   3.8233   3.8344   3.8490   3.8548   3.8675   3.8850   3.9072
  3.9091   3.9284   3.9467   3.9513   3.9669   3.9935   4.0366   4.0524
  4.0902   4.1315   4.1384   4.1828   4.1868   4.1988   4.2233   4.2339
  4.2560   4.2869   4.2961   4.3056   4.3376   4.3457   4.3871   4.3953
  4.4079   4.4464   4.4511   4.4623   4.4747   4.5190   4.5473   4.5787
  4.6040   4.6137   4.6412   4.6578   4.7362   4.7835   4.8223   4.8636
  4.8741   4.9148   4.9325   4.9911   5.0717   5.0860   5.0963   5.1143
  5.1789   5.2070   5.2278   5.2372   5.2582   5.2642   5.2797   5.2886
  5.2934   5.2956   5.3075   5.3121   5.3304   5.3444   5.3611   5.3760
  5.4048   5.4347   5.4532   5.4582   5.4775   5.5008   5.5371   5.5445
  5.5621   5.5733   5.5905   5.5934   5.6114   5.6338   5.6562   5.6918
  5.7046   5.7230   5.7457   5.7578   5.8108   5.8613   5.9198   5.9355
  5.9877   6.0018   6.0223   6.0381   6.0682   6.1252   6.1384   6.3276
  6.4705   6.5499   6.5849   6.6341   6.7288   6.7632   6.8565   6.9013
  6.9731   7.0635   7.0974   7.1045   7.1342   7.1359   7.2029   7.2560
  7.2817   7.2900   7.3119   7.3185   7.3284   7.3323   7.3383   7.3642
  7.3913   7.4120   7.4310   7.4416   7.4536   7.5342   7.6268   7.6515
  7.7177   7.7476   7.7844   7.7874   7.8323   7.8878   7.9088   8.0594
  8.1314  24.3971  24.7185  24.7910  24.8374  25.2354  50.4448  50.5721
 50.5996  50.6106  50.6147  50.6883
 
 Beta MOs
 -- Occupied --
-19.4535 -19.4037 -19.3670 -19.3489 -19.3474 -19.3418 -10.4752 -10.4507
-10.3962 -10.3597 -10.3580  -1.3221  -1.2030  -1.1970  -1.1636  -1.1340
 -0.9909  -0.9194  -0.8573  -0.8052  -0.7523  -0.6852  -0.6796  -0.6638
 -0.6450  -0.6268  -0.6130  -0.5985  -0.5720  -0.5600  -0.5454  -0.5305
 -0.5086  -0.4962  -0.4803  -0.4763  -0.4517  -0.4497  -0.4290  -0.4085
 -0.3946  -0.3825  -0.3745
 -- Virtual --
 -0.0343   0.0252   0.0352   0.0385   0.0478   0.0486   0.0575   0.0630
  0.0723   0.0802   0.0935   0.1027   0.1097   0.1223   0.1270   0.1296
  0.1401   0.1482   0.1520   0.1567   0.1647   0.1703   0.1722   0.1768
  0.1800   0.1848   0.1867   0.1962   0.2068   0.2233   0.2303   0.2360
  0.2369   0.2491   0.2559   0.2596   0.2682   0.2795   0.2799   0.2847
  0.2908   0.2995   0.3013   0.3044   0.3120   0.3194   0.3243   0.3276
  0.3356   0.3458   0.3482   0.3539   0.3572   0.3611   0.3688   0.3702
  0.3775   0.3887   0.3893   0.3993   0.4041   0.4089   0.4138   0.4250
  0.4270   0.4390   0.4466   0.4592   0.4734   0.4803   0.4980   0.4999
  0.5141   0.5254   0.5709   0.5727   0.5983   0.6008   0.6047   0.6255
  0.6352   0.6392   0.6476   0.6516   0.6613   0.6806   0.6851   0.6876
  0.6953   0.7103   0.7119   0.7231   0.7328   0.7346   0.7624   0.7746
  0.7914   0.8019   0.8099   0.8331   0.8397   0.8586   0.8620   0.8771
  0.8894   0.9171   0.9254   0.9602   0.9763   0.9929   1.0060   1.0154
  1.0272   1.0605   1.0670   1.0773   1.0933   1.1023   1.1059   1.1220
  1.1354   1.1365   1.1503   1.1557   1.1724   1.1791   1.1845   1.1944
  1.2004   1.2105   1.2220   1.2346   1.2417   1.2447   1.2494   1.2504
  1.2632   1.2787   1.2879   1.2919   1.3029   1.3278   1.3418   1.3646
  1.3715   1.3805   1.4046   1.4121   1.4192   1.4293   1.4386   1.4561
  1.4688   1.4787   1.4912   1.5218   1.5271   1.5387   1.5540   1.5606
  1.5729   1.5810   1.5967   1.6021   1.6269   1.6309   1.6406   1.6548
  1.6710   1.6890   1.7032   1.7304   1.7485   1.7524   1.7774   1.7889
  1.8018   1.8306   1.8438   1.8792   1.8991   1.9318   1.9552   1.9906
  1.9971   2.0306   2.0549   2.0805   2.1084   2.1652   2.1808   2.1926
  2.2037   2.2414   2.2445   2.2974   2.3202   2.3295   2.3511   2.3560
  2.3857   2.4010   2.4290   2.4387   2.4563   2.4959   2.5230   2.5586
  2.6292   2.6739   2.6993   2.7380   2.7466   2.7863   2.8014   2.8160
  2.8333   2.8592   2.8729   2.8947   2.9182   2.9259   2.9512   2.9637
  2.9851   3.0044   3.0297   3.0726   3.0931   3.1213   3.1636   3.1909
  3.2027   3.2420   3.2448   3.2737   3.2971   3.3127   3.3178   3.3396
  3.3505   3.3691   3.4018   3.4124   3.4417   3.4538   3.4703   3.4816
  3.4910   3.4978   3.5134   3.5600   3.5768   3.5808   3.6103   3.6295
  3.6415   3.6636   3.7102   3.7294   3.7372   3.7444   3.7616   3.7865
  3.7909   3.8010   3.8234   3.8349   3.8492   3.8551   3.8678   3.8853
  3.9075   3.9100   3.9286   3.9468   3.9516   3.9671   3.9939   4.0369
  4.0527   4.0905   4.1320   4.1388   4.1832   4.1872   4.1990   4.2235
  4.2342   4.2570   4.2870   4.2963   4.3057   4.3379   4.3466   4.3875
  4.3957   4.4095   4.4466   4.4514   4.4629   4.4757   4.5212   4.5499
  4.5805   4.6082   4.6197   4.6495   4.6688   4.7561   4.7846   4.8306
  4.8760   4.8812   4.9167   4.9396   5.0038   5.0803   5.1345   5.1435
  5.1857   5.2073   5.2194   5.2389   5.2446   5.2677   5.2811   5.2871
  5.2931   5.2963   5.3050   5.3136   5.3238   5.3423   5.3563   5.3689
  5.3811   5.4156   5.4361   5.4583   5.4647   5.4807   5.5036   5.5421
  5.5498   5.5671   5.5767   5.5930   5.5985   5.6219   5.6348   5.6570
  5.6937   5.7070   5.7239   5.7471   5.7700   5.8146   5.8687   5.9200
  5.9383   5.9878   6.0021   6.0231   6.0436   6.0683   6.1255   6.1392
  6.3393   6.5167   6.5504   6.5941   6.6391   6.7318   6.7637   6.9400
  6.9804   7.0298   7.0636   7.1053   7.1181   7.1361   7.1616   7.2185
  7.2755   7.2865   7.2944   7.3144   7.3202   7.3313   7.3350   7.3410
  7.3691   7.4023   7.4153   7.4337   7.4682   7.4830   7.5475   7.6269
  7.6525   7.7211   7.7482   7.7855   7.7875   7.8372   7.8950   7.9091
  8.0736   8.1496  24.3970  24.7185  24.7910  24.8373  25.2354  50.4578
 50.5785  50.6001  50.6118  50.6150  50.6895
 --------------------------------------------------------------
 
          Ground-State Mulliken Net Atomic Charges

     Atom                 Charge (a.u.)    Spin (a.u.)
  --------------------------------------------------------
      1 C                    -0.284112       0.008050
      2 O                    -0.416956       0.003452
      3 C                    -0.375528       0.002715
      4 O                    -0.367604      -0.000864
      5 O                     0.103626       0.313669
      6 O                    -0.215911       0.671446
      7 C                    -0.019061       0.004978
      8 C                    -0.053054      -0.002286
      9 C                    -0.267600      -0.000973
     10 O                    -0.432520       0.000087
     11 O                    -0.429433      -0.000060
     12 H                     0.266247      -0.000895
     13 H                     0.224269       0.000795
     14 H                     0.333466      -0.000460
     15 H                     0.374638       0.000209
     16 H                     0.298634       0.000085
     17 H                     0.285267       0.000036
     18 H                     0.306191       0.000101
     19 H                     0.335910      -0.000052
     20 H                     0.333532      -0.000035
  --------------------------------------------------------
  Sum of atomic charges =    -0.000000
  Sum of spin   charges =     1.000000

 -----------------------------------------------------------------
                    Cartesian Multipole Moments
 -----------------------------------------------------------------
    Charge (ESU x 10^10)
                -0.0000
    Dipole Moment (Debye)
         X      -3.2873      Y       0.4553      Z       0.3464
       Tot       3.3367
    Quadrupole Moments (Debye-Ang)
        XX     -89.4985     XY       4.4316     YY     -75.0711
        XZ     -11.3629     YZ       1.9680     ZZ     -59.2388
    Octopole Moments (Debye-Ang^2)
       XXX    -791.3728    XXY      54.4293    XYY    -239.7644
       YYY     -18.2176    XXZ    -113.2215    XYZ       2.9797
       YYZ     -22.3940    XZZ    -222.5259    YZZ     -23.4272
       ZZZ     -50.5812
    Hexadecapole Moments (Debye-Ang^3)
      XXXX   -6557.9158   XXXY     392.9500   XXYY   -1114.7368
      XYYY    -132.4865   YYYY    -437.3801   XXXZ    -955.6049
      XXYZ      -8.3004   XYYZ    -141.3566   YYYZ      38.2552
      XXZZ   -1155.8308   XYZZ     -83.9316   YYZZ    -158.6064
      XZZZ    -323.6673   YZZZ      30.9019   ZZZZ    -444.7890
 -----------------------------------------------------------------
 Calculating analytic gradient of the SCF energy
 Gradient of CDS energy
            1           2           3           4           5           6
    1  -0.0011381   0.0004113   0.0013613  -0.0014742   0.0000117   0.0000252
    2  -0.0004020   0.0005145  -0.0018595   0.0020984  -0.0000456   0.0000970
    3  -0.0000122  -0.0002897  -0.0019542   0.0019693  -0.0000870   0.0000459
            7           8           9          10          11          12
    1  -0.0001568   0.0000441   0.0028314  -0.0025808  -0.0000080   0.0002410
    2   0.0000381  -0.0000537   0.0018020  -0.0017584   0.0001686   0.0001432
    3   0.0001741   0.0002928   0.0010078  -0.0012339   0.0002177   0.0002198
           13          14          15          16          17          18
    1   0.0002141  -0.0002154   0.0000870  -0.0000848   0.0001260  -0.0002090
    2  -0.0000109  -0.0003112  -0.0002516   0.0000157   0.0000273  -0.0000789
    3  -0.0001636   0.0003387  -0.0003921   0.0000531   0.0001768  -0.0000659
           19          20
    1   0.0004454   0.0000686
    2   0.0002518  -0.0003848
    3  -0.0000590  -0.0002385
 Gradient of SCF Energy
            1           2           3           4           5           6
    1   0.0093372  -0.0010424   0.0015842   0.0018915  -0.0013313  -0.0000671
    2  -0.0136732  -0.0033945   0.0036658  -0.0039520  -0.0005758   0.0039288
    3   0.0026580  -0.0200431  -0.0042311   0.0138742   0.0024929  -0.0033429
            7           8           9          10          11          12
    1   0.0057427   0.0046824  -0.0017013  -0.0040774   0.0095537  -0.0048834
    2   0.0014751   0.0021900  -0.0049720  -0.0020458  -0.0011133   0.0080447
    3  -0.0033686  -0.0091262   0.0041009   0.0110949   0.0058185   0.0084634
           13          14          15          16          17          18
    1  -0.0025340   0.0012776  -0.0056002  -0.0104080  -0.0015320  -0.0007628
    2   0.0025501   0.0033426  -0.0002547  -0.0012432   0.0003202   0.0029127
    3  -0.0094325   0.0193166  -0.0141608   0.0117131   0.0032639  -0.0043439
           19          20
    1   0.0055156  -0.0056448
    2   0.0031380  -0.0003437
    3  -0.0094422  -0.0053051
 Max gradient component =       2.004E-02
 RMS gradient           =       6.837E-03
 Computing fast CPCM-SWIG gradient
 Updating gradient with PCM contributions...
 -- total gradient after adding PCM contribution --
---------------------------------------------------
  Atom         X              Y              Z     
---------------------------------------------------
   1       0.000436      -0.000317      -0.000608
   2      -0.000117      -0.000080      -0.000110
   3       0.000356       0.001588       0.001440
   4      -0.001329      -0.002429       0.000101
   5       0.000050      -0.000321       0.001518
   6      -0.000966       0.000924      -0.002570
   7      -0.000636      -0.000913       0.000992
   8      -0.000486       0.000101       0.000576
   9       0.000659      -0.001563      -0.000421
  10      -0.000325       0.000656       0.000068
  11       0.002543       0.000476       0.000937
  12      -0.000024      -0.000093      -0.000059
  13       0.000108       0.000560      -0.000369
  14       0.000066      -0.000249       0.000745
  15       0.000178       0.000660      -0.001267
  16       0.000133      -0.000026      -0.000093
  17      -0.000224       0.000609      -0.000103
  18       0.000111       0.000647       0.000312
  19       0.000792      -0.000271      -0.000401
  20      -0.001324       0.000043      -0.000690
---------------------------------------------------
 Number of fixed atoms: 0
 Gradient time:  CPU 429.50 s  wall 36.74 s
 Geometry Optimization Parameters
   NAtoms,    NIC,     NZ,  NCons,   NDum,   NFix, NCnnct, MaxDiis
       20     128       0       0       0       0       0       0

 Cartesian Hessian Update
 Hessian updated using BFGS update


** GEOMETRY OPTIMIZATION IN DELOCALIZED INTERNAL COORDINATES **
   Searching for a Minimum

   Optimization Cycle:   2

                       Coordinates (Angstroms)
     ATOM                X               Y               Z
      1  C         0.8622349978   -0.1614334906    0.1683626373
      2  O         0.5522986731   -1.4557759679    0.6505103071
      3  C         2.3708910789    0.0606781257    0.1250271875
      4  O         3.0140383876   -0.8321499582   -0.7167983492
      5  O         2.5417034797    1.4549343132   -0.4075189695
      6  O         2.2549052681    1.5198995583   -1.6776118577
      7  C         3.0165085565    0.0766507329    1.4804117630
      8  C         4.3197382913    0.1929753839    1.6953298454
      9  C         5.3880936310    0.2881057037    0.6379487224
     10  O         6.4798721724    0.9553262663    1.2158175857
     11  O         5.8318943704   -1.0047152350    0.2469913981
     12  H         0.4021558554    0.6162753069    0.7781289565
     13  H         0.4780052839   -0.0850880835   -0.8486889859
     14  H         0.6014118216   -1.4528902782    1.6132585658
     15  H         2.5739756979   -0.8213288299   -1.5802063643
     16  H         2.3419096683    0.0012194359    2.3230062297
     17  H         4.6870999324    0.2004358051    2.7152990372
     18  H         5.0409543148    0.8311836914   -0.2420850860
     19  H         7.1183424920    1.1466935336    0.5177576605
     20  H         5.1218860273   -1.3814610137   -0.2935998835
   Point Group: c1    Number of degrees of freedom:    54


   Energy is   -647.176692787

 Hessian updated using BFGS update

 52 Hessian modes will be used to form the next step
  Hessian Eigenvalues:
     0.002192    0.005382    0.008024    0.008889    0.012890    0.013598
     0.014703    0.016556    0.017927    0.018828    0.031660    0.051370
     0.054805    0.061282    0.069857    0.074161    0.079228    0.093451
     0.102780    0.113081    0.138363    0.146703    0.159886    0.159998
     0.161578    0.183440    0.186395    0.191174    0.201606    0.219120
     0.220304    0.238804    0.279462    0.297293    0.304372    0.318245
     0.320291    0.340924    0.342302    0.344781    0.350353    0.358554
     0.423157    0.431985    0.449263    0.465403    0.492199    0.522621
     0.528245    0.531347    0.579863    0.631416

 Minimum search - taking simple RFO step
 Searching for Lamda that Minimizes Along All modes
 Value Taken    Lamda =  -0.00057099
 Step Taken.  Stepsize is  0.243492

                             Maximum     Tolerance    Cnvgd?
         Gradient           0.005671      0.000300      NO
         Displacement       0.132021      0.001200      NO
         Energy change     -0.000701      0.000001      NO


 New Cartesian Coordinates Obtained by Inverse Iteration

 Displacement from previous Coordinates is:  0.359365
 ----------------------------------------------------------------
             Standard Nuclear Orientation (Angstroms)
    I     Atom           X                Y                Z
 ----------------------------------------------------------------
    1      C       0.8667989955    -0.1758542374     0.1704344639
    2      O       0.5799405278    -1.4744230139     0.6540490994
    3      C       2.3701505679     0.0782207567     0.1331439892
    4      O       3.0444350098    -0.7901613531    -0.7064346279
    5      O       2.5173703356     1.4779074056    -0.3873768870
    6      O       2.3832633114     1.5233521662    -1.6788232174
    7      C       3.0094845896     0.1011951458     1.4880029798
    8      C       4.3108893390     0.2034352750     1.6976972698
    9      C       5.3640909679     0.2874291041     0.6301683686
   10      O       6.4729074642     0.9358657447     1.1956852091
   11      O       5.7816161004    -1.0121053400     0.2308039730
   12      H       0.3889444860     0.5906047122     0.7774155987
   13      H       0.4841343653    -0.1123272513    -0.8456993442
   14      H       0.6193309506    -1.4731861487     1.6140496387
   15      H       2.5985018742    -0.8154286759    -1.5625976108
   16      H       2.3360310976     0.0220647409     2.3289964782
   17      H       4.6871046600     0.1979380196     2.7128493582
   18      H       5.0161232930     0.8332594268    -0.2450135643
   19      H       7.0982487107     1.1399470637     0.4936483403
   20      H       5.0685533537    -1.3881985411    -0.2996591152
 ----------------------------------------------------------------
 Nuclear Repulsion Energy =         685.74153287 hartrees
 There are       44 alpha and       43 beta electrons
 Discretize the solute cavity surface with Lebedev spheres
	Using 110 Lebedev grid points for each H atom
	Using 194 Lebedev grid points for other atoms
	Atomic van der Waals radii will be scaled by 1.20
 Remove points where switching function is < 1.0e-08
 Keep 1565 surface tesserae and discard 1559 interior tesserae
 Molecular Surface Area = 174.814 Angst**2
 Applying Cartesian multipole field
    Component          Value
    ---------          -----
     (2,0,0)        1.00000E-12
     (0,2,0)        2.00000E-11
     (0,0,2)       -3.00000E-11
 Nucleus-field energy     =     0.0000000002 hartrees
 Requested basis set is 6-311++G(2df,2p)
 There are 142 shells and 464 basis functions
 A cutoff of  1.0D-12 yielded   8773 shell pairs
 There are     92864 function pairs (    115315 Cartesian)
 Smallest overlap matrix eigenvalue = 3.24E-06
 Guess MOs from SCF MO coefficient file

 -----------------------------------------------------------------------
  General SCF calculation program by
  Eric Jon Sundstrom, Paul Horn, Yuezhi Mao, Dmitri Zuev, Alec White,
  David Stuck, Shaama M.S., Shane Yost, Joonho Lee, David Small,
  Daniel Levine, Susi Lehtola, Hugh Burton, Evgeny Epifanovsky,
  Bang C. Huynh
 -----------------------------------------------------------------------
 Exchange:     0.1500 Hartree-Fock + 1.0000 wB97M-V + LR-HF
 Correlation:  1.0000 wB97M-V
 Using SG-2 standard quadrature grid
 Nonlocal Correlation:  VV10 with C = 0.0100 and b = 6.00 and scale = 1.00000
 Grid used for NLC:  SG-1 standard quadrature
 
 Citation of the SMD model:
 Marenich, A.V.; Cramer, C.J.; Truhlar, D.G.
 J. Phys. Chem. B 2009, 113, 6378-6396.
 iSolventCode=           1
 Solvent: water                                                           
 
 vradii
            1           2           3           4           5           6
    1   1.8500000   1.5200000   1.8500000   1.5200000   1.5200000   1.5200000
            7           8           9          10          11          12
    1   1.8500000   1.8500000   1.8500000   1.5200000   1.5200000   1.2000000
           13          14          15          16          17          18
    1   1.2000000   1.2000000   1.2000000   1.2000000   1.2000000   1.2000000
           19          20
    1   1.2000000   1.2000000
 -------------------------------------------------------
 OpenMP BLAS3 based DFT computing Module                
 Release: version 1.0, May 2013, Q-Chem Inc. Pittsburgh 
 -------------------------------------------------------
 A unrestricted SCF calculation will be
 performed using Roothaan-Hall, DIIS, GDM
 SCF converges when RMS gradient is below 1.0e-07
 ---------------------------------------
  Cycle       Energy         DIIS error
 ---------------------------------------
    1    -647.1226103060      3.23e-04  Roothaan Step
 ---------------------------------------
  Cycle       Energy         DIIS error
 ---------------------------------------
    1    -647.1728130166      2.34e-04  
    2    -647.1792979783      1.86e-04  Done DIIS. Switching to GDM
 ---------------------------------------
  Cycle       Energy        RMS Gradient
 ---------------------------------------
    1    -647.1792979783      9.38e-03   Normal BFGS step
    2    -647.1792610286      1.36e-02  Line search: overstep
    3    -647.1819839665      4.17e-03   Normal BFGS step
    4    -647.1822701474      3.19e-03   Normal BFGS step
    5    -647.1823494980      2.04e-03   Normal BFGS step
    6    -647.1823880095      1.86e-03   Normal BFGS step
    7    -647.1824041515      1.65e-03   Normal BFGS step
    8    -647.1824201060      1.09e-03   Normal BFGS step
    9    -647.1824276396      6.69e-04   Normal BFGS step
   10    -647.1824313676      4.31e-04   Normal BFGS step
   11    -647.1824325938      1.00e-04   Normal BFGS step
   12    -647.1824327596      2.96e-05   Normal BFGS step
   13    -647.1824327795      2.04e-05   Normal BFGS step
   14    -647.1824327864      1.38e-05   Normal BFGS step
   15    -647.1824327879      6.15e-06   Normal BFGS step
   16    -647.1824327884      1.37e-06   Normal BFGS step
   17    -647.1824327885      9.12e-07   Normal BFGS step
   18    -647.1824327885      3.90e-07   Normal BFGS step
   19    -647.1824327885      1.22e-07   Normal BFGS step
   20    -647.1824327884      4.55e-08  Convergence criterion met
 ---------------------------------------
 SCF time:   CPU 3396.50s  wall 233.00s 
<S^2> =          0.754065172
(3)  G-ENP(liq) elect-nuc-pol free energy of system     -647.182432788 a.u.
(4)  G-CDS(liq) cavity-dispersion-solvent structure 
     free energy                                                3.5797 kcal/mol
(6)  G-S(liq) free energy of system                     -647.176728158 a.u.
 SCF   energy in the final basis set =     -647.1767281576
 Total energy in the final basis set =     -647.1767281576
 
 --------------------------------------------------------------
 
                    Orbital Energies (a.u.)
 --------------------------------------------------------------
 
 Alpha MOs
 -- Occupied --
-19.4636 -19.4210 -19.3671 -19.3484 -19.3472 -19.3399 -10.4740 -10.4496
-10.3967 -10.3580 -10.3564  -1.3501  -1.2043  -1.1985  -1.1647  -1.1337
 -1.0176  -0.9275  -0.8635  -0.8066  -0.7570  -0.6896  -0.6872  -0.6692
 -0.6476  -0.6383  -0.6178  -0.6138  -0.5957  -0.5783  -0.5552  -0.5367
 -0.5145  -0.5044  -0.4812  -0.4748  -0.4572  -0.4526  -0.4289  -0.4202
 -0.4071  -0.3953  -0.3817  -0.3757
 -- Virtual --
  0.0252   0.0350   0.0382   0.0473   0.0484   0.0572   0.0629   0.0726
  0.0800   0.0937   0.1015   0.1085   0.1221   0.1272   0.1291   0.1399
  0.1478   0.1517   0.1564   0.1644   0.1703   0.1710   0.1757   0.1791
  0.1851   0.1868   0.1953   0.2057   0.2227   0.2308   0.2324   0.2356
  0.2484   0.2535   0.2593   0.2667   0.2761   0.2795   0.2832   0.2923
  0.2991   0.3003   0.3051   0.3123   0.3183   0.3246   0.3277   0.3351
  0.3449   0.3489   0.3548   0.3573   0.3596   0.3689   0.3709   0.3779
  0.3893   0.3910   0.3977   0.4054   0.4095   0.4132   0.4254   0.4270
  0.4396   0.4437   0.4569   0.4706   0.4836   0.4993   0.5049   0.5098
  0.5268   0.5708   0.5746   0.5984   0.6016   0.6080   0.6277   0.6342
  0.6392   0.6499   0.6544   0.6648   0.6783   0.6853   0.6877   0.7008
  0.7126   0.7159   0.7237   0.7332   0.7410   0.7602   0.7760   0.7907
  0.8003   0.8092   0.8384   0.8389   0.8583   0.8638   0.8782   0.8905
  0.9161   0.9243   0.9616   0.9753   0.9962   1.0110   1.0140   1.0289
  1.0523   1.0684   1.0782   1.0932   1.1028   1.1080   1.1214   1.1331
  1.1352   1.1461   1.1548   1.1708   1.1750   1.1835   1.1926   1.1989
  1.2091   1.2226   1.2286   1.2382   1.2470   1.2476   1.2486   1.2672
  1.2756   1.2846   1.2973   1.3051   1.3203   1.3451   1.3571   1.3684
  1.3880   1.4061   1.4168   1.4197   1.4260   1.4412   1.4585   1.4595
  1.4805   1.4946   1.5248   1.5290   1.5360   1.5538   1.5628   1.5727
  1.5778   1.5921   1.6029   1.6210   1.6263   1.6315   1.6580   1.6757
  1.6863   1.7058   1.7286   1.7351   1.7551   1.7619   1.7983   1.8046
  1.8330   1.8423   1.8823   1.9000   1.9282   1.9523   1.9927   1.9954
  2.0309   2.0477   2.0842   2.1196   2.1703   2.1825   2.1912   2.2048
  2.2375   2.2446   2.2929   2.3163   2.3311   2.3480   2.3543   2.3887
  2.4012   2.4323   2.4341   2.4586   2.4965   2.5259   2.5611   2.6319
  2.6612   2.7067   2.7381   2.7537   2.7885   2.8017   2.8172   2.8362
  2.8583   2.8745   2.8969   2.9159   2.9269   2.9506   2.9654   2.9835
  3.0032   3.0349   3.0726   3.0919   3.1254   3.1634   3.1915   3.2030
  3.2415   3.2476   3.2695   3.3049   3.3080   3.3246   3.3412   3.3557
  3.3770   3.4041   3.4159   3.4446   3.4570   3.4744   3.4887   3.4945
  3.5010   3.5170   3.5644   3.5795   3.5827   3.6163   3.6326   3.6464
  3.6730   3.7108   3.7320   3.7398   3.7434   3.7632   3.7787   3.7971
  3.8028   3.8258   3.8354   3.8496   3.8612   3.8682   3.8913   3.9123
  3.9160   3.9311   3.9509   3.9583   3.9735   4.0033   4.0420   4.0540
  4.0974   4.1334   4.1460   4.1838   4.1944   4.2028   4.2264   4.2400
  4.2683   4.2896   4.2972   4.3133   4.3433   4.3569   4.3907   4.4057
  4.4160   4.4526   4.4560   4.4694   4.4877   4.5262   4.5537   4.5812
  4.6120   4.6209   4.6516   4.6732   4.7373   4.7903   4.8253   4.8628
  4.8810   4.9217   4.9404   4.9912   5.0745   5.0879   5.0997   5.1122
  5.1771   5.2087   5.2359   5.2397   5.2583   5.2708   5.2837   5.2906
  5.2947   5.2993   5.3108   5.3159   5.3321   5.3470   5.3603   5.3790
  5.4148   5.4355   5.4563   5.4684   5.4826   5.5014   5.5382   5.5427
  5.5647   5.5752   5.5995   5.6003   5.6200   5.6400   5.6659   5.6984
  5.7087   5.7317   5.7535   5.7647   5.8180   5.8687   5.9221   5.9346
  6.0007   6.0109   6.0260   6.0431   6.0769   6.1360   6.1492   6.3337
  6.4896   6.5551   6.6022   6.6443   6.7381   6.7641   6.8588   6.9016
  6.9745   7.0659   7.0975   7.1069   7.1389   7.1451   7.2043   7.2625
  7.2878   7.3004   7.3176   7.3215   7.3358   7.3391   7.3542   7.3723
  7.4043   7.4216   7.4342   7.4508   7.4625   7.5311   7.6360   7.6554
  7.7279   7.7476   7.7857   7.7961   7.8343   7.8954   7.9088   8.0653
  8.1452  24.4039  24.7306  24.7997  24.8475  25.2589  50.4525  50.5795
 50.6017  50.6135  50.6220  50.6912
 
 Beta MOs
 -- Occupied --
-19.4531 -19.4023 -19.3670 -19.3484 -19.3471 -19.3399 -10.4744 -10.4496
-10.3964 -10.3581 -10.3563  -1.3245  -1.2035  -1.1975  -1.1645  -1.1337
 -0.9918  -0.9204  -0.8563  -0.8060  -0.7539  -0.6861  -0.6810  -0.6646
 -0.6460  -0.6272  -0.6130  -0.6003  -0.5731  -0.5602  -0.5459  -0.5297
 -0.5092  -0.4974  -0.4797  -0.4739  -0.4515  -0.4498  -0.4284  -0.4085
 -0.3949  -0.3830  -0.3738
 -- Virtual --
 -0.0324   0.0253   0.0353   0.0386   0.0481   0.0487   0.0575   0.0633
  0.0728   0.0803   0.0940   0.1022   0.1095   0.1223   0.1274   0.1295
  0.1401   0.1482   0.1523   0.1572   0.1649   0.1708   0.1715   0.1764
  0.1800   0.1852   0.1882   0.1964   0.2061   0.2239   0.2318   0.2365
  0.2372   0.2496   0.2554   0.2613   0.2681   0.2781   0.2827   0.2862
  0.2941   0.3004   0.3015   0.3062   0.3128   0.3199   0.3254   0.3291
  0.3362   0.3456   0.3495   0.3556   0.3585   0.3608   0.3693   0.3723
  0.3783   0.3898   0.3914   0.3991   0.4058   0.4100   0.4138   0.4266
  0.4286   0.4400   0.4447   0.4581   0.4716   0.4850   0.4998   0.5056
  0.5110   0.5274   0.5710   0.5748   0.5987   0.6017   0.6083   0.6280
  0.6350   0.6395   0.6505   0.6545   0.6651   0.6788   0.6856   0.6884
  0.7011   0.7127   0.7165   0.7238   0.7335   0.7415   0.7605   0.7762
  0.7917   0.8007   0.8095   0.8388   0.8397   0.8587   0.8643   0.8791
  0.8908   0.9163   0.9247   0.9627   0.9758   0.9979   1.0124   1.0148
  1.0303   1.0545   1.0698   1.0789   1.0943   1.1038   1.1084   1.1241
  1.1343   1.1373   1.1493   1.1560   1.1734   1.1789   1.1897   1.1973
  1.2024   1.2121   1.2268   1.2356   1.2424   1.2480   1.2495   1.2526
  1.2687   1.2828   1.2900   1.2993   1.3072   1.3247   1.3478   1.3598
  1.3709   1.3893   1.4070   1.4181   1.4212   1.4267   1.4421   1.4592
  1.4680   1.4827   1.4961   1.5255   1.5328   1.5380   1.5592   1.5641
  1.5749   1.5821   1.5941   1.6039   1.6262   1.6315   1.6327   1.6604
  1.6838   1.6879   1.7103   1.7310   1.7418   1.7585   1.7805   1.8002
  1.8071   1.8380   1.8473   1.8877   1.9035   1.9326   1.9566   1.9936
  1.9978   2.0331   2.0526   2.0854   2.1211   2.1716   2.1844   2.1967
  2.2056   2.2433   2.2487   2.3053   2.3225   2.3323   2.3509   2.3582
  2.3908   2.4015   2.4325   2.4363   2.4619   2.4984   2.5278   2.5631
  2.6322   2.6655   2.7103   2.7389   2.7544   2.7891   2.8030   2.8174
  2.8369   2.8589   2.8749   2.8977   2.9162   2.9272   2.9510   2.9657
  2.9844   3.0032   3.0350   3.0732   3.0926   3.1262   3.1640   3.1920
  3.2035   3.2417   3.2480   3.2700   3.3053   3.3084   3.3247   3.3413
  3.3558   3.3775   3.4045   3.4163   3.4448   3.4572   3.4745   3.4894
  3.4947   3.5015   3.5172   3.5647   3.5799   3.5830   3.6166   3.6331
  3.6467   3.6734   3.7113   3.7323   3.7402   3.7436   3.7633   3.7791
  3.7973   3.8032   3.8259   3.8360   3.8497   3.8615   3.8686   3.8916
  3.9131   3.9163   3.9312   3.9510   3.9586   3.9737   4.0037   4.0425
  4.0543   4.0977   4.1339   4.1465   4.1842   4.1948   4.2029   4.2265
  4.2403   4.2693   4.2898   4.2973   4.3134   4.3436   4.3579   4.3911
  4.4071   4.4163   4.4531   4.4562   4.4705   4.4884   4.5284   4.5555
  4.5843   4.6153   4.6266   4.6634   4.6814   4.7569   4.7918   4.8352
  4.8780   4.8831   4.9236   4.9483   5.0039   5.0835   5.1352   5.1443
  5.1865   5.2089   5.2169   5.2396   5.2510   5.2736   5.2856   5.2917
  5.2952   5.2981   5.3043   5.3146   5.3282   5.3462   5.3610   5.3678
  5.3864   5.4234   5.4367   5.4609   5.4761   5.4880   5.5043   5.5440
  5.5462   5.5690   5.5777   5.6009   5.6053   5.6314   5.6420   5.6670
  5.7008   5.7104   5.7334   5.7549   5.7768   5.8216   5.8762   5.9223
  5.9376   6.0008   6.0113   6.0278   6.0477   6.0771   6.1364   6.1498
  6.3449   6.5364   6.5556   6.6096   6.6509   6.7413   6.7644   6.9425
  6.9801   7.0323   7.0660   7.1071   7.1176   7.1403   7.1716   7.2203
  7.2882   7.2886   7.3052   7.3185   7.3223   7.3392   7.3413   7.3562
  7.3755   7.4104   7.4279   7.4491   7.4669   7.4952   7.5439   7.6361
  7.6563   7.7311   7.7482   7.7869   7.7962   7.8390   7.9023   7.9090
  8.0800   8.1632  24.4039  24.7306  24.7997  24.8474  25.2589  50.4654
 50.5856  50.6025  50.6148  50.6222  50.6924
 --------------------------------------------------------------
 
          Ground-State Mulliken Net Atomic Charges

     Atom                 Charge (a.u.)    Spin (a.u.)
  --------------------------------------------------------
      1 C                    -0.301863       0.006610
      2 O                    -0.414884       0.003457
      3 C                    -0.336843       0.004727
      4 O                    -0.363162      -0.001742
      5 O                     0.108114       0.317259
      6 O                    -0.227053       0.666834
      7 C                    -0.014374       0.012031
      8 C                    -0.058166      -0.007050
      9 C                    -0.272331      -0.000123
     10 O                    -0.435560       0.000093
     11 O                    -0.434117      -0.000088
     12 H                     0.265775      -0.000639
     13 H                     0.223979       0.000222
     14 H                     0.332549      -0.000505
     15 H                     0.373796      -0.000605
     16 H                     0.298347       0.000358
     17 H                     0.287044       0.000003
     18 H                     0.298544      -0.000816
     19 H                     0.334585      -0.000042
     20 H                     0.335622       0.000018
  --------------------------------------------------------
  Sum of atomic charges =    -0.000000
  Sum of spin   charges =     1.000000

 -----------------------------------------------------------------
                    Cartesian Multipole Moments
 -----------------------------------------------------------------
    Charge (ESU x 10^10)
                -0.0000
    Dipole Moment (Debye)
         X      -3.5751      Y       0.3845      Z       0.3720
       Tot       3.6149
    Quadrupole Moments (Debye-Ang)
        XX     -90.9488     XY       4.3815     YY     -74.9650
        XZ     -10.9700     YZ       2.0549     ZZ     -59.2803
    Octopole Moments (Debye-Ang^2)
       XXX    -799.8179    XXY      54.4651    XYY    -239.9025
       YYY     -19.3698    XXZ    -111.1506    XYZ       3.5899
       YYZ     -22.3424    XZZ    -223.0384    YZZ     -23.8928
       ZZZ     -50.0188
    Hexadecapole Moments (Debye-Ang^3)
      XXXX   -6582.9072   XXXY     390.8372   XXYY   -1111.6381
      XYYY    -137.3636   YYYY    -439.6097   XXXZ    -939.4577
      XXYZ      -6.3520   XYYZ    -137.7794   YYYZ      38.9425
      XXZZ   -1151.8783   XYZZ     -86.2828   YYZZ    -158.2219
      XZZZ    -313.1671   YZZZ      31.3841   ZZZZ    -443.0804
 -----------------------------------------------------------------
 Calculating analytic gradient of the SCF energy
 Gradient of CDS energy
            1           2           3           4           5           6
    1  -0.0011507   0.0004180   0.0013376  -0.0014446   0.0000318   0.0000140
    2  -0.0004774   0.0006028  -0.0016885   0.0019404  -0.0000462   0.0000992
    3   0.0000082  -0.0003185  -0.0018327   0.0018403  -0.0000856   0.0000528
            7           8           9          10          11          12
    1  -0.0001573   0.0000441   0.0029434  -0.0026980  -0.0000024   0.0002389
    2   0.0000501  -0.0000550   0.0018164  -0.0017657   0.0001684   0.0001460
    3   0.0001766   0.0002956   0.0010128  -0.0012424   0.0002163   0.0002201
           13          14          15          16          17          18
    1   0.0002111  -0.0002130   0.0000856  -0.0000871   0.0001300  -0.0002094
    2  -0.0000286  -0.0003154  -0.0002572   0.0000143   0.0000240  -0.0000903
    3  -0.0001624   0.0003383  -0.0003846   0.0000509   0.0001732  -0.0000607
           19          20
    1   0.0004453   0.0000625
    2   0.0002514  -0.0003889
    3  -0.0000635  -0.0002348
 Gradient of SCF Energy
            1           2           3           4           5           6
    1   0.0090313  -0.0007791   0.0001440   0.0035332  -0.0015475   0.0022900
    2  -0.0126520  -0.0020699   0.0041196  -0.0007930  -0.0014846   0.0024306
    3   0.0032588  -0.0167732  -0.0046454   0.0115624   0.0013986  -0.0000441
            7           8           9          10          11          12
    1   0.0090119   0.0019701  -0.0033610  -0.0023172   0.0042021  -0.0048223
    2   0.0030521   0.0022607  -0.0033985  -0.0019680  -0.0016793   0.0069770
    3  -0.0050228  -0.0094314   0.0047827   0.0084770   0.0029267   0.0082152
           13          14          15          16          17          18
    1  -0.0024714   0.0006972  -0.0048398  -0.0096356  -0.0018880  -0.0003470
    2   0.0018263   0.0027450  -0.0014521  -0.0016220  -0.0002010   0.0015877
    3  -0.0084460   0.0163122  -0.0116082   0.0106676   0.0022300  -0.0032756
           19          20
    1   0.0035726  -0.0024436
    2   0.0029361  -0.0006146
    3  -0.0069049  -0.0036795
 Max gradient component =       1.677E-02
 RMS gradient           =       5.896E-03
 Computing fast CPCM-SWIG gradient
 Updating gradient with PCM contributions...
 -- total gradient after adding PCM contribution --
---------------------------------------------------
  Atom         X              Y              Z     
---------------------------------------------------
   1      -0.000443       0.000415      -0.000864
   2      -0.000113       0.001003       0.003174
   3      -0.000908       0.002154       0.000911
   4      -0.000103      -0.000375      -0.002199
   5      -0.000126      -0.001216      -0.000028
   6       0.000916      -0.000430       0.000971
   7       0.002446       0.000861      -0.000098
   8      -0.002665      -0.000066      -0.000124
   9      -0.000988       0.000098       0.000754
  10       0.001085       0.000944      -0.002507
  11      -0.002736       0.000120      -0.001614
  12       0.000341      -0.001193      -0.000434
  13       0.000408      -0.000123       0.001353
  14      -0.000235      -0.000797      -0.002359
  15       0.001431       0.000271       0.001466
  16       0.000934      -0.000264      -0.001058
  17      -0.000525       0.000100      -0.000997
  18       0.000392      -0.000622       0.000938
  19      -0.000859      -0.000546       0.002043
  20       0.001749      -0.000334       0.000672
---------------------------------------------------
 Number of fixed atoms: 0
 Gradient time:  CPU 430.88 s  wall 35.89 s
 Geometry Optimization Parameters
   NAtoms,    NIC,     NZ,  NCons,   NDum,   NFix, NCnnct, MaxDiis
       20     128       0       0       0       0       0       0

 Cartesian Hessian Update
 Hessian updated using BFGS update


** GEOMETRY OPTIMIZATION IN DELOCALIZED INTERNAL COORDINATES **
   Searching for a Minimum

   Optimization Cycle:   3

                       Coordinates (Angstroms)
     ATOM                X               Y               Z
      1  C         0.8667989955   -0.1758542374    0.1704344639
      2  O         0.5799405278   -1.4744230139    0.6540490994
      3  C         2.3701505679    0.0782207567    0.1331439892
      4  O         3.0444350098   -0.7901613531   -0.7064346279
      5  O         2.5173703356    1.4779074056   -0.3873768870
[...]
    1   0.0002165  -0.0002144   0.0000817  -0.0000894   0.0001303  -0.0002108
    2  -0.0000217  -0.0003150  -0.0002597   0.0000152   0.0000234  -0.0000907
    3  -0.0001651   0.0003367  -0.0003798   0.0000522   0.0001753  -0.0000626
           19          20
    1   0.0004340   0.0000653
    2   0.0002682  -0.0003897
    3  -0.0000645  -0.0002317
 Gradient of SCF Energy
            1           2           3           4           5           6
    1   0.0093935  -0.0007411   0.0010004   0.0044266  -0.0014541   0.0012302
    2  -0.0132792  -0.0031099   0.0023297   0.0007470  -0.0004114   0.0028761
    3   0.0037440  -0.0198501  -0.0054208   0.0134033   0.0010342  -0.0007586
            7           8           9          10          11          12
    1   0.0067869   0.0048537  -0.0027459  -0.0032718   0.0071519  -0.0051568
    2   0.0019489   0.0020088  -0.0033989  -0.0035270  -0.0015605   0.0081334
    3  -0.0048427  -0.0093626   0.0040100   0.0112055   0.0046204   0.0086770
           13          14          15          16          17          18
    1  -0.0028478   0.0009315  -0.0069399  -0.0106283  -0.0013460  -0.0006505
    2   0.0018256   0.0035744  -0.0024324  -0.0012406  -0.0003383   0.0023398
    3  -0.0096026   0.0187401  -0.0128010   0.0117206   0.0032495  -0.0042968
           19          20
    1   0.0043092  -0.0043018
    2   0.0039618  -0.0004473
    3  -0.0091675  -0.0043019
 Max gradient component =       1.985E-02
 RMS gradient           =       6.681E-03
 Computing fast CPCM-SWIG gradient
 Updating gradient with PCM contributions...
 -- total gradient after adding PCM contribution --
---------------------------------------------------
  Atom         X              Y              Z     
---------------------------------------------------
   1      -0.000008      -0.000006      -0.000002
   2       0.000020      -0.000005       0.000011
   3       0.000017      -0.000049      -0.000015
   4      -0.000017       0.000011       0.000001
   5      -0.000005       0.000011       0.000011
   6      -0.000009      -0.000011       0.000005
   7       0.000012       0.000021       0.000006
   8      -0.000003      -0.000017      -0.000008
   9      -0.000015       0.000057      -0.000010
  10      -0.000001       0.000002      -0.000006
  11      -0.000011       0.000004       0.000006
  12       0.000001      -0.000020       0.000003
  13      -0.000002      -0.000009       0.000006
  14       0.000001      -0.000008      -0.000006
  15       0.000008      -0.000002       0.000003
  16       0.000002       0.000007      -0.000005
  17       0.000003      -0.000010      -0.000004
  18      -0.000001      -0.000006       0.000003
  19      -0.000011       0.000018       0.000005
  20       0.000019       0.000012      -0.000004
---------------------------------------------------
 Number of fixed atoms: 0
 Gradient time:  CPU 432.96 s  wall 36.35 s
 Geometry Optimization Parameters
   NAtoms,    NIC,     NZ,  NCons,   NDum,   NFix, NCnnct, MaxDiis
       20     128       0       0       0       0       0       0

 Cartesian Hessian Update
 Hessian updated using BFGS update


** GEOMETRY OPTIMIZATION IN DELOCALIZED INTERNAL COORDINATES **
   Searching for a Minimum

   Optimization Cycle:   9

                       Coordinates (Angstroms)
     ATOM                X               Y               Z
      1  C         0.8711537792   -0.1653790801    0.1616538984
      2  O         0.5791104319   -1.4658626727    0.6375089780
      3  C         2.3763279929    0.0794856133    0.1265123074
      4  O         3.0433694534   -0.7893115927   -0.7150948605
      5  O         2.5298621060    1.4831179094   -0.3922434596
      6  O         2.2877499130    1.5462598702   -1.6686106447
      7  C         3.0157689557    0.0974476707    1.4841060297
      8  C         4.3203899911    0.1901203551    1.6976170372
      9  C         5.3807894865    0.2769660359    0.6353318321
     10  O         6.4807402177    0.9355857937    1.2061411416
     11  O         5.8100246794   -1.0233679727    0.2485789904
     12  H         0.3975180793    0.6039927751    0.7714560439
     13  H         0.4890907950   -0.0946532623   -0.8563807708
     14  H         0.6163495100   -1.4618181612    1.6000755365
     15  H         2.5539263216   -0.8685240211   -1.5456438262
     16  H         2.3382101778    0.0271351058    2.3251113076
     17  H         4.6944927441    0.1777723881    2.7152753499
     18  H         5.0341496748    0.8161968000   -0.2465638062
     19  H         7.0837250028    1.1869597896    0.4970864530
     20  H         5.0951706880   -1.4025883444   -0.2805771376
   Point Group: c1    Number of degrees of freedom:    54


   Energy is   -647.176981503

 Hessian updated using BFGS update

 54 Hessian modes will be used to form the next step
  Hessian Eigenvalues:
     0.004010    0.005410    0.006662    0.007762    0.009547    0.012912
     0.013446    0.015764    0.018031    0.020366    0.035331    0.051685
     0.055421    0.061372    0.070332    0.075008    0.085998    0.094770
     0.110446    0.113612    0.138329    0.158981    0.159932    0.159985
     0.160084    0.160595    0.166570    0.183203    0.190829    0.197092
     0.201507    0.219064    0.222120    0.270735    0.295841    0.306002
     0.317498    0.326815    0.339886    0.342310    0.342502    0.349869
     0.352242    0.410899    0.426659    0.439652    0.456541    0.465465
     0.502519    0.523694    0.528625    0.531293    0.619839    0.645148

 Minimum search - taking simple RFO step
 Searching for Lamda that Minimizes Along All modes
 Value Taken    Lamda =  -0.00000005
 Step Taken.  Stepsize is  0.001625

                             Maximum     Tolerance    Cnvgd?
         Gradient           0.000026      0.000300     YES
         Displacement       0.000573      0.001200     YES
         Energy change     -0.000000      0.000001     YES

 Final energy is   -647.176981502888     


 ******************************
 **  OPTIMIZATION CONVERGED  **
 ******************************

                       Coordinates (Angstroms)
     ATOM                X               Y               Z
      1  C         0.8711537792   -0.1653790801    0.1616538984
      2  O         0.5791104319   -1.4658626727    0.6375089780
      3  C         2.3763279929    0.0794856133    0.1265123074
      4  O         3.0433694534   -0.7893115927   -0.7150948605
      5  O         2.5298621060    1.4831179094   -0.3922434596
      6  O         2.2877499130    1.5462598702   -1.6686106447
      7  C         3.0157689557    0.0974476707    1.4841060297
      8  C         4.3203899911    0.1901203551    1.6976170372
      9  C         5.3807894865    0.2769660359    0.6353318321
     10  O         6.4807402177    0.9355857937    1.2061411416
     11  O         5.8100246794   -1.0233679727    0.2485789904
     12  H         0.3975180793    0.6039927751    0.7714560439
     13  H         0.4890907950   -0.0946532623   -0.8563807708
     14  H         0.6163495100   -1.4618181612    1.6000755365
     15  H         2.5539263216   -0.8685240211   -1.5456438262
     16  H         2.3382101778    0.0271351058    2.3251113076
     17  H         4.6944927441    0.1777723881    2.7152753499
     18  H         5.0341496748    0.8161968000   -0.2465638062
     19  H         7.0837250028    1.1869597896    0.4970864530
     20  H         5.0951706880   -1.4025883444   -0.2805771376

Z-matrix Print:
$molecule
0 2
O 
O  1 1.300661
C  1 1.504282 2 111.389778
O  3 1.381324 1 109.115858 2 47.275330 0
H  4 0.967285 3 109.287509 1 -71.957623 0
C  3 1.500756 1 104.909948 2 165.884039 0
H  6 1.082275 3 115.811987 1 108.807995 0
C  6 1.325221 3 124.474355 1 -71.269433 0
H  8 1.084313 6 119.344780 3 -178.914473 0
C  8 1.503476 6 125.770447 3 -0.728837 0
H  10 1.090261 8 112.076547 6 33.299130 0
O  10 1.403387 8 107.009403 6 154.271459 0
H  12 0.964126 10 108.265825 8 -166.807774 0
O  10 1.422916 8 110.610662 6 -88.755495 0
H  14 0.966866 10 106.508066 8 73.328353 0
C  3 1.525367 1 104.977877 2 -74.026077 0
H  16 1.089665 3 108.302868 1 62.173554 0
H  16 1.090010 3 109.168859 1 -56.305889 0
O  16 1.415269 3 111.031134 1 -179.966306 0
H  19 0.963295 16 108.913480 3 81.394292 0
$end

 
 --------------------------------------------------------------
 
                    Orbital Energies (a.u.)
 --------------------------------------------------------------
 
 Alpha MOs
 -- Occupied --
-19.4626 -19.4207 -19.3677 -19.3490 -19.3476 -19.3406 -10.4743 -10.4501
-10.3970 -10.3588 -10.3574  -1.3482  -1.2045  -1.1990  -1.1645  -1.1339
 -1.0158  -0.9265  -0.8636  -0.8059  -0.7566  -0.6881  -0.6870  -0.6686
 -0.6462  -0.6376  -0.6171  -0.6137  -0.5965  -0.5773  -0.5547  -0.5365
 -0.5145  -0.5044  -0.4813  -0.4754  -0.4573  -0.4545  -0.4281  -0.4195
 -0.4053  -0.3964  -0.3814  -0.3766
 -- Virtual --
  0.0251   0.0350   0.0381   0.0471   0.0482   0.0572   0.0632   0.0723
  0.0801   0.0933   0.1016   0.1087   0.1215   0.1268   0.1296   0.1400
  0.1476   0.1520   0.1562   0.1643   0.1702   0.1712   0.1757   0.1789
  0.1848   0.1854   0.1952   0.2057   0.2211   0.2305   0.2325   0.2355
  0.2483   0.2534   0.2572   0.2662   0.2762   0.2783   0.2826   0.2917
  0.2992   0.2999   0.3051   0.3120   0.3185   0.3254   0.3266   0.3346
  0.3443   0.3476   0.3545   0.3575   0.3600   0.3688   0.3703   0.3773
  0.3882   0.3896   0.3983   0.4044   0.4096   0.4142   0.4236   0.4260
  0.4415   0.4453   0.4578   0.4724   0.4802   0.4978   0.5035   0.5142
  0.5272   0.5701   0.5725   0.5986   0.6018   0.6027   0.6274   0.6315
  0.6399   0.6502   0.6521   0.6609   0.6809   0.6848   0.6867   0.7000
  0.7097   0.7157   0.7225   0.7354   0.7386   0.7628   0.7753   0.7890
  0.7984   0.8098   0.8299   0.8371   0.8591   0.8634   0.8769   0.8876
  0.9180   0.9247   0.9577   0.9736   0.9949   1.0089   1.0169   1.0280
  1.0567   1.0655   1.0768   1.0942   1.1028   1.1064   1.1213   1.1341
  1.1375   1.1457   1.1553   1.1678   1.1742   1.1792   1.1936   1.1970
  1.2093   1.2241   1.2277   1.2377   1.2442   1.2467   1.2497   1.2661
  1.2735   1.2836   1.2941   1.3018   1.3243   1.3391   1.3552   1.3670
  1.3850   1.4041   1.4157   1.4171   1.4233   1.4440   1.4561   1.4616
  1.4783   1.4929   1.5223   1.5252   1.5383   1.5537   1.5626   1.5698
  1.5769   1.5889   1.5989   1.6245   1.6257   1.6325   1.6564   1.6629
  1.6895   1.6978   1.7266   1.7392   1.7533   1.7588   1.7951   1.8004
  1.8240   1.8413   1.8834   1.8959   1.9259   1.9615   1.9902   1.9973
  2.0243   2.0477   2.0804   2.1163   2.1608   2.1783   2.1912   2.2061
  2.2343   2.2448   2.2928   2.3152   2.3308   2.3476   2.3522   2.3852
  2.4015   2.4287   2.4335   2.4552   2.4919   2.5218   2.5631   2.6304
  2.6659   2.6980   2.7406   2.7571   2.7841   2.7999   2.8137   2.8364
  2.8587   2.8747   2.8927   2.9099   2.9226   2.9504   2.9634   2.9838
  3.0036   3.0333   3.0740   3.0923   3.1251   3.1694   3.1900   3.2081
  3.2409   3.2469   3.2716   3.3012   3.3133   3.3199   3.3413   3.3527
  3.3713   3.4037   3.4151   3.4450   3.4575   3.4736   3.4840   3.4956
  3.4971   3.5134   3.5634   3.5787   3.5863   3.6104   3.6304   3.6470
  3.6674   3.7113   3.7299   3.7356   3.7450   3.7640   3.7805   3.7950
  3.8035   3.8232   3.8349   3.8504   3.8595   3.8660   3.8917   3.9087
  3.9131   3.9284   3.9454   3.9528   3.9685   3.9992   4.0424   4.0521
  4.0909   4.1316   4.1416   4.1792   4.1907   4.1966   4.2244   4.2360
  4.2612   4.2882   4.2958   4.3061   4.3372   4.3481   4.3838   4.4019
  4.4035   4.4492   4.4531   4.4683   4.4826   4.5220   4.5477   4.5779
  4.6098   4.6156   4.6449   4.6643   4.7379   4.7859   4.8214   4.8617
  4.8765   4.9137   4.9371   4.9908   5.0721   5.0870   5.0975   5.1140
  5.1788   5.2074   5.2378   5.2392   5.2544   5.2658   5.2814   5.2891
  5.2928   5.3001   5.3111   5.3168   5.3293   5.3419   5.3627   5.3835
  5.4085   5.4354   5.4530   5.4661   5.4784   5.4985   5.5358   5.5385
  5.5631   5.5759   5.5884   5.5999   5.6131   5.6357   5.6614   5.6925
  5.7029   5.7307   5.7534   5.7608   5.8107   5.8645   5.9204   5.9358
  5.9911   6.0065   6.0240   6.0491   6.0676   6.1315   6.1496   6.3271
  6.4835   6.5541   6.5942   6.6381   6.7376   6.7609   6.8564   6.9048
  6.9764   7.0638   7.0922   7.1054   7.1390   7.1446   7.1962   7.2602
  7.2802   7.2952   7.3126   7.3183   7.3310   7.3350   7.3478   7.3688
  7.3991   7.4161   7.4324   7.4479   7.4515   7.5416   7.6336   7.6483
  7.7220   7.7465   7.7855   7.7867   7.8376   7.8911   7.9082   8.0626
  8.1390  24.4007  24.7228  24.7940  24.8425  25.2412  50.4502  50.5777
 50.5997  50.6106  50.6199  50.6906
 
 Beta MOs
 -- Occupied --
-19.4522 -19.4019 -19.3677 -19.3490 -19.3475 -19.3406 -10.4746 -10.4501
-10.3968 -10.3589 -10.3573  -1.3225  -1.2036  -1.1981  -1.1643  -1.1339
 -0.9898  -0.9193  -0.8567  -0.8054  -0.7535  -0.6864  -0.6796  -0.6640
 -0.6442  -0.6268  -0.6131  -0.6003  -0.5712  -0.5600  -0.5461  -0.5301
 -0.5087  -0.4971  -0.4799  -0.4745  -0.4525  -0.4505  -0.4275  -0.4080
 -0.3956  -0.3825  -0.3734
 -- Virtual --
 -0.0324   0.0252   0.0352   0.0385   0.0477   0.0488   0.0575   0.0636
  0.0726   0.0804   0.0936   0.1022   0.1096   0.1217   0.1270   0.1299
  0.1402   0.1481   0.1525   0.1571   0.1647   0.1706   0.1717   0.1764
  0.1798   0.1850   0.1869   0.1962   0.2061   0.2226   0.2312   0.2364
  0.2371   0.2496   0.2556   0.2590   0.2678   0.2784   0.2813   0.2858
  0.2928   0.3006   0.3015   0.3059   0.3126   0.3200   0.3262   0.3284
  0.3357   0.3447   0.3483   0.3549   0.3595   0.3608   0.3700   0.3708
  0.3777   0.3886   0.3899   0.3994   0.4048   0.4101   0.4147   0.4254
  0.4268   0.4418   0.4464   0.4590   0.4736   0.4818   0.4982   0.5044
  0.5153   0.5277   0.5703   0.5728   0.5988   0.6020   0.6030   0.6277
  0.6322   0.6400   0.6507   0.6523   0.6612   0.6813   0.6854   0.6874
  0.7003   0.7100   0.7163   0.7226   0.7357   0.7389   0.7630   0.7754
  0.7901   0.7987   0.8103   0.8307   0.8375   0.8593   0.8639   0.8781
  0.8877   0.9181   0.9253   0.9588   0.9742   0.9977   1.0094   1.0177
  1.0290   1.0581   1.0673   1.0773   1.0949   1.1037   1.1068   1.1242
  1.1354   1.1387   1.1506   1.1563   1.1706   1.1789   1.1861   1.1977
  1.2005   1.2126   1.2274   1.2359   1.2413   1.2460   1.2482   1.2516
  1.2685   1.2820   1.2875   1.2959   1.3042   1.3274   1.3421   1.3599
  1.3684   1.3863   1.4047   1.4176   1.4180   1.4241   1.4449   1.4570
  1.4698   1.4809   1.4940   1.5241   1.5273   1.5410   1.5579   1.5642
  1.5710   1.5815   1.5916   1.5999   1.6262   1.6326   1.6357   1.6593
  1.6707   1.6918   1.7036   1.7282   1.7448   1.7604   1.7756   1.7967
  1.8021   1.8304   1.8467   1.8874   1.9005   1.9284   1.9667   1.9909
  1.9995   2.0265   2.0525   2.0818   2.1180   2.1621   2.1801   2.1967
  2.2070   2.2422   2.2473   2.3037   2.3208   2.3321   2.3536   2.3543
  2.3880   2.4018   2.4307   2.4337   2.4590   2.4933   2.5231   2.5650
  2.6307   2.6707   2.7009   2.7418   2.7577   2.7847   2.8011   2.8139
  2.8372   2.8594   2.8752   2.8935   2.9100   2.9229   2.9507   2.9636
  2.9847   3.0037   3.0334   3.0746   3.0930   3.1258   3.1698   3.1904
  3.2087   3.2410   3.2474   3.2723   3.3016   3.3136   3.3200   3.3413
  3.3529   3.3717   3.4041   3.4154   3.4452   3.4578   3.4737   3.4847
  3.4959   3.4976   3.5135   3.5635   3.5791   3.5866   3.6107   3.6309
  3.6473   3.6678   3.7118   3.7304   3.7361   3.7450   3.7640   3.7807
  3.7951   3.8038   3.8233   3.8355   3.8504   3.8598   3.8665   3.8920
  3.9095   3.9134   3.9286   3.9456   3.9530   3.9687   3.9996   4.0429
  4.0522   4.0912   4.1320   4.1421   4.1796   4.1909   4.1968   4.2246
  4.2363   4.2622   4.2883   4.2960   4.3062   4.3375   4.3491   4.3842
  4.4034   4.4038   4.4495   4.4533   4.4693   4.4832   4.5244   4.5501
  4.5797   4.6132   4.6222   4.6556   4.6732   4.7571   4.7877   4.8297
  4.8775   4.8799   4.9153   4.9446   5.0035   5.0828   5.1342   5.1440
  5.1856   5.2076   5.2188   5.2411   5.2513   5.2720   5.2843   5.2902
  5.2911   5.2948   5.3053   5.3143   5.3274   5.3427   5.3562   5.3674
  5.3907   5.4193   5.4369   5.4587   5.4727   5.4823   5.5013   5.5412
  5.5435   5.5661   5.5790   5.5894   5.6052   5.6257   5.6379   5.6621
  5.6954   5.7038   5.7320   5.7544   5.7739   5.8141   5.8720   5.9206
  5.9386   5.9913   6.0073   6.0254   6.0535   6.0679   6.1318   6.1502
  6.3384   6.5301   6.5546   6.6022   6.6443   6.7406   6.7613   6.9403
  6.9839   7.0342   7.0639   7.1064   7.1103   7.1416   7.1705   7.2135
  7.2807   7.2833   7.2989   7.3139   7.3199   7.3359   7.3378   7.3493
  7.3726   7.4077   7.4220   7.4426   7.4630   7.4865   7.5551   7.6338
  7.6493   7.7256   7.7469   7.7861   7.7872   7.8421   7.8984   7.9083
  8.0767   8.1573  24.4007  24.7228  24.7940  24.8424  25.2412  50.4632
 50.5843  50.6004  50.6118  50.6200  50.6918
 --------------------------------------------------------------
 
          Ground-State Mulliken Net Atomic Charges

     Atom                 Charge (a.u.)    Spin (a.u.)
  --------------------------------------------------------
      1 C                    -0.295232       0.008076
      2 O                    -0.413169       0.003371
      3 C                    -0.360705       0.002608
      4 O                    -0.359825      -0.001505
      5 O                     0.102999       0.315287
      6 O                    -0.222294       0.670051
      7 C                    -0.024992       0.007174
      8 C                    -0.057224      -0.003826
      9 C                    -0.263443      -0.000724
     10 O                    -0.433476       0.000084
     11 O                    -0.431232      -0.000083
     12 H                     0.266204      -0.000789
     13 H                     0.224606       0.000624
     14 H                     0.333535      -0.000481
     15 H                     0.375372       0.000111
     16 H                     0.297900       0.000193
     17 H                     0.286500       0.000043
     18 H                     0.305147      -0.000136
     19 H                     0.335378      -0.000054
     20 H                     0.333952      -0.000025
  --------------------------------------------------------
  Sum of atomic charges =     0.000000
  Sum of spin   charges =     1.000000

 -----------------------------------------------------------------
                    Cartesian Multipole Moments
 -----------------------------------------------------------------
    Charge (ESU x 10^10)
                 0.0000
    Dipole Moment (Debye)
         X      -3.5814      Y       0.3128      Z       0.3939
       Tot       3.6166
    Quadrupole Moments (Debye-Ang)
        XX     -91.4760     XY       4.7908     YY     -74.6161
        XZ     -11.1487     YZ       2.2624     ZZ     -59.5456
    Octopole Moments (Debye-Ang^2)
       XXX    -807.1372    XXY      58.8785    XYY    -237.9089
       YYY     -19.7923    XXZ    -112.8140    XYZ       3.7958
       YYZ     -22.4814    XZZ    -223.8169    YZZ     -24.1101
       ZZZ     -50.0408
    Hexadecapole Moments (Debye-Ang^3)
      XXXX   -6674.7202   XXXY     429.0366   XXYY   -1101.9699
      XYYY    -131.1513   YYYY    -441.4353   XXXZ    -959.1740
      XXYZ      -5.7340   XYYZ    -140.6559   YYYZ      40.6795
      XXZZ   -1157.7898   XYZZ     -84.9019   YYZZ    -158.7940
      XZZZ    -319.7859   YZZZ      32.1894   ZZZZ    -443.8368
 -----------------------------------------------------------------
 Total job time:  2334.32s(wall), 33079.41s(cpu) 
 Mon May  6 18:00:16 2024

        *************************************************************
        *                                                           *
        *  Thank you very much for using Q-Chem.  Have a nice day.  *
        *                                                           *
        *************************************************************


