
Running Job 1 of 1 Q_in.in
qchem Q_in.in_263725.0 /scratch/ari.fischer/qChem1516510.hpc-mn1/qchem263725/ 0
/usr/local/qchem-5.4.1/exe/qcprog.exe_s Q_in.in_263725.0 /scratch/ari.fischer/qChem1516510.hpc-mn1/qchem263725/
                  Welcome to Q-Chem
     A Quantum Leap Into The Future Of Chemistry


 Q-Chem 5.4, Q-Chem, Inc., Pleasanton, CA (2021)

 License issued to: Nanyang Technological University (site)

 E. Epifanovsky,  A. T. B. Gilbert,  Xintian Feng,  Joonho Lee,  Yuezhi Mao,  
 N. Mardirossian,  P. Pokhilko,  A. White,  M. Wormit,  M. P. Coons,  
 A. L. Dempwolff,  Zhengting Gan,  D. Hait,  P. R. Horn,  L. D. Jacobson,  
 I. Kaliman,  J. Kussmann,  A. W. Lange,  Ka Un Lao,  D. S. Levine,  Jie Liu,  
 S. C. McKenzie,  A. F. Morrison,  K. Nanda,  F. Plasser,  D. R. Rehn,  
 M. L. Vidal,  Zhi-Qiang You,  Ying Zhu,  B. Alam,  B. Albrecht,  
 A. Aldossary,  E. Alguire,  J. H. Andersen,  D. Barton,  K. Begam,  A. Behn,  
 Y. A. Bernard,  E. J. Berquist,  H. Burton,  A. Carreras,  K. Carter-Fenk,  
 R. Chakraborty,  A. D. Chien,  K. D. Closser,  V. Cofer-Shabica,  
 S. Dasgupta,  Jia Deng,  M. de Wergifosse,  M. Diedenhofen,  Hainam Do,  
 S. Ehlert,  Po-Tung Fang,  S. Fatehi,  Qingguo Feng,  T. Friedhoff,  
 J. Gayvert,  Qinghui Ge,  G. Gidofalvi,  M. Goldey,  J. Gomes,  
 C. Gonzalez-Espinoza,  S. Gulania,  A. Gunina,  M. W. D. Hanson-Heine,  
 P. H. P. Harbach,  A. W. Hauser,  M. F. Herbst,  M. Hernandez Vera,  
 M. Hodecker,  Z. C. Holden,  S. Houck,  Xunkun Huang,  Kerwin Hui,  
 B. C. Huynh,  M. Ivanov,  Hyunjun Ji,  Hanjie Jiang,  B. Kaduk,  S. Kaehler,  
 K. Khistyaev,  Jaehoon Kim,  P. Klunzinger,  Z. Koczor-Benda,  
 Joong Hoon Koh,  D. Kosenkov,  L. Koulias,  T. Kowalczyk,  C. M. Krauter,  
 K. Kue,  A. Kunitsa,  T. Kus,  A. Landau,  K. V. Lawler,  D. Lefrancois,  
 S. Lehtola,  Rain Li,  Yi-Pei Li,  Jiashu Liang,  M. Liebenthal,  
 Hung-Hsuan Lin,  You-Sheng Lin,  Fenglai Liu,  Kuan-Yu Liu,  
 M. Loipersberger,  A. Luenser,  A. Manjanath,  P. Manohar,  E. Mansoor,  
 S. F. Manzer,  Shan-Ping Mao,  A. V. Marenich,  T. Markovich,  S. Mason,  
 S. A. Maurer,  P. F. McLaughlin,  M. F. S. J. Menger,  J.-M. Mewes,  
 S. A. Mewes,  P. Morgante,  J. W. Mullinax,  K. J. Oosterbaan,  G. Paran,  
 Alexander C. Paul,  Suranjan K. Paul,  F. Pavosevic,  Zheng Pei,  S. Prager,  
 E. I. Proynov,  E. Ramos,  B. Rana,  A. E. Rask,  A. Rettig,  R. M. Richard,  
 F. Rob,  E. Rossomme,  T. Scheele,  M. Scheurer,  M. Schneider,  
 N. Sergueev,  S. M. Sharada,  W. Skomorowski,  D. W. Small,  C. J. Stein,  
 Yu-Chuan Su,  E. J. Sundstrom,  Zhen Tao,  J. Thirman,  T. Tsuchimochi,  
 N. M. Tubman,  S. P. Veccham,  O. Vydrov,  J. Wenzel,  J. Witte,  A. Yamada,  
 Kun Yao,  S. Yeganeh,  S. R. Yost,  A. Zech,  Igor Ying Zhang,  Xing Zhang,  
 Yu Zhang,  D. Zuev,  A. Aspuru-Guzik,  A. T. Bell,  N. A. Besley,  
 K. B. Bravaya,  B. R. Brooks,  D. Casanova,  Jeng-Da Chai,  S. Coriani,  
 C. J. Cramer,  A. E. DePrince, III,  R. A. DiStasio Jr.,  A. Dreuw,  
 B. D. Dunietz,  T. R. Furlani,  W. A. Goddard III,  S. Grimme,  
 S. Hammes-Schiffer,  T. Head-Gordon,  W. J. Hehre,  Chao-Ping Hsu,  
 T.-C. Jagau,  Yousung Jung,  A. Klamt,  Jing Kong,  D. S. Lambrecht,  
 WanZhen Liang,  N. J. Mayhall,  C. W. McCurdy,  J. B. Neaton,  
 C. Ochsenfeld,  J. A. Parkhill,  R. Peverati,  V. A. Rassolov,  Yihan Shao,  
 L. V. Slipchenko,  T. Stauch,  R. P. Steele,  J. E. Subotnik,  
 A. J. W. Thom,  A. Tkatchenko,  D. G. Truhlar,  T. Van Voorhis,  
 T. A. Wesolowski,  K. B. Whaley,  H. L. Woodcock III,  P. M. Zimmerman,  
 S. Faraji,  P. M. W. Gill,  M. Head-Gordon,  J. M. Herbert,  A. I. Krylov

 Additional authors for Version 5.4.1: 
 S. Kotaru,  Shaozhi Li,  Xiangyuan Li,  F. Matz,  A. Molle,  Haisheng Ren,  
 Yingli Su,  Hung-Yi Tsai,  C. Utku,  Fang Wang

 Contributors to earlier versions of Q-Chem not listed above: 
 R. D. Adamson,  B. Austin,  R. Baer,  J. Baker,  G. J. O. Beran,  
 K. Brandhorst,  S. T. Brown,  E. F. C. Byrd,  A. K. Chakraborty,  
 G. K. L. Chan,  Chun-Min Chang,  Yunqing Chen,  C.-L. Cheng,  
 Siu Hung Chien,  D. M. Chipman,  D. L. Crittenden,  H. Dachsel,  
 R. J. Doerksen,  A. D. Dutoi,  R. G. Edgar,  J. Fosso-Tande,  
 L. Fusti-Molnar,  D. Ghosh,  A. Ghysels,  A. Golubeva-Zadorozhnaya,  
 J. Gonthier,  M. S. Gordon,  S. R. Gwaltney,  G. Hawkins,  J. E. Herr,  
 A. Heyden,  S. Hirata,  E. G. Hohenstein,  G. Kedziora,  F. J. Keil,  
 C. Kelley,  Jihan Kim,  R. A. King,  R. Z. Khaliullin,  P. P. Korambath,  
 W. Kurlancheek,  A. Laurent,  A. M. Lee,  M. S. Lee,  S. V. Levchenko,  
 Ching Yeh Lin,  D. Liotard,  E. Livshits,  R. C. Lochan,  I. Lotan,  
 L. A. Martinez-Martinez,  P. E. Maslen,  N. Nair,  D. P. O'Neill,  
 D. Neuhauser,  E. Neuscamman,  C. M. Oana,  R. Olivares-Amaya,  R. Olson,  
 T. M. Perrine,  B. Peters,  P. A. Pieniazek,  A. Prociuk,  Y. M. Rhee,  
 J. Ritchie,  M. A. Rohrdanz,  E. Rosta,  N. J. Russ,  H. F. Schaefer III,  
 M. W. Schmidt,  N. E. Schultz,  S. Sharma,  N. Shenvi,  C. D. Sherrill,  
 A. C. Simmonett,  A. Sodt,  T. Stein,  D. Stuck,  K. S. Thanthiriwatte,  
 V. Vanovschi,  L. Vogt,  Tao Wang,  A. Warshel,  M. A. Watson,  
 C. F. Williams,  Q. Wu,  X. Xu,  Jun Yang,  W. Zhang,  Yan Zhao

 Please cite Q-Chem as follows:
 Y. Shao et al., Mol. Phys. 113, 184-215 (2015)
 DOI: 10.1080/00268976.2014.952696

 Q-Chem 5.4.1 for Intel X86 EM64T Linux

 Parts of Q-Chem use Armadillo 9.800.1 (Horizon Scraper).
 http://arma.sourceforge.net/

 Q-Chem begins on Fri Apr 21 22:07:48 2023  

 Host: 
0

     Scratch files written to /scratch/ari.fischer/qChem1516510.hpc-mn1/qchem263725//
 Aug1521 |scratch|qcdevops|jenkins|workspace|build_RNUM 8249   
 Processing $rem in /usr/local/qchem-5.4.1/config/preferences:
 Processing $rem in /home/ari.fischer/.qchemrc:
 Symmetry turned off for PCM/SM12/SMD calculation


!!********************************************.
!!******************Warning*******************.
!!Desired Analytical derivatives not available.
!!Finite difference job might take a long time.
!!********************************************.
!!********************************************.


 2-order derivative to be evaluated numerically with 1-order analytical derivatives

 Checking the input file for inconsistencies... 	...done.

--------------------------------------------------------------
User input:
--------------------------------------------------------------
$molecule
0 1
C        -4.1657591026   -1.3118455801    3.8853245148
H        -4.2276465460   -0.9088786730    4.8964569500
O        -4.1329931787   -0.1613145538    3.0274790853
H        -4.0369884259   -0.4679233637    2.1183251173
C        -5.3392630310   -2.2108369850    3.6066153787
C        -6.6216274900   -1.6778362713    3.4559191125
C        -7.7188260163   -2.5041562816    3.2636296777
H        -8.6989569953   -2.0599517383    3.1523355869
C        -7.5427869092   -3.8795160783    3.2165216192
H        -8.4007210941   -4.5210657409    3.0672675737
C        -6.2745237512   -4.4292571434    3.3481926206
H        -6.1338959959   -5.5002022668    3.3007660831
C        -5.1844302599   -3.5901330178    3.5359765209
H        -4.1902112890   -4.0074756736    3.6395020632
H        -3.2369814995   -1.8759901440    3.8023322922
O        -6.8387683878   -0.3205125191    3.5117451809
H        -5.9869130275    0.1243992307    3.3625928232
$end

$rem
BASIS = 6-311++G(2df,2p)
GUI = 2
JOB_TYPE = Frequency
METHOD = wB97M-V
SOLVENT_METHOD = SMD
SCF_ALGORITHM = DIIS_GDM
MAX_SCF_CYCLES = 400
SCF_CONVERGENCE = 7
THRESH = 12
SYMMETRY_IGNORE = 1
$end
--------------------------------------------------------------
 ----------------------------------------------------------------
             Standard Nuclear Orientation (Angstroms)
    I     Atom           X                Y                Z
 ----------------------------------------------------------------
    1      C      -4.1657591026    -1.3118455801     3.8853245148
    2      H      -4.2276465460    -0.9088786730     4.8964569500
    3      O      -4.1329931787    -0.1613145538     3.0274790853
    4      H      -4.0369884259    -0.4679233637     2.1183251173
    5      C      -5.3392630310    -2.2108369850     3.6066153787
    6      C      -6.6216274900    -1.6778362713     3.4559191125
    7      C      -7.7188260163    -2.5041562816     3.2636296777
    8      H      -8.6989569953    -2.0599517383     3.1523355869
    9      C      -7.5427869092    -3.8795160783     3.2165216192
   10      H      -8.4007210941    -4.5210657409     3.0672675737
   11      C      -6.2745237512    -4.4292571434     3.3481926206
   12      H      -6.1338959959    -5.5002022668     3.3007660831
   13      C      -5.1844302599    -3.5901330178     3.5359765209
   14      H      -4.1902112890    -4.0074756736     3.6395020632
   15      H      -3.2369814995    -1.8759901440     3.8023322922
   16      O      -6.8387683878    -0.3205125191     3.5117451809
   17      H      -5.9869130275     0.1243992307     3.3625928232
 ----------------------------------------------------------------
 Nuclear Repulsion Energy =         433.37833757 hartrees
 There are       33 alpha and       33 beta electrons
 Requested basis set is 6-311++G(2df,2p)
 There are 120 shells and 386 basis functions

 Total QAlloc Memory Limit 288000 MB
 Mega-Array Size       188 MB
 MEM_STATIC part       192 MB
 
 Citation of the SMD model:
 Marenich, A.V.; Cramer, C.J.; Truhlar, D.G.
 J. Phys. Chem. B 2009, 113, 6378-6396.
 iSolventCode=           1
 Solvent: water                                                           
 
 vradii
            1           2           3           4           5           6
    1   1.8500000   1.2000000   1.5200000   1.2000000   1.8500000   1.8500000
            7           8           9          10          11          12
    1   1.8500000   1.2000000   1.8500000   1.2000000   1.8500000   1.2000000
           13          14          15          16          17
    1   1.8500000   1.2000000   1.2000000   1.5200000   1.2000000
 Changing PCM_VDW_RADII to SMD_RADIUS
 Discretize the solute cavity surface with Lebedev spheres
	Using 110 Lebedev grid points for each H atom
	Using 194 Lebedev grid points for other atoms
	Atomic van der Waals radii will be scaled by 1.20
 Remove points where switching function is < 1.0e-08
 Keep 1240 surface tesserae and discard 1386 interior tesserae
 Molecular Surface Area = 147.349 Angst**2
 A cutoff of  1.0D-12 yielded   6599 shell pairs
 There are     69159 function pairs (     86226 Cartesian)
 Smallest overlap matrix eigenvalue = 6.67E-07
 Linear dependence detected in AO basis
 Tighter screening thresholds may be required for diffuse basis sets
 Use S2THRESH > 14 and THRESH = 14 in case of SCF convergence issues
 Number of orthogonalized atomic orbitals = 385
 Maximum deviation from orthogonality = 1.229E-10
 Guess from superposition of atomic densities
 Warning:  Energy on first SCF cycle will be non-variational
 SAD guess density has 66.000000 electrons

 -----------------------------------------------------------------------
  General SCF calculation program by
  Eric Jon Sundstrom, Paul Horn, Yuezhi Mao, Dmitri Zuev, Alec White,
  David Stuck, Shaama M.S., Shane Yost, Joonho Lee, David Small,
  Daniel Levine, Susi Lehtola, Hugh Burton, Evgeny Epifanovsky,
  Bang C. Huynh
 -----------------------------------------------------------------------
 Exchange:     0.1500 Hartree-Fock + 1.0000 wB97M-V + LR-HF
 Correlation:  1.0000 wB97M-V
 Using SG-2 standard quadrature grid
 Nonlocal Correlation:  VV10 with C = 0.0100 and b = 6.00 and scale = 1.00000
 Grid used for NLC:  SG-1 standard quadrature
 using 8 threads for integral computing
 -------------------------------------------------------
 OpenMP Integral computing Module                
 Release: version 1.0, May 2013, Q-Chem Inc. Pittsburgh 
 -------------------------------------------------------
 
 Citation of the SMD model:
 Marenich, A.V.; Cramer, C.J.; Truhlar, D.G.
 J. Phys. Chem. B 2009, 113, 6378-6396.
 iSolventCode=           1
 Solvent: water                                                           
 
 vradii
            1           2           3           4           5           6
    1   1.8500000   1.2000000   1.5200000   1.2000000   1.8500000   1.8500000
            7           8           9          10          11          12
    1   1.8500000   1.2000000   1.8500000   1.2000000   1.8500000   1.2000000
           13          14          15          16          17
    1   1.8500000   1.2000000   1.2000000   1.5200000   1.2000000
 -------------------------------------------------------
 OpenMP BLAS3 based DFT computing Module                
 Release: version 1.0, May 2013, Q-Chem Inc. Pittsburgh 
 -------------------------------------------------------
 A restricted SCF calculation will be
 performed using DIIS, GDM
 SCF converges when RMS gradient is below 1.0e-07
 ---------------------------------------
  Cycle       Energy         DIIS error
 ---------------------------------------
    1    -424.7590641234      2.68e-02  
    2    -421.9109646531      2.37e-03  Done DIIS. Switching to GDM
 ---------------------------------------
  Cycle       Energy        RMS Gradient
 ---------------------------------------
    1    -421.9109646531      3.74e-02   Descent step
    2    -421.9734122500      2.42e-02   Normal BFGS step
    3    -422.0035128455      4.48e-03   Normal BFGS step
    4    -422.0043084924      5.00e-03   Normal BFGS step
    5    -422.0047499585      3.45e-04   Normal BFGS step
    6    -422.0047570794      7.14e-04   Normal BFGS step
    7    -422.0047595391      7.40e-05   Normal BFGS step
    8    -422.0047596803      6.12e-05   Normal BFGS step
    9    -422.0047597081      1.59e-05   Normal BFGS step
   10    -422.0047597115      6.22e-06   Normal BFGS step
   11    -422.0047597121      2.29e-06   Normal BFGS step
   12    -422.0047597122      6.77e-07   Normal BFGS step
   13    -422.0047597122      3.05e-07   Normal BFGS step
   14    -422.0047597122      2.13e-07   Normal BFGS step
   15    -422.0047597122      6.50e-08  Convergence criterion met
 ---------------------------------------
 SCF time:   CPU 1318.75s  wall 167.00s 
(3)  G-ENP(liq) elect-nuc-pol free energy of system     -422.004759712 a.u.
(4)  G-CDS(liq) cavity-dispersion-solvent structure 
     free energy                                                3.6020 kcal/mol
(6)  G-S(liq) free energy of system                     -421.999019556 a.u.
 SCF   energy in the final basis set =     -421.9990195556
 Total energy in the final basis set =     -421.9990195556
 
 --------------------------------------------------------------
 
                    Orbital Energies (a.u.)
 --------------------------------------------------------------
 
 Alpha MOs
 -- Occupied --
-19.3539 -19.3467 -10.4071 -10.3916 -10.3499 -10.3458 -10.3451 -10.3394
-10.3370  -1.1869  -1.1587  -0.9849  -0.8937  -0.8642  -0.8005  -0.7262
 -0.7185  -0.6595  -0.6139  -0.6061  -0.5625  -0.5599  -0.5462  -0.5295
 -0.5210  -0.4933  -0.4793  -0.4520  -0.4432  -0.4396  -0.3967  -0.3449
 -0.3182
 -- Virtual --
  0.0225   0.0341   0.0374   0.0458   0.0536   0.0571   0.0621   0.0721
  0.0773   0.0858   0.0975   0.1041   0.1073   0.1217   0.1411   0.1423
  0.1447   0.1523   0.1563   0.1599   0.1650   0.1720   0.1752   0.1782
  0.1834   0.1858   0.1925   0.2044   0.2056   0.2126   0.2239   0.2297
  0.2389   0.2494   0.2534   0.2653   0.2663   0.2728   0.2794   0.2849
  0.2944   0.2995   0.3143   0.3291   0.3365   0.3395   0.3436   0.3539
  0.3585   0.3677   0.3732   0.3795   0.3869   0.4041   0.4133   0.4228
  0.4370   0.4494   0.4632   0.4810   0.4882   0.5411   0.5506   0.5592
  0.5850   0.5977   0.5996   0.6089   0.6115   0.6188   0.6226   0.6347
  0.6385   0.6570   0.6647   0.6731   0.6856   0.6949   0.7062   0.7193
  0.7199   0.7324   0.7377   0.7420   0.7494   0.7594   0.7738   0.7802
  0.7841   0.7994   0.8058   0.8259   0.8376   0.8398   0.8524   0.8593
  0.8773   0.8861   0.8995   0.9105   0.9227   0.9412   0.9432   0.9689
  0.9969   1.0313   1.0500   1.0536   1.0725   1.0799   1.0996   1.1158
  1.1233   1.1452   1.1588   1.1698   1.1952   1.1970   1.2070   1.2085
  1.2149   1.2570   1.2672   1.2755   1.2813   1.2909   1.2995   1.3174
  1.3406   1.3628   1.3745   1.3876   1.4026   1.4083   1.4138   1.4323
  1.4400   1.4468   1.4563   1.4767   1.4942   1.5066   1.5221   1.5295
  1.5446   1.5613   1.5682   1.5967   1.6188   1.6360   1.6409   1.6752
  1.7367   1.7512   1.7677   1.7904   1.8094   1.8174   1.8628   1.9328
  1.9604   1.9889   2.0415   2.0589   2.0881   2.0987   2.1115   2.1288
  2.1681   2.2179   2.3089   2.3511   2.3960   2.4402   2.5052   2.5646
  2.5996   2.6138   2.6357   2.6718   2.7053   2.7141   2.7443   2.7900
  2.7950   2.8115   2.8267   2.8370   2.8440   2.8627   2.8720   2.8807
  2.9084   2.9119   2.9199   2.9429   2.9508   2.9622   2.9745   2.9770
  3.0067   3.0223   3.0315   3.0430   3.0849   3.1107   3.1223   3.1720
  3.1895   3.2036   3.2148   3.2309   3.2401   3.2468   3.2602   3.2621
  3.2788   3.2992   3.3040   3.3204   3.3517   3.3660   3.3881   3.3948
  3.4102   3.4367   3.4539   3.4601   3.4638   3.4776   3.5107   3.5213
  3.5279   3.5323   3.5521   3.5761   3.5894   3.6202   3.6416   3.6512
  3.6811   3.6945   3.7082   3.7570   3.7633   3.7916   3.8102   3.8190
  3.8294   3.8464   3.8632   3.8811   3.9143   3.9243   3.9292   3.9369
  3.9543   3.9770   3.9842   4.0111   4.0475   4.0843   4.1047   4.1211
  4.1385   4.1542   4.1885   4.1942   4.1999   4.2423   4.2862   4.3034
  4.3231   4.3411   4.3695   4.3778   4.3944   4.4174   4.4252   4.4459
  4.4484   4.4959   4.5154   4.5508   4.5623   4.5691   4.5902   4.6061
  4.6182   4.6244   4.6824   4.7392   4.7912   4.8037   4.8190   4.8428
  4.9231   5.0288   5.0909   5.1405   5.1821   5.2166   5.2477   5.2707
  5.2815   5.3113   5.3282   5.3484   5.3655   5.3962   5.4692   5.5266
  5.5637   5.5885   5.6547   5.6975   5.7159   5.7309   5.7743   5.7878
  5.8303   5.8823   5.8994   5.9309   5.9704   6.0437   6.1849   6.4069
  6.6019   6.7420   6.8852   7.0823   7.1432   7.2957   7.2977   7.3135
  7.3652   7.3992   7.5221   7.6495   7.7535   7.7755   7.8811  24.2095
 24.7941  24.8187  24.8469  25.0676  25.0952  25.5315  50.5986  50.6722
 --------------------------------------------------------------
 
          Ground-State Mulliken Net Atomic Charges

     Atom                 Charge (a.u.)
  ----------------------------------------
      1 C                    -0.555335
      2 H                     0.219220
      3 O                    -0.395387
      4 H                     0.328985
      5 C                     0.936629
      6 C                    -0.052646
      7 C                    -0.445581
      8 H                     0.290302
      9 C                    -0.349349
     10 H                     0.284450
     11 C                    -0.488833
     12 H                     0.289347
     13 C                    -0.496318
     14 H                     0.266266
     15 H                     0.254392
     16 O                    -0.447440
     17 H                     0.361299
  ----------------------------------------
  Sum of atomic charges =     0.000000

 -----------------------------------------------------------------
                    Cartesian Multipole Moments
 -----------------------------------------------------------------
    Charge (ESU x 10^10)
                 0.0000
    Dipole Moment (Debye)
         X       2.5212      Y      -2.1115      Z      -0.9756
       Tot       3.4302
    Quadrupole Moments (Debye-Ang)
        XX     -78.9015     XY       8.5321     YY     -46.7852
        XZ      14.2538     YZ      -6.3692     ZZ     -60.2659
    Octopole Moments (Debye-Ang^2)
       XXX    1137.7783    XXY      66.4507    XYY     280.1098
       YYY     318.0477    XXZ    -307.7561    XYZ      21.1005
       YYZ    -163.3837    XZZ     396.9002    YZZ     111.6744
       ZZZ    -588.3007
    Hexadecapole Moments (Debye-Ang^3)
      XXXX  -13043.0137   XXXY   -1762.9839   XXYY   -2110.0734
      XYYY   -1996.1698   YYYY   -2118.7893   XXXZ    4157.0415
      XXYZ     300.4912   XYYZ     987.6554   YYYZ    1104.1764
      XXZZ   -3315.5823   XYZZ    -781.5791   YYZZ   -1032.8692
      XZZZ    3668.7043   YZZZ    1282.0127   ZZZZ   -4062.5977
 -----------------------------------------------------------------
 Calculating analytic gradient of the SCF energy
 Gradient of CDS energy
            1           2           3           4           5           6
    1   0.0010746  -0.0003265  -0.0001978   0.0000765  -0.0000819  -0.0008047
    2   0.0001113   0.0001804  -0.0002168   0.0002220   0.0001564   0.0060120
    3   0.0003714   0.0000803   0.0001859  -0.0004757  -0.0000091   0.0003215
            7           8           9          10          11          12
    1  -0.0003900  -0.0001665  -0.0004101  -0.0001646   0.0000760   0.0000269
    2   0.0002170   0.0001334  -0.0003016  -0.0001231  -0.0005153  -0.0002049
    3  -0.0000420  -0.0000156  -0.0000650  -0.0000286  -0.0000187  -0.0000091
           13          14          15          16          17
    1   0.0003604   0.0001938  -0.0000522   0.0007785   0.0000075
    2  -0.0000099  -0.0000154  -0.0002190  -0.0058203   0.0003940
    3   0.0000146   0.0000199  -0.0000700  -0.0001803  -0.0000797
 Gradient of SCF Energy
            1           2           3           4           5           6
    1  -0.0120851   0.0004113   0.0017985   0.0007831   0.0012341   0.0061245
    2   0.0071355   0.0009862   0.0066372  -0.0059280   0.0049178  -0.0006562
    3  -0.0093713   0.0059702   0.0161727  -0.0134499   0.0012624  -0.0000475
            7           8           9          10          11          12
    1   0.0045034  -0.0006334   0.0025399  -0.0029936  -0.0043152   0.0009222
    2  -0.0042552  -0.0012841   0.0047685  -0.0023889   0.0034631  -0.0048393
    3   0.0012847  -0.0002645   0.0008046  -0.0006149  -0.0003793  -0.0002518
           13          14          15          16          17
    1  -0.0113575   0.0083229   0.0076372  -0.0073510   0.0044584
    2  -0.0021377  -0.0026964  -0.0053336   0.0016782  -0.0000674
    3  -0.0010148   0.0007484  -0.0013311   0.0017074  -0.0012253
 Max gradient component =       1.617E-02
 RMS gradient           =       5.306E-03
 Computing fast CPCM-SWIG gradient
 Updating gradient with PCM contributions...
 -- total gradient after adding PCM contribution --
---------------------------------------------------
  Atom         X              Y              Z     
---------------------------------------------------
   1       0.000014       0.000043      -0.000012
   2      -0.000002      -0.000009       0.000014
   3       0.000002      -0.000027       0.000057
   4       0.000012       0.000016       0.000034
   5      -0.000011      -0.000013       0.000000
   6       0.000018      -0.000058       0.000019
   7      -0.000011       0.000006      -0.000017
   8       0.000006      -0.000008      -0.000011
   9       0.000008       0.000015      -0.000028
  10       0.000010       0.000000      -0.000028
  11       0.000015       0.000020      -0.000011
  12       0.000002       0.000004      -0.000029
  13      -0.000014      -0.000019      -0.000018
  14      -0.000005       0.000003      -0.000002
  15      -0.000005      -0.000002       0.000021
  16      -0.000039       0.000028       0.000022
  17       0.000001       0.000003      -0.000011
---------------------------------------------------
 Number of fixed atoms: 0
 Gradient time:  CPU 277.82 s  wall 39.81 s
 ######################################################
 ######################################################
 # Starting finite difference calculation for IDERIV  #
 Finite diff step size:  1.88973e-03 a.u.
 ----------------------------------------------------------------
             Standard Nuclear Orientation (Angstroms)
    I     Atom           X                Y                Z
 ----------------------------------------------------------------
    1      C      -4.1647591026    -1.3118455801     3.8853245148
    2      H      -4.2276465460    -0.9088786730     4.8964569500
    3      O      -4.1329931787    -0.1613145538     3.0274790853
    4      H      -4.0369884259    -0.4679233637     2.1183251173
    5      C      -5.3392630310    -2.2108369850     3.6066153787
    6      C      -6.6216274900    -1.6778362713     3.4559191125
    7      C      -7.7188260163    -2.5041562816     3.2636296777
    8      H      -8.6989569953    -2.0599517383     3.1523355869
    9      C      -7.5427869092    -3.8795160783     3.2165216192
   10      H      -8.4007210941    -4.5210657409     3.0672675737
   11      C      -6.2745237512    -4.4292571434     3.3481926206
   12      H      -6.1338959959    -5.5002022668     3.3007660831
   13      C      -5.1844302599    -3.5901330178     3.5359765209
   14      H      -4.1902112890    -4.0074756736     3.6395020632
   15      H      -3.2369814995    -1.8759901440     3.8023322922
   16      O      -6.8387683878    -0.3205125191     3.5117451809
   17      H      -5.9869130275     0.1243992307     3.3625928232
 ----------------------------------------------------------------
 Nuclear Repulsion Energy =         433.36373659 hartrees
 There are       33 alpha and       33 beta electrons
 Discretize the solute cavity surface with Lebedev spheres
	Using 110 Lebedev grid points for each H atom
	Using 194 Lebedev grid points for other atoms
	Atomic van der Waals radii will be scaled by 1.20
 Remove points where switching function is < 1.0e-08
 Keep 1240 surface tesserae and discard 1386 interior tesserae
 Molecular Surface Area = 147.351 Angst**2
 Requested basis set is 6-311++G(2df,2p)
 There are 120 shells and 386 basis functions
 A cutoff of  1.0D-12 yielded   6599 shell pairs
 There are     69159 function pairs (     86226 Cartesian)
 Smallest overlap matrix eigenvalue = 6.67E-07
 Linear dependence detected in AO basis
 Tighter screening thresholds may be required for diffuse basis sets
 Use S2THRESH > 14 and THRESH = 14 in case of SCF convergence issues
 Number of orthogonalized atomic orbitals = 385
 Maximum deviation from orthogonality = 4.940E-11
 Guess MOs from SCF MO coefficient file

 -----------------------------------------------------------------------
  General SCF calculation program by
  Eric Jon Sundstrom, Paul Horn, Yuezhi Mao, Dmitri Zuev, Alec White,
  David Stuck, Shaama M.S., Shane Yost, Joonho Lee, David Small,
  Daniel Levine, Susi Lehtola, Hugh Burton, Evgeny Epifanovsky,
  Bang C. Huynh
 -----------------------------------------------------------------------
 Exchange:     0.1500 Hartree-Fock + 1.0000 wB97M-V + LR-HF
 Correlation:  1.0000 wB97M-V
 Using SG-2 standard quadrature grid
 Nonlocal Correlation:  VV10 with C = 0.0100 and b = 6.00 and scale = 1.00000
 Grid used for NLC:  SG-1 standard quadrature
 
 Citation of the SMD model:
 Marenich, A.V.; Cramer, C.J.; Truhlar, D.G.
 J. Phys. Chem. B 2009, 113, 6378-6396.
 iSolventCode=           1
 Solvent: water                                                           
 
 vradii
            1           2           3           4           5           6
    1   1.8500000   1.2000000   1.5200000   1.2000000   1.8500000   1.8500000
            7           8           9          10          11          12
    1   1.8500000   1.2000000   1.8500000   1.2000000   1.8500000   1.2000000
           13          14          15          16          17
    1   1.8500000   1.2000000   1.2000000   1.5200000   1.2000000
 -------------------------------------------------------
 OpenMP BLAS3 based DFT computing Module                
 Release: version 1.0, May 2013, Q-Chem Inc. Pittsburgh 
 -------------------------------------------------------
 A restricted SCF calculation will be
 performed using Roothaan-Hall, DIIS, GDM
 SCF converges when RMS gradient is below 1.0e-07
 ---------------------------------------
  Cycle       Energy         DIIS error
 ---------------------------------------
    1    -421.9830024254      3.15e-04  Roothaan Step
 ---------------------------------------
  Cycle       Energy         DIIS error
 ---------------------------------------
    1    -422.0011478895      3.54e-04  
    2    -422.0036538260      2.69e-04  Done DIIS. Switching to GDM
 ---------------------------------------
  Cycle       Energy        RMS Gradient
 ---------------------------------------
    1    -422.0036538260      4.74e-03   Normal BFGS step
    2    -422.0038462513      6.09e-03   Normal BFGS step
    3    -422.0047465718      6.32e-04   Normal BFGS step
    4    -422.0047556966      3.35e-04   Normal BFGS step
    5    -422.0047604968      1.18e-04   Normal BFGS step
    6    -422.0047606619      5.04e-05   Normal BFGS step
    7    -422.0047607160      1.76e-05   Normal BFGS step
    8    -422.0047607194      8.11e-06   Normal BFGS step
    9    -422.0047607202      2.33e-06   Normal BFGS step
   10    -422.0047607203      1.35e-06   Normal BFGS step
   11    -422.0047607203      7.71e-07   Normal BFGS step
   12    -422.0047607203      1.98e-07   Normal BFGS step
   13    -422.0047607203      8.48e-08  Convergence criterion met
 ---------------------------------------
 SCF time:   CPU 1318.48s  wall 167.00s 
(3)  G-ENP(liq) elect-nuc-pol free energy of system     -422.004760720 a.u.
(4)  G-CDS(liq) cavity-dispersion-solvent structure 
     free energy                                                3.6033 kcal/mol
(6)  G-S(liq) free energy of system                     -421.999018525 a.u.
 SCF   energy in the final basis set =     -421.9990185253
 Total energy in the final basis set =     -421.9990185253
 
 --------------------------------------------------------------
 
                    Orbital Energies (a.u.)
 --------------------------------------------------------------
 
 Alpha MOs
 -- Occupied --
-19.3539 -19.3467 -10.4071 -10.3916 -10.3500 -10.3458 -10.3451 -10.3394
-10.3370  -1.1869  -1.1587  -0.9848  -0.8936  -0.8642  -0.8005  -0.7262
 -0.7185  -0.6595  -0.6140  -0.6061  -0.5625  -0.5599  -0.5462  -0.5295
 -0.5210  -0.4934  -0.4793  -0.4520  -0.4432  -0.4396  -0.3967  -0.3449
 -0.3182
 -- Virtual --
  0.0225   0.0341   0.0374   0.0458   0.0536   0.0571   0.0621   0.0722
  0.0773   0.0858   0.0975   0.1041   0.1073   0.1217   0.1411   0.1423
  0.1447   0.1523   0.1563   0.1599   0.1650   0.1720   0.1752   0.1782
  0.1834   0.1858   0.1925   0.2044   0.2056   0.2126   0.2239   0.2297
  0.2389   0.2494   0.2534   0.2653   0.2662   0.2728   0.2794   0.2849
  0.2944   0.2995   0.3144   0.3291   0.3365   0.3394   0.3437   0.3538
  0.3585   0.3677   0.3732   0.3794   0.3868   0.4041   0.4132   0.4228
  0.4370   0.4494   0.4632   0.4810   0.4881   0.5411   0.5506   0.5592
  0.5850   0.5977   0.5996   0.6089   0.6115   0.6188   0.6226   0.6347
  0.6385   0.6571   0.6646   0.6730   0.6856   0.6949   0.7062   0.7193
  0.7199   0.7324   0.7377   0.7420   0.7494   0.7594   0.7739   0.7802
  0.7841   0.7993   0.8058   0.8259   0.8375   0.8397   0.8524   0.8593
  0.8773   0.8860   0.8995   0.9104   0.9227   0.9412   0.9432   0.9689
  0.9969   1.0313   1.0500   1.0536   1.0725   1.0799   1.0996   1.1158
  1.1233   1.1451   1.1588   1.1698   1.1952   1.1969   1.2070   1.2084
  1.2149   1.2570   1.2672   1.2754   1.2813   1.2909   1.2995   1.3174
  1.3406   1.3628   1.3745   1.3876   1.4026   1.4083   1.4138   1.4323
  1.4400   1.4467   1.4563   1.4768   1.4942   1.5066   1.5220   1.5295
  1.5446   1.5613   1.5682   1.5967   1.6188   1.6360   1.6410   1.6751
  1.7367   1.7512   1.7676   1.7904   1.8093   1.8173   1.8628   1.9328
  1.9604   1.9890   2.0415   2.0587   2.0881   2.0987   2.1114   2.1291
  2.1679   2.2178   2.3088   2.3511   2.3960   2.4402   2.5052   2.5646
  2.5996   2.6138   2.6355   2.6717   2.7050   2.7140   2.7442   2.7900
  2.7949   2.8115   2.8268   2.8371   2.8440   2.8627   2.8720   2.8807
  2.9084   2.9120   2.9198   2.9429   2.9508   2.9621   2.9745   2.9770
  3.0067   3.0222   3.0315   3.0429   3.0848   3.1106   3.1222   3.1721
  3.1895   3.2036   3.2147   3.2309   3.2401   3.2469   3.2602   3.2622
  3.2788   3.2992   3.3039   3.3205   3.3518   3.3660   3.3880   3.3948
  3.4102   3.4366   3.4539   3.4602   3.4638   3.4775   3.5107   3.5213
  3.5278   3.5323   3.5520   3.5761   3.5893   3.6203   3.6416   3.6511
  3.6810   3.6944   3.7082   3.7571   3.7631   3.7916   3.8103   3.8189
  3.8294   3.8463   3.8632   3.8813   3.9145   3.9243   3.9292   3.9370
  3.9543   3.9770   3.9840   4.0113   4.0475   4.0844   4.1047   4.1210
  4.1386   4.1542   4.1885   4.1943   4.1999   4.2423   4.2860   4.3035
  4.3232   4.3410   4.3695   4.3777   4.3943   4.4180   4.4252   4.4459
  4.4482   4.4960   4.5153   4.5507   4.5623   4.5691   4.5902   4.6060
  4.6183   4.6245   4.6821   4.7391   4.7911   4.8033   4.8188   4.8429
  4.9231   5.0288   5.0910   5.1402   5.1820   5.2166   5.2477   5.2706
  5.2815   5.3112   5.3284   5.3484   5.3655   5.3961   5.4690   5.5268
  5.5634   5.5891   5.6547   5.6975   5.7164   5.7307   5.7745   5.7875
  5.8303   5.8823   5.8994   5.9306   5.9703   6.0434   6.1849   6.4069
  6.6018   6.7419   6.8852   7.0823   7.1432   7.2958   7.2977   7.3134
  7.3652   7.3992   7.5221   7.6494   7.7536   7.7755   7.8811  24.2094
 24.7943  24.8183  24.8469  25.0674  25.0951  25.5314  50.5986  50.6722
 --------------------------------------------------------------
 
          Ground-State Mulliken Net Atomic Charges

     Atom                 Charge (a.u.)
  ----------------------------------------
      1 C                    -0.554834
      2 H                     0.219215
      3 O                    -0.395372
      4 H                     0.328925
      5 C                     0.935902
      6 C                    -0.053033
      7 C                    -0.445567
      8 H                     0.290310
      9 C                    -0.349454
     10 H                     0.284439
     11 C                    -0.488844
     12 H                     0.289349
     13 C                    -0.495860
     14 H                     0.266254
     15 H                     0.254700
     16 O                    -0.447463
     17 H                     0.361334
  ----------------------------------------
  Sum of atomic charges =     0.000000

 -----------------------------------------------------------------
                    Cartesian Multipole Moments
 -----------------------------------------------------------------
    Charge (ESU x 10^10)
                 0.0000
    Dipole Moment (Debye)
         X       2.5242      Y      -2.1107      Z      -0.9755
       Tot       3.4319
    Quadrupole Moments (Debye-Ang)
        XX     -78.9306     XY       8.5205     YY     -46.7908
        XZ      14.2642     YZ      -6.3668     ZZ     -60.2662
    Octopole Moments (Debye-Ang^2)
       XXX    1137.9905    XXY      66.5454    XYY     280.1559
       YYY     318.0801    XXZ    -307.8557    XYZ      21.0626
       YYZ    -163.4010    XZZ     396.9350    YZZ     111.6831
       ZZZ    -588.3065
    Hexadecapole Moments (Debye-Ang^3)
      XXXX  -13044.4558   XXXY   -1763.6619   XXYY   -2110.4194
      XYYY   -1996.3997   YYYY   -2118.9654   XXXZ    4157.7583
      XXYZ     300.8052   XYYZ     987.8041   YYYZ    1104.2800
      XXZZ   -3315.9129   XYZZ    -781.7141   YYZZ   -1032.9307
      XZZZ    3668.8156   YZZZ    1282.0521   ZZZZ   -4062.6517
 -----------------------------------------------------------------
 Calculating analytic gradient of the SCF energy
 Gradient of CDS energy
            1           2           3           4           5           6
    1   0.0010828  -0.0003271  -0.0002008   0.0000764  -0.0000826  -0.0008047
    2   0.0001125   0.0001802  -0.0002157   0.0002221   0.0001558   0.0060120
    3   0.0003683   0.0000800   0.0001864  -0.0004757  -0.0000090   0.0003215
            7           8           9          10          11          12
    1  -0.0003900  -0.0001665  -0.0004101  -0.0001646   0.0000760   0.0000269
    2   0.0002170   0.0001334  -0.0003016  -0.0001231  -0.0005153  -0.0002049
    3  -0.0000420  -0.0000156  -0.0000650  -0.0000286  -0.0000187  -0.0000091
           13          14          15          16          17
    1   0.0003603   0.0001938  -0.0000559   0.0007785   0.0000076
    2  -0.0000100  -0.0000154  -0.0002208  -0.0058203   0.0003940
    3   0.0000147   0.0000199  -0.0000671  -0.0001803  -0.0000796
 Gradient of SCF Energy
            1           2           3           4           5           6
    1  -0.0110059   0.0003019   0.0016740   0.0007825   0.0008925   0.0060671
    2   0.0070197   0.0010088   0.0066571  -0.0059368   0.0048285  -0.0006898
    3  -0.0093927   0.0060012   0.0161768  -0.0134473   0.0012076  -0.0000570
            7           8           9          10          11          12
    1   0.0044987  -0.0006309   0.0025365  -0.0029899  -0.0043119   0.0009235
    2  -0.0042527  -0.0012870   0.0047726  -0.0023862   0.0034697  -0.0048342
    3   0.0012827  -0.0002641   0.0008045  -0.0006145  -0.0003779  -0.0002513
           13          14          15          16          17
    1  -0.0113530   0.0083275   0.0071770  -0.0073458   0.0044561
    2  -0.0021468  -0.0026919  -0.0051385   0.0016655  -0.0000578
    3  -0.0010210   0.0007494  -0.0012764   0.0017092  -0.0012290
 Max gradient component =       1.618E-02
 RMS gradient           =       5.236E-03
 Computing fast CPCM-SWIG gradient
 Updating gradient with PCM contributions...
 -- total gradient after adding PCM contribution --
---------------------------------------------------
  Atom         X              Y              Z     
---------------------------------------------------
   1       0.001076      -0.000076      -0.000031
   2      -0.000102       0.000012       0.000044
   3      -0.000115      -0.000008       0.000057
   4       0.000010       0.000007       0.000038
   5      -0.000343      -0.000111      -0.000055
   6      -0.000036      -0.000089       0.000006
   7      -0.000017       0.000010      -0.000019
   8       0.000005      -0.000009      -0.000011
   9       0.000007       0.000019      -0.000028
  10       0.000010       0.000000      -0.000028
  11       0.000020       0.000026      -0.000009
  12       0.000003       0.000005      -0.000029
  13      -0.000002      -0.000028      -0.000020
  14      -0.000004       0.000006      -0.000002
  15      -0.000475       0.000209       0.000078
  16      -0.000033       0.000015       0.000024
  17      -0.000004       0.000012      -0.000015
---------------------------------------------------
 Number of fixed atoms: 0
 Gradient time:  CPU 285.38 s  wall 40.56 s
 ----------------------------------------------------------------
             Standard Nuclear Orientation (Angstroms)
    I     Atom           X                Y                Z
 ----------------------------------------------------------------
    1      C      -4.1667591026    -1.3118455801     3.8853245148
    2      H      -4.2276465460    -0.9088786730     4.8964569500
    3      O      -4.1329931787    -0.1613145538     3.0274790853
    4      H      -4.0369884259    -0.4679233637     2.1183251173
    5      C      -5.3392630310    -2.2108369850     3.6066153787
    6      C      -6.6216274900    -1.6778362713     3.4559191125
    7      C      -7.7188260163    -2.5041562816     3.2636296777
    8      H      -8.6989569953    -2.0599517383     3.1523355869
    9      C      -7.5427869092    -3.8795160783     3.2165216192
   10      H      -8.4007210941    -4.5210657409     3.0672675737
   11      C      -6.2745237512    -4.4292571434     3.3481926206
   12      H      -6.1338959959    -5.5002022668     3.3007660831
   13      C      -5.1844302599    -3.5901330178     3.5359765209
   14      H      -4.1902112890    -4.0074756736     3.6395020632
   15      H      -3.2369814995    -1.8759901440     3.8023322922
   16      O      -6.8387683878    -0.3205125191     3.5117451809
   17      H      -5.9869130275     0.1243992307     3.3625928232
 ----------------------------------------------------------------
 Nuclear Repulsion Energy =         433.39293878 hartrees
 There are       33 alpha and       33 beta electrons
 Discretize the solute cavity surface with Lebedev spheres
	Using 110 Lebedev grid points for each H atom
	Using 194 Lebedev grid points for other atoms
	Atomic van der Waals radii will be scaled by 1.20
 Remove points where switching function is < 1.0e-08
 Keep 1241 surface tesserae and discard 1385 interior tesserae
 Molecular Surface Area = 147.347 Angst**2
 Requested basis set is 6-311++G(2df,2p)
 There are 120 shells and 386 basis functions
 A cutoff of  1.0D-12 yielded   6599 shell pairs
 There are     69159 function pairs (     86226 Cartesian)
 Smallest overlap matrix eigenvalue = 6.67E-07
 Linear dependence detected in AO basis
 Tighter screening thresholds may be required for diffuse basis sets
 Use S2THRESH > 14 and THRESH = 14 in case of SCF convergence issues
 Number of orthogonalized atomic orbitals = 385
 Maximum deviation from orthogonality = 9.673E-11
 Guess MOs from SCF MO coefficient file

 -----------------------------------------------------------------------
  General SCF calculation program by
  Eric Jon Sundstrom, Paul Horn, Yuezhi Mao, Dmitri Zuev, Alec White,
  David Stuck, Shaama M.S., Shane Yost, Joonho Lee, David Small,
  Daniel Levine, Susi Lehtola, Hugh Burton, Evgeny Epifanovsky,
  Bang C. Huynh
 -----------------------------------------------------------------------
 Exchange:     0.1500 Hartree-Fock + 1.0000 wB97M-V + LR-HF
 Correlation:  1.0000 wB97M-V
 Using SG-2 standard quadrature grid
 Nonlocal Correlation:  VV10 with C = 0.0100 and b = 6.00 and scale = 1.00000
 Grid used for NLC:  SG-1 standard quadrature
 
 Citation of the SMD model:
 Marenich, A.V.; Cramer, C.J.; Truhlar, D.G.
 J. Phys. Chem. B 2009, 113, 6378-6396.
 iSolventCode=           1
 Solvent: water                                                           
 
 vradii
            1           2           3           4           5           6
    1   1.8500000   1.2000000   1.5200000   1.2000000   1.8500000   1.8500000
            7           8           9          10          11          12
    1   1.8500000   1.2000000   1.8500000   1.2000000   1.8500000   1.2000000
           13          14          15          16          17
    1   1.8500000   1.2000000   1.2000000   1.5200000   1.2000000
 -------------------------------------------------------
 OpenMP BLAS3 based DFT computing Module                
 Release: version 1.0, May 2013, Q-Chem Inc. Pittsburgh 
 -------------------------------------------------------
 A restricted SCF calculation will be
 performed using Roothaan-Hall, DIIS, GDM
 SCF converges when RMS gradient is below 1.0e-07
 ---------------------------------------
  Cycle       Energy         DIIS error
 ---------------------------------------
    1    -421.9829899852      3.15e-04  Roothaan Step
 ---------------------------------------
  Cycle       Energy         DIIS error
 ---------------------------------------
    1    -422.0011436911      3.55e-04  
    2    -422.0036447649      2.69e-04  Done DIIS. Switching to GDM
 ---------------------------------------
  Cycle       Energy        RMS Gradient
 ---------------------------------------
    1    -422.0036447649      4.77e-03   Normal BFGS step
    2    -422.0038352145      6.12e-03   Normal BFGS step
    3    -422.0047426091      6.32e-04   Normal BFGS step
    4    -422.0047517039      3.34e-04   Normal BFGS step
    5    -422.0047564897      1.18e-04   Normal BFGS step
    6    -422.0047566548      5.01e-05   Normal BFGS step
    7    -422.0047567090      1.75e-05   Normal BFGS step
    8    -422.0047567124      8.10e-06   Normal BFGS step
    9    -422.0047567132      2.28e-06   Normal BFGS step
   10    -422.0047567133      1.36e-06   Normal BFGS step
   11    -422.0047567133      7.66e-07   Normal BFGS step
   12    -422.0047567133      1.97e-07   Normal BFGS step
   13    -422.0047567133      8.39e-08  Convergence criterion met
 ---------------------------------------
 SCF time:   CPU 1291.51s  wall 164.00s 
(3)  G-ENP(liq) elect-nuc-pol free energy of system     -422.004756713 a.u.
(4)  G-CDS(liq) cavity-dispersion-solvent structure 
     free energy                                                3.6007 kcal/mol
(6)  G-S(liq) free energy of system                     -421.999018580 a.u.
 SCF   energy in the final basis set =     -421.9990185799
 Total energy in the final basis set =     -421.9990185799
 
 --------------------------------------------------------------
 
                    Orbital Energies (a.u.)
 --------------------------------------------------------------
 
 Alpha MOs
 -- Occupied --
-19.3539 -19.3467 -10.4071 -10.3916 -10.3499 -10.3458 -10.3451 -10.3394
-10.3370  -1.1870  -1.1587  -0.9849  -0.8938  -0.8642  -0.8004  -0.7262
 -0.7185  -0.6596  -0.6139  -0.6061  -0.5625  -0.5600  -0.5462  -0.5295
 -0.5210  -0.4933  -0.4794  -0.4520  -0.4431  -0.4396  -0.3967  -0.3449
 -0.3183
 -- Virtual --
  0.0225   0.0341   0.0374   0.0458   0.0536   0.0571   0.0621   0.0721
  0.0773   0.0858   0.0975   0.1041   0.1074   0.1217   0.1411   0.1423
  0.1447   0.1523   0.1563   0.1599   0.1650   0.1720   0.1752   0.1782
  0.1834   0.1858   0.1925   0.2044   0.2056   0.2126   0.2239   0.2296
  0.2389   0.2494   0.2534   0.2653   0.2663   0.2728   0.2794   0.2849
  0.2944   0.2995   0.3143   0.3292   0.3365   0.3395   0.3436   0.3539
  0.3585   0.3677   0.3732   0.3795   0.3869   0.4041   0.4133   0.4227
  0.4371   0.4495   0.4631   0.4810   0.4883   0.5410   0.5506   0.5591
  0.5850   0.5977   0.5995   0.6089   0.6115   0.6188   0.6226   0.6347
  0.6385   0.6570   0.6647   0.6731   0.6856   0.6949   0.7062   0.7193
  0.7199   0.7324   0.7377   0.7420   0.7494   0.7594   0.7738   0.7802
  0.7841   0.7994   0.8058   0.8259   0.8376   0.8398   0.8524   0.8593
  0.8773   0.8861   0.8995   0.9105   0.9227   0.9413   0.9432   0.9690
  0.9969   1.0313   1.0500   1.0536   1.0725   1.0799   1.0996   1.1158
  1.1233   1.1452   1.1587   1.1698   1.1952   1.1970   1.2070   1.2085
  1.2148   1.2570   1.2673   1.2756   1.2813   1.2909   1.2995   1.3175
  1.3405   1.3628   1.3744   1.3876   1.4026   1.4083   1.4139   1.4323
  1.4400   1.4468   1.4563   1.4767   1.4942   1.5066   1.5223   1.5296
  1.5445   1.5613   1.5681   1.5967   1.6189   1.6360   1.6408   1.6753
  1.7367   1.7513   1.7678   1.7904   1.8094   1.8175   1.8629   1.9328
  1.9604   1.9889   2.0416   2.0590   2.0881   2.0987   2.1115   2.1286
  2.1683   2.2181   2.3091   2.3512   2.3960   2.4402   2.5053   2.5646
  2.5997   2.6138   2.6359   2.6718   2.7056   2.7142   2.7445   2.7901
  2.7951   2.8116   2.8267   2.8369   2.8440   2.8627   2.8720   2.8807
  2.9084   2.9119   2.9200   2.9428   2.9508   2.9622   2.9746   2.9771
  3.0067   3.0223   3.0315   3.0430   3.0849   3.1107   3.1224   3.1720
  3.1896   3.2036   3.2148   3.2309   3.2400   3.2467   3.2603   3.2621
  3.2788   3.2992   3.3040   3.3204   3.3517   3.3659   3.3882   3.3947
  3.4103   3.4367   3.4540   3.4600   3.4637   3.4777   3.5107   3.5213
  3.5281   3.5323   3.5522   3.5761   3.5894   3.6202   3.6416   3.6514
  3.6811   3.6946   3.7082   3.7568   3.7634   3.7915   3.8101   3.8191
  3.8295   3.8465   3.8633   3.8809   3.9142   3.9243   3.9293   3.9369
  3.9544   3.9770   3.9843   4.0108   4.0474   4.0843   4.1046   4.1212
  4.1383   4.1542   4.1886   4.1942   4.1999   4.2422   4.2863   4.3032
  4.3230   4.3412   4.3695   4.3780   4.3944   4.4168   4.4253   4.4459
  4.4485   4.4959   4.5155   4.5508   4.5624   4.5691   4.5902   4.6061
  4.6182   4.6244   4.6828   4.7393   4.7913   4.8040   4.8191   4.8428
  4.9231   5.0288   5.0908   5.1408   5.1822   5.2166   5.2477   5.2707
  5.2815   5.3114   5.3280   5.3484   5.3654   5.3963   5.4694   5.5264
  5.5640   5.5880   5.6547   5.6976   5.7153   5.7311   5.7741   5.7881
  5.8303   5.8822   5.8994   5.9313   5.9705   6.0439   6.1850   6.4070
  6.6020   6.7421   6.8852   7.0823   7.1432   7.2957   7.2978   7.3136
  7.3652   7.3992   7.5221   7.6496   7.7535   7.7754   7.8812  24.2096
 24.7938  24.8191  24.8469  25.0678  25.0953  25.5317  50.5987  50.6723
 --------------------------------------------------------------
 
          Ground-State Mulliken Net Atomic Charges

     Atom                 Charge (a.u.)
  ----------------------------------------
      1 C                    -0.555837
      2 H                     0.219225
      3 O                    -0.395401
      4 H                     0.329045
      5 C                     0.937356
      6 C                    -0.052259
      7 C                    -0.445595
      8 H                     0.290294
      9 C                    -0.349245
     10 H                     0.284460
     11 C                    -0.488823
     12 H                     0.289345
     13 C                    -0.496775
     14 H                     0.266278
     15 H                     0.254084
     16 O                    -0.447417
     17 H                     0.361264
  ----------------------------------------
  Sum of atomic charges =     0.000000

 -----------------------------------------------------------------
                    Cartesian Multipole Moments
 -----------------------------------------------------------------
    Charge (ESU x 10^10)
                 0.0000
    Dipole Moment (Debye)
         X       2.5181      Y      -2.1123      Z      -0.9756
       Tot       3.4285
    Quadrupole Moments (Debye-Ang)
        XX     -78.8722     XY       8.5438     YY     -46.7796
        XZ      14.2435     YZ      -6.3715     ZZ     -60.2657
    Octopole Moments (Debye-Ang^2)
       XXX    1137.5657    XXY      66.3559    XYY     280.0636
       YYY     318.0153    XXZ    -307.6563    XYZ      21.1385
       YYZ    -163.3663    XZZ     396.8654    YZZ     111.6658
       ZZZ    -588.2949
    Hexadecapole Moments (Debye-Ang^3)
      XXXX  -13041.5682   XXXY   -1762.3049   XXYY   -2109.7270
      XYYY   -1995.9396   YYYY   -2118.6131   XXXZ    4156.3233
      XXYZ     300.1769   XYYZ     987.5067   YYYZ    1104.0728
      XXZZ   -3315.2511   XYZZ    -781.4440   YYZZ   -1032.8077
      XZZZ    3668.5930   YZZZ    1281.9735   ZZZZ   -4062.5442
 -----------------------------------------------------------------
 Calculating analytic gradient of the SCF energy
 Gradient of CDS energy
            1           2           3           4           5           6
    1   0.0010667  -0.0003259  -0.0001949   0.0000767  -0.0000812  -0.0008046
    2   0.0001102   0.0001805  -0.0002179   0.0002218   0.0001569   0.0060120
    3   0.0003743   0.0000806   0.0001855  -0.0004757  -0.0000091   0.0003215
            7           8           9          10          11          12
    1  -0.0003900  -0.0001665  -0.0004101  -0.0001646   0.0000760   0.0000269
    2   0.0002170   0.0001334  -0.0003016  -0.0001231  -0.0005153  -0.0002049
    3  -0.0000420  -0.0000156  -0.0000650  -0.0000286  -0.0000187  -0.0000091
           13          14          15          16          17
    1   0.0003605   0.0001937  -0.0000486   0.0007785   0.0000075
    2  -0.0000098  -0.0000154  -0.0002174  -0.0058203   0.0003940
    3   0.0000146   0.0000199  -0.0000726  -0.0001803  -0.0000798
 Gradient of SCF Energy
            1           2           3           4           5           6
    1  -0.0131627   0.0005206   0.0019227   0.0007838   0.0015768   0.0061819
    2   0.0072482   0.0009640   0.0066177  -0.0059193   0.0050081  -0.0006226
    3  -0.0093511   0.0059397   0.0161687  -0.0134524   0.0013176  -0.0000379
            7           8           9          10          11          12
    1   0.0045082  -0.0006359   0.0025432  -0.0029972  -0.0043184   0.0009209
    2  -0.0042576  -0.0012811   0.0047643  -0.0023916   0.0034564  -0.0048444
    3   0.0012867  -0.0002649   0.0008047  -0.0006154  -0.0003807  -0.0002523
           13          14          15          16          17
    1  -0.0113618   0.0083183   0.0080950  -0.0073562   0.0044607
    2  -0.0021284  -0.0027010  -0.0055270   0.0016909  -0.0000769
    3  -0.0010086   0.0007474  -0.0013854   0.0017056  -0.0012217
 Max gradient component =       1.617E-02
 RMS gradient           =       5.380E-03
 Computing fast CPCM-SWIG gradient
 Updating gradient with PCM contributions...
 -- total gradient after adding PCM contribution --
---------------------------------------------------
  Atom         X              Y              Z     
---------------------------------------------------
   1      -0.001047       0.000159       0.000007
   2       0.000097      -0.000029      -0.000015
   3       0.000120      -0.000045       0.000056
   4       0.000013       0.000024       0.000030
   5       0.000323       0.000086       0.000056
   6       0.000072      -0.000028       0.000031
   7      -0.000004       0.000001      -0.000014
   8       0.000007      -0.000006      -0.000011
   9       0.000009       0.000010      -0.000028
  10       0.000009      -0.000000      -0.000028
  11       0.000010       0.000013      -0.000013
  12       0.000000       0.000002      -0.000029
  13      -0.000025      -0.000009      -0.000015
  14      -0.000005      -0.000001      -0.000002
  15       0.000463      -0.000212      -0.000036
  16      -0.000046       0.000042       0.000020
  17       0.000005      -0.000007      -0.000007
---------------------------------------------------
 Number of fixed atoms: 0
 Gradient time:  CPU 285.09 s  wall 40.77 s
 ----------------------------------------------------------------
             Standard Nuclear Orientation (Angstroms)
    I     Atom           X                Y                Z
 ----------------------------------------------------------------
    1      C      -4.1657591026    -1.3108455801     3.8853245148
    2      H      -4.2276465460    -0.9088786730     4.8964569500
    3      O      -4.1329931787    -0.1613145538     3.0274790853
    4      H      -4.0369884259    -0.4679233637     2.1183251173
    5      C      -5.3392630310    -2.2108369850     3.6066153787
    6      C      -6.6216274900    -1.6778362713     3.4559191125
    7      C      -7.7188260163    -2.5041562816     3.2636296777
    8      H      -8.6989569953    -2.0599517383     3.1523355869
    9      C      -7.5427869092    -3.8795160783     3.2165216192
   10      H      -8.4007210941    -4.5210657409     3.0672675737
   11      C      -6.2745237512    -4.4292571434     3.3481926206
   12      H      -6.1338959959    -5.5002022668     3.3007660831
   13      C      -5.1844302599    -3.5901330178     3.5359765209
   14      H      -4.1902112890    -4.0074756736     3.6395020632
   15      H      -3.2369814995    -1.8759901440     3.8023322922
   16      O      -6.8387683878    -0.3205125191     3.5117451809
   17      H      -5.9869130275     0.1243992307     3.3625928232
 ----------------------------------------------------------------
 Nuclear Repulsion Energy =         433.37863388 hartrees
 There are       33 alpha and       33 beta electrons
 Discretize the solute cavity surface with Lebedev spheres
	Using 110 Lebedev grid points for each H atom
	Using 194 Lebedev grid points for other atoms
	Atomic van der Waals radii will be scaled by 1.20
 Remove points where switching function is < 1.0e-08
 Keep 1241 surface tesserae and discard 1385 interior tesserae
 Molecular Surface Area = 147.351 Angst**2
 Requested basis set is 6-311++G(2df,2p)
 There are 120 shells and 386 basis functions
 A cutoff of  1.0D-12 yielded   6599 shell pairs
 There are     69159 function pairs (     86226 Cartesian)
 Smallest overlap matrix eigenvalue = 6.67E-07
 Linear dependence detected in AO basis
 Tighter screening thresholds may be required for diffuse basis sets
 Use S2THRESH > 14 and THRESH = 14 in case of SCF convergence issues
 Number of orthogonalized atomic orbitals = 385
 Maximum deviation from orthogonality = 6.480E-11
 Guess MOs from SCF MO coefficient file

 -----------------------------------------------------------------------
  General SCF calculation program by
  Eric Jon Sundstrom, Paul Horn, Yuezhi Mao, Dmitri Zuev, Alec White,
  David Stuck, Shaama M.S., Shane Yost, Joonho Lee, David Small,
  Daniel Levine, Susi Lehtola, Hugh Burton, Evgeny Epifanovsky,
  Bang C. Huynh
 -----------------------------------------------------------------------
 Exchange:     0.1500 Hartree-Fock + 1.0000 wB97M-V + LR-HF
 Correlation:  1.0000 wB97M-V
 Using SG-2 standard quadrature grid
 Nonlocal Correlation:  VV10 with C = 0.0100 and b = 6.00 and scale = 1.00000
 Grid used for NLC:  SG-1 standard quadrature
 
 Citation of the SMD model:
 Marenich, A.V.; Cramer, C.J.; Truhlar, D.G.
 J. Phys. Chem. B 2009, 113, 6378-6396.
 iSolventCode=           1
 Solvent: water                                                           
 
 vradii
            1           2           3           4           5           6
    1   1.8500000   1.2000000   1.5200000   1.2000000   1.8500000   1.8500000
            7           8           9          10          11          12
    1   1.8500000   1.2000000   1.8500000   1.2000000   1.8500000   1.2000000
           13          14          15          16          17
    1   1.8500000   1.2000000   1.2000000   1.5200000   1.2000000
 -------------------------------------------------------
 OpenMP BLAS3 based DFT computing Module                
 Release: version 1.0, May 2013, Q-Chem Inc. Pittsburgh 
 -------------------------------------------------------
 A restricted SCF calculation will be
 performed using Roothaan-Hall, DIIS, GDM
 SCF converges when RMS gradient is below 1.0e-07
 ---------------------------------------
  Cycle       Energy         DIIS error
 ---------------------------------------
    1    -421.9830073815      3.15e-04  Roothaan Step
 ---------------------------------------
  Cycle       Energy         DIIS error
 ---------------------------------------
    1    -422.0011531939      3.54e-04  
    2    -422.0036576328      2.68e-04  Done DIIS. Switching to GDM
 ---------------------------------------
  Cycle       Energy        RMS Gradient
 ---------------------------------------
    1    -422.0036576328      4.73e-03   Normal BFGS step
    2    -422.0038507457      6.08e-03   Normal BFGS step
    3    -422.0047448482      6.30e-04   Normal BFGS step
    4    -422.0047539550      3.35e-04   Normal BFGS step
    5    -422.0047587395      1.18e-04   Normal BFGS step
    6    -422.0047589041      5.05e-05   Normal BFGS step
    7    -422.0047589583      1.76e-05   Normal BFGS step
    8    -422.0047589617      8.15e-06   Normal BFGS step
    9    -422.0047589625      2.36e-06   Normal BFGS step
   10    -422.0047589626      1.33e-06   Normal BFGS step
   11    -422.0047589626      7.83e-07   Normal BFGS step
   12    -422.0047589626      1.97e-07   Normal BFGS step
   13    -422.0047589626      8.50e-08  Convergence criterion met
 ---------------------------------------
 SCF time:   CPU 1290.39s  wall 164.00s 
(3)  G-ENP(liq) elect-nuc-pol free energy of system     -422.004758963 a.u.
(4)  G-CDS(liq) cavity-dispersion-solvent structure 
     free energy                                                3.6021 kcal/mol
(6)  G-S(liq) free energy of system                     -421.999018593 a.u.
 SCF   energy in the final basis set =     -421.9990185932
 Total energy in the final basis set =     -421.9990185932
 
 --------------------------------------------------------------
 
                    Orbital Energies (a.u.)
 --------------------------------------------------------------
 
 Alpha MOs
 -- Occupied --
-19.3539 -19.3467 -10.4070 -10.3916 -10.3499 -10.3458 -10.3451 -10.3394
-10.3370  -1.1870  -1.1589  -0.9848  -0.8936  -0.8642  -0.8004  -0.7262
 -0.7185  -0.6596  -0.6139  -0.6062  -0.5625  -0.5601  -0.5461  -0.5295
 -0.5211  -0.4933  -0.4793  -0.4520  -0.4431  -0.4396  -0.3966  -0.3449
 -0.3182
 -- Virtual --
  0.0225   0.0341   0.0374   0.0458   0.0536   0.0571   0.0621   0.0722
  0.0773   0.0858   0.0975   0.1041   0.1074   0.1217   0.1411   0.1423
  0.1447   0.1523   0.1563   0.1599   0.1650   0.1720   0.1752   0.1782
  0.1834   0.1858   0.1925   0.2044   0.2056   0.2126   0.2239   0.2297
  0.2389   0.2494   0.2535   0.2653   0.2663   0.2728   0.2794   0.2849
  0.2944   0.2994   0.3143   0.3292   0.3365   0.3395   0.3437   0.3539
  0.3585   0.3677   0.3731   0.3794   0.3869   0.4041   0.4133   0.4228
  0.4371   0.4494   0.4632   0.4810   0.4881   0.5410   0.5506   0.5591
  0.5851   0.5976   0.5996   0.6089   0.6115   0.6188   0.6226   0.6347
  0.6385   0.6570   0.6647   0.6730   0.6856   0.6949   0.7062   0.7193
  0.7200   0.7324   0.7377   0.7420   0.7494   0.7594   0.7738   0.7802
  0.7840   0.7994   0.8058   0.8259   0.8375   0.8397   0.8524   0.8593
  0.8772   0.8861   0.8995   0.9104   0.9227   0.9412   0.9432   0.9689
  0.9969   1.0314   1.0500   1.0536   1.0725   1.0800   1.0997   1.1157
  1.1233   1.1451   1.1587   1.1698   1.1952   1.1969   1.2070   1.2085
  1.2149   1.2569   1.2672   1.2755   1.2813   1.2909   1.2995   1.3175
  1.3406   1.3628   1.3744   1.3877   1.4026   1.4083   1.4138   1.4323
  1.4400   1.4468   1.4563   1.4767   1.4941   1.5065   1.5222   1.5295
  1.5445   1.5613   1.5681   1.5967   1.6188   1.6359   1.6408   1.6753
  1.7367   1.7512   1.7677   1.7904   1.8094   1.8174   1.8627   1.9328
  1.9605   1.9889   2.0415   2.0589   2.0881   2.0987   2.1115   2.1288
  2.1682   2.2182   2.3090   2.3514   2.3960   2.4402   2.5051   2.5646
  2.5996   2.6138   2.6356   2.6717   2.7055   2.7142   2.7444   2.7900
  2.7950   2.8115   2.8267   2.8370   2.8440   2.8628   2.8719   2.8807
  2.9084   2.9119   2.9199   2.9429   2.9508   2.9622   2.9745   2.9771
  3.0067   3.0223   3.0315   3.0430   3.0849   3.1107   3.1224   3.1720
  3.1896   3.2036   3.2148   3.2309   3.2401   3.2469   3.2602   3.2622
  3.2789   3.2992   3.3039   3.3204   3.3516   3.3661   3.3882   3.3948
  3.4103   3.4366   3.4539   3.4602   3.4638   3.4776   3.5108   3.5213
  3.5279   3.5323   3.5521   3.5762   3.5894   3.6202   3.6415   3.6513
  3.6811   3.6945   3.7083   3.7568   3.7632   3.7917   3.8103   3.8191
  3.8294   3.8465   3.8632   3.8807   3.9144   3.9242   3.9292   3.9370
  3.9544   3.9769   3.9842   4.0110   4.0476   4.0843   4.1047   4.1210
  4.1382   4.1542   4.1884   4.1941   4.1999   4.2422   4.2861   4.3034
  4.3232   4.3409   4.3692   4.3779   4.3942   4.4173   4.4250   4.4458
  4.4484   4.4960   4.5154   4.5506   4.5622   4.5690   4.5902   4.6060
  4.6181   4.6242   4.6823   4.7392   4.7910   4.8032   4.8190   4.8427
  4.9231   5.0288   5.0907   5.1404   5.1821   5.2165   5.2477   5.2707
  5.2815   5.3113   5.3282   5.3483   5.3655   5.3963   5.4691   5.5265
  5.5641   5.5889   5.6547   5.6975   5.7155   5.7308   5.7741   5.7878
  5.8302   5.8826   5.8994   5.9314   5.9707   6.0449   6.1849   6.4069
  6.6040   6.7419   6.8851   7.0824   7.1432   7.2959   7.2978   7.3136
  7.3654   7.3992   7.5221   7.6500   7.7536   7.7755   7.8811  24.2094
 24.7944  24.8184  24.8468  25.0674  25.0952  25.5314  50.5988  50.6722
 --------------------------------------------------------------
 
          Ground-State Mulliken Net Atomic Charges

     Atom                 Charge (a.u.)
  ----------------------------------------
      1 C                    -0.555135
      2 H                     0.219337
      3 O                    -0.394912
      4 H                     0.329090
      5 C                     0.936018
      6 C                    -0.052441
      7 C                    -0.445677
      8 H                     0.290295
      9 C                    -0.349431
     10 H                     0.284444
     11 C                    -0.488847
     12 H                     0.289358
     13 C                    -0.496179
     14 H                     0.266282
     15 H                     0.253953
     16 O                    -0.447422
     17 H                     0.361268
  ----------------------------------------
  Sum of atomic charges =     0.000000

 -----------------------------------------------------------------
                    Cartesian Multipole Moments
 -----------------------------------------------------------------
    Charge (ESU x 10^10)
                 0.0000
    Dipole Moment (Debye)
         X       2.5221      Y      -2.1072      Z      -0.9770
       Tot       3.4287
    Quadrupole Moments (Debye-Ang)
        XX     -78.9164     XY       8.5115     YY     -46.7975
        XZ      14.2623     YZ      -6.3530     ZZ     -60.2746
    Octopole Moments (Debye-Ang^2)
       XXX    1137.9349    XXY      66.5636    XYY     280.1727
       YYY     318.0745    XXZ    -307.8264    XYZ      21.0259
       YYZ    -163.4282    XZZ     396.9438    YZZ     111.7324
       ZZZ    -588.3416
    Hexadecapole Moments (Debye-Ang^3)
      XXXX  -13044.4504   XXXY   -1763.6955   XXYY   -2110.4398
      XYYY   -1996.3332   YYYY   -2118.8663   XXXZ    4157.6457
      XXYZ     300.8860   XYYZ     987.8770   YYYZ    1104.2667
      XXZZ   -3315.8889   XYZZ    -781.8445   YYZZ   -1033.0284
      XZZZ    3668.9001   YZZZ    1282.2058   ZZZZ   -4062.7667
 -----------------------------------------------------------------
 Calculating analytic gradient of the SCF energy
 Gradient of CDS energy
            1           2           3           4           5           6
    1   0.0010758  -0.0003267  -0.0001985   0.0000765  -0.0000823  -0.0008047
    2   0.0001139   0.0001789  -0.0002170   0.0002219   0.0001561   0.0060120
    3   0.0003718   0.0000802   0.0001853  -0.0004757  -0.0000090   0.0003215
            7           8           9          10          11          12
    1  -0.0003900  -0.0001665  -0.0004101  -0.0001646   0.0000760   0.0000269
    2   0.0002170   0.0001334  -0.0003016  -0.0001231  -0.0005153  -0.0002049
    3  -0.0000420  -0.0000156  -0.0000650  -0.0000286  -0.0000187  -0.0000091
           13          14          15          16          17
    1   0.0003607   0.0001938  -0.0000521   0.0007785   0.0000074
    2  -0.0000098  -0.0000153  -0.0002198  -0.0058203   0.0003939
    3   0.0000147   0.0000200  -0.0000696  -0.0001803  -0.0000799
 Gradient of SCF Energy
            1           2           3           4           5           6
    1  -0.0121920   0.0004291   0.0018045   0.0007828   0.0011305   0.0061258
    2   0.0080884   0.0008153   0.0063120  -0.0059146   0.0046826  -0.0006168
    3  -0.0092412   0.0057993   0.0163346  -0.0134789   0.0012023  -0.0000380
            7           8           9          10          11          12
    1   0.0045100  -0.0006277   0.0025400  -0.0029900  -0.0043080   0.0009203
    2  -0.0042625  -0.0012834   0.0047658  -0.0023860   0.0034586  -0.0048348
    3   0.0012863  -0.0002643   0.0008045  -0.0006147  -0.0003756  -0.0002518
           13          14          15          16          17
    1  -0.0113870   0.0083121   0.0078315  -0.0073644   0.0044826
    2  -0.0021837  -0.0026916  -0.0055464   0.0016635  -0.0000665
    3  -0.0010251   0.0007464  -0.0013664   0.0017097  -0.0012270
 Max gradient component =       1.633E-02
 RMS gradient           =       5.339E-03
 Computing fast CPCM-SWIG gradient
 Updating gradient with PCM contributions...
 -- total gradient after adding PCM contribution --
---------------------------------------------------
  Atom         X              Y              Z     
---------------------------------------------------
   1      -0.000103       0.000976       0.000120
   2       0.000013      -0.000174      -0.000161
   3       0.000006      -0.000337       0.000200
   4       0.000010       0.000026       0.000020
   5      -0.000107      -0.000245      -0.000047
   6       0.000024      -0.000021       0.000026
   7      -0.000002       0.000002      -0.000015
   8       0.000008      -0.000007      -0.000011
   9       0.000008       0.000014      -0.000028
  10       0.000010       0.000000      -0.000028
  11       0.000020       0.000015      -0.000009
  12       0.000000       0.000004      -0.000029
  13      -0.000058      -0.000060      -0.000031
  14      -0.000008       0.000004      -0.000003
  15       0.000206      -0.000214      -0.000015
  16      -0.000046       0.000019       0.000022
  17       0.000018      -0.000002      -0.000011
---------------------------------------------------
 Number of fixed atoms: 0
 Gradient time:  CPU 287.88 s  wall 41.98 s
 ----------------------------------------------------------------
             Standard Nuclear Orientation (Angstroms)
    I     Atom           X                Y                Z
 ----------------------------------------------------------------
    1      C      -4.1657591026    -1.3128455801     3.8853245148
    2      H      -4.2276465460    -0.9088786730     4.8964569500
    3      O      -4.1329931787    -0.1613145538     3.0274790853
    4      H      -4.0369884259    -0.4679233637     2.1183251173
    5      C      -5.3392630310    -2.2108369850     3.6066153787
    6      C      -6.6216274900    -1.6778362713     3.4559191125
    7      C      -7.7188260163    -2.5041562816     3.2636296777
    8      H      -8.6989569953    -2.0599517383     3.1523355869
    9      C      -7.5427869092    -3.8795160783     3.2165216192
   10      H      -8.4007210941    -4.5210657409     3.0672675737
   11      C      -6.2745237512    -4.4292571434     3.3481926206
   12      H      -6.1338959959    -5.5002022668     3.3007660831
   13      C      -5.1844302599    -3.5901330178     3.5359765209
   14      H      -4.1902112890    -4.0074756736     3.6395020632
   15      H      -3.2369814995    -1.8759901440     3.8023322922
   16      O      -6.8387683878    -0.3205125191     3.5117451809
   17      H      -5.9869130275     0.1243992307     3.3625928232
 ----------------------------------------------------------------
 Nuclear Repulsion Energy =         433.37804792 hartrees
 There are       33 alpha and       33 beta electrons
 Discretize the solute cavity surface with Lebedev spheres
	Using 110 Lebedev grid points for each H atom
	Using 194 Lebedev grid points for other atoms
	Atomic van der Waals radii will be scaled by 1.20
 Remove points where switching function is < 1.0e-08
 Keep 1240 surface tesserae and discard 1386 interior tesserae
 Molecular Surface Area = 147.347 Angst**2
 Requested basis set is 6-311++G(2df,2p)
 There are 120 shells and 386 basis functions
 A cutoff of  1.0D-12 yielded   6599 shell pairs
 There are     69159 function pairs (     86226 Cartesian)
 Smallest overlap matrix eigenvalue = 6.67E-07
 Linear dependence detected in AO basis
 Tighter screening thresholds may be required for diffuse basis sets
 Use S2THRESH > 14 and THRESH = 14 in case of SCF convergence issues
 Number of orthogonalized atomic orbitals = 385
 Maximum deviation from orthogonality = 5.126E-11
 Guess MOs from SCF MO coefficient file

 -----------------------------------------------------------------------
  General SCF calculation program by
  Eric Jon Sundstrom, Paul Horn, Yuezhi Mao, Dmitri Zuev, Alec White,
  David Stuck, Shaama M.S., Shane Yost, Joonho Lee, David Small,
  Daniel Levine, Susi Lehtola, Hugh Burton, Evgeny Epifanovsky,
  Bang C. Huynh
 -----------------------------------------------------------------------
 Exchange:     0.1500 Hartree-Fock + 1.0000 wB97M-V + LR-HF
 Correlation:  1.0000 wB97M-V
 Using SG-2 standard quadrature grid
 Nonlocal Correlation:  VV10 with C = 0.0100 and b = 6.00 and scale = 1.00000
 Grid used for NLC:  SG-1 standard quadrature
 
 Citation of the SMD model:
 Marenich, A.V.; Cramer, C.J.; Truhlar, D.G.
 J. Phys. Chem. B 2009, 113, 6378-6396.
 iSolventCode=           1
 Solvent: water                                                           
 
 vradii
            1           2           3           4           5           6
    1   1.8500000   1.2000000   1.5200000   1.2000000   1.8500000   1.8500000
            7           8           9          10          11          12
    1   1.8500000   1.2000000   1.8500000   1.2000000   1.8500000   1.2000000
           13          14          15          16          17
    1   1.8500000   1.2000000   1.2000000   1.5200000   1.2000000
 -------------------------------------------------------
 OpenMP BLAS3 based DFT computing Module                
 Release: version 1.0, May 2013, Q-Chem Inc. Pittsburgh 
 -------------------------------------------------------
 A restricted SCF calculation will be
 performed using Roothaan-Hall, DIIS, GDM
 SCF converges when RMS gradient is below 1.0e-07
 ---------------------------------------
  Cycle       Energy         DIIS error
 ---------------------------------------
    1    -421.9830003034      3.15e-04  Roothaan Step
 ---------------------------------------
  Cycle       Energy         DIIS error
 ---------------------------------------
    1    -422.0011372729      3.55e-04  
    2    -422.0036417986      2.70e-04  Done DIIS. Switching to GDM
 ---------------------------------------
  Cycle       Energy        RMS Gradient
 ---------------------------------------
    1    -422.0036417986      4.77e-03   Normal BFGS step
    2    -422.0038320725      6.12e-03   Normal BFGS step
    3    -422.0047445300      6.34e-04   Normal BFGS step
    4    -422.0047536694      3.34e-04   Normal BFGS step
    5    -422.0047584803      1.18e-04   Normal BFGS step
    6    -422.0047586458      5.03e-05   Normal BFGS step
    7    -422.0047587000      1.76e-05   Normal BFGS step
    8    -422.0047587033      8.06e-06   Normal BFGS step
    9    -422.0047587041      2.27e-06   Normal BFGS step
   10    -422.0047587042      1.38e-06   Normal BFGS step
   11    -422.0047587042      7.55e-07   Normal BFGS step
   12    -422.0047587042      1.98e-07   Normal BFGS step
   13    -422.0047587042      8.39e-08  Convergence criterion met
 ---------------------------------------
 SCF time:   CPU 1304.66s  wall 164.00s 
(3)  G-ENP(liq) elect-nuc-pol free energy of system     -422.004758704 a.u.
(4)  G-CDS(liq) cavity-dispersion-solvent structure 
     free energy                                                3.6019 kcal/mol
(6)  G-S(liq) free energy of system                     -421.999018756 a.u.
 SCF   energy in the final basis set =     -421.9990187555
 Total energy in the final basis set =     -421.9990187555
 
 --------------------------------------------------------------
 
                    Orbital Energies (a.u.)
 --------------------------------------------------------------
 
 Alpha MOs
 -- Occupied --
-19.3539 -19.3466 -10.4071 -10.3916 -10.3499 -10.3458 -10.3451 -10.3394
-10.3370  -1.1869  -1.1585  -0.9849  -0.8938  -0.8642  -0.8005  -0.7262
 -0.7185  -0.6595  -0.6140  -0.6060  -0.5625  -0.5598  -0.5462  -0.5295
 -0.5210  -0.4933  -0.4793  -0.4520  -0.4432  -0.4396  -0.3968  -0.3449
 -0.3183
 -- Virtual --
  0.0225   0.0341   0.0374   0.0458   0.0536   0.0571   0.0621   0.0721
  0.0773   0.0858   0.0975   0.1041   0.1073   0.1217   0.1411   0.1423
  0.1447   0.1523   0.1563   0.1599   0.1650   0.1720   0.1752   0.1782
  0.1834   0.1858   0.1925   0.2044   0.2056   0.2126   0.2239   0.2296
  0.2388   0.2493   0.2534   0.2652   0.2663   0.2728   0.2794   0.2849
  0.2944   0.2995   0.3143   0.3290   0.3365   0.3395   0.3436   0.3538
  0.3585   0.3677   0.3732   0.3795   0.3868   0.4041   0.4132   0.4227
  0.4370   0.4494   0.4632   0.4810   0.4883   0.5411   0.5506   0.5592
  0.5850   0.5977   0.5995   0.6089   0.6115   0.6188   0.6226   0.6347
  0.6385   0.6571   0.6647   0.6731   0.6855   0.6949   0.7062   0.7193
  0.7199   0.7324   0.7377   0.7420   0.7494   0.7594   0.7739   0.7801
  0.7841   0.7994   0.8058   0.8259   0.8376   0.8398   0.8524   0.8593
  0.8773   0.8861   0.8995   0.9105   0.9227   0.9413   0.9432   0.9689
  0.9969   1.0313   1.0500   1.0536   1.0725   1.0799   1.0996   1.1158
  1.1233   1.1452   1.1588   1.1698   1.1952   1.1970   1.2070   1.2084
  1.2149   1.2570   1.2672   1.2755   1.2813   1.2909   1.2994   1.3174
  1.3406   1.3628   1.3745   1.3876   1.4026   1.4083   1.4139   1.4323
  1.4400   1.4468   1.4563   1.4768   1.4942   1.5067   1.5220   1.5295
  1.5446   1.5613   1.5682   1.5967   1.6189   1.6362   1.6411   1.6751
  1.7368   1.7512   1.7678   1.7904   1.8094   1.8175   1.8629   1.9328
  1.9603   1.9890   2.0415   2.0588   2.0881   2.0987   2.1114   2.1288
  2.1679   2.2176   2.3089   2.3508   2.3960   2.4402   2.5053   2.5646
  2.5996   2.6138   2.6359   2.6718   2.7051   2.7141   2.7443   2.7900
  2.7950   2.8115   2.8267   2.8371   2.8440   2.8626   2.8720   2.8806
  2.9084   2.9119   2.9199   2.9429   2.9508   2.9622   2.9745   2.9770
  3.0067   3.0223   3.0315   3.0429   3.0848   3.1106   3.1223   3.1721
  3.1895   3.2036   3.2147   3.2308   3.2400   3.2467   3.2602   3.2620
  3.2787   3.2992   3.3040   3.3204   3.3519   3.3658   3.3880   3.3947
  3.4102   3.4367   3.4539   3.4600   3.4637   3.4775   3.5106   3.5212
  3.5280   3.5322   3.5521   3.5759   3.5893   3.6203   3.6417   3.6512
  3.6810   3.6945   3.7081   3.7571   3.7633   3.7914   3.8102   3.8189
  3.8295   3.8462   3.8632   3.8815   3.9142   3.9244   3.9293   3.9369
  3.9543   3.9771   3.9841   4.0112   4.0473   4.0843   4.1047   4.1212
  4.1387   4.1543   4.1887   4.1944   4.2000   4.2424   4.2862   4.3034
  4.3230   4.3413   4.3698   4.3778   4.3946   4.4176   4.4255   4.4460
  4.4484   4.4959   4.5154   4.5509   4.5625   4.5692   4.5902   4.6061
  4.6184   4.6247   4.6826   4.7392   4.7914   4.8041   4.8189   4.8430
  4.9231   5.0289   5.0911   5.1406   5.1822   5.2166   5.2477   5.2706
  5.2815   5.3113   5.3282   5.3485   5.3654   5.3962   5.4694   5.5267
  5.5633   5.5882   5.6547   5.6976   5.7163   5.7309   5.7744   5.7878
  5.8304   5.8819   5.8995   5.9305   5.9702   6.0424   6.1849   6.4070
  6.5998   6.7421   6.8853   7.0823   7.1432   7.2956   7.2977   7.3133
  7.3650   7.3991   7.5221   7.6491   7.7535   7.7755   7.8811  24.2096
 24.7937  24.8189  24.8470  25.0678  25.0952  25.5316  50.5985  50.6723
 --------------------------------------------------------------
 
          Ground-State Mulliken Net Atomic Charges

     Atom                 Charge (a.u.)
  ----------------------------------------
      1 C                    -0.555535
      2 H                     0.219103
      3 O                    -0.395861
      4 H                     0.328880
      5 C                     0.937236
      6 C                    -0.052850
      7 C                    -0.445485
      8 H                     0.290310
      9 C                    -0.349267
     10 H                     0.284456
     11 C                    -0.488819
     12 H                     0.289336
     13 C                    -0.496455
     14 H                     0.266250
     15 H                     0.254831
     16 O                    -0.447458
     17 H                     0.361329
  ----------------------------------------
  Sum of atomic charges =     0.000000

 -----------------------------------------------------------------
                    Cartesian Multipole Moments
 -----------------------------------------------------------------
    Charge (ESU x 10^10)
                 0.0000
    Dipole Moment (Debye)
         X       2.5202      Y      -2.1158      Z      -0.9741
       Tot       3.4318
    Quadrupole Moments (Debye-Ang)
        XX     -78.8865     XY       8.5527     YY     -46.7729
        XZ      14.2454     YZ      -6.3853     ZZ     -60.2573
    Octopole Moments (Debye-Ang^2)
       XXX    1137.6214    XXY      66.3377    XYY     280.0468
       YYY     318.0210    XXZ    -307.6857    XYZ      21.1751
       YYZ    -163.3391    XZZ     396.8566    YZZ     111.6166
       ZZZ    -588.2599
    Hexadecapole Moments (Debye-Ang^3)
[...]
 Frequency:       991.12                1021.61                1030.86
 Force Cnst:      0.8222                 0.8291                 3.8351
 Red. Mass:       1.4207                 1.3483                 6.1254
 IR Active:          YES                    YES                    YES
 IR Intens:        6.097                  2.049                167.792
 Raman Active:       YES                    YES                    YES
               X      Y      Z        X      Y      Z        X      Y      Z
 C          0.035 -0.044 -0.045    0.005 -0.027  0.012   -0.059  0.388 -0.261
 H         -0.193  0.093 -0.110   -0.023 -0.006  0.001    0.176  0.247 -0.178
 O         -0.006 -0.001  0.007   -0.001  0.018 -0.013    0.014 -0.296  0.219
 H         -0.005  0.219 -0.066    0.001  0.020 -0.014   -0.034  0.039  0.115
 C         -0.004 -0.015  0.066   -0.003 -0.007  0.004    0.045  0.080  0.019
 C         -0.008  0.002  0.009   -0.002  0.001 -0.000    0.029 -0.029  0.015
 C          0.003  0.006 -0.070   -0.003 -0.005  0.055   -0.073  0.055 -0.006
 H         -0.068 -0.038  0.381    0.044  0.004 -0.320   -0.005  0.215 -0.023
 C          0.007 -0.002  0.069    0.020  0.006 -0.112   -0.063 -0.009 -0.028
 H          0.082  0.006 -0.388   -0.072 -0.049  0.657   -0.172  0.090  0.112
 C         -0.005  0.007  0.050   -0.014  0.004  0.100    0.016 -0.162  0.025
 H          0.057  0.030 -0.243    0.072  0.045 -0.555    0.006 -0.166 -0.197
 C         -0.008  0.024 -0.120    0.001  0.006 -0.054    0.072 -0.006 -0.033
 H         -0.104 -0.015  0.640   -0.050 -0.022  0.325    0.107  0.118  0.256
 H          0.105  0.035  0.215    0.015 -0.011  0.029   -0.143  0.221 -0.308
 O         -0.002 -0.002 -0.003   -0.002  0.000  0.002    0.020  0.000 -0.003
 H          0.009 -0.024 -0.015    0.004 -0.009  0.003   -0.076  0.144 -0.009
 TransDip   0.016  0.074  0.024   -0.001 -0.042  0.017    0.035  0.362 -0.199

 Mode:                22                     23                     24
 Frequency:      1067.14                1120.01                1156.78
 Force Cnst:      1.3852                 1.2864                 0.8930
 Red. Mass:       2.0645                 1.7406                 1.1327
 IR Active:          YES                    YES                    YES
 IR Intens:        9.799                 21.276                 12.596
 Raman Active:       YES                    YES                    YES
               X      Y      Z        X      Y      Z        X      Y      Z
 C          0.009 -0.086  0.034   -0.051  0.006 -0.003   -0.004 -0.008 -0.000
 H         -0.076 -0.041  0.009   -0.010 -0.116  0.046   -0.001  0.009 -0.006
 O         -0.006  0.047 -0.036    0.007  0.008 -0.003   -0.002  0.000 -0.001
 H          0.005  0.046 -0.036    0.001 -0.120  0.039    0.002  0.019 -0.006
 C         -0.006  0.016  0.006    0.069 -0.025  0.014    0.007  0.009  0.002
 C          0.019  0.015  0.002    0.088 -0.047  0.014    0.017  0.017  0.004
 C         -0.062  0.115 -0.002   -0.114  0.066 -0.013   -0.025 -0.025 -0.005
 H          0.151  0.629  0.051   -0.020  0.300  0.018   -0.185 -0.392 -0.046
 C         -0.143 -0.068 -0.021    0.056 -0.016  0.008   -0.051  0.048 -0.004
 H         -0.241  0.038 -0.027    0.332 -0.391  0.016   -0.383  0.493 -0.019
 C          0.074 -0.154 -0.000    0.061  0.003  0.009    0.057  0.001  0.008
 H          0.346 -0.135  0.041    0.511  0.065  0.068    0.575  0.064  0.075
 C          0.086  0.045  0.015   -0.147 -0.006 -0.022    0.004 -0.029 -0.002
 H          0.255  0.435  0.055   -0.294 -0.340 -0.049   -0.082 -0.239 -0.021
 H          0.021 -0.069  0.098   -0.056  0.018 -0.118   -0.009 -0.019  0.016
 O         -0.003 -0.018 -0.001   -0.000  0.030 -0.003    0.004 -0.010 -0.000
 H         -0.030  0.031 -0.008   -0.105  0.214  0.008   -0.029  0.048 -0.009
 TransDip   0.031  0.067  0.068    0.026 -0.143  0.026   -0.080  0.080 -0.005

 Mode:                25                     26                     27
 Frequency:      1198.52                1207.01                1227.02
 Force Cnst:      0.9550                 1.5363                 2.8629
 Red. Mass:       1.1284                 1.7898                 3.2274
 IR Active:          YES                    YES                    YES
 IR Intens:       24.381                 30.917                374.312
 Raman Active:       YES                    YES                    YES
               X      Y      Z        X      Y      Z        X      Y      Z
 C         -0.002  0.001  0.052   -0.066 -0.061  0.021    0.035  0.009 -0.017
 H          0.340  0.457 -0.109    0.026  0.023 -0.009   -0.030 -0.006 -0.011
 O         -0.013 -0.030 -0.002   -0.011  0.009 -0.020   -0.002  0.000  0.012
 H          0.005  0.548 -0.189    0.008  0.227 -0.090    0.001 -0.155  0.066
 C         -0.023  0.030 -0.048    0.125  0.096  0.017   -0.099  0.012 -0.008
 C         -0.015  0.020  0.004    0.130 -0.013  0.027    0.011  0.337  0.034
 C          0.015  0.005  0.003   -0.106 -0.029 -0.017   -0.002  0.049 -0.001
 H          0.090  0.174  0.008   -0.291 -0.439 -0.056   -0.145 -0.242 -0.028
 C         -0.001 -0.008 -0.001   -0.015  0.024 -0.001   -0.078 -0.080 -0.015
 H          0.056 -0.085  0.007    0.045 -0.065  0.004    0.224 -0.504  0.003
 C          0.016  0.008  0.003   -0.009 -0.060 -0.005    0.013  0.037  0.004
 H          0.067  0.015  0.005   -0.419 -0.116 -0.058    0.019  0.034  0.004
 C          0.005 -0.041  0.006    0.003  0.032  0.004    0.050 -0.087 -0.001
 H         -0.079 -0.261 -0.062    0.094  0.238  0.024    0.007 -0.200 -0.000
 H         -0.194 -0.342  0.143   -0.208 -0.299  0.049    0.127  0.148  0.023
 O         -0.004 -0.007  0.001    0.023  0.002 -0.005    0.061 -0.179 -0.010
 H          0.044 -0.092 -0.014   -0.195  0.387 -0.003   -0.305  0.472 -0.039
 TransDip   0.002  0.108 -0.116   -0.157  0.085  0.002   -0.126  0.606  0.025

 Mode:                28                     29                     30
 Frequency:      1277.13                1308.67                1379.38
 Force Cnst:      1.8283                 3.0545                 1.3352
 Red. Mass:       1.9025                 3.0271                 1.1910
 IR Active:          YES                    YES                    YES
 IR Intens:        3.349                 19.591                 74.605
 Raman Active:       YES                    YES                    YES
               X      Y      Z        X      Y      Z        X      Y      Z
 C          0.043  0.037  0.037    0.087 -0.003 -0.046   -0.028 -0.005  0.070
 H          0.236  0.244 -0.033   -0.250 -0.110 -0.023   -0.036 -0.306  0.197
 O          0.001 -0.015  0.005   -0.024  0.028  0.008    0.021 -0.051 -0.035
 H         -0.003  0.135 -0.041    0.005 -0.315  0.122   -0.007  0.512 -0.217
 C         -0.129 -0.142 -0.054   -0.168  0.194  0.005   -0.020  0.014 -0.002
 C          0.092 -0.064  0.021    0.090 -0.051  0.010   -0.019 -0.001  0.003
 C          0.002 -0.046 -0.003   -0.044 -0.176 -0.014   -0.019 -0.034 -0.004
 H         -0.018 -0.102 -0.009    0.234  0.451  0.048    0.067  0.168  0.020
 C         -0.033  0.052 -0.002   -0.056  0.109 -0.001    0.020 -0.016  0.001
 H          0.060 -0.068  0.005   -0.027  0.075 -0.000   -0.112  0.163 -0.006
 C          0.037  0.072  0.010    0.174  0.009  0.022    0.029  0.004  0.005
 H          0.171  0.098  0.027   -0.404 -0.065 -0.054   -0.172 -0.021 -0.022
 C         -0.084 -0.051 -0.011   -0.026 -0.122 -0.015    0.001  0.023  0.002
 H          0.219  0.710  0.051   -0.095 -0.283 -0.004   -0.075 -0.157 -0.025
 H          0.116  0.149  0.001    0.006 -0.183  0.228    0.222  0.479 -0.246
 O          0.014  0.027 -0.004    0.018  0.021  0.002    0.021 -0.007 -0.003
 H         -0.158  0.330  0.007   -0.039  0.119  0.006   -0.114  0.238  0.011
 TransDip  -0.026  0.044 -0.028   -0.065 -0.124  0.022   -0.066  0.268 -0.019

 Mode:                31                     32                     33
 Frequency:      1382.37                1409.02                1478.72
 Force Cnst:      1.6636                 1.5398                 1.4014
 Red. Mass:       1.4775                 1.3164                 1.0878
 IR Active:          YES                    YES                    YES
 IR Intens:       33.717                 53.647                  6.177
 Raman Active:       YES                    YES                    YES
               X      Y      Z        X      Y      Z        X      Y      Z
 C          0.042  0.011 -0.019   -0.083 -0.118 -0.015   -0.058  0.009 -0.058
 H          0.055  0.117 -0.063    0.309  0.594 -0.278    0.583 -0.376  0.149
 O         -0.018  0.025  0.010    0.014  0.019  0.032   -0.003  0.006 -0.008
 H          0.003 -0.188  0.083    0.005 -0.267  0.125   -0.002 -0.010 -0.004
 C         -0.024 -0.065 -0.013    0.033  0.018 -0.008    0.009  0.007  0.001
 C         -0.074 -0.059  0.005    0.007  0.015  0.002   -0.005  0.002 -0.000
 C          0.001  0.014 -0.002   -0.028 -0.026 -0.005    0.000 -0.005 -0.000
 H          0.070  0.173  0.026    0.018  0.086  0.005    0.007  0.009 -0.000
 C          0.078 -0.074  0.005    0.006 -0.010  0.000    0.000  0.006  0.000
 H         -0.194  0.296 -0.004   -0.077  0.100 -0.005    0.011 -0.007  0.002
 C         -0.043  0.013 -0.004    0.032 -0.002  0.005   -0.004 -0.002 -0.001
 H         -0.091  0.011 -0.013   -0.159 -0.025 -0.023    0.017  0.001  0.002
 C          0.027  0.078  0.008   -0.010  0.023  0.002   -0.001 -0.005 -0.001
 H         -0.083 -0.182 -0.019   -0.052 -0.073 -0.020    0.005  0.013  0.007
 H         -0.099 -0.272  0.173    0.260  0.473 -0.093    0.108  0.140  0.675
 O          0.055 -0.004 -0.008   -0.002  0.001  0.001    0.000  0.000  0.000
 H         -0.336  0.678  0.026    0.011 -0.013 -0.002    0.009 -0.018 -0.004
 TransDip  -0.119  0.141  0.024   -0.153 -0.173  0.041    0.061 -0.003  0.051

 Mode:                34                     35                     36
 Frequency:      1504.07                1526.92                1653.60
 Force Cnst:      3.3634                 3.8178                10.0992
 Red. Mass:       2.5235                 2.7792                 6.2687
 IR Active:          YES                    YES                    YES
 IR Intens:       66.812                114.840                 87.268
 Raman Active:       YES                    YES                    YES
               X      Y      Z        X      Y      Z        X      Y      Z
 C         -0.000  0.060 -0.010    0.033  0.017  0.005   -0.010  0.035 -0.001
 H         -0.002 -0.086  0.047    0.064 -0.000  0.013    0.031  0.000  0.013
 O          0.001  0.002 -0.000   -0.000  0.002 -0.001    0.002  0.004  0.000
 H         -0.001 -0.006 -0.000   -0.006 -0.003 -0.000    0.002 -0.006  0.004
 C          0.083 -0.141  0.005   -0.155 -0.073 -0.030    0.186 -0.273  0.009
 C          0.056  0.155  0.008    0.110 -0.112  0.007   -0.212  0.104 -0.019
 C         -0.095 -0.011 -0.012    0.057  0.195  0.018    0.079 -0.216 -0.001
 H         -0.023  0.211 -0.000   -0.237 -0.474 -0.053    0.227  0.064  0.033
 C          0.045 -0.138 -0.002   -0.102 -0.064 -0.016   -0.236  0.311 -0.014
 H         -0.373  0.411 -0.025   -0.055 -0.167 -0.017    0.274 -0.381  0.013
 C          0.149  0.102  0.025    0.145 -0.041  0.017    0.195 -0.123  0.018
 H         -0.467  0.041 -0.056   -0.428 -0.127 -0.062   -0.149 -0.191 -0.030
 C         -0.118 -0.012 -0.016    0.014  0.151  0.011   -0.036  0.225  0.009
 H         -0.054  0.191  0.003   -0.250 -0.455 -0.060   -0.217 -0.188 -0.041
 H         -0.177 -0.252  0.039    0.067  0.064  0.074   -0.130 -0.180 -0.017
 O         -0.031 -0.022  0.003   -0.029  0.026 -0.000    0.026 -0.008 -0.000
 H          0.153 -0.342 -0.029    0.072 -0.158  0.001   -0.089  0.205 -0.000
 TransDip   0.004  0.260 -0.028    0.053 -0.339 -0.019   -0.118  0.274 -0.018

 Mode:                37                     38                     39
 Frequency:      1688.68                3069.36                3114.43
 Force Cnst:     10.7820                 5.8722                 6.3355
 Red. Mass:       6.4174                 1.0579                 1.1086
 IR Active:          YES                    YES                    YES
 IR Intens:       37.489                 51.511                 26.842
 Raman Active:       YES                    YES                    YES
               X      Y      Z        X      Y      Z        X      Y      Z
 C          0.029  0.031  0.003   -0.047  0.006 -0.048    0.055 -0.051 -0.059
 H          0.028  0.000  0.012   -0.051  0.267  0.655   -0.033  0.262  0.648
 O          0.002  0.001 -0.000    0.000  0.002 -0.000   -0.000  0.001  0.001
 H         -0.004 -0.007  0.001    0.003 -0.006 -0.010   -0.000 -0.009 -0.008
 C         -0.184 -0.161 -0.038    0.000  0.000  0.000    0.000 -0.001 -0.001
 C          0.329  0.155  0.045    0.001 -0.000  0.000   -0.000 -0.000  0.000
 C         -0.189 -0.233 -0.036   -0.000  0.000 -0.000   -0.000 -0.000 -0.000
 H          0.027  0.306  0.010    0.001 -0.001  0.000   -0.000  0.000  0.000
 C          0.111  0.071  0.018    0.000 -0.000 -0.000   -0.000  0.000 -0.000
 H          0.101  0.114  0.015    0.001  0.001  0.000    0.000  0.000 -0.000
 C         -0.255 -0.102 -0.038   -0.000 -0.000 -0.000    0.000 -0.000  0.000
 H          0.247 -0.050  0.029   -0.000  0.000  0.000   -0.000  0.002  0.000
 C          0.179  0.269  0.039    0.001  0.000 -0.000   -0.001  0.001 -0.000
 H         -0.076 -0.368 -0.035   -0.008  0.001  0.000    0.010 -0.003  0.000
 H         -0.002 -0.023  0.038    0.597 -0.360 -0.072   -0.609  0.356  0.059
 O         -0.048  0.002  0.003    0.000  0.000 -0.000   -0.000  0.000  0.000
 H          0.186 -0.381 -0.033   -0.003 -0.006  0.000   -0.000  0.003 -0.002
 TransDip   0.132  0.145 -0.000   -0.162  0.040 -0.158    0.108 -0.102 -0.075

 Mode:                40                     41                     42
 Frequency:      3182.59                3193.31                3204.81
 Force Cnst:      6.4963                 6.5394                 6.6160
 Red. Mass:       1.0886                 1.0884                 1.0933
 IR Active:          YES                    YES                    YES
 IR Intens:        8.160                  7.115                 22.541
 Raman Active:       YES                    YES                    YES
               X      Y      Z        X      Y      Z        X      Y      Z
 C         -0.001  0.000  0.000   -0.000  0.000  0.000   -0.000  0.000  0.000
 H          0.001 -0.001 -0.002    0.001  0.000 -0.001    0.000 -0.000 -0.000
 O          0.000  0.000 -0.000    0.000  0.000 -0.000    0.000  0.000 -0.000
 H         -0.000 -0.000 -0.000   -0.000 -0.000 -0.000   -0.000 -0.000 -0.000
 C         -0.001 -0.003 -0.000   -0.000 -0.001 -0.000    0.000 -0.001 -0.000
 C          0.001 -0.000  0.000   -0.001 -0.001 -0.000    0.002  0.002  0.000
 C         -0.007  0.003 -0.001    0.039 -0.015  0.005   -0.060  0.027 -0.007
 H          0.080 -0.036  0.009   -0.455  0.201 -0.052    0.675 -0.301  0.077
 C          0.011  0.009  0.002   -0.052 -0.038 -0.009   -0.010 -0.013 -0.002
 H         -0.135 -0.101 -0.023    0.599  0.448  0.104    0.143  0.112  0.025
 C          0.006 -0.029 -0.001   -0.000  0.024  0.001   -0.005  0.053  0.003
 H         -0.049  0.356  0.016    0.034 -0.283 -0.013    0.077 -0.600 -0.027
 C         -0.072  0.031 -0.007   -0.025  0.010 -0.003   -0.018  0.006 -0.002
 H          0.833 -0.355  0.085    0.275 -0.117  0.028    0.184 -0.076  0.019
 H          0.012 -0.004 -0.000    0.004 -0.001 -0.000    0.001 -0.000 -0.000
 O         -0.000  0.000  0.000    0.000  0.000 -0.000   -0.000 -0.000 -0.000
 H          0.002  0.001 -0.000   -0.001  0.000  0.000   -0.001 -0.002  0.000
 TransDip  -0.088  0.023 -0.012   -0.074 -0.042 -0.012   -0.099  0.115 -0.007

 Mode:                43                     44                     45
 Frequency:      3214.35                3629.08                3816.66
 Force Cnst:      6.6860                 8.2765                 9.1531
 Red. Mass:       1.0983                 1.0666                 1.0665
 IR Active:          YES                    YES                    YES
 IR Intens:       14.342                571.596                112.351
 Raman Active:       YES                    YES                    YES
               X      Y      Z        X      Y      Z        X      Y      Z
 C          0.000  0.000  0.000   -0.000  0.001 -0.001    0.000 -0.001 -0.002
 H         -0.000 -0.001 -0.002   -0.001 -0.000  0.003   -0.002  0.004  0.014
 O         -0.000 -0.000  0.000    0.000 -0.000  0.002    0.006 -0.018 -0.059
 H          0.000  0.000  0.000    0.006 -0.012 -0.027   -0.102  0.307  0.943
 C          0.000  0.001  0.000   -0.000  0.001  0.000    0.000 -0.000  0.000
 C          0.001  0.002  0.000   -0.001 -0.003  0.000    0.000  0.000 -0.000
 C         -0.034  0.018 -0.004    0.000  0.001  0.000    0.000  0.000  0.000
 H          0.387 -0.175  0.044    0.001 -0.001  0.000   -0.000  0.000 -0.000
 C         -0.044 -0.032 -0.008    0.000 -0.000 -0.000    0.000 -0.000  0.000
 H          0.476  0.355  0.083    0.001  0.002  0.000   -0.000 -0.000  0.000
 C          0.009 -0.058 -0.002   -0.000  0.000 -0.000   -0.000 -0.000 -0.000
 H         -0.086  0.639  0.028   -0.000 -0.000  0.000   -0.000 -0.000 -0.000
 C          0.017 -0.005  0.002   -0.000 -0.000 -0.000   -0.000  0.000 -0.000
 H         -0.168  0.068 -0.017   -0.002  0.001 -0.000    0.000 -0.000  0.000
 H         -0.003  0.001  0.000    0.003 -0.005  0.001   -0.001 -0.003  0.002
 O         -0.000 -0.000 -0.000   -0.054 -0.030  0.009   -0.002 -0.001  0.000
 H         -0.002 -0.002  0.000    0.856  0.492 -0.142    0.027  0.012 -0.005
 TransDip  -0.061 -0.104 -0.013    0.631  0.416 -0.122   -0.045  0.029  0.335

 STANDARD THERMODYNAMIC QUANTITIES AT   298.15 K  AND     1.00 ATM

   This Molecule has  0 Imaginary Frequencies
   Zero point vibrational energy:       86.950 kcal/mol

   Atom    1 Element C  Has Mass   12.00000
   Atom    2 Element H  Has Mass    1.00783
   Atom    3 Element O  Has Mass   15.99491
   Atom    4 Element H  Has Mass    1.00783
   Atom    5 Element C  Has Mass   12.00000
   Atom    6 Element C  Has Mass   12.00000
   Atom    7 Element C  Has Mass   12.00000
   Atom    8 Element H  Has Mass    1.00783
   Atom    9 Element C  Has Mass   12.00000
   Atom   10 Element H  Has Mass    1.00783
   Atom   11 Element C  Has Mass   12.00000
   Atom   12 Element H  Has Mass    1.00783
   Atom   13 Element C  Has Mass   12.00000
   Atom   14 Element H  Has Mass    1.00783
   Atom   15 Element H  Has Mass    1.00783
   Atom   16 Element O  Has Mass   15.99491
   Atom   17 Element H  Has Mass    1.00783
   Molecular Mass:   124.052460 amu
   Principal axes and moments of inertia in amu*Bohr^2:
                             1           2           3
    Eigenvalues --      595.42663  1277.94844  1799.02458
          X               0.58216     0.81120    -0.05510
          Y               0.81288    -0.58217     0.01749
          Z               0.01789     0.05497     0.99833
   Rotational Symmetry Number is   1
   The Molecule is an Asymmetric Top
   Translational Enthalpy:        0.889 kcal/mol
   Rotational Enthalpy:           0.889 kcal/mol
   Vibrational Enthalpy:         90.046 kcal/mol
   gas constant (RT):             0.592 kcal/mol
   Translational Entropy:        40.360  cal/mol.K
   Rotational Entropy:           28.705  cal/mol.K
   Vibrational Entropy:          16.995  cal/mol.K

   Total Enthalpy:               92.416 kcal/mol
   Total Entropy:                86.061  cal/mol.K
 Total job time:  21216.97s(wall), 163181.59s(cpu) 
 Sat Apr 22 04:01:25 2023

        *************************************************************
        *                                                           *
        *  Thank you very much for using Q-Chem.  Have a nice day.  *
        *                                                           *
        *************************************************************


