
Running Job 1 of 1 Q_in.in
qchem Q_in.in_83298.0 /scratch/ari.fischer/qChem1469996.hpc-mn1/qchem83298/ 0
/usr/local/qchem-5.4.1/exe/qcprog.exe_s Q_in.in_83298.0 /scratch/ari.fischer/qChem1469996.hpc-mn1/qchem83298/
                  Welcome to Q-Chem
     A Quantum Leap Into The Future Of Chemistry


 Q-Chem 5.4, Q-Chem, Inc., Pleasanton, CA (2021)

 License issued to: Nanyang Technological University (site)

 E. Epifanovsky,  A. T. B. Gilbert,  Xintian Feng,  Joonho Lee,  Yuezhi Mao,  
 N. Mardirossian,  P. Pokhilko,  A. White,  M. Wormit,  M. P. Coons,  
 A. L. Dempwolff,  Zhengting Gan,  D. Hait,  P. R. Horn,  L. D. Jacobson,  
 I. Kaliman,  J. Kussmann,  A. W. Lange,  Ka Un Lao,  D. S. Levine,  Jie Liu,  
 S. C. McKenzie,  A. F. Morrison,  K. Nanda,  F. Plasser,  D. R. Rehn,  
 M. L. Vidal,  Zhi-Qiang You,  Ying Zhu,  B. Alam,  B. Albrecht,  
 A. Aldossary,  E. Alguire,  J. H. Andersen,  D. Barton,  K. Begam,  A. Behn,  
 Y. A. Bernard,  E. J. Berquist,  H. Burton,  A. Carreras,  K. Carter-Fenk,  
 R. Chakraborty,  A. D. Chien,  K. D. Closser,  V. Cofer-Shabica,  
 S. Dasgupta,  Jia Deng,  M. de Wergifosse,  M. Diedenhofen,  Hainam Do,  
 S. Ehlert,  Po-Tung Fang,  S. Fatehi,  Qingguo Feng,  T. Friedhoff,  
 J. Gayvert,  Qinghui Ge,  G. Gidofalvi,  M. Goldey,  J. Gomes,  
 C. Gonzalez-Espinoza,  S. Gulania,  A. Gunina,  M. W. D. Hanson-Heine,  
 P. H. P. Harbach,  A. W. Hauser,  M. F. Herbst,  M. Hernandez Vera,  
 M. Hodecker,  Z. C. Holden,  S. Houck,  Xunkun Huang,  Kerwin Hui,  
 B. C. Huynh,  M. Ivanov,  Hyunjun Ji,  Hanjie Jiang,  B. Kaduk,  S. Kaehler,  
 K. Khistyaev,  Jaehoon Kim,  P. Klunzinger,  Z. Koczor-Benda,  
 Joong Hoon Koh,  D. Kosenkov,  L. Koulias,  T. Kowalczyk,  C. M. Krauter,  
 K. Kue,  A. Kunitsa,  T. Kus,  A. Landau,  K. V. Lawler,  D. Lefrancois,  
 S. Lehtola,  Rain Li,  Yi-Pei Li,  Jiashu Liang,  M. Liebenthal,  
 Hung-Hsuan Lin,  You-Sheng Lin,  Fenglai Liu,  Kuan-Yu Liu,  
 M. Loipersberger,  A. Luenser,  A. Manjanath,  P. Manohar,  E. Mansoor,  
 S. F. Manzer,  Shan-Ping Mao,  A. V. Marenich,  T. Markovich,  S. Mason,  
 S. A. Maurer,  P. F. McLaughlin,  M. F. S. J. Menger,  J.-M. Mewes,  
 S. A. Mewes,  P. Morgante,  J. W. Mullinax,  K. J. Oosterbaan,  G. Paran,  
 Alexander C. Paul,  Suranjan K. Paul,  F. Pavosevic,  Zheng Pei,  S. Prager,  
 E. I. Proynov,  E. Ramos,  B. Rana,  A. E. Rask,  A. Rettig,  R. M. Richard,  
 F. Rob,  E. Rossomme,  T. Scheele,  M. Scheurer,  M. Schneider,  
 N. Sergueev,  S. M. Sharada,  W. Skomorowski,  D. W. Small,  C. J. Stein,  
 Yu-Chuan Su,  E. J. Sundstrom,  Zhen Tao,  J. Thirman,  T. Tsuchimochi,  
 N. M. Tubman,  S. P. Veccham,  O. Vydrov,  J. Wenzel,  J. Witte,  A. Yamada,  
 Kun Yao,  S. Yeganeh,  S. R. Yost,  A. Zech,  Igor Ying Zhang,  Xing Zhang,  
 Yu Zhang,  D. Zuev,  A. Aspuru-Guzik,  A. T. Bell,  N. A. Besley,  
 K. B. Bravaya,  B. R. Brooks,  D. Casanova,  Jeng-Da Chai,  S. Coriani,  
 C. J. Cramer,  A. E. DePrince, III,  R. A. DiStasio Jr.,  A. Dreuw,  
 B. D. Dunietz,  T. R. Furlani,  W. A. Goddard III,  S. Grimme,  
 S. Hammes-Schiffer,  T. Head-Gordon,  W. J. Hehre,  Chao-Ping Hsu,  
 T.-C. Jagau,  Yousung Jung,  A. Klamt,  Jing Kong,  D. S. Lambrecht,  
 WanZhen Liang,  N. J. Mayhall,  C. W. McCurdy,  J. B. Neaton,  
 C. Ochsenfeld,  J. A. Parkhill,  R. Peverati,  V. A. Rassolov,  Yihan Shao,  
 L. V. Slipchenko,  T. Stauch,  R. P. Steele,  J. E. Subotnik,  
 A. J. W. Thom,  A. Tkatchenko,  D. G. Truhlar,  T. Van Voorhis,  
 T. A. Wesolowski,  K. B. Whaley,  H. L. Woodcock III,  P. M. Zimmerman,  
 S. Faraji,  P. M. W. Gill,  M. Head-Gordon,  J. M. Herbert,  A. I. Krylov

 Additional authors for Version 5.4.1: 
 S. Kotaru,  Shaozhi Li,  Xiangyuan Li,  F. Matz,  A. Molle,  Haisheng Ren,  
 Yingli Su,  Hung-Yi Tsai,  C. Utku,  Fang Wang

 Contributors to earlier versions of Q-Chem not listed above: 
 R. D. Adamson,  B. Austin,  R. Baer,  J. Baker,  G. J. O. Beran,  
 K. Brandhorst,  S. T. Brown,  E. F. C. Byrd,  A. K. Chakraborty,  
 G. K. L. Chan,  Chun-Min Chang,  Yunqing Chen,  C.-L. Cheng,  
 Siu Hung Chien,  D. M. Chipman,  D. L. Crittenden,  H. Dachsel,  
 R. J. Doerksen,  A. D. Dutoi,  R. G. Edgar,  J. Fosso-Tande,  
 L. Fusti-Molnar,  D. Ghosh,  A. Ghysels,  A. Golubeva-Zadorozhnaya,  
 J. Gonthier,  M. S. Gordon,  S. R. Gwaltney,  G. Hawkins,  J. E. Herr,  
 A. Heyden,  S. Hirata,  E. G. Hohenstein,  G. Kedziora,  F. J. Keil,  
 C. Kelley,  Jihan Kim,  R. A. King,  R. Z. Khaliullin,  P. P. Korambath,  
 W. Kurlancheek,  A. Laurent,  A. M. Lee,  M. S. Lee,  S. V. Levchenko,  
 Ching Yeh Lin,  D. Liotard,  E. Livshits,  R. C. Lochan,  I. Lotan,  
 L. A. Martinez-Martinez,  P. E. Maslen,  N. Nair,  D. P. O'Neill,  
 D. Neuhauser,  E. Neuscamman,  C. M. Oana,  R. Olivares-Amaya,  R. Olson,  
 T. M. Perrine,  B. Peters,  P. A. Pieniazek,  A. Prociuk,  Y. M. Rhee,  
 J. Ritchie,  M. A. Rohrdanz,  E. Rosta,  N. J. Russ,  H. F. Schaefer III,  
 M. W. Schmidt,  N. E. Schultz,  S. Sharma,  N. Shenvi,  C. D. Sherrill,  
 A. C. Simmonett,  A. Sodt,  T. Stein,  D. Stuck,  K. S. Thanthiriwatte,  
 V. Vanovschi,  L. Vogt,  Tao Wang,  A. Warshel,  M. A. Watson,  
 C. F. Williams,  Q. Wu,  X. Xu,  Jun Yang,  W. Zhang,  Yan Zhao

 Please cite Q-Chem as follows:
 Y. Shao et al., Mol. Phys. 113, 184-215 (2015)
 DOI: 10.1080/00268976.2014.952696

 Q-Chem 5.4.1 for Intel X86 EM64T Linux

 Parts of Q-Chem use Armadillo 9.800.1 (Horizon Scraper).
 http://arma.sourceforge.net/

 Q-Chem begins on Tue Feb 14 15:09:31 2023  

 Host: 
0

     Scratch files written to /scratch/ari.fischer/qChem1469996.hpc-mn1/qchem83298//
 Aug1521 |scratch|qcdevops|jenkins|workspace|build_RNUM 8249   
 Processing $rem in /usr/local/qchem-5.4.1/config/preferences:
 Processing $rem in /home/ari.fischer/.qchemrc:
 Symmetry turned off for PCM/SM12/SMD calculation

 Checking the input file for inconsistencies... 	...done.

--------------------------------------------------------------
User input:
--------------------------------------------------------------
$molecule
0 1
C        -4.1538703346   -1.3149570340    3.8816344488
H        -4.1793370632   -0.9562029684    4.9158200779
O        -4.1665589564   -0.1220847244    3.0792698343
H        -4.1185788332   -0.4027337480    2.1491853344
C        -5.3318130556   -2.2167792712    3.6034330168
C        -6.6151997108   -1.6726971459    3.4382793781
C        -7.7189714627   -2.5020358915    3.2466569497
H        -8.6985519180   -2.0495870914    3.1210591002
C        -7.5496324026   -3.8834497370    3.2170079743
H        -8.4139685660   -4.5245218885    3.0673345503
C        -6.2807756002   -4.4413500959    3.3652711315
H        -6.1454219600   -5.5183143374    3.3319859889
C        -5.1836483666   -3.6026749779    3.5510172504
H        -4.1880164750   -4.0259489919    3.6663112196
H        -3.2159575114   -1.8625660005    3.7381631382
O        -6.8249419722   -0.3148241882    3.4733996071
H        -5.9460488116    0.1082312920    3.3451531998
$end

$rem
BASIS = 6-311++G(2df,2p)
GUI = 2
JOB_TYPE = Optimization
METHOD = wB97M-V
SCF_ALGORITHM = DIIS_GDM
MAX_SCF_CYCLES = 400
GEOM_OPT_MAX_CYCLES = 150
SCF_CONVERGENCE = 7
THRESH = 12
Solvent_method = SMD
$end
--------------------------------------------------------------
 ----------------------------------------------------------------
             Standard Nuclear Orientation (Angstroms)
    I     Atom           X                Y                Z
 ----------------------------------------------------------------
    1      C      -4.1538703346    -1.3149570340     3.8816344488
    2      H      -4.1793370632    -0.9562029684     4.9158200779
    3      O      -4.1665589564    -0.1220847244     3.0792698343
    4      H      -4.1185788332    -0.4027337480     2.1491853344
    5      C      -5.3318130556    -2.2167792712     3.6034330168
    6      C      -6.6151997108    -1.6726971459     3.4382793781
    7      C      -7.7189714627    -2.5020358915     3.2466569497
    8      H      -8.6985519180    -2.0495870914     3.1210591002
    9      C      -7.5496324026    -3.8834497370     3.2170079743
   10      H      -8.4139685660    -4.5245218885     3.0673345503
   11      C      -6.2807756002    -4.4413500959     3.3652711315
   12      H      -6.1454219600    -5.5183143374     3.3319859889
   13      C      -5.1836483666    -3.6026749779     3.5510172504
   14      H      -4.1880164750    -4.0259489919     3.6663112196
   15      H      -3.2159575114    -1.8625660005     3.7381631382
   16      O      -6.8249419722    -0.3148241882     3.4733996071
   17      H      -5.9460488116     0.1082312920     3.3451531998
 ----------------------------------------------------------------
 Nuclear Repulsion Energy =         432.52545683 hartrees
 There are       33 alpha and       33 beta electrons
 Requested basis set is 6-311++G(2df,2p)
 There are 120 shells and 386 basis functions

 Total QAlloc Memory Limit 288000 MB
 Mega-Array Size       188 MB
 MEM_STATIC part       192 MB
 
 Citation of the SMD model:
 Marenich, A.V.; Cramer, C.J.; Truhlar, D.G.
 J. Phys. Chem. B 2009, 113, 6378-6396.
 iSolventCode=           1
 Solvent: water                                                           
 
 vradii
            1           2           3           4           5           6
    1   1.8500000   1.2000000   1.5200000   1.2000000   1.8500000   1.8500000
            7           8           9          10          11          12
    1   1.8500000   1.2000000   1.8500000   1.2000000   1.8500000   1.2000000
           13          14          15          16          17
    1   1.8500000   1.2000000   1.2000000   1.5200000   1.2000000
 Changing PCM_VDW_RADII to SMD_RADIUS
 Discretize the solute cavity surface with Lebedev spheres
	Using 110 Lebedev grid points for each H atom
	Using 194 Lebedev grid points for other atoms
	Atomic van der Waals radii will be scaled by 1.20
 Remove points where switching function is < 1.0e-08
 Keep 1247 surface tesserae and discard 1379 interior tesserae
 Molecular Surface Area = 147.384 Angst**2
 A cutoff of  1.0D-12 yielded   6597 shell pairs
 There are     69159 function pairs (     86222 Cartesian)
 Smallest overlap matrix eigenvalue = 6.86E-07
 Linear dependence detected in AO basis
 Tighter screening thresholds may be required for diffuse basis sets
 Use S2THRESH > 14 and THRESH = 14 in case of SCF convergence issues
 Number of orthogonalized atomic orbitals = 385
 Maximum deviation from orthogonality = 6.689E-11

 Scale SEOQF with 1.000000e-02/1.000000e-02/1.000000e-01

 Standard Electronic Orientation quadrupole field applied
 Nucleus-field energy     =    -0.0000000714 hartrees
 Guess from superposition of atomic densities
 Warning:  Energy on first SCF cycle will be non-variational
 SAD guess density has 66.000000 electrons

 -----------------------------------------------------------------------
  General SCF calculation program by
  Eric Jon Sundstrom, Paul Horn, Yuezhi Mao, Dmitri Zuev, Alec White,
  David Stuck, Shaama M.S., Shane Yost, Joonho Lee, David Small,
  Daniel Levine, Susi Lehtola, Hugh Burton, Evgeny Epifanovsky,
  Bang C. Huynh
 -----------------------------------------------------------------------
 Exchange:     0.1500 Hartree-Fock + 1.0000 wB97M-V + LR-HF
 Correlation:  1.0000 wB97M-V
 Using SG-2 standard quadrature grid
 Nonlocal Correlation:  VV10 with C = 0.0100 and b = 6.00 and scale = 1.00000
 Grid used for NLC:  SG-1 standard quadrature
 
 Citation of the SMD model:
 Marenich, A.V.; Cramer, C.J.; Truhlar, D.G.
 J. Phys. Chem. B 2009, 113, 6378-6396.
 iSolventCode=           1
 Solvent: water                                                           
 
 vradii
            1           2           3           4           5           6
    1   1.8500000   1.2000000   1.5200000   1.2000000   1.8500000   1.8500000
            7           8           9          10          11          12
    1   1.8500000   1.2000000   1.8500000   1.2000000   1.8500000   1.2000000
           13          14          15          16          17
    1   1.8500000   1.2000000   1.2000000   1.5200000   1.2000000
 using 8 threads for integral computing
 -------------------------------------------------------
 OpenMP Integral computing Module                
 Release: version 1.0, May 2013, Q-Chem Inc. Pittsburgh 
 -------------------------------------------------------
 -------------------------------------------------------
 OpenMP BLAS3 based DFT computing Module                
 Release: version 1.0, May 2013, Q-Chem Inc. Pittsburgh 
 -------------------------------------------------------
 A restricted SCF calculation will be
 performed using DIIS, GDM
 SCF converges when RMS gradient is below 1.0e-07
 ---------------------------------------
  Cycle       Energy         DIIS error
 ---------------------------------------
    1    -424.6786521751      2.65e-02  
    2    -421.9120823432      2.35e-03  Done DIIS. Switching to GDM
 ---------------------------------------
  Cycle       Energy        RMS Gradient
 ---------------------------------------
    1    -421.9120823432      3.43e-02   Descent step
    2    -421.9720384607      2.18e-02   Normal BFGS step
    3    -422.0029391464      4.68e-03   Normal BFGS step
    4    -422.0037095894      4.90e-03   Normal BFGS step
    5    -422.0041453990      3.28e-04   Normal BFGS step
    6    -422.0041525252      7.20e-04   Normal BFGS step
    7    -422.0041550410      6.89e-05   Normal BFGS step
    8    -422.0041551834      6.17e-05   Normal BFGS step
    9    -422.0041552147      1.23e-05   Normal BFGS step
   10    -422.0041552187      6.47e-06   Normal BFGS step
   11    -422.0041552196      2.79e-06   Normal BFGS step
   12    -422.0041552198      1.16e-06   Normal BFGS step
   13    -422.0041552198      4.35e-07   Normal BFGS step
   14    -422.0041552198      2.46e-07   Normal BFGS step
   15    -422.0041552199      5.49e-08  Convergence criterion met
 ---------------------------------------
 SCF time:   CPU 1399.92s  wall 185.00s 
(3)  G-ENP(liq) elect-nuc-pol free energy of system     -422.004155220 a.u.
(4)  G-CDS(liq) cavity-dispersion-solvent structure 
     free energy                                                3.6085 kcal/mol
(6)  G-S(liq) free energy of system                     -421.998404787 a.u.
 SCF   energy in the final basis set =     -421.9984047873
 Total energy in the final basis set =     -421.9984047873
 
 --------------------------------------------------------------
 
                    Orbital Energies (a.u.)
 --------------------------------------------------------------
 
 Alpha MOs
 -- Occupied --
-19.3527 -19.3504 -10.4086 -10.3941 -10.3524 -10.3479 -10.3470 -10.3411
-10.3390  -1.1865  -1.1587  -0.9819  -0.8919  -0.8621  -0.7986  -0.7254
 -0.7164  -0.6569  -0.6130  -0.6060  -0.5629  -0.5575  -0.5447  -0.5294
 -0.5203  -0.4932  -0.4803  -0.4507  -0.4447  -0.4402  -0.3968  -0.3439
 -0.3167
 -- Virtual --
  0.0226   0.0341   0.0374   0.0455   0.0531   0.0574   0.0616   0.0715
  0.0778   0.0857   0.0977   0.1038   0.1067   0.1219   0.1404   0.1415
  0.1444   0.1521   0.1563   0.1598   0.1646   0.1722   0.1748   0.1771
  0.1841   0.1857   0.1934   0.2040   0.2047   0.2121   0.2240   0.2281
  0.2378   0.2484   0.2538   0.2635   0.2662   0.2741   0.2785   0.2826
  0.2928   0.3019   0.3153   0.3258   0.3354   0.3376   0.3444   0.3531
  0.3582   0.3674   0.3729   0.3775   0.3873   0.4031   0.4110   0.4191
  0.4360   0.4517   0.4612   0.4810   0.4909   0.5377   0.5496   0.5555
  0.5842   0.5953   0.5995   0.6073   0.6102   0.6183   0.6221   0.6310
  0.6362   0.6550   0.6638   0.6734   0.6851   0.6942   0.7052   0.7155
  0.7213   0.7286   0.7353   0.7403   0.7456   0.7577   0.7742   0.7782
  0.7798   0.7964   0.8042   0.8280   0.8308   0.8396   0.8530   0.8603
  0.8763   0.8830   0.8965   0.9090   0.9194   0.9405   0.9496   0.9591
  0.9969   1.0288   1.0480   1.0521   1.0709   1.0732   1.0992   1.1120
  1.1240   1.1444   1.1588   1.1712   1.1923   1.1967   1.2096   1.2176
  1.2206   1.2562   1.2666   1.2705   1.2845   1.2880   1.2924   1.3201
  1.3357   1.3555   1.3715   1.3886   1.3996   1.4058   1.4121   1.4281
  1.4352   1.4449   1.4494   1.4684   1.4900   1.5046   1.5198   1.5299
  1.5365   1.5559   1.5634   1.5923   1.6131   1.6247   1.6336   1.6779
  1.7374   1.7493   1.7623   1.7876   1.8053   1.8146   1.8697   1.9320
  1.9538   1.9859   2.0367   2.0566   2.0813   2.0957   2.1103   2.1428
  2.1686   2.2341   2.3083   2.3603   2.4139   2.4485   2.5077   2.5698
  2.5978   2.6177   2.6305   2.6737   2.7057   2.7136   2.7384   2.7899
  2.7931   2.8100   2.8249   2.8319   2.8459   2.8642   2.8742   2.8809
  2.9058   2.9102   2.9192   2.9458   2.9499   2.9624   2.9721   2.9764
  3.0041   3.0178   3.0271   3.0406   3.0773   3.1065   3.1182   3.1692
  3.1868   3.1984   3.2091   3.2288   3.2401   3.2464   3.2610   3.2650
  3.2756   3.2953   3.3042   3.3195   3.3494   3.3642   3.3843   3.3912
  3.3998   3.4323   3.4506   3.4558   3.4590   3.4754   3.5136   3.5154
  3.5204   3.5316   3.5454   3.5741   3.5871   3.6141   3.6438   3.6539
  3.6745   3.6846   3.7065   3.7521   3.7647   3.7833   3.8051   3.8133
  3.8212   3.8431   3.8511   3.8745   3.8993   3.9106   3.9293   3.9372
  3.9453   3.9680   3.9723   4.0039   4.0368   4.0784   4.0978   4.1066
  4.1245   4.1457   4.1800   4.1849   4.1931   4.2368   4.2746   4.2830
  4.3169   4.3281   4.3557   4.3708   4.3859   4.4057   4.4160   4.4342
  4.4413   4.4800   4.4985   4.5325   4.5433   4.5521   4.5780   4.5889
  4.6020   4.6112   4.6726   4.7190   4.7747   4.7888   4.8042   4.8202
  4.9097   5.0107   5.0751   5.1273   5.1705   5.2013   5.2431   5.2659
  5.2722   5.3033   5.3239   5.3409   5.3677   5.3951   5.4558   5.5159
  5.5469   5.5834   5.6316   5.6861   5.6986   5.7160   5.7508   5.7707
  5.8259   5.8678   5.8818   5.9134   5.9605   6.0210   6.1515   6.3812
  6.6048   6.7062   6.8824   7.0653   7.1567   7.2519   7.2922   7.3074
  7.3558   7.3825   7.5228   7.6346   7.7547   7.7829   7.8939  24.2066
 24.7702  24.7979  24.8276  25.0370  25.0642  25.4948  50.6003  50.6739
 --------------------------------------------------------------
 
          Ground-State Mulliken Net Atomic Charges

     Atom                 Charge (a.u.)
  ----------------------------------------
      1 C                    -0.530499
      2 H                     0.207175
      3 O                    -0.391267
      4 H                     0.331838
      5 C                     0.931010
      6 C                    -0.088787
      7 C                    -0.452341
      8 H                     0.289639
      9 C                    -0.344163
     10 H                     0.284748
     11 C                    -0.488815
     12 H                     0.288807
     13 C                    -0.467668
     14 H                     0.268718
     15 H                     0.251158
     16 O                    -0.455862
     17 H                     0.366309
  ----------------------------------------
  Sum of atomic charges =     0.000000

 -----------------------------------------------------------------
                    Cartesian Multipole Moments
 -----------------------------------------------------------------
    Charge (ESU x 10^10)
                 0.0000
    Dipole Moment (Debye)
         X       2.6479      Y      -2.0574      Z      -1.0277
       Tot       3.5072
    Quadrupole Moments (Debye-Ang)
        XX     -80.3946     XY       8.2042     YY     -47.1875
        XZ      15.0025     YZ      -6.4590     ZZ     -60.7225
    Octopole Moments (Debye-Ang^2)
       XXX    1151.2869    XXY      68.7787    XYY     282.6469
       YYY     318.7775    XXZ    -314.4532    XYZ      20.9752
       YYZ    -164.0469    XZZ     401.0025    YZZ     111.0494
       ZZZ    -590.8711
    Hexadecapole Moments (Debye-Ang^3)
      XXXX  -13152.1060   XXXY   -1782.4187   XXYY   -2127.9964
      XYYY   -2002.1513   YYYY   -2129.1487   XXXZ    4207.3124
      XXYZ     306.1735   XYYZ     991.9684   YYYZ    1104.4422
      XXZZ   -3346.5251   XYZZ    -782.4683   YYZZ   -1035.9752
      XZZZ    3685.3937   YZZZ    1281.9210   ZZZZ   -4073.2565
 -----------------------------------------------------------------
 Calculating analytic gradient of the SCF energy
 Gradient of CDS energy
            1           2           3           4           5           6
    1   0.0010198  -0.0002578  -0.0002547   0.0001533  -0.0000832  -0.0007865
    2   0.0001618   0.0001408  -0.0002356   0.0002318   0.0001549   0.0060576
    3   0.0003440   0.0001128   0.0001187  -0.0004472   0.0000049   0.0002391
            7           8           9          10          11          12
    1  -0.0003926  -0.0001695  -0.0004139  -0.0001697   0.0000743   0.0000265
    2   0.0002179   0.0001360  -0.0003014  -0.0001259  -0.0005198  -0.0002107
    3  -0.0000478  -0.0000192  -0.0000647  -0.0000294  -0.0000116  -0.0000065
           13          14          15          16          17
    1   0.0003660   0.0001963  -0.0000371   0.0007338  -0.0000050
    2  -0.0000098  -0.0000231  -0.0002182  -0.0058512   0.0003951
    3   0.0000150   0.0000163  -0.0000686  -0.0001171  -0.0000388
 Gradient of SCF Energy
            1           2           3           4           5           6
    1  -0.0146129   0.0010579   0.0018782  -0.0003724   0.0038538   0.0072141
    2   0.0093151   0.0023672   0.0112800  -0.0093628   0.0041448   0.0058726
    3  -0.0123066   0.0088913   0.0259986  -0.0207349   0.0007661  -0.0001792
            7           8           9          10          11          12
    1   0.0017692  -0.0030509   0.0012673  -0.0055480  -0.0041023   0.0012791
    2  -0.0046561   0.0002535   0.0036981  -0.0042492   0.0016206  -0.0080591
    3   0.0012121  -0.0006438   0.0006602  -0.0010952  -0.0005354  -0.0002710
           13          14          15          16          17
    1  -0.0102496   0.0112416   0.0112725  -0.0147440   0.0118464
    2  -0.0030039  -0.0039870  -0.0069003   0.0006709   0.0009957
    3  -0.0004595   0.0011842  -0.0020264   0.0024525  -0.0029129
 Max gradient component =       2.600E-02
 RMS gradient           =       7.644E-03
 Computing fast CPCM-SWIG gradient
 Updating gradient with PCM contributions...
 -- total gradient after adding PCM contribution --
---------------------------------------------------
  Atom         X              Y              Z     
---------------------------------------------------
   1      -0.001704       0.001329      -0.003262
   2       0.000330       0.001518       0.002686
   3      -0.000994       0.005051       0.008284
   4      -0.000147      -0.003718      -0.006401
   5       0.002655      -0.000319       0.000098
   6       0.000759       0.006779       0.000233
   7      -0.002408      -0.000208      -0.000201
   8      -0.002565       0.001588      -0.000403
   9      -0.001232      -0.001021      -0.000173
  10      -0.002658      -0.001952      -0.000527
  11       0.000274      -0.002022      -0.000152
  12       0.000394      -0.003311      -0.000110
  13       0.001267      -0.000839       0.000187
  14       0.002935      -0.001320       0.000358
  15       0.003321      -0.001655      -0.000205
  16      -0.007254      -0.001281       0.000702
  17       0.007026       0.001382      -0.001114
---------------------------------------------------
 Number of fixed atoms: 0
 Gradient time:  CPU 329.65 s  wall 49.09 s
 Geometry Optimization Parameters
   NAtoms,    NIC,     NZ,  NCons,   NDum,   NFix, NCnnct, MaxDiis
       17     112       0       0       0       0       0       0


** GEOMETRY OPTIMIZATION IN DELOCALIZED INTERNAL COORDINATES **
   Searching for a Minimum

   Optimization Cycle:   1

                       Coordinates (Angstroms)
     ATOM                X               Y               Z
      1  C        -4.1538703346   -1.3149570340    3.8816344488
      2  H        -4.1793370632   -0.9562029684    4.9158200779
      3  O        -4.1665589564   -0.1220847244    3.0792698343
      4  H        -4.1185788332   -0.4027337480    2.1491853344
      5  C        -5.3318130556   -2.2167792712    3.6034330168
      6  C        -6.6151997108   -1.6726971459    3.4382793781
      7  C        -7.7189714627   -2.5020358915    3.2466569497
      8  H        -8.6985519180   -2.0495870914    3.1210591002
      9  C        -7.5496324026   -3.8834497370    3.2170079743
     10  H        -8.4139685660   -4.5245218885    3.0673345503
     11  C        -6.2807756002   -4.4413500959    3.3652711315
     12  H        -6.1454219600   -5.5183143374    3.3319859889
     13  C        -5.1836483666   -3.6026749779    3.5510172504
     14  H        -4.1880164750   -4.0259489919    3.6663112196
     15  H        -3.2159575114   -1.8625660005    3.7381631382
     16  O        -6.8249419722   -0.3148241882    3.4733996071
     17  H        -5.9460488116    0.1082312920    3.3451531998
   Point Group: c1    Number of degrees of freedom:    45


   Energy is   -421.998404787


 Attempting to generate delocalized internal coordinates
 Initial Hessian constructed with Jon Baker's OPTIMIZE code

 45 Hessian modes will be used to form the next step
  Hessian Eigenvalues:
     0.007938    0.010662    0.016631    0.019028    0.021968    0.022447
     0.023180    0.023208    0.023241    0.023310    0.023315    0.023366
     0.059440    0.072794    0.118235    0.141396    0.159991    0.159995
     0.159998    0.160000    0.160000    0.160000    0.219995    0.220869
     0.224894    0.244709    0.249797    0.249986    0.314128    0.341837
     0.342480    0.350452    0.352219    0.352429    0.352853    0.399068
     0.419894    0.423927    0.457021    0.465798    0.466943    0.468307
     0.501356    0.506525    0.528314

 Minimum search - taking simple RFO step
 Searching for Lamda that Minimizes Along All modes
 Value Taken    Lamda =  -0.00130377
 Step Taken.  Stepsize is  0.174333

                             Maximum     Tolerance    Cnvgd?
         Gradient           0.007340      0.000300      NO
         Displacement       0.101157      0.001200      NO
         Energy change     *********      0.000001      NO


 New Cartesian Coordinates Obtained by Inverse Iteration

 Displacement from previous Coordinates is:  0.379295
 ----------------------------------------------------------------
             Standard Nuclear Orientation (Angstroms)
    I     Atom           X                Y                Z
 ----------------------------------------------------------------
    1      C      -4.1623931258    -1.3145970599     3.8785800047
    2      H      -4.2130438733    -0.9230154468     4.8948806422
    3      O      -4.1169095313    -0.1590907396     3.0245946154
    4      H      -4.0197993113    -0.4616366138     2.1129004226
    5      C      -5.3429593588    -2.2064424327     3.6004716075
    6      C      -6.6274340993    -1.6747754697     3.4476442105
    7      C      -7.7206330359    -2.5071389427     3.2543336781
    8      H      -8.7016067001    -2.0652276644     3.1417322929
    9      C      -7.5425417061    -3.8810711478     3.2134977895
   10      H      -8.3988538898    -4.5246377514     3.0645920607
   11      C      -6.2747390081    -4.4276240263     3.3552557546
   12      H      -6.1318481770    -5.4983529906     3.3152955677
   13      C      -5.1880179871    -3.5854751310     3.5421903576
   14      H      -4.1934535020    -4.0005268785     3.6504890349
   15      H      -3.2380268884    -1.8839140694     3.7831788893
   16      O      -6.8577533289    -0.3215581465     3.5143043731
   17      H      -6.0012794769     0.1325877109     3.3970408989
 ----------------------------------------------------------------
 Nuclear Repulsion Energy =         432.89227361 hartrees
 There are       33 alpha and       33 beta electrons
 Discretize the solute cavity surface with Lebedev spheres
	Using 110 Lebedev grid points for each H atom
	Using 194 Lebedev grid points for other atoms
	Atomic van der Waals radii will be scaled by 1.20
 Remove points where switching function is < 1.0e-08
 Keep 1245 surface tesserae and discard 1381 interior tesserae
 Molecular Surface Area = 147.522 Angst**2
 Applying Cartesian multipole field
    Component          Value
    ---------          -----
     (2,0,0)        1.00000E-12
     (0,2,0)        2.00000E-12
     (0,0,2)       -3.00000E-11
 Nucleus-field energy     =    -0.0000000714 hartrees
 Requested basis set is 6-311++G(2df,2p)
 There are 120 shells and 386 basis functions
 A cutoff of  1.0D-12 yielded   6594 shell pairs
 There are     69134 function pairs (     86193 Cartesian)
 Smallest overlap matrix eigenvalue = 6.51E-07
 Linear dependence detected in AO basis
 Tighter screening thresholds may be required for diffuse basis sets
 Use S2THRESH > 14 and THRESH = 14 in case of SCF convergence issues
 Number of orthogonalized atomic orbitals = 385
 Maximum deviation from orthogonality = 6.979E-11
 Guess MOs from SCF MO coefficient file

 -----------------------------------------------------------------------
  General SCF calculation program by
  Eric Jon Sundstrom, Paul Horn, Yuezhi Mao, Dmitri Zuev, Alec White,
  David Stuck, Shaama M.S., Shane Yost, Joonho Lee, David Small,
  Daniel Levine, Susi Lehtola, Hugh Burton, Evgeny Epifanovsky,
  Bang C. Huynh
 -----------------------------------------------------------------------
 Exchange:     0.1500 Hartree-Fock + 1.0000 wB97M-V + LR-HF
 Correlation:  1.0000 wB97M-V
 Using SG-2 standard quadrature grid
 Nonlocal Correlation:  VV10 with C = 0.0100 and b = 6.00 and scale = 1.00000
 Grid used for NLC:  SG-1 standard quadrature
 
 Citation of the SMD model:
 Marenich, A.V.; Cramer, C.J.; Truhlar, D.G.
 J. Phys. Chem. B 2009, 113, 6378-6396.
 iSolventCode=           1
 Solvent: water                                                           
 
 vradii
            1           2           3           4           5           6
    1   1.8500000   1.2000000   1.5200000   1.2000000   1.8500000   1.8500000
            7           8           9          10          11          12
    1   1.8500000   1.2000000   1.8500000   1.2000000   1.8500000   1.2000000
           13          14          15          16          17
    1   1.8500000   1.2000000   1.2000000   1.5200000   1.2000000
 -------------------------------------------------------
 OpenMP BLAS3 based DFT computing Module                
 Release: version 1.0, May 2013, Q-Chem Inc. Pittsburgh 
 -------------------------------------------------------
 A restricted SCF calculation will be
 performed using Roothaan-Hall, DIIS, GDM
 SCF converges when RMS gradient is below 1.0e-07
 ---------------------------------------
  Cycle       Energy         DIIS error
 ---------------------------------------
    1    -421.9795588451      4.81e-04  Roothaan Step
 ---------------------------------------
  Cycle       Energy         DIIS error
 ---------------------------------------
    1    -422.0008712774      3.57e-04  
    2    -422.0034888137      2.73e-04  Done DIIS. Switching to GDM
 ---------------------------------------
  Cycle       Energy        RMS Gradient
 ---------------------------------------
    1    -422.0034888137      5.06e-03   Normal BFGS step
    2    -422.0036690181      6.18e-03   Normal BFGS step
    3    -422.0046320034      7.25e-04   Normal BFGS step
    4    -422.0046418814      3.03e-04   Normal BFGS step
    5    -422.0046467025      1.20e-04   Normal BFGS step
    6    -422.0046468576      5.78e-05   Normal BFGS step
    7    -422.0046469115      2.09e-05   Normal BFGS step
    8    -422.0046469155      8.72e-06   Normal BFGS step
    9    -422.0046469164      2.44e-06   Normal BFGS step
   10    -422.0046469165      1.65e-06   Normal BFGS step
   11    -422.0046469166      5.71e-07   Normal BFGS step
   12    -422.0046469166      1.23e-07   Normal BFGS step
   13    -422.0046469166      4.95e-08  Convergence criterion met
 ---------------------------------------
 SCF time:   CPU 1357.02s  wall 180.00s 
(3)  G-ENP(liq) elect-nuc-pol free energy of system     -422.004646917 a.u.
(4)  G-CDS(liq) cavity-dispersion-solvent structure 
     free energy                                                3.6116 kcal/mol
(6)  G-S(liq) free energy of system                     -421.998891409 a.u.
 SCF   energy in the final basis set =     -421.9988914094
 Total energy in the final basis set =     -421.9988914094
 
 --------------------------------------------------------------
 
                    Orbital Energies (a.u.)
 --------------------------------------------------------------
 
 Alpha MOs
 -- Occupied --
-19.3556 -19.3462 -10.4076 -10.3917 -10.3502 -10.3454 -10.3448 -10.3391
-10.3366  -1.1868  -1.1577  -0.9850  -0.8938  -0.8641  -0.8002  -0.7262
 -0.7183  -0.6589  -0.6136  -0.6055  -0.5627  -0.5596  -0.5462  -0.5290
 -0.5208  -0.4948  -0.4791  -0.4521  -0.4428  -0.4397  -0.3965  -0.3450
 -0.3179
 -- Virtual --
  0.0224   0.0341   0.0373   0.0457   0.0537   0.0571   0.0623   0.0722
  0.0774   0.0859   0.0975   0.1040   0.1076   0.1218   0.1406   0.1420
  0.1447   0.1522   0.1566   0.1599   0.1649   0.1721   0.1751   0.1780
  0.1834   0.1858   0.1921   0.2040   0.2054   0.2126   0.2237   0.2295
  0.2393   0.2493   0.2540   0.2650   0.2666   0.2726   0.2790   0.2844
  0.2938   0.2985   0.3159   0.3287   0.3356   0.3397   0.3429   0.3539
  0.3584   0.3673   0.3733   0.3795   0.3868   0.4040   0.4130   0.4238
  0.4362   0.4495   0.4632   0.4806   0.4873   0.5414   0.5509   0.5590
  0.5844   0.5965   0.5997   0.6088   0.6117   0.6191   0.6229   0.6334
  0.6384   0.6562   0.6640   0.6727   0.6850   0.6948   0.7065   0.7189
  0.7198   0.7316   0.7382   0.7420   0.7492   0.7600   0.7738   0.7803
  0.7845   0.8009   0.8070   0.8260   0.8384   0.8403   0.8534   0.8599
  0.8779   0.8856   0.9000   0.9086   0.9214   0.9398   0.9437   0.9672
  0.9964   1.0321   1.0504   1.0526   1.0726   1.0792   1.0983   1.1146
  1.1220   1.1454   1.1564   1.1669   1.1915   1.1967   1.2029   1.2076
  1.2146   1.2563   1.2661   1.2740   1.2825   1.2921   1.2996   1.3153
  1.3410   1.3618   1.3769   1.3883   1.4035   1.4084   1.4130   1.4338
  1.4397   1.4462   1.4575   1.4745   1.4942   1.5070   1.5220   1.5299
  1.5426   1.5604   1.5680   1.5971   1.6211   1.6375   1.6396   1.6759
  1.7309   1.7482   1.7675   1.7909   1.8100   1.8160   1.8616   1.9355
  1.9585   1.9864   2.0398   2.0608   2.0891   2.0905   2.1060   2.1257
  2.1668   2.2120   2.3059   2.3479   2.3920   2.4403   2.5047   2.5662
  2.5984   2.6134   2.6341   2.6730   2.7056   2.7121   2.7430   2.7897
  2.7949   2.8119   2.8264   2.8349   2.8432   2.8620   2.8717   2.8799
  2.9077   2.9123   2.9181   2.9421   2.9499   2.9618   2.9734   2.9771
  3.0074   3.0215   3.0296   3.0417   3.0839   3.1091   3.1208   3.1723
  3.1889   3.1996   3.2145   3.2311   3.2401   3.2432   3.2582   3.2623
  3.2774   3.2991   3.3018   3.3219   3.3508   3.3664   3.3881   3.3930
  3.4079   3.4370   3.4526   3.4594   3.4647   3.4767   3.5109   3.5207
  3.5285   3.5315   3.5525   3.5745   3.5900   3.6196   3.6436   3.6503
  3.6824   3.6935   3.7052   3.7570   3.7648   3.7913   3.8100   3.8165
  3.8294   3.8454   3.8656   3.8806   3.9139   3.9199   3.9263   3.9384
  3.9548   3.9784   3.9806   4.0112   4.0466   4.0830   4.1059   4.1208
  4.1371   4.1540   4.1898   4.1921   4.1972   4.2407   4.2843   4.3014
  4.3219   4.3433   4.3698   4.3717   4.3941   4.4189   4.4250   4.4431
  4.4482   4.4957   4.5140   4.5499   4.5636   4.5708   4.5922   4.6074
  4.6190   4.6238   4.6834   4.7389   4.7932   4.8011   4.8175   4.8431
  4.9258   5.0300   5.0906   5.1399   5.1839   5.2188   5.2438   5.2703
  5.2804   5.3094   5.3261   5.3478   5.3610   5.3950   5.4690   5.5231
  5.5623   5.5817   5.6475   5.6932   5.7128   5.7285   5.7751   5.7862
  5.8294   5.8805   5.9024   5.9296   5.9680   6.0411   6.1872   6.4101
  6.5929   6.7418   6.8906   7.0855   7.1309   7.2856   7.2984   7.3077
  7.3597   7.3870   7.5113   7.6493   7.7512   7.7686   7.8795  24.2096
 24.7893  24.8188  24.8489  25.0701  25.0951  25.5337  50.5946  50.6690
 --------------------------------------------------------------
 
          Ground-State Mulliken Net Atomic Charges

     Atom                 Charge (a.u.)
  ----------------------------------------
      1 C                    -0.553743
      2 H                     0.216736
      3 O                    -0.400284
      4 H                     0.330476
      5 C                     0.958722
      6 C                    -0.071543
      7 C                    -0.446045
      8 H                     0.290370
      9 C                    -0.352344
     10 H                     0.284332
     11 C                    -0.491970
     12 H                     0.289305
     13 C                    -0.496397
     14 H                     0.266083
     15 H                     0.256212
     16 O                    -0.441850
     17 H                     0.361938
  ----------------------------------------
  Sum of atomic charges =     0.000000

 -----------------------------------------------------------------
                    Cartesian Multipole Moments
 -----------------------------------------------------------------
    Charge (ESU x 10^10)
                 0.0000
    Dipole Moment (Debye)
         X       2.4950      Y      -2.0786      Z      -0.9065
       Tot       3.3716
    Quadrupole Moments (Debye-Ang)
        XX     -78.7497     XY       8.3078     YY     -46.8464
        XZ      13.7492     YZ      -6.2973     ZZ     -59.7853
    Octopole Moments (Debye-Ang^2)
       XXX    1137.9147    XXY      67.9487    XYY     280.4742
       YYY     318.2088    XXZ    -304.8301    XYZ      20.5245
       YYZ    -163.1597    XZZ     393.8768    YZZ     111.7269
       ZZZ    -585.4753
    Hexadecapole Moments (Debye-Ang^3)
      XXXX  -13061.6333   XXXY   -1773.6204   XXYY   -2112.9478
      XYYY   -1997.4836   YYYY   -2118.7445   XXXZ    4143.8413
      XXYZ     304.8601   XYYZ     986.4933   YYYZ    1102.9007
      XXZZ   -3299.4036   XYZZ    -782.8579   YYZZ   -1030.3200
      XZZZ    3652.3464   YZZZ    1281.1685   ZZZZ   -4046.4661
 -----------------------------------------------------------------
 Calculating analytic gradient of the SCF energy
 Gradient of CDS energy
            1           2           3           4           5           6
    1   0.0010412  -0.0003217  -0.0001790   0.0000760  -0.0000769  -0.0008564
    2   0.0001102   0.0001721  -0.0002221   0.0002235   0.0001532   0.0059896
    3   0.0003822   0.0000884   0.0001758  -0.0004747  -0.0000013   0.0003606
            7           8           9          10          11          12
    1  -0.0003894  -0.0001663  -0.0004082  -0.0001643   0.0000775   0.0000273
    2   0.0002117   0.0001325  -0.0003010  -0.0001235  -0.0005140  -0.0002048
    3  -0.0000458  -0.0000155  -0.0000669  -0.0000286  -0.0000143  -0.0000076
           13          14          15          16          17
    1   0.0003572   0.0001926  -0.0000427   0.0008252   0.0000082
    2  -0.0000102  -0.0000148  -0.0002057  -0.0057890   0.0003922
    3   0.0000146   0.0000188  -0.0000858  -0.0002354  -0.0000646
 Gradient of SCF Energy
            1           2           3           4           5           6
    1  -0.0126091   0.0005226   0.0033575   0.0012059   0.0018118   0.0057296
    2   0.0066824   0.0001441   0.0073798  -0.0059332   0.0032069   0.0014785
    3  -0.0077115   0.0066276   0.0150468  -0.0146898   0.0011436  -0.0011776
            7           8           9          10          11          12
    1   0.0045941  -0.0005177   0.0028361  -0.0028865  -0.0043743   0.0008983
    2  -0.0056559  -0.0012401   0.0054388  -0.0023343   0.0039879  -0.0046474
    3   0.0011623  -0.0002243   0.0008172  -0.0005542  -0.0003352  -0.0002526
           13          14          15          16          17
    1  -0.0119706   0.0082345   0.0077949  -0.0130245   0.0083972
    2  -0.0015201  -0.0026137  -0.0047663  -0.0012391   0.0016316
    3  -0.0001105   0.0007163  -0.0019796   0.0022675  -0.0007459
 Max gradient component =       1.505E-02
 RMS gradient           =       5.649E-03
 Computing fast CPCM-SWIG gradient
 Updating gradient with PCM contributions...
 -- total gradient after adding PCM contribution --
---------------------------------------------------
  Atom         X              Y              Z     
---------------------------------------------------
   1      -0.000660      -0.000406       0.001574
   2       0.000135      -0.000832       0.000476
   3       0.001563       0.000801      -0.000564
   4       0.000321      -0.000026      -0.001396
   5       0.000412      -0.001741      -0.000173
   6      -0.000496       0.002120      -0.001109
   7       0.000179      -0.001328       0.000017
   8       0.000123       0.000024       0.000024
   9       0.000276       0.000645       0.000028
  10       0.000093       0.000048       0.000022
  11       0.000053       0.000596       0.000036
  12      -0.000027       0.000161      -0.000065
  13      -0.000463       0.000461       0.000736
  14      -0.000071       0.000043      -0.000066
  15       0.000238       0.000552      -0.000500
  16      -0.005575      -0.002597       0.000930
  17       0.003900       0.001478       0.000028
---------------------------------------------------
 Number of fixed atoms: 0
 Gradient time:  CPU 331.74 s  wall 49.12 s
 Geometry Optimization Parameters
   NAtoms,    NIC,     NZ,  NCons,   NDum,   NFix, NCnnct, MaxDiis
       17     112       0       0       0       0       0       0

 Cartesian Hessian Update
 Hessian updated using BFGS update


** GEOMETRY OPTIMIZATION IN DELOCALIZED INTERNAL COORDINATES **
   Searching for a Minimum

   Optimization Cycle:   2

                       Coordinates (Angstroms)
     ATOM                X               Y               Z
      1  C        -4.1623931258   -1.3145970599    3.8785800047
      2  H        -4.2130438733   -0.9230154468    4.8948806422
      3  O        -4.1169095313   -0.1590907396    3.0245946154
      4  H        -4.0197993113   -0.4616366138    2.1129004226
      5  C        -5.3429593588   -2.2064424327    3.6004716075
      6  C        -6.6274340993   -1.6747754697    3.4476442105
      7  C        -7.7206330359   -2.5071389427    3.2543336781
      8  H        -8.7016067001   -2.0652276644    3.1417322929
      9  C        -7.5425417061   -3.8810711478    3.2134977895
     10  H        -8.3988538898   -4.5246377514    3.0645920607
     11  C        -6.2747390081   -4.4276240263    3.3552557546
     12  H        -6.1318481770   -5.4983529906    3.3152955677
     13  C        -5.1880179871   -3.5854751310    3.5421903576
     14  H        -4.1934535020   -4.0005268785    3.6504890349
     15  H        -3.2380268884   -1.8839140694    3.7831788893
     16  O        -6.8577533289   -0.3215581465    3.5143043731
     17  H        -6.0012794769    0.1325877109    3.3970408989
   Point Group: c1    Number of degrees of freedom:    45


   Energy is   -421.998891409

 Hessian updated using BFGS update

 43 Hessian modes will be used to form the next step
  Hessian Eigenvalues:
     0.008736    0.010756    0.016673    0.019129    0.022206    0.023174
     0.023206    0.023239    0.023298    0.023314    0.023365    0.024313
     0.062250    0.073482    0.117754    0.142183    0.151779    0.159991
     0.159995    0.161774    0.219995    0.222904    0.225476    0.243790
     0.249422    0.275033    0.302998    0.335575    0.342211    0.347667
     0.351142    0.352333    0.352715    0.396583    0.407831    0.423890
     0.441741    0.463622    0.466656    0.469934    0.500953    0.515519
     0.531992

 Minimum search - taking simple RFO step
 Searching for Lamda that Minimizes Along All modes
 Value Taken    Lamda =  -0.00031090
 Step Taken.  Stepsize is  0.069909

                             Maximum     Tolerance    Cnvgd?
         Gradient           0.005284      0.000300      NO
         Displacement       0.037447      0.001200      NO
         Energy change     -0.000487      0.000001      NO


 New Cartesian Coordinates Obtained by Inverse Iteration

 Displacement from previous Coordinates is:  0.162243
 ----------------------------------------------------------------
             Standard Nuclear Orientation (Angstroms)
    I     Atom           X                Y                Z
 ----------------------------------------------------------------
    1      C      -4.1635167988    -1.3185773161     3.8833075495
    2      H      -4.2130732850    -0.9337219056     4.9009815041
    3      O      -4.1456822273    -0.1528187666     3.0459343267
    4      H      -4.0563756439    -0.4405095728     2.1315314480
    5      C      -5.3389272701    -2.2127341284     3.6046663809
    6      C      -6.6184857059    -1.6788727385     3.4507454077
    7      C      -7.7150466623    -2.5045275830     3.2591338663
    8      H      -8.6932015570    -2.0593730259     3.1429997844
    9      C      -7.5417765265    -3.8788754439     3.2186878022
   10      H      -8.3996106993    -4.5188174347     3.0698320975
   11      C      -6.2756591193    -4.4294629582     3.3554310539
   12      H      -6.1362912597    -5.4997002788     3.3136725004
   13      C      -5.1860664726    -3.5912372353     3.5399733893
   14      H      -4.1932596162    -4.0085381048     3.6462715889
   15      H      -3.2366317555    -1.8797984239     3.7784194624
   16      O      -6.8339338625    -0.3216154677     3.4947719998
   17      H      -5.9837545381     0.1266835842     3.3546220382
 ----------------------------------------------------------------
 Nuclear Repulsion Energy =         433.85898898 hartrees
 There are       33 alpha and       33 beta electrons
 Discretize the solute cavity surface with Lebedev spheres
	Using 110 Lebedev grid points for each H atom
	Using 194 Lebedev grid points for other atoms
	Atomic van der Waals radii will be scaled by 1.20
 Remove points where switching function is < 1.0e-08
 Keep 1240 surface tesserae and discard 1386 interior tesserae
 Molecular Surface Area = 147.067 Angst**2
 Applying Cartesian multipole field
    Component          Value
    ---------          -----
     (2,0,0)        1.00000E-12
     (0,2,0)        2.00000E-12
     (0,0,2)       -3.00000E-11
 Nucleus-field energy     =    -0.0000000714 hartrees
 Requested basis set is 6-311++G(2df,2p)
 There are 120 shells and 386 basis functions
 A cutoff of  1.0D-12 yielded   6601 shell pairs
 There are     69175 function pairs (     86241 Cartesian)
 Smallest overlap matrix eigenvalue = 6.62E-07
 Linear dependence detected in AO basis
 Tighter screening thresholds may be required for diffuse basis sets
 Use S2THRESH > 14 and THRESH = 14 in case of SCF convergence issues
 Number of orthogonalized atomic orbitals = 385
 Maximum deviation from orthogonality = 1.184E-10
 Guess MOs from SCF MO coefficient file

 -----------------------------------------------------------------------
  General SCF calculation program by
  Eric Jon Sundstrom, Paul Horn, Yuezhi Mao, Dmitri Zuev, Alec White,
  David Stuck, Shaama M.S., Shane Yost, Joonho Lee, David Small,
  Daniel Levine, Susi Lehtola, Hugh Burton, Evgeny Epifanovsky,
  Bang C. Huynh
 -----------------------------------------------------------------------
 Exchange:     0.1500 Hartree-Fock + 1.0000 wB97M-V + LR-HF
 Correlation:  1.0000 wB97M-V
 Using SG-2 standard quadrature grid
 Nonlocal Correlation:  VV10 with C = 0.0100 and b = 6.00 and scale = 1.00000
 Grid used for NLC:  SG-1 standard quadrature
 
 Citation of the SMD model:
 Marenich, A.V.; Cramer, C.J.; Truhlar, D.G.
 J. Phys. Chem. B 2009, 113, 6378-6396.
 iSolventCode=           1
 Solvent: water                                                           
 
 vradii
            1           2           3           4           5           6
    1   1.8500000   1.2000000   1.5200000   1.2000000   1.8500000   1.8500000
            7           8           9          10          11          12
    1   1.8500000   1.2000000   1.8500000   1.2000000   1.8500000   1.2000000
           13          14          15          16          17
    1   1.8500000   1.2000000   1.2000000   1.5200000   1.2000000
 -------------------------------------------------------
 OpenMP BLAS3 based DFT computing Module                
 Release: version 1.0, May 2013, Q-Chem Inc. Pittsburgh 
 -------------------------------------------------------
 A restricted SCF calculation will be
 performed using Roothaan-Hall, DIIS, GDM
 SCF converges when RMS gradient is below 1.0e-07
 ---------------------------------------
  Cycle       Energy         DIIS error
 ---------------------------------------
    1    -421.9824390319      3.49e-04  Roothaan Step
 ---------------------------------------
  Cycle       Energy         DIIS error
 ---------------------------------------
    1    -422.0010393367      3.56e-04  
    2    -422.0036120300      2.66e-04  Done DIIS. Switching to GDM
 ---------------------------------------
  Cycle       Energy        RMS Gradient
 ---------------------------------------
    1    -422.0036120300      4.73e-03   Normal BFGS step
    2    -422.0038114577      6.04e-03   Normal BFGS step
    3    -422.0046874036      6.46e-04   Normal BFGS step
    4    -422.0046968390      3.12e-04   Normal BFGS step
    5    -422.0047015672      1.18e-04   Normal BFGS step
    6    -422.0047017267      4.92e-05   Normal BFGS step
    7    -422.0047017815      1.60e-05   Normal BFGS step
    8    -422.0047017849      9.19e-06   Normal BFGS step
    9    -422.0047017857      2.23e-06   Normal BFGS step
   10    -422.0047017858      1.13e-06   Normal BFGS step
   11    -422.0047017858      8.23e-07   Normal BFGS step
   12    -422.0047017858      1.98e-07   Normal BFGS step
   13    -422.0047017858      9.14e-08  Convergence criterion met
 ---------------------------------------
 SCF time:   CPU 1363.02s  wall 181.00s 
(3)  G-ENP(liq) elect-nuc-pol free energy of system     -422.004701786 a.u.
(4)  G-CDS(liq) cavity-dispersion-solvent structure 
     free energy                                                3.5975 kcal/mol
(6)  G-S(liq) free energy of system                     -421.998968759 a.u.
 SCF   energy in the final basis set =     -421.9989687586
 Total energy in the final basis set =     -421.9989687586
 
 --------------------------------------------------------------
 
                    Orbital Energies (a.u.)
 --------------------------------------------------------------
 
 Alpha MOs
 -- Occupied --
-19.3529 -19.3467 -10.4065 -10.3913 -10.3493 -10.3451 -10.3444 -10.3387
-10.3364  -1.1870  -1.1589  -0.9855  -0.8942  -0.8645  -0.8008  -0.7266
 -0.7190  -0.6599  -0.6143  -0.6064  -0.5628  -0.5601  -0.5462  -0.5296
 -0.5209  -0.4932  -0.4795  -0.4519  -0.4438  -0.4396  -0.3966  -0.3448
 -0.3180
 -- Virtual --
  0.0225   0.0341   0.0374   0.0458   0.0537   0.0573   0.0625   0.0726
  0.0775   0.0858   0.0975   0.1041   0.1071   0.1218   0.1411   0.1422
  0.1446   0.1523   0.1565   0.1599   0.1651   0.1720   0.1752   0.1779
  0.1838   0.1861   0.1928   0.2046   0.2054   0.2126   0.2240   0.2295
  0.2389   0.2493   0.2539   0.2654   0.2665   0.2735   0.2795   0.2848
  0.2947   0.3006   0.3152   0.3289   0.3373   0.3397   0.3448   0.3547
  0.3590   0.3687   0.3744   0.3804   0.3877   0.4044   0.4128   0.4225
  0.4374   0.4505   0.4642   0.4815   0.4897   0.5417   0.5511   0.5588
  0.5856   0.5976   0.6001   0.6087   0.6122   0.6195   0.6230   0.6347
  0.6390   0.6576   0.6656   0.6742   0.6861   0.6957   0.7066   0.7199
  0.7217   0.7325   0.7382   0.7425   0.7491   0.7603   0.7747   0.7804
  0.7838   0.7999   0.8061   0.8263   0.8379   0.8397   0.8542   0.8599
  0.8786   0.8866   0.9000   0.9125   0.9234   0.9427   0.9453   0.9657
  0.9978   1.0308   1.0495   1.0540   1.0732   1.0781   1.1004   1.1163
  1.1239   1.1468   1.1592   1.1705   1.1952   1.1983   1.2090   1.2109
  1.2166   1.2577   1.2687   1.2746   1.2836   1.2910   1.2995   1.3201
  1.3404   1.3629   1.3763   1.3908   1.4040   1.4088   1.4144   1.4340
  1.4408   1.4478   1.4573   1.4777   1.4962   1.5080   1.5246   1.5322
  1.5441   1.5613   1.5687   1.5980   1.6186   1.6348   1.6405   1.6765
  1.7369   1.7523   1.7693   1.7910   1.8099   1.8177   1.8643   1.9343
  1.9614   1.9915   2.0420   2.0581   2.0896   2.1008   2.1144   2.1371
  2.1689   2.2174   2.3092   2.3551   2.4024   2.4430   2.5070   2.5649
  2.6001   2.6151   2.6330   2.6718   2.7063   2.7133   2.7418   2.7918
  2.7965   2.8120   2.8267   2.8366   2.8443   2.8642   2.8720   2.8811
  2.9087   2.9125   2.9198   2.9444   2.9508   2.9628   2.9727   2.9770
  3.0071   3.0246   3.0312   3.0425   3.0848   3.1123   3.1234   3.1734
  3.1905   3.2029   3.2152   3.2314   3.2406   3.2474   3.2603   3.2636
  3.2782   3.3000   3.3037   3.3235   3.3528   3.3673   3.3890   3.3964
  3.4092   3.4384   3.4532   3.4615   3.4656   3.4779   3.5111   3.5218
  3.5274   3.5337   3.5530   3.5771   3.5900   3.6201   3.6464   3.6543
  3.6826   3.6953   3.7086   3.7584   3.7648   3.7925   3.8132   3.8209
  3.8309   3.8484   3.8627   3.8836   3.9147   3.9254   3.9339   3.9391
  3.9538   3.9779   3.9843   4.0150   4.0491   4.0853   4.1067   4.1241
  4.1388   4.1559   4.1920   4.1964   4.2028   4.2444   4.2866   4.3049
  4.3265   4.3444   4.3709   4.3822   4.3971   4.4214   4.4278   4.4493
  4.4524   4.4998   4.5175   4.5541   4.5657   4.5730   4.5956   4.6099
  4.6224   4.6292   4.6884   4.7436   4.7947   4.8067   4.8235   4.8455
  4.9279   5.0344   5.0945   5.1443   5.1858   5.2204   5.2491   5.2728
  5.2833   5.3137   5.3314   5.3502   5.3646   5.3965   5.4702   5.5312
  5.5670   5.5910   5.6601   5.7035   5.7201   5.7340   5.7801   5.7926
  5.8335   5.8868   5.9055   5.9341   5.9725   6.0466   6.1929   6.4165
  6.6057   6.7519   6.8914   7.0796   7.1476   7.2967   7.3043   7.3153
  7.3663   7.4034   7.5286   7.6507   7.7583   7.7809   7.8833  24.2106
 24.7988  24.8239  24.8516  25.0759  25.1026  25.5409  50.6012  50.6754
 --------------------------------------------------------------
 
          Ground-State Mulliken Net Atomic Charges

     Atom                 Charge (a.u.)
  ----------------------------------------
      1 C                    -0.546088
      2 H                     0.215270
      3 O                    -0.396491
      4 H                     0.329190
      5 C                     0.929635
      6 C                    -0.048845
      7 C                    -0.444623
      8 H                     0.290041
      9 C                    -0.348597
     10 H                     0.284453
     11 C                    -0.491549
     12 H                     0.289071
     13 C                    -0.493853
     14 H                     0.266496
     15 H                     0.254921
     16 O                    -0.451377
     17 H                     0.362345
  ----------------------------------------
  Sum of atomic charges =     0.000000

 -----------------------------------------------------------------
                    Cartesian Multipole Moments
 -----------------------------------------------------------------
    Charge (ESU x 10^10)
                 0.0000
    Dipole Moment (Debye)
         X       2.5557      Y      -2.0734      Z      -0.9877
       Tot       3.4360
    Quadrupole Moments (Debye-Ang)
        XX     -79.3090     XY       8.3153     YY     -46.8908
        XZ      14.3965     YZ      -6.3693     ZZ     -60.3096
    Octopole Moments (Debye-Ang^2)
       XXX    1141.6136    XXY      67.9017    XYY     280.7728
       YYY     318.5288    XXZ    -309.0048    XYZ      20.9279
       YYZ    -163.4392    XZZ     397.1650    YZZ     111.2702
       ZZZ    -588.2097
    Hexadecapole Moments (Debye-Ang^3)
      XXXX  -13074.4348   XXXY   -1773.7895   XXYY   -2114.4615
      XYYY   -1999.0845   YYYY   -2121.9804   XXXZ    4166.6072
      XXYZ     303.2386   XYYZ     987.9297   YYYZ    1105.0166
      XXZZ   -3316.7175   XYZZ    -780.2031   YYZZ   -1031.9538
      XZZZ    3666.4683   YZZZ    1279.9774   ZZZZ   -4059.5108
 -----------------------------------------------------------------
 Calculating analytic gradient of the SCF energy
 Gradient of CDS energy
            1           2           3           4           5           6
    1   0.0010873  -0.0003238  -0.0002015   0.0000769  -0.0000827  -0.0007954
    2   0.0001213   0.0001723  -0.0002232   0.0002334   0.0001548   0.0059938
    3   0.0003440   0.0000902   0.0001843  -0.0004710  -0.0000019   0.0002745
            7           8           9          10          11          12
    1  -0.0003882  -0.0001652  -0.0004102  -0.0001638   0.0000757   0.0000265
    2   0.0002157   0.0001329  -0.0003003  -0.0001222  -0.0005148  -0.0002037
    3  -0.0000439  -0.0000167  -0.0000642  -0.0000284  -0.0000154  -0.0000079
           13          14          15          16          17
    1   0.0003596   0.0001920  -0.0000596   0.0007649   0.0000075
    2  -0.0000101  -0.0000159  -0.0002242  -0.0058027   0.0003931
    3   0.0000128   0.0000181  -0.0000619  -0.0001334  -0.0000793
 Gradient of SCF Energy
            1           2           3           4           5           6
    1  -0.0116846   0.0004069   0.0012320   0.0003522   0.0004375   0.0062383
    2   0.0065878   0.0006610   0.0055930  -0.0050806   0.0048821  -0.0019788
    3  -0.0087618   0.0053297   0.0154430  -0.0122740   0.0008065   0.0004984
            7           8           9          10          11          12
    1   0.0051836   0.0000522   0.0028312  -0.0023302  -0.0044279   0.0008178
    2  -0.0048461  -0.0015693   0.0051568  -0.0018826   0.0038655  -0.0040151
    3   0.0013185  -0.0001798   0.0008440  -0.0005418  -0.0003250  -0.0001574
           13          14          15          16          17
    1  -0.0118359   0.0076157   0.0069207  -0.0047624   0.0029529
    2  -0.0016981  -0.0023432  -0.0051720   0.0016980   0.0001413
    3  -0.0010774   0.0007076  -0.0013501   0.0009543  -0.0012348
 Max gradient component =       1.544E-02
 RMS gradient           =       4.997E-03
 Computing fast CPCM-SWIG gradient
 Updating gradient with PCM contributions...
 -- total gradient after adding PCM contribution --
---------------------------------------------------
  Atom         X              Y              Z     
---------------------------------------------------
   1       0.000614      -0.000867       0.000398
   2      -0.000078      -0.000239      -0.000676
   3      -0.000734      -0.000710      -0.001128
   4      -0.000211       0.000594       0.001485
   5      -0.000809       0.000015      -0.000298
   6      -0.000126      -0.001268       0.000725
   7       0.000743      -0.000525      -0.000025
   8       0.000613      -0.000246       0.000066
   9       0.000330       0.000405      -0.000001
  10       0.000618       0.000461       0.000034
  11      -0.000069       0.000461       0.000068
  12      -0.000090       0.000772       0.000039
  13      -0.000389       0.000423      -0.000205
  14      -0.000683       0.000331      -0.000062
  15      -0.000784       0.000169       0.000182
  16       0.002657      -0.000013      -0.000739
  17      -0.001604       0.000236       0.000138
---------------------------------------------------
 Number of fixed atoms: 0
 Gradient time:  CPU 342.74 s  wall 49.83 s
 Geometry Optimization Parameters
   NAtoms,    NIC,     NZ,  NCons,   NDum,   NFix, NCnnct, MaxDiis
       17     112       0       0       0       0       0       0

 Cartesian Hessian Update
 Hessian updated using BFGS update


** GEOMETRY OPTIMIZATION IN DELOCALIZED INTERNAL COORDINATES **
   Searching for a Minimum

   Optimization Cycle:   3

                       Coordinates (Angstroms)
     ATOM                X               Y               Z
      1  C        -4.1635167988   -1.3185773161    3.8833075495
      2  H        -4.2130732850   -0.9337219056    4.9009815041
      3  O        -4.1456822273   -0.1528187666    3.0459343267
      4  H        -4.0563756439   -0.4405095728    2.1315314480
      5  C        -5.3389272701   -2.2127341284    3.6046663809
      6  C        -6.6184857059   -1.6788727385    3.4507454077
      7  C        -7.7150466623   -2.5045275830    3.2591338663
      8  H        -8.6932015570   -2.0593730259    3.1429997844
      9  C        -7.5417765265   -3.8788754439    3.2186878022
     10  H        -8.3996106993   -4.5188174347    3.0698320975
     11  C        -6.2756591193   -4.4294629582    3.3554310539
     12  H        -6.1362912597   -5.4997002788    3.3136725004
     13  C        -5.1860664726   -3.5912372353    3.5399733893
     14  H        -4.1932596162   -4.0085381048    3.6462715889
     15  H        -3.2366317555   -1.8797984239    3.7784194624
     16  O        -6.8339338625   -0.3216154677    3.4947719998
     17  H        -5.9837545381    0.1266835842    3.3546220382
   Point Group: c1    Number of degrees of freedom:    45


   Energy is   -421.998968759

 Hessian updated using BFGS update

 45 Hessian modes will be used to form the next step
  Hessian Eigenvalues:
     0.008991    0.010760    0.016658    0.019143    0.022239    0.023176
     0.023203    0.023239    0.023309    0.023313    0.023366    0.026597
     0.063957    0.074349    0.118338    0.143625    0.159394    0.159991
     0.159995    0.159998    0.160082    0.165221    0.219992    0.224022
     0.229006    0.242636    0.249780    0.283970    0.327473    0.341169
     0.342701    0.350376    0.351943    0.352335    0.352830    0.400073
     0.422752    0.432449    0.462833    0.464534    0.467068    0.471949
     0.482925    0.501617    0.525715

 Minimum search - taking simple RFO step
 Searching for Lamda that Minimizes Along All modes
 Value Taken    Lamda =  -0.00009778
 Step Taken.  Stepsize is  0.036679

                             Maximum     Tolerance    Cnvgd?
         Gradient           0.002379      0.000300      NO
         Displacement       0.020291      0.001200      NO
         Energy change     -0.000077      0.000001      NO


 New Cartesian Coordinates Obtained by Inverse Iteration

 Displacement from previous Coordinates is:  0.076361
 ----------------------------------------------------------------
             Standard Nuclear Orientation (Angstroms)
    I     Atom           X                Y                Z
 ----------------------------------------------------------------
    1      C      -4.1639366863    -1.3136650333     3.8829241495
    2      H      -4.2183905703    -0.9190306429     4.8977236054
    3      O      -4.1352139213    -0.1556136451     3.0350926141
    4      H      -4.0396891463    -0.4548147134     2.1234964777
    5      C      -5.3397419329    -2.2104007183     3.6045707226
    6      C      -6.6218190093    -1.6775202820     3.4519097178
    7      C      -7.7188516673    -2.5048002022     3.2601354191
    8      H      -8.6986478365    -2.0602300458     3.1464693998
    9      C      -7.5435979306    -3.8803194868     3.2170660511
   10      H      -8.4016887067    -4.5217716841     3.0680417181
   11      C      -6.2754705393    -4.4301859364     3.3522941459
   12      H      -6.1348454404    -5.5013225959     3.3084885899
   13      C      -5.1856125031    -3.5903573578     3.5386871975
   14      H      -4.1914228640    -4.0075064425     3.6439066840
   15      H      -3.2360601391    -1.8774489856     3.7887607063
   16      O      -6.8401008411    -0.3209711889     3.5044285487
   17      H      -5.9862032656     0.1234621609     3.3669864527
 ----------------------------------------------------------------
 Nuclear Repulsion Energy =         433.34054239 hartrees
 There are       33 alpha and       33 beta electrons
 Discretize the solute cavity surface with Lebedev spheres
	Using 110 Lebedev grid points for each H atom
	Using 194 Lebedev grid points for other atoms
	Atomic van der Waals radii will be scaled by 1.20
 Remove points where switching function is < 1.0e-08
 Keep 1244 surface tesserae and discard 1382 interior tesserae
 Molecular Surface Area = 147.315 Angst**2
 Applying Cartesian multipole field
    Component          Value
    ---------          -----
     (2,0,0)        1.00000E-12
     (0,2,0)        2.00000E-12
     (0,0,2)       -3.00000E-11
 Nucleus-field energy     =    -0.0000000714 hartrees
 Requested basis set is 6-311++G(2df,2p)
 There are 120 shells and 386 basis functions
 A cutoff of  1.0D-12 yielded   6598 shell pairs
 There are     69154 function pairs (     86220 Cartesian)
 Smallest overlap matrix eigenvalue = 6.64E-07
 Linear dependence detected in AO basis
 Tighter screening thresholds may be required for diffuse basis sets
 Use S2THRESH > 14 and THRESH = 14 in case of SCF convergence issues
 Number of orthogonalized atomic orbitals = 385
 Maximum deviation from orthogonality = 5.804E-11
 Guess MOs from SCF MO coefficient file

 -----------------------------------------------------------------------
  General SCF calculation program by
  Eric Jon Sundstrom, Paul Horn, Yuezhi Mao, Dmitri Zuev, Alec White,
  David Stuck, Shaama M.S., Shane Yost, Joonho Lee, David Small,
  Daniel Levine, Susi Lehtola, Hugh Burton, Evgeny Epifanovsky,
  Bang C. Huynh
 -----------------------------------------------------------------------
 Exchange:     0.1500 Hartree-Fock + 1.0000 wB97M-V + LR-HF
 Correlation:  1.0000 wB97M-V
 Using SG-2 standard quadrature grid
 Nonlocal Correlation:  VV10 with C = 0.0100 and b = 6.00 and scale = 1.00000
 Grid used for NLC:  SG-1 standard quadrature
 
 Citation of the SMD model:
 Marenich, A.V.; Cramer, C.J.; Truhlar, D.G.
 J. Phys. Chem. B 2009, 113, 6378-6396.
 iSolventCode=           1
 Solvent: water                                                           
 
 vradii
            1           2           3           4           5           6
    1   1.8500000   1.2000000   1.5200000   1.2000000   1.8500000   1.8500000
            7           8           9          10          11          12
    1   1.8500000   1.2000000   1.8500000   1.2000000   1.8500000   1.2000000
           13          14          15          16          17
    1   1.8500000   1.2000000   1.2000000   1.5200000   1.2000000
 -------------------------------------------------------
 OpenMP BLAS3 based DFT computing Module                
 Release: version 1.0, May 2013, Q-Chem Inc. Pittsburgh 
 -------------------------------------------------------
 A restricted SCF calculation will be
 performed using Roothaan-Hall, DIIS, GDM
 SCF converges when RMS gradient is below 1.0e-07
 ---------------------------------------
  Cycle       Energy         DIIS error
 ---------------------------------------
    1    -421.9827813252      3.25e-04  Roothaan Step
 ---------------------------------------
  Cycle       Energy         DIIS error
 ---------------------------------------
    1    -422.0011262755      3.56e-04  
    2    -422.0036417050      2.70e-04  Done DIIS. Switching to GDM
 ---------------------------------------
  Cycle       Energy        RMS Gradient
 ---------------------------------------
    1    -422.0036417050      4.86e-03   Normal BFGS step
    2    -422.0038392509      6.21e-03   Normal BFGS step
    3    -422.0047453803      6.11e-04   Normal BFGS step
    4    -422.0047543862      3.38e-04   Normal BFGS step
    5    -422.0047592455      1.23e-04   Normal BFGS step
    6    -422.0047594127      5.12e-05   Normal BFGS step
    7    -422.0047594671      1.84e-05   Normal BFGS step
    8    -422.0047594705      7.68e-06   Normal BFGS step
    9    -422.0047594713      2.35e-06   Normal BFGS step
   10    -422.0047594714      1.47e-06   Normal BFGS step
   11    -422.0047594714      7.31e-07   Normal BFGS step
   12    -422.0047594714      1.91e-07   Normal BFGS step
   13    -422.0047594714      7.98e-08  Convergence criterion met
 ---------------------------------------
 SCF time:   CPU 1356.51s  wall 178.00s 
(3)  G-ENP(liq) elect-nuc-pol free energy of system     -422.004759471 a.u.
(4)  G-CDS(liq) cavity-dispersion-solvent structure 
     free energy                                                3.6045 kcal/mol
(6)  G-S(liq) free energy of system                     -421.999015356 a.u.
 SCF   energy in the final basis set =     -421.9990153557
 Total energy in the final basis set =     -421.9990153557
 
 --------------------------------------------------------------
 
                    Orbital Energies (a.u.)
 --------------------------------------------------------------
 
 Alpha MOs
 -- Occupied --
-19.3539 -19.3468 -10.4071 -10.3917 -10.3500 -10.3458 -10.3451 -10.3393
-10.3370  -1.1872  -1.1588  -0.9848  -0.8937  -0.8641  -0.8004  -0.7263
 -0.7185  -0.6595  -0.6140  -0.6061  -0.5625  -0.5598  -0.5461  -0.5295
 -0.5209  -0.4937  -0.4794  -0.4519  -0.4435  -0.4397  -0.3967  -0.3448
 -0.3180
 -- Virtual --
  0.0225   0.0341   0.0374   0.0457   0.0536   0.0572   0.0621   0.0722
  0.0774   0.0858   0.0975   0.1041   0.1073   0.1218   0.1410   0.1422
  0.1446   0.1522   0.1564   0.1599   0.1650   0.1720   0.1752   0.1781
  0.1836   0.1859   0.1925   0.2044   0.2054   0.2126   0.2239   0.2295
  0.2390   0.2494   0.2538   0.2651   0.2663   0.2730   0.2793   0.2847
  0.2944   0.2997   0.3151   0.3288   0.3366   0.3394   0.3439   0.3541
  0.3586   0.3679   0.3735   0.3796   0.3870   0.4040   0.4130   0.4227
  0.4368   0.4497   0.4633   0.4811   0.4884   0.5413   0.5507   0.5589
  0.5850   0.5974   0.5997   0.6086   0.6116   0.6190   0.6228   0.6343
  0.6385   0.6570   0.6646   0.6733   0.6856   0.6951   0.7063   0.7195
  0.7202   0.7320   0.7377   0.7420   0.7491   0.7597   0.7743   0.7802
  0.7838   0.8000   0.8061   0.8262   0.8378   0.8399   0.8532   0.8594
  0.8777   0.8857   0.8996   0.9108   0.9223   0.9418   0.9434   0.9671
  0.9968   1.0311   1.0499   1.0534   1.0724   1.0787   1.0995   1.1157
  1.1231   1.1456   1.1582   1.1697   1.1945   1.1975   1.2073   1.2090
  1.2151   1.2570   1.2674   1.2746   1.2819   1.2909   1.2991   1.3177
  1.3402   1.3623   1.3752   1.3885   1.4030   1.4084   1.4135   1.4327
  1.4399   1.4465   1.4563   1.4761   1.4944   1.5070   1.5225   1.5301
  1.5435   1.5610   1.5679   1.5968   1.6191   1.6357   1.6401   1.6761
  1.7356   1.7510   1.7674   1.7905   1.8092   1.8169   1.8631   1.9339
  1.9599   1.9891   2.0417   2.0593   2.0882   2.0991   2.1109   2.1312
  2.1677   2.2181   2.3084   2.3523   2.3976   2.4416   2.5055   2.5655
  2.5995   2.6144   2.6346   2.6720   2.7059   2.7135   2.7431   2.7912
  2.7948   2.8116   2.8266   2.8362   2.8440   2.8629   2.8720   2.8806
  2.9082   2.9123   2.9197   2.9432   2.9506   2.9624   2.9737   2.9768
  3.0068   3.0226   3.0308   3.0425   3.0841   3.1108   3.1222   3.1722
  3.1895   3.2023   3.2144   3.2310   3.2403   3.2465   3.2598   3.2627
  3.2782   3.2993   3.3033   3.3214   3.3514   3.3662   3.3882   3.3944
  3.4088   3.4369   3.4534   3.4601   3.4641   3.4772   3.5112   3.5209
  3.5273   3.5326   3.5519   3.5760   3.5892   3.6195   3.6432   3.6520
  3.6811   3.6935   3.7073   3.7569   3.7638   3.7914   3.8104   3.8186
  3.8293   3.8463   3.8626   3.8813   3.9136   3.9233   3.9296   3.9371
  3.9536   3.9768   3.9825   4.0114   4.0470   4.0843   4.1049   4.1209
  4.1374   4.1540   4.1891   4.1940   4.2003   4.2424   4.2857   4.3029
  4.3233   4.3414   4.3692   4.3777   4.3943   4.4182   4.4248   4.4454
  4.4487   4.4955   4.5148   4.5501   4.5617   4.5687   4.5906   4.6061
  4.6181   4.6244   4.6831   4.7387   4.7910   4.8026   4.8184   4.8419
  4.9241   5.0286   5.0903   5.1402   5.1824   5.2165   5.2469   5.2715
  5.2810   5.3112   5.3280   5.3488   5.3649   5.3964   5.4687   5.5266
  5.5629   5.5878   5.6552   5.6984   5.7168   5.7313   5.7743   5.7875
  5.8311   5.8827   5.8999   5.9306   5.9703   6.0433   6.1844   6.4081
  6.6025   6.7415   6.8876   7.0822   7.1431   7.2962   7.2979   7.3135
  7.3657   7.4002   7.5235   7.6490   7.7548   7.7756   7.8823  24.2100
 24.7934  24.8183  24.8467  25.0670  25.0949  25.5309  50.5989  50.6730
 --------------------------------------------------------------
 
          Ground-State Mulliken Net Atomic Charges

     Atom                 Charge (a.u.)
  ----------------------------------------
      1 C                    -0.551234
      2 H                     0.217089
      3 O                    -0.395889
      4 H                     0.329336
      5 C                     0.940025
      6 C                    -0.057592
      7 C                    -0.447417
      8 H                     0.290260
      9 C                    -0.349569
     10 H                     0.284486
     11 C                    -0.490051
     12 H                     0.289309
     13 C                    -0.494560
     14 H                     0.266397
     15 H                     0.254813
     16 O                    -0.446996
     17 H                     0.361595
  ----------------------------------------
  Sum of atomic charges =     0.000000

 -----------------------------------------------------------------
                    Cartesian Multipole Moments
 -----------------------------------------------------------------
    Charge (ESU x 10^10)
                -0.0000
    Dipole Moment (Debye)
         X       2.5392      Y      -2.0931      Z      -0.9662
       Tot       3.4296
    Quadrupole Moments (Debye-Ang)
        XX     -79.1023     XY       8.4215     YY     -46.8556
        XZ      14.2292     YZ      -6.3570     ZZ     -60.2062
    Octopole Moments (Debye-Ang^2)
       XXX    1139.6465    XXY      67.1681    XYY     280.5381
       YYY     318.2479    XXZ    -307.7921    XYZ      20.9341
       YYZ    -163.4385    XZZ     396.5688    YZZ     111.6119
       ZZZ    -587.8941
    Hexadecapole Moments (Debye-Ang^3)
      XXXX  -13060.0911   XXXY   -1768.3169   XXYY   -2113.0122
      XYYY   -1997.6690   YYYY   -2120.3677   XXXZ    4158.4982
      XXYZ     302.2418   XYYZ     987.9753   YYYZ    1104.2566
      XXZZ   -3313.8868   XYZZ    -781.8926   YYZZ   -1032.6619
      XZZZ    3665.8276   YZZZ    1281.8590   ZZZZ   -4059.4288
 -----------------------------------------------------------------
 Calculating analytic gradient of the SCF energy
 Gradient of CDS energy
            1           2           3           4           5           6
    1   0.0010716  -0.0003245  -0.0001943   0.0000762  -0.0000818  -0.0008083
    2   0.0001120   0.0001782  -0.0002204   0.0002271   0.0001556   0.0060069
    3   0.0003628   0.0000857   0.0001841  -0.0004736  -0.0000050   0.0003071
            7           8           9          10          11          12
    1  -0.0003898  -0.0001664  -0.0004107  -0.0001647   0.0000763   0.0000269
    2   0.0002161   0.0001332  -0.0003015  -0.0001231  -0.0005158  -0.0002050
    3  -0.0000434  -0.0000161  -0.0000648  -0.0000286  -0.0000168  -0.0000084
           13          14          15          16          17
    1   0.0003604   0.0001933  -0.0000519   0.0007791   0.0000085
    2  -0.0000103  -0.0000157  -0.0002180  -0.0058118   0.0003925
    3   0.0000142   0.0000190  -0.0000705  -0.0001699  -0.0000759
 Gradient of SCF Energy
            1           2           3           4           5           6
    1  -0.0121011   0.0004859   0.0018370   0.0007942   0.0010508   0.0063921
    2   0.0070737   0.0010295   0.0066664  -0.0059077   0.0051385  -0.0001890
    3  -0.0093529   0.0059714   0.0162835  -0.0133934   0.0011128  -0.0000798
            7           8           9          10          11          12
    1   0.0044457  -0.0006371   0.0023913  -0.0029952  -0.0043101   0.0009235
    2  -0.0043761  -0.0012466   0.0047389  -0.0023750   0.0032710  -0.0048432
    3   0.0012760  -0.0002713   0.0008137  -0.0006335  -0.0004085  -0.0002278
           13          14          15          16          17
    1  -0.0113694   0.0083463   0.0076729  -0.0072949   0.0043682
    2  -0.0021835  -0.0026855  -0.0052907   0.0014905  -0.0003110
    3  -0.0008022   0.0007418  -0.0014855   0.0014474  -0.0009918
 Max gradient component =       1.628E-02
 RMS gradient           =       5.309E-03
 Computing fast CPCM-SWIG gradient
 Updating gradient with PCM contributions...
 -- total gradient after adding PCM contribution --
---------------------------------------------------
  Atom         X              Y              Z     
---------------------------------------------------
   1       0.000074      -0.000134      -0.000066
   2       0.000044       0.000054      -0.000042
   3       0.000033       0.000122       0.000073
   4       0.000032      -0.000042       0.000164
   5      -0.000200       0.000241      -0.000095
   6       0.000154       0.000428       0.000043
   7      -0.000025      -0.000071      -0.000014
   8      -0.000025       0.000042      -0.000023
   9      -0.000140      -0.000021      -0.000013
  10      -0.000017      -0.000005      -0.000053
  11       0.000049      -0.000165      -0.000033
  12       0.000007      -0.000029      -0.000022
  13       0.000064      -0.000055       0.000102
  14       0.000030      -0.000004      -0.000019
  15      -0.000001       0.000042      -0.000030
  16       0.000047      -0.000166      -0.000140
  17      -0.000125      -0.000236       0.000168
---------------------------------------------------
 Number of fixed atoms: 0
 Gradient time:  CPU 322.40 s  wall 48.62 s
 Geometry Optimization Parameters
   NAtoms,    NIC,     NZ,  NCons,   NDum,   NFix, NCnnct, MaxDiis
       17     112       0       0       0       0       0       0

 Cartesian Hessian Update
 Hessian updated using BFGS update


** GEOMETRY OPTIMIZATION IN DELOCALIZED INTERNAL COORDINATES **
   Searching for a Minimum

   Optimization Cycle:   4

                       Coordinates (Angstroms)
     ATOM                X               Y               Z
      1  C        -4.1639366863   -1.3136650333    3.8829241495
      2  H        -4.2183905703   -0.9190306429    4.8977236054
      3  O        -4.1352139213   -0.1556136451    3.0350926141
      4  H        -4.0396891463   -0.4548147134    2.1234964777
      5  C        -5.3397419329   -2.2104007183    3.6045707226
      6  C        -6.6218190093   -1.6775202820    3.4519097178
      7  C        -7.7188516673   -2.5048002022    3.2601354191
      8  H        -8.6986478365   -2.0602300458    3.1464693998
      9  C        -7.5435979306   -3.8803194868    3.2170660511
     10  H        -8.4016887067   -4.5217716841    3.0680417181
     11  C        -6.2754705393   -4.4301859364    3.3522941459
     12  H        -6.1348454404   -5.5013225959    3.3084885899
     13  C        -5.1856125031   -3.5903573578    3.5386871975
     14  H        -4.1914228640   -4.0075064425    3.6439066840
     15  H        -3.2360601391   -1.8774489856    3.7887607063
     16  O        -6.8401008411   -0.3209711889    3.5044285487
     17  H        -5.9862032656    0.1234621609    3.3669864527
   Point Group: c1    Number of degrees of freedom:    45


   Energy is   -421.999015356

 Hessian updated using BFGS update

 45 Hessian modes will be used to form the next step
  Hessian Eigenvalues:
     0.008500    0.010768    0.016658    0.019228    0.022197    0.023173
     0.023195    0.023239    0.023312    0.023314    0.023366    0.026908
     0.063540    0.074031    0.118910    0.143410    0.159815    0.159985
     0.159994    0.159998    0.161477    0.168768    0.219997    0.223666
     0.230636    0.242669    0.249380    0.284700    0.330309    0.341829
     0.343152    0.350863    0.352299    0.352650    0.355351    0.399920
     0.422272    0.432245    0.460903    0.463716    0.467187    0.470842
     0.485742    0.516739    0.526968

 Minimum search - taking simple RFO step
 Searching for Lamda that Minimizes Along All modes
 Value Taken    Lamda =  -0.00000408
 Step Taken.  Stepsize is  0.013988

                             Maximum     Tolerance    Cnvgd?
         Gradient           0.000323      0.000300      NO
[...]
 
 --------------------------------------------------------------
 
                    Orbital Energies (a.u.)
 --------------------------------------------------------------
 
 Alpha MOs
 -- Occupied --
-19.3539 -19.3467 -10.4071 -10.3916 -10.3499 -10.3458 -10.3451 -10.3394
-10.3370  -1.1869  -1.1587  -0.9849  -0.8937  -0.8642  -0.8005  -0.7262
 -0.7185  -0.6595  -0.6139  -0.6061  -0.5625  -0.5599  -0.5462  -0.5295
 -0.5210  -0.4933  -0.4793  -0.4520  -0.4432  -0.4396  -0.3967  -0.3449
 -0.3182
 -- Virtual --
  0.0225   0.0341   0.0374   0.0458   0.0536   0.0571   0.0621   0.0721
  0.0773   0.0858   0.0975   0.1041   0.1073   0.1217   0.1411   0.1423
  0.1447   0.1523   0.1563   0.1599   0.1650   0.1720   0.1752   0.1782
  0.1834   0.1858   0.1925   0.2044   0.2056   0.2126   0.2239   0.2297
  0.2389   0.2494   0.2534   0.2653   0.2663   0.2728   0.2794   0.2849
  0.2944   0.2995   0.3143   0.3291   0.3365   0.3395   0.3436   0.3539
  0.3585   0.3677   0.3732   0.3795   0.3869   0.4041   0.4133   0.4228
  0.4370   0.4494   0.4632   0.4810   0.4882   0.5411   0.5506   0.5592
  0.5850   0.5977   0.5996   0.6089   0.6115   0.6188   0.6226   0.6347
  0.6385   0.6570   0.6647   0.6731   0.6856   0.6949   0.7062   0.7193
  0.7199   0.7324   0.7377   0.7420   0.7494   0.7594   0.7738   0.7802
  0.7841   0.7994   0.8058   0.8259   0.8376   0.8398   0.8524   0.8593
  0.8773   0.8861   0.8995   0.9105   0.9227   0.9412   0.9432   0.9689
  0.9969   1.0313   1.0500   1.0536   1.0725   1.0799   1.0996   1.1158
  1.1233   1.1452   1.1588   1.1698   1.1952   1.1970   1.2070   1.2085
  1.2149   1.2570   1.2672   1.2755   1.2813   1.2909   1.2995   1.3174
  1.3406   1.3628   1.3745   1.3876   1.4026   1.4083   1.4138   1.4323
  1.4400   1.4468   1.4563   1.4767   1.4942   1.5066   1.5221   1.5295
  1.5446   1.5613   1.5682   1.5967   1.6188   1.6360   1.6409   1.6752
  1.7367   1.7512   1.7677   1.7904   1.8094   1.8174   1.8628   1.9328
  1.9604   1.9889   2.0415   2.0589   2.0881   2.0987   2.1115   2.1288
  2.1681   2.2179   2.3089   2.3511   2.3960   2.4402   2.5052   2.5646
  2.5996   2.6138   2.6357   2.6718   2.7053   2.7141   2.7443   2.7900
  2.7950   2.8115   2.8267   2.8370   2.8440   2.8627   2.8720   2.8807
  2.9084   2.9119   2.9199   2.9429   2.9508   2.9622   2.9745   2.9770
  3.0067   3.0223   3.0315   3.0430   3.0849   3.1107   3.1223   3.1720
  3.1895   3.2036   3.2148   3.2309   3.2401   3.2468   3.2602   3.2621
  3.2788   3.2992   3.3040   3.3204   3.3517   3.3660   3.3881   3.3948
  3.4102   3.4367   3.4539   3.4601   3.4638   3.4776   3.5107   3.5213
  3.5279   3.5323   3.5521   3.5761   3.5894   3.6202   3.6416   3.6512
  3.6811   3.6945   3.7082   3.7570   3.7633   3.7916   3.8102   3.8190
  3.8294   3.8464   3.8632   3.8811   3.9143   3.9243   3.9292   3.9369
  3.9543   3.9770   3.9842   4.0111   4.0475   4.0843   4.1047   4.1211
  4.1385   4.1542   4.1885   4.1942   4.1999   4.2423   4.2862   4.3034
  4.3231   4.3411   4.3695   4.3778   4.3944   4.4174   4.4252   4.4459
  4.4484   4.4959   4.5154   4.5508   4.5623   4.5691   4.5902   4.6061
  4.6182   4.6244   4.6824   4.7392   4.7912   4.8037   4.8190   4.8428
  4.9231   5.0288   5.0909   5.1405   5.1821   5.2166   5.2477   5.2707
  5.2815   5.3113   5.3282   5.3484   5.3655   5.3962   5.4692   5.5266
  5.5637   5.5885   5.6547   5.6975   5.7159   5.7309   5.7743   5.7878
  5.8303   5.8823   5.8994   5.9309   5.9704   6.0437   6.1849   6.4069
  6.6019   6.7420   6.8852   7.0823   7.1432   7.2957   7.2977   7.3135
  7.3652   7.3992   7.5221   7.6495   7.7535   7.7755   7.8811  24.2095
 24.7941  24.8187  24.8469  25.0676  25.0952  25.5315  50.5986  50.6722
 --------------------------------------------------------------
 
          Ground-State Mulliken Net Atomic Charges

     Atom                 Charge (a.u.)
  ----------------------------------------
      1 C                    -0.555335
      2 H                     0.219220
      3 O                    -0.395387
      4 H                     0.328985
      5 C                     0.936629
      6 C                    -0.052646
      7 C                    -0.445581
      8 H                     0.290302
      9 C                    -0.349349
     10 H                     0.284450
     11 C                    -0.488834
     12 H                     0.289347
     13 C                    -0.496318
     14 H                     0.266266
     15 H                     0.254392
     16 O                    -0.447440
     17 H                     0.361299
  ----------------------------------------
  Sum of atomic charges =     0.000000

 -----------------------------------------------------------------
                    Cartesian Multipole Moments
 -----------------------------------------------------------------
    Charge (ESU x 10^10)
                 0.0000
    Dipole Moment (Debye)
         X       2.5212      Y      -2.1115      Z      -0.9756
       Tot       3.4302
    Quadrupole Moments (Debye-Ang)
        XX     -78.9015     XY       8.5321     YY     -46.7852
        XZ      14.2538     YZ      -6.3692     ZZ     -60.2659
    Octopole Moments (Debye-Ang^2)
       XXX    1137.7783    XXY      66.4507    XYY     280.1098
       YYY     318.0477    XXZ    -307.7561    XYZ      21.1005
       YYZ    -163.3837    XZZ     396.9002    YZZ     111.6744
       ZZZ    -588.3007
    Hexadecapole Moments (Debye-Ang^3)
      XXXX  -13043.0136   XXXY   -1762.9839   XXYY   -2110.0734
      XYYY   -1996.1698   YYYY   -2118.7893   XXXZ    4157.0415
      XXYZ     300.4912   XYYZ     987.6555   YYYZ    1104.1765
      XXZZ   -3315.5823   XYZZ    -781.5791   YYZZ   -1032.8692
      XZZZ    3668.7043   YZZZ    1282.0127   ZZZZ   -4062.5977
 -----------------------------------------------------------------
 Calculating analytic gradient of the SCF energy
 Gradient of CDS energy
            1           2           3           4           5           6
    1   0.0010746  -0.0003265  -0.0001978   0.0000765  -0.0000819  -0.0008047
    2   0.0001113   0.0001804  -0.0002168   0.0002220   0.0001564   0.0060120
    3   0.0003714   0.0000803   0.0001859  -0.0004757  -0.0000091   0.0003215
            7           8           9          10          11          12
    1  -0.0003900  -0.0001665  -0.0004101  -0.0001646   0.0000760   0.0000269
    2   0.0002170   0.0001334  -0.0003016  -0.0001231  -0.0005153  -0.0002049
    3  -0.0000420  -0.0000156  -0.0000650  -0.0000286  -0.0000187  -0.0000091
           13          14          15          16          17
    1   0.0003604   0.0001938  -0.0000522   0.0007785   0.0000075
    2  -0.0000099  -0.0000154  -0.0002190  -0.0058203   0.0003940
    3   0.0000146   0.0000199  -0.0000700  -0.0001803  -0.0000797
 Gradient of SCF Energy
            1           2           3           4           5           6
    1  -0.0120851   0.0004113   0.0017985   0.0007831   0.0012342   0.0061245
    2   0.0071355   0.0009863   0.0066373  -0.0059280   0.0049178  -0.0006562
    3  -0.0093713   0.0059702   0.0161727  -0.0134499   0.0012624  -0.0000475
            7           8           9          10          11          12
    1   0.0045034  -0.0006334   0.0025399  -0.0029936  -0.0043152   0.0009222
    2  -0.0042552  -0.0012841   0.0047684  -0.0023889   0.0034631  -0.0048393
    3   0.0012847  -0.0002645   0.0008046  -0.0006149  -0.0003793  -0.0002518
           13          14          15          16          17
    1  -0.0113574   0.0083229   0.0076372  -0.0073510   0.0044584
    2  -0.0021376  -0.0026964  -0.0053336   0.0016782  -0.0000674
    3  -0.0010148   0.0007484  -0.0013311   0.0017074  -0.0012253
 Max gradient component =       1.617E-02
 RMS gradient           =       5.306E-03
 Computing fast CPCM-SWIG gradient
 Updating gradient with PCM contributions...
 -- total gradient after adding PCM contribution --
---------------------------------------------------
  Atom         X              Y              Z     
---------------------------------------------------
   1       0.000014       0.000043      -0.000012
   2      -0.000002      -0.000009       0.000014
   3       0.000002      -0.000026       0.000057
   4       0.000012       0.000016       0.000034
   5      -0.000011      -0.000013       0.000000
   6       0.000018      -0.000058       0.000019
   7      -0.000011       0.000006      -0.000017
   8       0.000006      -0.000008      -0.000011
   9       0.000008       0.000014      -0.000028
  10       0.000010       0.000000      -0.000028
  11       0.000015       0.000020      -0.000011
  12       0.000002       0.000004      -0.000029
  13      -0.000014      -0.000019      -0.000018
  14      -0.000005       0.000003      -0.000002
  15      -0.000005      -0.000002       0.000021
  16      -0.000039       0.000028       0.000022
  17       0.000001       0.000003      -0.000011
---------------------------------------------------
 Number of fixed atoms: 0
 Gradient time:  CPU 340.86 s  wall 49.94 s
 Geometry Optimization Parameters
   NAtoms,    NIC,     NZ,  NCons,   NDum,   NFix, NCnnct, MaxDiis
       17     112       0       0       0       0       0       0

 Cartesian Hessian Update
 Hessian updated using BFGS update


** GEOMETRY OPTIMIZATION IN DELOCALIZED INTERNAL COORDINATES **
   Searching for a Minimum

   Optimization Cycle:   7

                       Coordinates (Angstroms)
     ATOM                X               Y               Z
      1  C        -4.1657591026   -1.3118455801    3.8853245148
      2  H        -4.2276465460   -0.9088786730    4.8964569500
      3  O        -4.1329931787   -0.1613145538    3.0274790853
      4  H        -4.0369884259   -0.4679233637    2.1183251173
      5  C        -5.3392630310   -2.2108369850    3.6066153787
      6  C        -6.6216274900   -1.6778362713    3.4559191125
      7  C        -7.7188260163   -2.5041562816    3.2636296777
      8  H        -8.6989569953   -2.0599517383    3.1523355869
      9  C        -7.5427869092   -3.8795160783    3.2165216192
     10  H        -8.4007210941   -4.5210657409    3.0672675737
     11  C        -6.2745237512   -4.4292571434    3.3481926206
     12  H        -6.1338959959   -5.5002022668    3.3007660831
     13  C        -5.1844302599   -3.5901330178    3.5359765209
     14  H        -4.1902112890   -4.0074756736    3.6395020632
     15  H        -3.2369814995   -1.8759901440    3.8023322922
     16  O        -6.8387683878   -0.3205125191    3.5117451809
     17  H        -5.9869130275    0.1243992307    3.3625928232
   Point Group: c1    Number of degrees of freedom:    45


   Energy is   -421.999019554

 Hessian updated using BFGS update

 45 Hessian modes will be used to form the next step
  Hessian Eigenvalues:
     0.003596    0.010254    0.016675    0.019373    0.022389    0.023118
     0.023154    0.023230    0.023297    0.023323    0.023365    0.033686
     0.065979    0.074521    0.119932    0.145491    0.159409    0.159978
     0.159984    0.160005    0.163858    0.187845    0.219999    0.222888
     0.234522    0.245462    0.256775    0.292536    0.340392    0.343264
     0.349371    0.351005    0.352295    0.352586    0.358725    0.401505
     0.424747    0.438801    0.460179    0.464606    0.469135    0.486418
     0.502970    0.527504    0.528744

 Minimum search - taking simple RFO step
 Searching for Lamda that Minimizes Along All modes
 Value Taken    Lamda =  -0.00000010
 Step Taken.  Stepsize is  0.001717

                             Maximum     Tolerance    Cnvgd?
         Gradient           0.000084      0.000300     YES
         Displacement       0.000709      0.001200     YES
         Energy change     -0.000000      0.000001     YES

 Final energy is   -421.999019554371     


 ******************************
 **  OPTIMIZATION CONVERGED  **
 ******************************

                       Coordinates (Angstroms)
     ATOM                X               Y               Z
      1  C        -4.1657591026   -1.3118455801    3.8853245148
      2  H        -4.2276465460   -0.9088786730    4.8964569500
      3  O        -4.1329931787   -0.1613145538    3.0274790853
      4  H        -4.0369884259   -0.4679233637    2.1183251173
      5  C        -5.3392630310   -2.2108369850    3.6066153787
      6  C        -6.6216274900   -1.6778362713    3.4559191125
      7  C        -7.7188260163   -2.5041562816    3.2636296777
      8  H        -8.6989569953   -2.0599517383    3.1523355869
      9  C        -7.5427869092   -3.8795160783    3.2165216192
     10  H        -8.4007210941   -4.5210657409    3.0672675737
     11  C        -6.2745237512   -4.4292571434    3.3481926206
     12  H        -6.1338959959   -5.5002022668    3.3007660831
     13  C        -5.1844302599   -3.5901330178    3.5359765209
     14  H        -4.1902112890   -4.0074756736    3.6395020632
     15  H        -3.2369814995   -1.8759901440    3.8023322922
     16  O        -6.8387683878   -0.3205125191    3.5117451809
     17  H        -5.9869130275    0.1243992307    3.3625928232

Z-matrix Print:
$molecule
0 1
C 
O  1 1.375716
H  2 0.972548 1 107.871297
C  1 1.386948 2 117.942142 3 -162.169258 0
H  4 1.081832 1 119.101067 2 0.750516 0
C  4 1.387380 1 119.666495 2 -179.288398 0
H  6 1.081626 4 119.474526 1 179.947824 0
C  6 1.388540 4 120.341836 1 -0.605418 0
H  8 1.081179 6 120.451431 4 -179.318225 0
C  8 1.388415 6 119.384703 4 0.403281 0
H  10 1.083219 8 120.046242 6 -179.971653 0
C  10 1.389756 8 121.280586 6 0.576695 0
C  12 1.504319 10 121.038665 8 176.614665 0
H  13 1.089851 12 109.958950 10 11.723084 0
H  13 1.090230 12 110.391563 10 -107.435436 0
O  13 1.435512 12 112.709418 10 135.471232 0
H  16 0.964255 13 108.111253 12 -62.337464 0
$end

 
 --------------------------------------------------------------
 
                    Orbital Energies (a.u.)
 --------------------------------------------------------------
 
 Alpha MOs
 -- Occupied --
-19.3539 -19.3467 -10.4071 -10.3916 -10.3499 -10.3458 -10.3451 -10.3394
-10.3370  -1.1869  -1.1587  -0.9849  -0.8937  -0.8642  -0.8005  -0.7262
 -0.7185  -0.6595  -0.6139  -0.6061  -0.5625  -0.5599  -0.5462  -0.5295
 -0.5210  -0.4933  -0.4793  -0.4520  -0.4432  -0.4396  -0.3967  -0.3449
 -0.3182
 -- Virtual --
  0.0225   0.0341   0.0374   0.0458   0.0536   0.0571   0.0621   0.0721
  0.0773   0.0858   0.0975   0.1041   0.1073   0.1217   0.1411   0.1423
  0.1447   0.1523   0.1563   0.1599   0.1650   0.1720   0.1752   0.1782
  0.1834   0.1858   0.1925   0.2044   0.2056   0.2126   0.2239   0.2297
  0.2389   0.2494   0.2534   0.2653   0.2663   0.2728   0.2794   0.2849
  0.2944   0.2995   0.3143   0.3291   0.3365   0.3395   0.3436   0.3539
  0.3585   0.3677   0.3732   0.3795   0.3869   0.4041   0.4133   0.4228
  0.4370   0.4494   0.4632   0.4810   0.4882   0.5411   0.5506   0.5592
  0.5850   0.5977   0.5996   0.6089   0.6115   0.6188   0.6226   0.6347
  0.6385   0.6570   0.6647   0.6731   0.6856   0.6949   0.7062   0.7193
  0.7199   0.7324   0.7377   0.7420   0.7494   0.7594   0.7738   0.7802
  0.7841   0.7994   0.8058   0.8259   0.8376   0.8398   0.8524   0.8593
  0.8773   0.8861   0.8995   0.9105   0.9227   0.9412   0.9432   0.9689
  0.9969   1.0313   1.0500   1.0536   1.0725   1.0799   1.0996   1.1158
  1.1233   1.1452   1.1588   1.1698   1.1952   1.1970   1.2070   1.2085
  1.2149   1.2570   1.2672   1.2755   1.2813   1.2909   1.2995   1.3174
  1.3406   1.3628   1.3745   1.3876   1.4026   1.4083   1.4138   1.4323
  1.4400   1.4468   1.4563   1.4767   1.4942   1.5066   1.5221   1.5295
  1.5446   1.5613   1.5682   1.5967   1.6188   1.6360   1.6409   1.6752
  1.7367   1.7512   1.7677   1.7904   1.8094   1.8174   1.8628   1.9328
  1.9604   1.9889   2.0415   2.0589   2.0881   2.0987   2.1115   2.1288
  2.1681   2.2179   2.3089   2.3511   2.3960   2.4402   2.5052   2.5646
  2.5996   2.6138   2.6357   2.6718   2.7053   2.7141   2.7443   2.7900
  2.7950   2.8115   2.8267   2.8370   2.8440   2.8627   2.8720   2.8807
  2.9084   2.9119   2.9199   2.9429   2.9508   2.9622   2.9745   2.9770
  3.0067   3.0223   3.0315   3.0430   3.0849   3.1107   3.1223   3.1720
  3.1895   3.2036   3.2148   3.2309   3.2401   3.2468   3.2602   3.2621
  3.2788   3.2992   3.3040   3.3204   3.3517   3.3660   3.3881   3.3948
  3.4102   3.4367   3.4539   3.4601   3.4638   3.4776   3.5107   3.5213
  3.5279   3.5323   3.5521   3.5761   3.5894   3.6202   3.6416   3.6512
  3.6811   3.6945   3.7082   3.7570   3.7633   3.7916   3.8102   3.8190
  3.8294   3.8464   3.8632   3.8811   3.9143   3.9243   3.9292   3.9369
  3.9543   3.9770   3.9842   4.0111   4.0475   4.0843   4.1047   4.1211
  4.1385   4.1542   4.1885   4.1942   4.1999   4.2423   4.2862   4.3034
  4.3231   4.3411   4.3695   4.3778   4.3944   4.4174   4.4252   4.4459
  4.4484   4.4959   4.5154   4.5508   4.5623   4.5691   4.5902   4.6061
  4.6182   4.6244   4.6824   4.7392   4.7912   4.8037   4.8190   4.8428
  4.9231   5.0288   5.0909   5.1405   5.1821   5.2166   5.2477   5.2707
  5.2815   5.3113   5.3282   5.3484   5.3655   5.3962   5.4692   5.5266
  5.5637   5.5885   5.6547   5.6975   5.7159   5.7309   5.7743   5.7878
  5.8303   5.8823   5.8994   5.9309   5.9704   6.0437   6.1849   6.4069
  6.6019   6.7420   6.8852   7.0823   7.1432   7.2957   7.2977   7.3135
  7.3652   7.3992   7.5221   7.6495   7.7535   7.7755   7.8811  24.2095
 24.7941  24.8187  24.8469  25.0676  25.0952  25.5315  50.5986  50.6722
 --------------------------------------------------------------
 
          Ground-State Mulliken Net Atomic Charges

     Atom                 Charge (a.u.)
  ----------------------------------------
      1 C                    -0.555335
      2 H                     0.219220
      3 O                    -0.395387
      4 H                     0.328985
      5 C                     0.936629
      6 C                    -0.052646
      7 C                    -0.445581
      8 H                     0.290302
      9 C                    -0.349349
     10 H                     0.284450
     11 C                    -0.488834
     12 H                     0.289347
     13 C                    -0.496318
     14 H                     0.266266
     15 H                     0.254392
     16 O                    -0.447440
     17 H                     0.361299
  ----------------------------------------
  Sum of atomic charges =     0.000000

 -----------------------------------------------------------------
                    Cartesian Multipole Moments
 -----------------------------------------------------------------
    Charge (ESU x 10^10)
                 0.0000
    Dipole Moment (Debye)
         X       2.5212      Y      -2.1115      Z      -0.9756
       Tot       3.4302
    Quadrupole Moments (Debye-Ang)
        XX     -78.9015     XY       8.5321     YY     -46.7852
        XZ      14.2538     YZ      -6.3692     ZZ     -60.2659
    Octopole Moments (Debye-Ang^2)
       XXX    1137.7783    XXY      66.4507    XYY     280.1098
       YYY     318.0477    XXZ    -307.7561    XYZ      21.1005
       YYZ    -163.3837    XZZ     396.9002    YZZ     111.6744
       ZZZ    -588.3007
    Hexadecapole Moments (Debye-Ang^3)
      XXXX  -13043.0136   XXXY   -1762.9839   XXYY   -2110.0734
      XYYY   -1996.1698   YYYY   -2118.7893   XXXZ    4157.0415
      XXYZ     300.4912   XYYZ     987.6555   YYYZ    1104.1765
      XXZZ   -3315.5823   XYZZ    -781.5791   YYZZ   -1032.8692
      XZZZ    3668.7043   YZZZ    1282.0127   ZZZZ   -4062.5977
 -----------------------------------------------------------------
 Total job time:  1619.29s(wall), 11932.85s(cpu) 
 Tue Feb 14 15:36:30 2023

        *************************************************************
        *                                                           *
        *  Thank you very much for using Q-Chem.  Have a nice day.  *
        *                                                           *
        *************************************************************


