
Running Job 1 of 1 Q_in.in
qchem Q_in.in_136508.0 /scratch/ari.fischer/qChem2149905.hpc-mn1/qchem136508/ 0
/usr/local/qchem-5.4.1/exe/qcprog.exe_s Q_in.in_136508.0 /scratch/ari.fischer/qChem2149905.hpc-mn1/qchem136508/
                  Welcome to Q-Chem
     A Quantum Leap Into The Future Of Chemistry


 Q-Chem 5.4, Q-Chem, Inc., Pleasanton, CA (2021)

 License issued to: Nanyang Technological University (site)

 E. Epifanovsky,  A. T. B. Gilbert,  Xintian Feng,  Joonho Lee,  Yuezhi Mao,  
 N. Mardirossian,  P. Pokhilko,  A. White,  M. Wormit,  M. P. Coons,  
 A. L. Dempwolff,  Zhengting Gan,  D. Hait,  P. R. Horn,  L. D. Jacobson,  
 I. Kaliman,  J. Kussmann,  A. W. Lange,  Ka Un Lao,  D. S. Levine,  Jie Liu,  
 S. C. McKenzie,  A. F. Morrison,  K. Nanda,  F. Plasser,  D. R. Rehn,  
 M. L. Vidal,  Zhi-Qiang You,  Ying Zhu,  B. Alam,  B. Albrecht,  
 A. Aldossary,  E. Alguire,  J. H. Andersen,  D. Barton,  K. Begam,  A. Behn,  
 Y. A. Bernard,  E. J. Berquist,  H. Burton,  A. Carreras,  K. Carter-Fenk,  
 Romit Chakraborty,  A. D. Chien,  K. D. Closser,  V. Cofer-Shabica,  
 S. Dasgupta,  Jia Deng,  M. de Wergifosse,  M. Diedenhofen,  Hainam Do,  
 S. Ehlert,  Po-Tung Fang,  S. Fatehi,  Qingguo Feng,  T. Friedhoff,  
 J. Gayvert,  Qinghui Ge,  G. Gidofalvi,  M. Goldey,  J. Gomes,  
 C. Gonzalez-Espinoza,  S. Gulania,  A. Gunina,  M. W. D. Hanson-Heine,  
 P. H. P. Harbach,  A. W. Hauser,  M. F. Herbst,  M. Hernandez Vera,  
 M. Hodecker,  Z. C. Holden,  S. Houck,  Xunkun Huang,  Kerwin Hui,  
 B. C. Huynh,  M. Ivanov,  Hyunjun Ji,  Hanjie Jiang,  B. Kaduk,  S. Kaehler,  
 K. Khistyaev,  Jaehoon Kim,  P. Klunzinger,  Z. Koczor-Benda,  
 Joong Hoon Koh,  D. Kosenkov,  L. Koulias,  T. Kowalczyk,  C. M. Krauter,  
 K. Kue,  A. Kunitsa,  T. Kus,  A. Landau,  K. V. Lawler,  D. Lefrancois,  
 S. Lehtola,  Rain Li,  Yi-Pei Li,  Jiashu Liang,  M. Liebenthal,  
 Hung-Hsuan Lin,  You-Sheng Lin,  Fenglai Liu,  Kuan-Yu Liu,  
 M. Loipersberger,  A. Luenser,  A. Manjanath,  P. Manohar,  E. Mansoor,  
 S. F. Manzer,  Shan-Ping Mao,  A. V. Marenich,  T. Markovich,  S. Mason,  
 S. A. Maurer,  P. F. McLaughlin,  M. F. S. J. Menger,  J.-M. Mewes,  
 S. A. Mewes,  P. Morgante,  J. W. Mullinax,  K. J. Oosterbaan,  G. Paran,  
 Alexander C. Paul,  Suranjan K. Paul,  F. Pavosevic,  Zheng Pei,  S. Prager,  
 E. I. Proynov,  E. Ramos,  B. Rana,  A. E. Rask,  A. Rettig,  R. M. Richard,  
 F. Rob,  E. Rossomme,  T. Scheele,  M. Scheurer,  M. Schneider,  
 N. Sergueev,  S. M. Sharada,  W. Skomorowski,  D. W. Small,  C. J. Stein,  
 Yu-Chuan Su,  E. J. Sundstrom,  Zhen Tao,  J. Thirman,  T. Tsuchimochi,  
 N. M. Tubman,  S. P. Veccham,  O. Vydrov,  J. Wenzel,  J. Witte,  A. Yamada,  
 Kun Yao,  S. Yeganeh,  S. R. Yost,  A. Zech,  Igor Ying Zhang,  Xing Zhang,  
 Yu Zhang,  D. Zuev,  A. Aspuru-Guzik,  A. T. Bell,  N. A. Besley,  
 K. B. Bravaya,  B. R. Brooks,  D. Casanova,  Jeng-Da Chai,  S. Coriani,  
 C. J. Cramer,  A. E. DePrince, III,  R. A. DiStasio Jr.,  A. Dreuw,  
 B. D. Dunietz,  T. R. Furlani,  W. A. Goddard III,  S. Grimme,  
 S. Hammes-Schiffer,  T. Head-Gordon,  W. J. Hehre,  Chao-Ping Hsu,  
 T.-C. Jagau,  Yousung Jung,  A. Klamt,  Jing Kong,  D. S. Lambrecht,  
 WanZhen Liang,  N. J. Mayhall,  C. W. McCurdy,  J. B. Neaton,  T. Neudecker,  
 C. Ochsenfeld,  J. A. Parkhill,  R. Peverati,  V. A. Rassolov,  Yihan Shao,  
 L. V. Slipchenko,  R. P. Steele,  J. E. Subotnik,  A. J. W. Thom,  
 A. Tkatchenko,  D. G. Truhlar,  T. Van Voorhis,  T. A. Wesolowski,  
 K. B. Whaley,  H. L. Woodcock III,  P. M. Zimmerman,  S. Faraji,  
 P. M. W. Gill,  M. Head-Gordon,  J. M. Herbert,  A. I. Krylov

 Additional authors since Version 5.4.0: 
 Chandrima Chakravarty,  L. Cunha,  R. Kang,  Yongbin Kim,  S. Kotaru,  
 Shaozhi Li,  Xiangyuan Li,  F. Matz,  A. Molle,  V. Parravicini,  
 Haisheng Ren,  Hengyuan Shen,  Yingli Su,  Hung-Yi Tsai,  C. Utku,  
 Fang Wang,  Jeff Yang,  F. Zeller

 Contributors to earlier versions of Q-Chem not listed above: 
 R. D. Adamson,  B. Austin,  R. Baer,  J. Baker,  G. J. O. Beran,  
 K. Brandhorst,  S. T. Brown,  E. F. C. Byrd,  Arup K. Chakraborty,  
 G. K. L. Chan,  Chun-Min Chang,  Yunqing Chen,  C.-L. Cheng,  
 Siu Hung Chien,  D. M. Chipman,  D. L. Crittenden,  H. Dachsel,  
 R. J. Doerksen,  A. D. Dutoi,  R. G. Edgar,  J. Fosso-Tande,  
 L. Fusti-Molnar,  D. Ghosh,  A. Ghysels,  A. Golubeva-Zadorozhnaya,  
 J. Gonthier,  M. S. Gordon,  S. R. Gwaltney,  G. Hawkins,  J. E. Herr,  
 A. Heyden,  S. Hirata,  E. G. Hohenstein,  G. Kedziora,  F. J. Keil,  
 C. Kelley,  Jihan Kim,  R. A. King,  R. Z. Khaliullin,  P. P. Korambath,  
 W. Kurlancheek,  A. Laurent,  A. M. Lee,  M. S. Lee,  S. V. Levchenko,  
 Ching Yeh Lin,  D. Liotard,  E. Livshits,  R. C. Lochan,  I. Lotan,  
 L. A. Martinez-Martinez,  P. E. Maslen,  N. Nair,  D. P. O'Neill,  
 D. Neuhauser,  E. Neuscamman,  C. M. Oana,  R. Olivares-Amaya,  R. Olson,  
 T. M. Perrine,  B. Peters,  P. A. Pieniazek,  A. Prociuk,  Y. M. Rhee,  
 J. Ritchie,  M. A. Rohrdanz,  E. Rosta,  N. J. Russ,  H. F. Schaefer III,  
 M. W. Schmidt,  N. E. Schultz,  S. Sharma,  N. Shenvi,  C. D. Sherrill,  
 A. C. Simmonett,  A. Sodt,  T. Stein,  D. Stuck,  K. S. Thanthiriwatte,  
 V. Vanovschi,  L. Vogt,  Tao Wang,  A. Warshel,  M. A. Watson,  
 C. F. Williams,  Q. Wu,  X. Xu,  Jun Yang,  W. Zhang,  Yan Zhao

   Please cite Q-Chem as follows:
  "Software for the frontiers of quantum chemistry:
   An overview of developments in the Q-Chem 5 package"
   J. Chem. Phys. 155, 084801 (2021)
   https://doi.org/10.1063/5.0055522 (open access)

 Q-Chem 5.4.2 for Intel X86 EM64T Linux

 Parts of Q-Chem use Armadillo 9.900.5 (Nocturnal Misbehaviour).
 http://arma.sourceforge.net/

 Q-Chem begins on Fri May 31 16:27:16 2024  

 Host: 
0

     Scratch files written to /scratch/ari.fischer/qChem2149905.hpc-mn1/qchem136508//
 Dec1321 |scratch|qcdevops|jenkins|workspace|build_RNUM 8249   
 Processing $rem in /usr/local/qchem-5.4.1/config/preferences:
 Processing $rem in /home/ari.fischer/.qchemrc:
 Symmetry turned off for PCM/SM12/SMD calculation

 Checking the input file for inconsistencies... 	...done.

--------------------------------------------------------------
User input:
--------------------------------------------------------------
$molecule
0 2
C         1.0554299636    0.3382882999   -0.2448816466
O         0.4490848495   -0.6868670757   -1.0092366110
C         2.5705277858    0.2675150609   -0.1888019124
O         3.1908899141    1.0715758214    0.4904232134
C         3.2545250900   -0.7960042163   -1.0119741170
C         4.7588060371   -0.7654302907   -0.8618131587
O         5.0423616730   -1.2062346415    0.4991773319
O         6.1387871611   -0.6639145006    0.9716036898
C         5.4768077905   -1.7148488342   -1.8223366762
O         5.2441897853   -1.1871595128   -3.1061506382
O         6.8471710273   -1.8253988600   -1.5289612828
H         0.6783875583    0.3718020935    0.7850933694
H         0.7997015513    1.2930569580   -0.7175573412
H         0.4771423719   -1.4998487491   -0.4797036639
H         2.9821991962   -0.6536945598   -2.0638105441
H         2.8596954038   -1.7805457397   -0.7291733456
H         5.1679425939    0.2437037781   -0.9600571749
H         5.0770714480   -2.7298790958   -1.7253932152
H         5.5272129761   -1.8600354620   -3.7475548080
H         7.2262858232   -0.9293524736   -1.5705483287
$end

$rem
BASIS = 6-311++G(2df,2p)
GUI = 2
JOB_TYPE = Optimization
METHOD = wB97M-V
SCF_ALGORITHM = DIIS_GDM
MAX_SCF_CYCLES = 400
GEOM_OPT_MAX_CYCLES = 150
SCF_CONVERGENCE = 7
THRESH = 12
Solvent_method = SMD
$end
--------------------------------------------------------------
 ----------------------------------------------------------------
             Standard Nuclear Orientation (Angstroms)
    I     Atom           X                Y                Z
 ----------------------------------------------------------------
    1      C       1.0554299636     0.3382882999    -0.2448816466
    2      O       0.4490848495    -0.6868670757    -1.0092366110
    3      C       2.5705277858     0.2675150609    -0.1888019124
    4      O       3.1908899141     1.0715758214     0.4904232134
    5      C       3.2545250900    -0.7960042163    -1.0119741170
    6      C       4.7588060371    -0.7654302907    -0.8618131587
    7      O       5.0423616730    -1.2062346415     0.4991773319
    8      O       6.1387871611    -0.6639145006     0.9716036898
    9      C       5.4768077905    -1.7148488342    -1.8223366762
   10      O       5.2441897853    -1.1871595128    -3.1061506382
   11      O       6.8471710273    -1.8253988600    -1.5289612828
   12      H       0.6783875583     0.3718020935     0.7850933694
   13      H       0.7997015513     1.2930569580    -0.7175573412
   14      H       0.4771423719    -1.4998487491    -0.4797036639
   15      H       2.9821991962    -0.6536945598    -2.0638105441
   16      H       2.8596954038    -1.7805457397    -0.7291733456
   17      H       5.1679425939     0.2437037781    -0.9600571749
   18      H       5.0770714480    -2.7298790958    -1.7253932152
   19      H       5.5272129761    -1.8600354620    -3.7475548080
   20      H       7.2262858232    -0.9293524736    -1.5705483287
 ----------------------------------------------------------------
 Nuclear Repulsion Energy =         665.70287252 hartrees
 There are       44 alpha and       43 beta electrons
 Requested basis set is 6-311++G(2df,2p)
 There are 142 shells and 464 basis functions

 Total QAlloc Memory Limit 288000 MB
 Mega-Array Size       188 MB
 MEM_STATIC part       192 MB
 
 Citation of the SMD model:
 Marenich, A.V.; Cramer, C.J.; Truhlar, D.G.
 J. Phys. Chem. B 2009, 113, 6378-6396.
 iSolventCode=           1
 Solvent: water                                                           
 
 vradii
            1           2           3           4           5           6
    1   1.8500000   1.5200000   1.8500000   1.5200000   1.8500000   1.8500000
            7           8           9          10          11          12
    1   1.5200000   1.5200000   1.8500000   1.5200000   1.5200000   1.2000000
           13          14          15          16          17          18
    1   1.2000000   1.2000000   1.2000000   1.2000000   1.2000000   1.2000000
           19          20
    1   1.2000000   1.2000000
 Changing PCM_VDW_RADII to SMD_RADIUS
 Discretize the solute cavity surface with Lebedev spheres
	Using 110 Lebedev grid points for each H atom
	Using 194 Lebedev grid points for other atoms
	Atomic van der Waals radii will be scaled by 1.20
 Remove points where switching function is < 1.0e-08
 Keep 1604 surface tesserae and discard 1520 interior tesserae
 Molecular Surface Area = 179.646 Angst**2
 A cutoff of  1.0D-12 yielded   8549 shell pairs
 There are     89797 function pairs (    111202 Cartesian)
 Smallest overlap matrix eigenvalue = 4.39E-06

 Scale SEOQF with 1.000000e-02/1.000000e-01/1.000000e-01

 Standard Electronic Orientation quadrupole field applied
 Nucleus-field energy     =    -0.0000000043 hartrees
 Guess from superposition of atomic densities
 Warning:  Energy on first SCF cycle will be non-variational
 SAD guess density has 87.000000 electrons

 -----------------------------------------------------------------------
  General SCF calculation program by
  Eric Jon Sundstrom, Paul Horn, Yuezhi Mao, Dmitri Zuev, Alec White,
  David Stuck, Shaama M.S., Shane Yost, Joonho Lee, David Small,
  Daniel Levine, Susi Lehtola, Hugh Burton, Evgeny Epifanovsky,
  Bang C. Huynh
 -----------------------------------------------------------------------
 Exchange:     0.1500 Hartree-Fock + 1.0000 wB97M-V + LR-HF
 Correlation:  1.0000 wB97M-V
 Using SG-2 standard quadrature grid
 Nonlocal Correlation:  VV10 with C = 0.0100 and b = 6.00 and scale = 1.00000
 Grid used for NLC:  SG-1 standard quadrature
 
 Citation of the SMD model:
 Marenich, A.V.; Cramer, C.J.; Truhlar, D.G.
 J. Phys. Chem. B 2009, 113, 6378-6396.
 iSolventCode=           1
 Solvent: water                                                           
 
 vradii
            1           2           3           4           5           6
    1   1.8500000   1.5200000   1.8500000   1.5200000   1.8500000   1.8500000
            7           8           9          10          11          12
    1   1.5200000   1.5200000   1.8500000   1.5200000   1.5200000   1.2000000
           13          14          15          16          17          18
    1   1.2000000   1.2000000   1.2000000   1.2000000   1.2000000   1.2000000
           19          20
    1   1.2000000   1.2000000
 using 16 threads for integral computing
 -------------------------------------------------------
 OpenMP Integral computing Module                
 Release: version 1.0, May 2013, Q-Chem Inc. Pittsburgh 
 -------------------------------------------------------
 -------------------------------------------------------
 OpenMP BLAS3 based DFT computing Module                
 Release: version 1.0, May 2013, Q-Chem Inc. Pittsburgh 
 -------------------------------------------------------
 A unrestricted SCF calculation will be
 performed using DIIS, GDM
 SCF converges when RMS gradient is below 1.0e-07
 ---------------------------------------
  Cycle       Energy         DIIS error
 ---------------------------------------
    1    -649.3978843179      1.15e-02  
    2    -646.9817934704      1.59e-03  Done DIIS. Switching to GDM
 ---------------------------------------
  Cycle       Energy        RMS Gradient
 ---------------------------------------
    1    -646.9817934704      1.46e-01   Descent step
    2    -647.1677040550      3.29e-02   Normal BFGS step
    3    -647.1986472633      2.99e-02   Normal BFGS step
    4    -647.2014079940      1.50e-02   Normal BFGS step
    5    -647.2034063172      6.88e-03   Normal BFGS step
    6    -647.2036042433      3.71e-03   Normal BFGS step
    7    -647.2037268637      3.37e-03   Normal BFGS step
    8    -647.2037542082      8.22e-04   Normal BFGS step
    9    -647.2037616696      5.63e-04   Normal BFGS step
   10    -647.2037633233      4.22e-04   Normal BFGS step
   11    -647.2037638180      3.91e-04   Normal BFGS step
   12    -647.2037641687      3.07e-04   Normal BFGS step
   13    -647.2037645090      1.73e-04   Normal BFGS step
   14    -647.2037646968      6.67e-05   Normal BFGS step
   15    -647.2037647278      1.57e-05   Normal BFGS step
   16    -647.2037647352      5.92e-06   Normal BFGS step
   17    -647.2037647356      1.92e-06   Normal BFGS step
   18    -647.2037647357      7.18e-07   Normal BFGS step
   19    -647.2037647358      3.65e-07   Normal BFGS step
   20    -647.2037647358      2.17e-07   Normal BFGS step
   21    -647.2037647358      6.68e-08  Convergence criterion met
 ---------------------------------------
 SCF time:   CPU 2164.12s  wall 147.00s 
<S^2> =          0.753924163
(3)  G-ENP(liq) elect-nuc-pol free energy of system     -647.203764736 a.u.
(4)  G-CDS(liq) cavity-dispersion-solvent structure 
     free energy                                                4.0863 kcal/mol
(6)  G-S(liq) free energy of system                     -647.197252852 a.u.
 SCF   energy in the final basis set =     -647.1972528523
 Total energy in the final basis set =     -647.1972528523
 
 --------------------------------------------------------------
 
                    Orbital Energies (a.u.)
 --------------------------------------------------------------
 
 Alpha MOs
 -- Occupied --
-19.4648 -19.4186 -19.3522 -19.3500 -19.3466 -19.3403 -10.4550 -10.4500
-10.4152 -10.3962 -10.3583  -1.3408  -1.2072  -1.1912  -1.1636  -1.1389
 -1.0302  -0.9075  -0.8545  -0.8173  -0.7479  -0.6861  -0.6752  -0.6558
 -0.6393  -0.6253  -0.6031  -0.5906  -0.5821  -0.5703  -0.5578  -0.5453
 -0.5325  -0.5215  -0.4922  -0.4748  -0.4525  -0.4479  -0.4423  -0.4251
 -0.4163  -0.4059  -0.3885  -0.3619
 -- Virtual --
  0.0257   0.0347   0.0372   0.0452   0.0572   0.0588   0.0605   0.0682
  0.0821   0.0911   0.0981   0.1036   0.1050   0.1232   0.1287   0.1417
  0.1441   0.1477   0.1551   0.1588   0.1625   0.1647   0.1687   0.1755
  0.1825   0.1932   0.1995   0.2014   0.2044   0.2162   0.2344   0.2420
  0.2458   0.2551   0.2594   0.2609   0.2724   0.2751   0.2817   0.2829
  0.2992   0.3057   0.3085   0.3109   0.3181   0.3229   0.3284   0.3325
  0.3450   0.3476   0.3542   0.3581   0.3617   0.3655   0.3705   0.3743
  0.3782   0.3830   0.3915   0.3969   0.4026   0.4050   0.4153   0.4193
  0.4296   0.4397   0.4485   0.4517   0.4692   0.4757   0.4972   0.5149
  0.5428   0.5468   0.5767   0.5782   0.5911   0.6015   0.6030   0.6189
  0.6310   0.6404   0.6531   0.6619   0.6682   0.6738   0.6889   0.6937
  0.7050   0.7086   0.7172   0.7260   0.7323   0.7494   0.7546   0.7716
  0.7790   0.7857   0.8325   0.8334   0.8589   0.8682   0.8779   0.8987
  0.9338   0.9413   0.9534   0.9692   1.0007   1.0182   1.0206   1.0401
  1.0498   1.0539   1.0555   1.0789   1.0916   1.1072   1.1092   1.1350
  1.1531   1.1546   1.1649   1.1724   1.1812   1.1938   1.1967   1.2055
  1.2079   1.2138   1.2273   1.2341   1.2428   1.2594   1.2654   1.2758
  1.2864   1.2987   1.3064   1.3146   1.3280   1.3429   1.3536   1.3649
  1.3734   1.3762   1.4044   1.4061   1.4101   1.4224   1.4244   1.4482
  1.4699   1.4894   1.4973   1.5017   1.5070   1.5278   1.5359   1.5493
  1.5620   1.5686   1.5890   1.6053   1.6117   1.6157   1.6293   1.6445
  1.6556   1.6852   1.6912   1.6973   1.7083   1.7336   1.7532   1.7648
  1.8161   1.8370   1.8725   1.8882   1.9025   1.9249   1.9412   1.9646
  1.9851   2.0114   2.0182   2.0657   2.0842   2.1192   2.1664   2.2012
  2.2173   2.2302   2.2647   2.2998   2.3169   2.3515   2.3623   2.3835
  2.3986   2.4175   2.4358   2.4563   2.4836   2.5366   2.5930   2.6032
  2.6601   2.6724   2.7434   2.7645   2.7760   2.8145   2.8343   2.8642
  2.8805   2.8954   2.9029   2.9157   2.9332   2.9575   2.9860   3.0142
  3.0302   3.0480   3.0838   3.1012   3.1270   3.1476   3.1587   3.1814
  3.2172   3.2360   3.2428   3.2642   3.2804   3.3068   3.3286   3.3518
  3.3731   3.4023   3.4168   3.4205   3.4460   3.4596   3.5022   3.5103
  3.5359   3.5569   3.5708   3.5885   3.6009   3.6270   3.6342   3.6435
  3.6603   3.6751   3.7068   3.7148   3.7407   3.7506   3.7733   3.7887
  3.8005   3.8113   3.8431   3.8472   3.8688   3.8907   3.8955   3.9123
  3.9318   3.9551   3.9657   3.9872   4.0103   4.0407   4.0577   4.0896
  4.0989   4.1155   4.1286   4.1549   4.1706   4.2185   4.2310   4.2442
  4.2621   4.2789   4.2928   4.3176   4.3453   4.3525   4.3723   4.3733
  4.3905   4.4142   4.4499   4.4861   4.5007   4.5273   4.5485   4.5530
  4.5790   4.6017   4.6306   4.6643   4.6999   4.7244   4.7550   4.7992
  4.8842   4.9028   4.9403   5.0214   5.0411   5.0925   5.0962   5.1053
  5.1582   5.1715   5.1877   5.1973   5.2164   5.2381   5.2479   5.2624
  5.2699   5.2805   5.2908   5.3072   5.3187   5.3211   5.3302   5.3570
  5.3783   5.3937   5.4108   5.4511   5.4865   5.4952   5.5085   5.5242
  5.5436   5.5654   5.5887   5.6007   5.6104   5.6137   5.6327   5.6439
  5.6554   5.6832   5.6986   5.7133   5.7410   5.7659   5.8073   5.8210
  5.8559   5.9825   6.0037   6.0264   6.0927   6.1590   6.3600   6.4496
  6.4718   6.5364   6.5787   6.5937   6.7452   6.7639   6.8460   6.8890
  6.9583   6.9890   7.0585   7.0770   7.0982   7.1026   7.1137   7.1716
  7.2208   7.2393   7.2610   7.2762   7.2805   7.3068   7.3273   7.3523
  7.3820   7.3895   7.4182   7.4300   7.4673   7.5438   7.6243   7.6262
  7.6490   7.6856   7.7769   7.7950   7.8021   7.8502   7.8912   8.0424
  8.1083  24.5817  24.7421  24.7510  24.8172  25.0017  50.4335  50.5550
 50.5935  50.6160  50.6269  50.7509
 
 Beta MOs
 -- Occupied --
-19.4546 -19.3998 -19.3521 -19.3499 -19.3466 -19.3403 -10.4546 -10.4500
-10.4155 -10.3962 -10.3582  -1.3148  -1.2067  -1.1912  -1.1636  -1.1387
 -1.0037  -0.8974  -0.8506  -0.8161  -0.7442  -0.6801  -0.6744  -0.6467
 -0.6190  -0.6169  -0.6008  -0.5807  -0.5768  -0.5609  -0.5459  -0.5442
 -0.5223  -0.5040  -0.4905  -0.4736  -0.4502  -0.4417  -0.4336  -0.4251
 -0.4110  -0.3868  -0.3622
 -- Virtual --
 -0.0329   0.0258   0.0348   0.0372   0.0455   0.0573   0.0590   0.0611
  0.0683   0.0826   0.0912   0.0989   0.1040   0.1053   0.1236   0.1303
  0.1418   0.1442   0.1496   0.1555   0.1615   0.1627   0.1651   0.1688
  0.1759   0.1828   0.1936   0.2004   0.2022   0.2065   0.2169   0.2362
  0.2433   0.2478   0.2560   0.2613   0.2686   0.2730   0.2765   0.2825
  0.2834   0.2994   0.3061   0.3091   0.3131   0.3189   0.3238   0.3298
  0.3335   0.3455   0.3488   0.3550   0.3586   0.3621   0.3660   0.3713
  0.3758   0.3788   0.3834   0.3920   0.3980   0.4028   0.4068   0.4157
  0.4208   0.4308   0.4408   0.4496   0.4527   0.4705   0.4761   0.4984
  0.5157   0.5431   0.5470   0.5773   0.5786   0.5913   0.6020   0.6033
  0.6191   0.6315   0.6407   0.6533   0.6623   0.6684   0.6744   0.6891
  0.6943   0.7054   0.7090   0.7175   0.7262   0.7326   0.7494   0.7550
  0.7725   0.7795   0.7863   0.8327   0.8347   0.8590   0.8686   0.8785
  0.8995   0.9342   0.9418   0.9549   0.9700   1.0016   1.0190   1.0228
  1.0431   1.0502   1.0544   1.0560   1.0799   1.0928   1.1100   1.1107
  1.1388   1.1552   1.1580   1.1660   1.1769   1.1918   1.1971   1.2004
  1.2075   1.2101   1.2162   1.2310   1.2414   1.2447   1.2643   1.2713
  1.2772   1.2889   1.3008   1.3090   1.3181   1.3291   1.3447   1.3546
  1.3662   1.3744   1.3800   1.4051   1.4075   1.4119   1.4231   1.4258
  1.4537   1.4708   1.4947   1.4979   1.5029   1.5091   1.5294   1.5372
  1.5508   1.5647   1.5724   1.5909   1.6062   1.6172   1.6180   1.6318
  1.6537   1.6604   1.6907   1.6994   1.7075   1.7213   1.7404   1.7548
  1.7670   1.8185   1.8392   1.8758   1.8899   1.9043   1.9278   1.9441
  1.9676   1.9868   2.0147   2.0218   2.0718   2.0893   2.1199   2.1688
  2.2035   2.2203   2.2344   2.2731   2.3037   2.3255   2.3553   2.3696
  2.3851   2.4007   2.4221   2.4386   2.4581   2.4839   2.5371   2.5931
  2.6038   2.6629   2.6771   2.7460   2.7650   2.7769   2.8146   2.8350
  2.8649   2.8808   2.8956   2.9031   2.9159   2.9334   2.9578   2.9863
  3.0146   3.0303   3.0493   3.0841   3.1020   3.1276   3.1480   3.1589
  3.1820   3.2174   3.2368   3.2431   3.2645   3.2806   3.3072   3.3289
  3.3522   3.3733   3.4025   3.4169   3.4209   3.4464   3.4599   3.5024
  3.5108   3.5360   3.5571   3.5717   3.5888   3.6011   3.6271   3.6344
  3.6442   3.6608   3.6753   3.7073   3.7148   3.7412   3.7509   3.7734
  3.7888   3.8012   3.8117   3.8435   3.8474   3.8690   3.8911   3.8959
  3.9126   3.9324   3.9555   3.9662   3.9877   4.0103   4.0411   4.0580
  4.0898   4.0992   4.1157   4.1289   4.1557   4.1709   4.2191   4.2313
  4.2444   4.2624   4.2795   4.2938   4.3180   4.3460   4.3528   4.3726
  4.3738   4.3913   4.4144   4.4513   4.4863   4.5011   4.5297   4.5494
  4.5578   4.5853   4.6029   4.6335   4.6818   4.7009   4.7325   4.7669
  4.8048   4.8917   4.9226   4.9469   5.0276   5.0533   5.1398   5.1454
  5.1614   5.1785   5.1951   5.1986   5.2092   5.2193   5.2480   5.2530
  5.2767   5.2841   5.2981   5.2989   5.3092   5.3219   5.3273   5.3404
  5.3615   5.3815   5.4056   5.4235   5.4520   5.4965   5.4997   5.5098
  5.5302   5.5472   5.5667   5.5961   5.6049   5.6119   5.6156   5.6359
  5.6451   5.6584   5.6874   5.7011   5.7152   5.7480   5.7707   5.8112
  5.8252   5.8655   5.9825   6.0055   6.0264   6.0950   6.1601   6.3601
  6.4861   6.4922   6.5421   6.5822   6.6014   6.7475   6.7643   6.9283
  6.9659   6.9929   7.0133   7.0650   7.0809   7.1001   7.1046   7.1395
  7.1821   7.2379   7.2473   7.2695   7.2803   7.2855   7.3148   7.3275
  7.3712   7.3862   7.3981   7.4297   7.4391   7.5034   7.5536   7.6250
  7.6268   7.6503   7.6862   7.7770   7.7952   7.8097   7.8555   7.8918
  8.0561   8.1274  24.5816  24.7421  24.7510  24.8174  25.0017  50.4465
 50.5628  50.5937  50.6171  50.6273  50.7510
 --------------------------------------------------------------
 
          Ground-State Mulliken Net Atomic Charges

     Atom                 Charge (a.u.)    Spin (a.u.)
  --------------------------------------------------------
      1 C                    -0.250769       0.002557
      2 O                    -0.425978       0.000138
      3 C                     0.399951      -0.005936
      4 O                    -0.455831       0.000258
      5 C                    -0.436704       0.005248
      6 C                    -0.085009       0.004018
      7 O                     0.108206       0.305475
      8 O                    -0.226933       0.672922
      9 C                    -0.336317       0.011529
     10 O                    -0.410324       0.001687
     11 O                    -0.454163       0.000930
     12 H                     0.209247       0.000151
     13 H                     0.203342      -0.000057
     14 H                     0.340446       0.000010
     15 H                     0.234075       0.000239
     16 H                     0.261773      -0.000232
     17 H                     0.329238       0.001247
     18 H                     0.301297      -0.000627
     19 H                     0.340442       0.000549
     20 H                     0.354010      -0.000106
  --------------------------------------------------------
  Sum of atomic charges =    -0.000000
  Sum of spin   charges =     1.000000

 -----------------------------------------------------------------
                    Cartesian Multipole Moments
 -----------------------------------------------------------------
    Charge (ESU x 10^10)
                -0.0000
    Dipole Moment (Debye)
         X      -3.5134      Y      -3.0401      Z      -3.8821
       Tot       6.0545
    Quadrupole Moments (Debye-Ang)
        XX     -95.4326     XY      -4.1676     YY     -60.8389
        XZ     -27.0190     YZ       4.6896     ZZ     -62.8856
    Octopole Moments (Debye-Ang^2)
       XXX    -971.7237    XXY      75.4326    XYY    -263.7705
       YYY     109.2778    XXZ     -91.5014    XYZ      32.3134
       YYZ      25.8562    XZZ    -231.3457    YZZ      19.4951
       ZZZ     118.6826
    Hexadecapole Moments (Debye-Ang^3)
      XXXX   -9041.6292   XXXY    1193.0656   XXYY   -1508.0763
      XYYY     685.9906   YYYY    -509.3897   XXXZ     -97.5734
      XXYZ      86.8921   XYYZ     126.4257   YYYZ    -162.6967
      XXZZ   -1271.9685   XYZZ     103.0364   YYZZ    -158.3390
      XZZZ     476.3830   YZZZ     -93.3339   ZZZZ    -670.9034
 -----------------------------------------------------------------
 Calculating analytic gradient of the SCF energy
 Gradient of CDS energy
            1           2           3           4           5           6
    1  -0.0013000   0.0005590   0.0011626  -0.0007555   0.0000763  -0.0000265
    2  -0.0000578   0.0004101   0.0013470  -0.0008913  -0.0001131  -0.0000902
    3  -0.0002271   0.0002423   0.0011178  -0.0007726  -0.0001196   0.0000152
            7           8           9          10          11          12
    1   0.0000694  -0.0000126   0.0022320   0.0003912  -0.0027399   0.0001258
    2   0.0000399  -0.0000812   0.0002437  -0.0006545   0.0002852  -0.0000567
    3  -0.0000252   0.0000556  -0.0015066   0.0021691  -0.0004096   0.0001593
           13          14          15          16          17          18
    1   0.0000805  -0.0003319  -0.0000215   0.0000370   0.0000734  -0.0000808
    2   0.0000753  -0.0004141   0.0000049  -0.0001098   0.0000783  -0.0001179
    3  -0.0001712  -0.0000179  -0.0001585   0.0000614   0.0000221   0.0001859
           19          20
    1  -0.0000015   0.0004629
    2  -0.0000636   0.0001657
    3  -0.0005121  -0.0001083
 Gradient of SCF Energy
            1           2           3           4           5           6
    1   0.0057719  -0.0050742  -0.0029607   0.0091052   0.0063453  -0.0033927
    2  -0.0154238   0.0239694  -0.0101934   0.0100650   0.0266209  -0.0156934
    3  -0.0073482  -0.0214645  -0.0064557   0.0106436   0.0054296   0.0034718
            7           8           9          10          11          12
    1  -0.0043915   0.0040337   0.0092128  -0.0085017  -0.0000551  -0.0056234
    2  -0.0023936   0.0023516   0.0174346   0.0208975  -0.0199239   0.0003255
    3   0.0002848   0.0011978  -0.0031460   0.0119514   0.0080427   0.0117367
           13          14          15          16          17          18
    1  -0.0033301   0.0046734  -0.0035851  -0.0066425   0.0030469  -0.0071419
    2   0.0094042  -0.0209435  -0.0006795  -0.0170210   0.0060457  -0.0132315
    3  -0.0035302   0.0176782  -0.0111608   0.0037452  -0.0040165   0.0004220
           19          20
    1   0.0057260   0.0027838
    2  -0.0180190   0.0164083
    3  -0.0134867  -0.0039952
 Max gradient component =       2.662E-02
 RMS gradient           =       1.088E-02
 Computing fast CPCM-SWIG gradient
 Updating gradient with PCM contributions...
 -- total gradient after adding PCM contribution --
---------------------------------------------------
  Atom         X              Y              Z     
---------------------------------------------------
   1      -0.000844      -0.004211      -0.000515
   2      -0.000980       0.005806      -0.007233
   3      -0.001983      -0.002701      -0.001321
   4       0.005148       0.005252       0.004768
   5      -0.001062       0.000298      -0.000539
   6       0.000181      -0.001237      -0.000976
   7      -0.007043      -0.003753      -0.000289
   8       0.006785       0.003053       0.001106
   9       0.003703       0.002222      -0.002909
  10      -0.004407       0.007682       0.003427
  11      -0.000677      -0.008782       0.003003
  12      -0.001239       0.000872       0.003315
  13      -0.001349       0.002467      -0.001451
  14       0.001196      -0.004886       0.005416
  15      -0.000261      -0.000056      -0.003489
  16      -0.000754      -0.002955       0.000724
  17       0.000787       0.002627       0.000073
  18      -0.000454      -0.002861       0.001149
  19       0.002615      -0.005615      -0.003241
  20       0.000638       0.006777      -0.001018
---------------------------------------------------
 Number of fixed atoms: 0
 Gradient time:  CPU 281.94 s  wall 23.87 s
 Geometry Optimization Parameters
   NAtoms,    NIC,     NZ,  NCons,   NDum,   NFix, NCnnct, MaxDiis
       20     132       0       0       0       0       0       0


** GEOMETRY OPTIMIZATION IN DELOCALIZED INTERNAL COORDINATES **
   Searching for a Minimum

   Optimization Cycle:   1

                       Coordinates (Angstroms)
     ATOM                X               Y               Z
      1  C         1.0554299636    0.3382882999   -0.2448816466
      2  O         0.4490848495   -0.6868670757   -1.0092366110
      3  C         2.5705277858    0.2675150609   -0.1888019124
      4  O         3.1908899141    1.0715758214    0.4904232134
      5  C         3.2545250900   -0.7960042163   -1.0119741170
      6  C         4.7588060371   -0.7654302907   -0.8618131587
      7  O         5.0423616730   -1.2062346415    0.4991773319
      8  O         6.1387871611   -0.6639145006    0.9716036898
      9  C         5.4768077905   -1.7148488342   -1.8223366762
     10  O         5.2441897853   -1.1871595128   -3.1061506382
     11  O         6.8471710273   -1.8253988600   -1.5289612828
     12  H         0.6783875583    0.3718020935    0.7850933694
     13  H         0.7997015513    1.2930569580   -0.7175573412
     14  H         0.4771423719   -1.4998487491   -0.4797036639
     15  H         2.9821991962   -0.6536945598   -2.0638105441
     16  H         2.8596954038   -1.7805457397   -0.7291733456
     17  H         5.1679425939    0.2437037781   -0.9600571749
     18  H         5.0770714480   -2.7298790958   -1.7253932152
     19  H         5.5272129761   -1.8600354620   -3.7475548080
     20  H         7.2262858232   -0.9293524736   -1.5705483287
   Point Group: c1    Number of degrees of freedom:    54


   Energy is   -647.197252852


 Attempting to generate delocalized internal coordinates
 Initial Hessian constructed with Jon Baker's OPTIMIZE code

 54 Hessian modes will be used to form the next step
  Hessian Eigenvalues:
     0.005270    0.006826    0.007445    0.007583    0.007917    0.008012
     0.013633    0.014668    0.014882    0.041992    0.043011    0.052637
     0.055849    0.057589    0.057961    0.063143    0.075568    0.077064
     0.092282    0.095295    0.118629    0.129084    0.142679    0.160000
     0.160000    0.160000    0.166042    0.183241    0.191536    0.207604
     0.219083    0.221307    0.249939    0.250000    0.250000    0.294649
     0.305808    0.311437    0.314693    0.339254    0.339791    0.341511
     0.341702    0.342180    0.344293    0.371620    0.431890    0.444175
     0.446777    0.526008    0.530246    0.532475    0.641562    0.946055

 Minimum search - taking simple RFO step
 Searching for Lamda that Minimizes Along All modes
 Value Taken    Lamda =  -0.00140883
 Step Taken.  Stepsize is  0.155287

                             Maximum     Tolerance    Cnvgd?
         Gradient           0.010511      0.000300      NO
         Displacement       0.089864      0.001200      NO
         Energy change     *********      0.000001      NO


 New Cartesian Coordinates Obtained by Inverse Iteration

 Displacement from previous Coordinates is:  0.243970
 ----------------------------------------------------------------
             Standard Nuclear Orientation (Angstroms)
    I     Atom           X                Y                Z
 ----------------------------------------------------------------
    1      C       1.0645351990     0.3320969729    -0.2521006460
    2      O       0.4576543876    -0.7035495889    -1.0012417391
    3      C       2.5746814739     0.2735490274    -0.1985463325
    4      O       3.1813793962     1.0906079910     0.4686573439
    5      C       3.2683628435    -0.7906608863    -1.0017846541
    6      C       4.7690810196    -0.7644124872    -0.8516015284
    7      O       5.0472619307    -1.2167695499     0.5052902420
    8      O       6.0909318191    -0.6326311129     1.0279740155
    9      C       5.4679005013    -1.7128169980    -1.8249982371
   10      O       5.2354514746    -1.1772533292    -3.1043914429
   11      O       6.8413775795    -1.8400338872    -1.5570523615
   12      H       0.6940684522     0.3668152312     0.7743378835
   13      H       0.8058877205     1.2794147038    -0.7271462188
   14      H       0.4813721710    -1.5162391938    -0.4840014326
   15      H       2.9965541537    -0.6531423428    -2.0489172551
   16      H       2.8710949734    -1.7679887354    -0.7160855303
   17      H       5.1821122880     0.2388818161    -0.9472249036
   18      H       5.0555826517    -2.7189557131    -1.7394183880
   19      H       5.4925074374    -1.8381218156    -3.7588799335
   20      H       7.2464225272    -0.9620621023    -1.5845257415
 ----------------------------------------------------------------
 Nuclear Repulsion Energy =         666.02888486 hartrees
 There are       44 alpha and       43 beta electrons
 Discretize the solute cavity surface with Lebedev spheres
	Using 110 Lebedev grid points for each H atom
	Using 194 Lebedev grid points for other atoms
	Atomic van der Waals radii will be scaled by 1.20
 Remove points where switching function is < 1.0e-08
 Keep 1602 surface tesserae and discard 1522 interior tesserae
 Molecular Surface Area = 179.768 Angst**2
 Applying Cartesian multipole field
    Component          Value
    ---------          -----
     (2,0,0)        1.00000E-12
     (0,2,0)        2.00000E-11
     (0,0,2)       -3.00000E-11
 Nucleus-field energy     =    -0.0000000044 hartrees
 Requested basis set is 6-311++G(2df,2p)
 There are 142 shells and 464 basis functions
 A cutoff of  1.0D-12 yielded   8550 shell pairs
 There are     89749 function pairs (    111097 Cartesian)
 Smallest overlap matrix eigenvalue = 4.32E-06
 Guess MOs from SCF MO coefficient file

 -----------------------------------------------------------------------
  General SCF calculation program by
  Eric Jon Sundstrom, Paul Horn, Yuezhi Mao, Dmitri Zuev, Alec White,
  David Stuck, Shaama M.S., Shane Yost, Joonho Lee, David Small,
  Daniel Levine, Susi Lehtola, Hugh Burton, Evgeny Epifanovsky,
  Bang C. Huynh
 -----------------------------------------------------------------------
 Exchange:     0.1500 Hartree-Fock + 1.0000 wB97M-V + LR-HF
 Correlation:  1.0000 wB97M-V
 Using SG-2 standard quadrature grid
 Nonlocal Correlation:  VV10 with C = 0.0100 and b = 6.00 and scale = 1.00000
 Grid used for NLC:  SG-1 standard quadrature
 
 Citation of the SMD model:
 Marenich, A.V.; Cramer, C.J.; Truhlar, D.G.
 J. Phys. Chem. B 2009, 113, 6378-6396.
 iSolventCode=           1
 Solvent: water                                                           
 
 vradii
            1           2           3           4           5           6
    1   1.8500000   1.5200000   1.8500000   1.5200000   1.8500000   1.8500000
            7           8           9          10          11          12
    1   1.5200000   1.5200000   1.8500000   1.5200000   1.5200000   1.2000000
           13          14          15          16          17          18
    1   1.2000000   1.2000000   1.2000000   1.2000000   1.2000000   1.2000000
           19          20
    1   1.2000000   1.2000000
 -------------------------------------------------------
 OpenMP BLAS3 based DFT computing Module                
 Release: version 1.0, May 2013, Q-Chem Inc. Pittsburgh 
 -------------------------------------------------------
 A unrestricted SCF calculation will be
 performed using Roothaan-Hall, DIIS, GDM
 SCF converges when RMS gradient is below 1.0e-07
 ---------------------------------------
  Cycle       Energy         DIIS error
 ---------------------------------------
    1    -647.1461264609      2.69e-04  Roothaan Step
 ---------------------------------------
  Cycle       Energy         DIIS error
 ---------------------------------------
    1    -647.1923649274      2.83e-04  
    2    -647.1970025092      3.19e-04  Done DIIS. Switching to GDM
 ---------------------------------------
  Cycle       Energy        RMS Gradient
 ---------------------------------------
    1    -647.1970025092      1.80e-02   Normal BFGS step
    2    -647.1927997152      3.35e-02  Line search: overstep
    3    -647.2040966917      4.51e-03   Normal BFGS step
    4    -647.2043820981      1.34e-03   Normal BFGS step
    5    -647.2044434871      2.32e-03   Normal BFGS step
    6    -647.2044634898      9.16e-04   Normal BFGS step
    7    -647.2044672242      8.35e-04   Normal BFGS step
    8    -647.2044698150      7.10e-04   Normal BFGS step
    9    -647.2044713009      4.78e-04   Normal BFGS step
   10    -647.2044719447      3.32e-04   Normal BFGS step
   11    -647.2044725319      2.06e-04   Normal BFGS step
   12    -647.2044728310      9.14e-05   Normal BFGS step
   13    -647.2044728921      2.58e-05   Normal BFGS step
   14    -647.2044729100      1.58e-05   Normal BFGS step
   15    -647.2044729132      6.55e-06   Normal BFGS step
   16    -647.2044729144      3.17e-06   Normal BFGS step
   17    -647.2044729146      1.19e-06   Normal BFGS step
   18    -647.2044729146      3.16e-07   Normal BFGS step
   19    -647.2044729146      8.01e-08  Convergence criterion met
 ---------------------------------------
 SCF time:   CPU 2142.26s  wall 145.00s 
<S^2> =          0.753917784
(3)  G-ENP(liq) elect-nuc-pol free energy of system     -647.204472915 a.u.
(4)  G-CDS(liq) cavity-dispersion-solvent structure 
     free energy                                                4.1023 kcal/mol
(6)  G-S(liq) free energy of system                     -647.197935552 a.u.
 SCF   energy in the final basis set =     -647.1979355522
 Total energy in the final basis set =     -647.1979355522
 
 --------------------------------------------------------------
 
                    Orbital Energies (a.u.)
 --------------------------------------------------------------
 
 Alpha MOs
 -- Occupied --
-19.4658 -19.4185 -19.3507 -19.3490 -19.3453 -19.3394 -10.4549 -10.4480
-10.4150 -10.3946 -10.3563  -1.3447  -1.2079  -1.1935  -1.1640  -1.1392
 -1.0314  -0.9090  -0.8565  -0.8194  -0.7498  -0.6880  -0.6763  -0.6573
 -0.6415  -0.6266  -0.6044  -0.5928  -0.5843  -0.5728  -0.5582  -0.5436
 -0.5341  -0.5221  -0.4924  -0.4755  -0.4520  -0.4477  -0.4418  -0.4249
 -0.4146  -0.4057  -0.3890  -0.3617
 -- Virtual --
  0.0258   0.0348   0.0375   0.0455   0.0576   0.0592   0.0611   0.0686
  0.0818   0.0915   0.0982   0.1039   0.1052   0.1232   0.1292   0.1418
  0.1444   0.1482   0.1550   0.1588   0.1628   0.1647   0.1689   0.1757
  0.1828   0.1933   0.1998   0.2014   0.2058   0.2163   0.2356   0.2429
  0.2471   0.2546   0.2618   0.2622   0.2728   0.2756   0.2811   0.2842
  0.2995   0.3060   0.3075   0.3104   0.3204   0.3240   0.3282   0.3334
  0.3453   0.3486   0.3544   0.3594   0.3627   0.3664   0.3710   0.3750
  0.3792   0.3850   0.3924   0.3979   0.4028   0.4056   0.4156   0.4163
  0.4297   0.4399   0.4488   0.4528   0.4702   0.4767   0.4949   0.5153
  0.5439   0.5471   0.5781   0.5804   0.5917   0.6041   0.6051   0.6204
  0.6325   0.6425   0.6540   0.6630   0.6700   0.6745   0.6886   0.6948
  0.7058   0.7103   0.7197   0.7274   0.7339   0.7511   0.7579   0.7732
  0.7821   0.7912   0.8335   0.8371   0.8581   0.8668   0.8789   0.8984
  0.9337   0.9406   0.9501   0.9682   1.0026   1.0202   1.0237   1.0388
  1.0499   1.0546   1.0552   1.0748   1.0904   1.1072   1.1108   1.1379
  1.1542   1.1568   1.1656   1.1708   1.1781   1.1967   1.1971   1.2079
  1.2120   1.2164   1.2245   1.2366   1.2449   1.2611   1.2660   1.2756
  1.2879   1.2980   1.3068   1.3137   1.3279   1.3412   1.3519   1.3614
  1.3698   1.3766   1.4022   1.4072   1.4111   1.4248   1.4254   1.4486
  1.4732   1.4917   1.4998   1.5045   1.5101   1.5273   1.5403   1.5571
  1.5644   1.5711   1.5913   1.6066   1.6151   1.6192   1.6324   1.6493
  1.6568   1.6849   1.6925   1.6992   1.7092   1.7325   1.7579   1.7677
  1.8189   1.8412   1.8738   1.8928   1.9056   1.9313   1.9364   1.9676
  1.9843   2.0102   2.0219   2.0676   2.0859   2.1235   2.1716   2.2004
  2.2156   2.2323   2.2613   2.3009   2.3216   2.3534   2.3662   2.3821
  2.4014   2.4075   2.4333   2.4594   2.4845   2.5357   2.5961   2.6033
  2.6579   2.6632   2.7424   2.7645   2.7776   2.8203   2.8299   2.8662
  2.8822   2.8964   2.9082   2.9211   2.9371   2.9594   2.9878   3.0178
  3.0356   3.0488   3.0860   3.1040   3.1230   3.1538   3.1605   3.1811
  3.2202   3.2354   3.2429   3.2684   3.2840   3.3082   3.3300   3.3516
  3.3788   3.4041   3.4152   3.4231   3.4513   3.4642   3.5008   3.5123
  3.5376   3.5617   3.5757   3.5890   3.6034   3.6296   3.6391   3.6468
  3.6617   3.6813   3.7023   3.7182   3.7457   3.7543   3.7764   3.7944
  3.8033   3.8148   3.8430   3.8505   3.8718   3.8938   3.8974   3.9189
  3.9366   3.9585   3.9712   3.9957   4.0171   4.0496   4.0609   4.0966
  4.1092   4.1207   4.1361   4.1560   4.1756   4.2296   4.2405   4.2537
  4.2706   4.2897   4.3069   4.3287   4.3585   4.3607   4.3851   4.3902
  4.3983   4.4263   4.4587   4.4941   4.5093   4.5297   4.5520   4.5605
  4.5886   4.6100   4.6378   4.6700   4.7100   4.7420   4.7599   4.8018
  4.8936   4.9066   4.9480   5.0219   5.0453   5.0904   5.0959   5.1059
  5.1629   5.1732   5.1904   5.1992   5.2159   5.2428   5.2489   5.2636
  5.2732   5.2797   5.2914   5.3062   5.3201   5.3211   5.3305   5.3575
  5.3831   5.3953   5.4071   5.4578   5.4899   5.4976   5.5103   5.5251
  5.5501   5.5750   5.5929   5.6063   5.6197   5.6247   5.6435   5.6566
  5.6670   5.6918   5.7047   5.7254   5.7534   5.7767   5.8198   5.8364
  5.8705   5.9925   6.0273   6.0495   6.1027   6.1524   6.3788   6.4725
  6.4795   6.5419   6.5893   6.6122   6.7505   6.7862   6.8464   6.8868
  6.9634   6.9916   7.0620   7.0788   7.1029   7.1055   7.1181   7.1826
  7.2257   7.2560   7.2663   7.3016   7.3122   7.3134   7.3219   7.3522
  7.3847   7.3895   7.4166   7.4357   7.4707   7.5500   7.6305   7.6402
  7.6560   7.6952   7.7754   7.7970   7.7992   7.8540   7.8915   8.0464
  8.1207  24.5988  24.7626  24.7692  24.8284  25.0279  50.4359  50.5567
 50.5982  50.6216  50.6293  50.7606
 
 Beta MOs
 -- Occupied --
-19.4554 -19.3998 -19.3506 -19.3489 -19.3453 -19.3394 -10.4545 -10.4481
-10.4153 -10.3946 -10.3562  -1.3186  -1.2075  -1.1935  -1.1640  -1.1389
 -1.0054  -0.8988  -0.8526  -0.8182  -0.7460  -0.6820  -0.6754  -0.6489
 -0.6203  -0.6181  -0.6021  -0.5833  -0.5790  -0.5613  -0.5475  -0.5430
 -0.5231  -0.5051  -0.4909  -0.4744  -0.4504  -0.4417  -0.4336  -0.4248
 -0.4101  -0.3870  -0.3618
 -- Virtual --
 -0.0320   0.0259   0.0350   0.0375   0.0458   0.0577   0.0594   0.0617
  0.0687   0.0823   0.0915   0.0990   0.1043   0.1054   0.1236   0.1307
  0.1419   0.1445   0.1501   0.1555   0.1613   0.1629   0.1653   0.1691
  0.1760   0.1831   0.1938   0.2007   0.2021   0.2078   0.2169   0.2375
  0.2441   0.2490   0.2553   0.2627   0.2710   0.2733   0.2771   0.2819
  0.2849   0.2997   0.3063   0.3086   0.3120   0.3214   0.3253   0.3294
  0.3342   0.3459   0.3498   0.3553   0.3598   0.3631   0.3668   0.3719
  0.3764   0.3798   0.3856   0.3930   0.3989   0.4030   0.4073   0.4160
  0.4178   0.4309   0.4410   0.4499   0.4539   0.4714   0.4771   0.4961
  0.5160   0.5443   0.5472   0.5788   0.5807   0.5919   0.6044   0.6056
  0.6206   0.6329   0.6428   0.6543   0.6634   0.6703   0.6750   0.6888
  0.6953   0.7063   0.7107   0.7200   0.7276   0.7342   0.7511   0.7583
  0.7740   0.7828   0.7920   0.8340   0.8380   0.8582   0.8673   0.8794
  0.8992   0.9341   0.9411   0.9516   0.9689   1.0035   1.0210   1.0256
  1.0421   1.0503   1.0551   1.0558   1.0759   1.0917   1.1095   1.1125
  1.1414   1.1574   1.1590   1.1668   1.1755   1.1895   1.1983   1.2024
  1.2100   1.2129   1.2194   1.2304   1.2408   1.2479   1.2664   1.2715
  1.2770   1.2909   1.2993   1.3094   1.3166   1.3289   1.3431   1.3537
  1.3638   1.3732   1.3770   1.4036   1.4080   1.4128   1.4255   1.4264
  1.4538   1.4742   1.4950   1.5001   1.5061   1.5129   1.5287   1.5418
  1.5589   1.5674   1.5745   1.5940   1.6077   1.6200   1.6221   1.6352
  1.6580   1.6611   1.6910   1.7023   1.7071   1.7216   1.7405   1.7598
  1.7695   1.8214   1.8430   1.8777   1.8945   1.9071   1.9352   1.9395
  1.9706   1.9867   2.0123   2.0258   2.0740   2.0898   2.1242   2.1735
  2.2025   2.2179   2.2371   2.2700   2.3045   2.3298   2.3567   2.3747
  2.3839   2.4036   2.4117   2.4364   2.4613   2.4848   2.5363   2.5963
  2.6039   2.6603   2.6686   2.7445   2.7651   2.7785   2.8204   2.8306
  2.8668   2.8826   2.8966   2.9085   2.9215   2.9373   2.9597   2.9882
  3.0181   3.0358   3.0502   3.0863   3.1049   3.1236   3.1541   3.1607
  3.1817   3.2204   3.2362   3.2432   3.2685   3.2841   3.3086   3.3303
  3.3520   3.3789   3.4043   3.4153   3.4234   3.4516   3.4645   3.5010
  3.5127   3.5378   3.5618   3.5766   3.5893   3.6036   3.6297   3.6394
  3.6476   3.6621   3.6816   3.7029   3.7182   3.7462   3.7546   3.7765
  3.7946   3.8039   3.8153   3.8435   3.8508   3.8719   3.8942   3.8978
  3.9192   3.9372   3.9590   3.9717   3.9961   4.0171   4.0500   4.0611
  4.0968   4.1095   4.1208   4.1364   4.1569   4.1759   4.2301   4.2409
  4.2540   4.2709   4.2903   4.3078   4.3291   4.3592   4.3610   4.3853
  4.3908   4.3992   4.4265   4.4600   4.4943   4.5097   4.5334   4.5551
  4.5632   4.5945   4.6114   4.6409   4.6857   4.7114   4.7505   4.7731
  4.8068   4.9045   4.9225   4.9545   5.0274   5.0583   5.1396   5.1442
  5.1679   5.1799   5.1954   5.2002   5.2106   5.2179   5.2514   5.2530
  5.2778   5.2860   5.2970   5.3009   5.3083   5.3235   5.3264   5.3416
  5.3625   5.3891   5.4060   5.4205   5.4584   5.4942   5.5067   5.5121
  5.5319   5.5525   5.5773   5.6023   5.6091   5.6214   5.6260   5.6474
  5.6571   5.6694   5.6972   5.7068   5.7270   5.7612   5.7815   5.8237
  5.8398   5.8801   5.9925   6.0290   6.0495   6.1045   6.1538   6.3789
  6.4930   6.5132   6.5510   6.5903   6.6229   6.7537   6.7867   6.9275
  6.9645   6.9947   7.0181   7.0677   7.0815   7.1041   7.1086   7.1490
  7.1905   7.2494   7.2620   7.2755   7.3106   7.3124   7.3198   7.3226
  7.3678   7.3896   7.3971   7.4355   7.4364   7.5044   7.5617   7.6315
  7.6402   7.6572   7.6957   7.7754   7.7975   7.8066   7.8587   7.8919
  8.0603   8.1399  24.5988  24.7626  24.7692  24.8286  25.0279  50.4489
 50.5645  50.5984  50.6229  50.6296  50.7606
 --------------------------------------------------------------
 
          Ground-State Mulliken Net Atomic Charges

     Atom                 Charge (a.u.)    Spin (a.u.)
  --------------------------------------------------------
      1 C                    -0.246566       0.002241
      2 O                    -0.429082       0.000151
      3 C                     0.395105      -0.005884
      4 O                    -0.458388      -0.000147
      5 C                    -0.442206       0.006110
      6 C                    -0.073240       0.005442
      7 O                     0.112584       0.309453
      8 O                    -0.229385       0.670277
      9 C                    -0.336503       0.010441
     10 O                    -0.409079       0.001471
     11 O                    -0.462885      -0.000294
     12 H                     0.210272       0.000153
     13 H                     0.205294      -0.000061
     14 H                     0.339379       0.000020
     15 H                     0.236029       0.000567
     16 H                     0.263019      -0.000304
     17 H                     0.328739       0.000551
     18 H                     0.303288      -0.000640
     19 H                     0.338883       0.000548
     20 H                     0.354744      -0.000094
  --------------------------------------------------------
  Sum of atomic charges =     0.000000
  Sum of spin   charges =     1.000000

 -----------------------------------------------------------------
                    Cartesian Multipole Moments
 -----------------------------------------------------------------
    Charge (ESU x 10^10)
                 0.0000
    Dipole Moment (Debye)
         X      -3.4180      Y      -3.0927      Z      -3.8817
       Tot       6.0262
    Quadrupole Moments (Debye-Ang)
        XX     -94.4257     XY      -4.3654     YY     -61.1357
        XZ     -26.8204     YZ       4.5854     ZZ     -62.8182
    Octopole Moments (Debye-Ang^2)
       XXX    -961.4105    XXY      74.2966    XYY    -265.5287
       YYY     109.4450    XXZ     -90.0439    XYZ      31.1971
       YYZ      26.3639    XZZ    -231.9978    YZZ      19.5862
       ZZZ     117.2298
    Hexadecapole Moments (Debye-Ang^3)
      XXXX   -8925.8459   XXXY    1181.0630   XXYY   -1516.8358
      XYYY     688.4841   YYYY    -513.9567   XXXZ     -88.9094
      XXYZ      77.3517   XYYZ     130.9569   YYYZ    -164.6982
      XXZZ   -1278.8435   XYZZ     105.0157   YYZZ    -160.6677
      XZZZ     471.5392   YZZZ     -92.4570   ZZZZ    -670.0908
 -----------------------------------------------------------------
 Calculating analytic gradient of the SCF energy
 Gradient of CDS energy
            1           2           3           4           5           6
    1  -0.0013309   0.0005837   0.0011085  -0.0007133   0.0000765  -0.0000275
    2  -0.0001022   0.0004454   0.0013265  -0.0008615  -0.0001126  -0.0000883
    3  -0.0002474   0.0002610   0.0010608  -0.0007301  -0.0001154   0.0000153
            7           8           9          10          11          12
    1   0.0000664  -0.0000062   0.0023819   0.0004255  -0.0029114   0.0001336
    2   0.0000455  -0.0000821   0.0002975  -0.0007678   0.0003359  -0.0000525
    3  -0.0000193   0.0000554  -0.0016894   0.0023632  -0.0004045   0.0001503
           13          14          15          16          17          18
    1   0.0000892  -0.0003337  -0.0000189   0.0000393   0.0000712  -0.0000954
    2   0.0000717  -0.0004166   0.0000033  -0.0001048   0.0000771  -0.0001105
    3  -0.0001611  -0.0000174  -0.0001514   0.0000593   0.0000248   0.0001599
           19          20
    1  -0.0000112   0.0004728
    2  -0.0000604   0.0001563
    3  -0.0005129  -0.0001012
 Gradient of SCF Energy
            1           2           3           4           5           6
    1   0.0067811  -0.0039570  -0.0017253   0.0042274   0.0075694  -0.0031561
    2  -0.0104714   0.0179852  -0.0072901   0.0048917   0.0263269  -0.0149930
    3  -0.0066810  -0.0141086  -0.0054486   0.0061158   0.0054807   0.0046435
            7           8           9          10          11          12
    1  -0.0002943  -0.0004535   0.0053424  -0.0035984   0.0001444  -0.0043909
    2   0.0003145   0.0007173   0.0154523   0.0128759  -0.0120329  -0.0004681
    3   0.0004700   0.0012301   0.0000561   0.0095282   0.0037615   0.0082357
           13          14          15          16          17          18
    1  -0.0017586   0.0032674  -0.0031427  -0.0058527   0.0019169  -0.0072354
    2   0.0071790  -0.0169727  -0.0006604  -0.0139900   0.0036200  -0.0104583
    3  -0.0019257   0.0121092  -0.0073334   0.0031614  -0.0042500  -0.0010276
           19          20
    1   0.0030947   0.0032210
    2  -0.0125306   0.0105045
    3  -0.0112550  -0.0027624
 Max gradient component =       2.633E-02
 RMS gradient           =       8.320E-03
 Computing fast CPCM-SWIG gradient
 Updating gradient with PCM contributions...
 -- total gradient after adding PCM contribution --
---------------------------------------------------
  Atom         X              Y              Z     
---------------------------------------------------
   1       0.000112       0.000367       0.000010
   2       0.000079      -0.000202      -0.000231
   3      -0.000573       0.000651       0.000049
   4       0.000231      -0.000236       0.000203
   5      -0.000089      -0.000351      -0.000558
   6       0.000510      -0.000276       0.000052
   7      -0.002730      -0.000821      -0.000021
   8       0.002056       0.001137       0.001243
   9      -0.000295       0.000159       0.000122
  10      -0.000029      -0.000032       0.000563
  11       0.000067      -0.000632      -0.000865
  12      -0.000101       0.000158      -0.000048
  13       0.000193       0.000307       0.000155
  14      -0.000084      -0.000739       0.000196
  15       0.000275       0.000010       0.000232
  16       0.000071       0.000003       0.000114
  17      -0.000406       0.000261      -0.000145
  18      -0.000315      -0.000062      -0.000201
  19       0.000410      -0.000293      -0.000650
  20       0.000619       0.000592      -0.000220
---------------------------------------------------
 Number of fixed atoms: 0
 Gradient time:  CPU 276.78 s  wall 23.55 s
 Geometry Optimization Parameters
   NAtoms,    NIC,     NZ,  NCons,   NDum,   NFix, NCnnct, MaxDiis
       20     132       0       0       0       0       0       0

 Cartesian Hessian Update
 Hessian updated using BFGS update


** GEOMETRY OPTIMIZATION IN DELOCALIZED INTERNAL COORDINATES **
   Searching for a Minimum

   Optimization Cycle:   2

                       Coordinates (Angstroms)
     ATOM                X               Y               Z
      1  C         1.0645351990    0.3320969729   -0.2521006460
      2  O         0.4576543876   -0.7035495889   -1.0012417391
      3  C         2.5746814739    0.2735490274   -0.1985463325
      4  O         3.1813793962    1.0906079910    0.4686573439
      5  C         3.2683628435   -0.7906608863   -1.0017846541
      6  C         4.7690810196   -0.7644124872   -0.8516015284
      7  O         5.0472619307   -1.2167695499    0.5052902420
      8  O         6.0909318191   -0.6326311129    1.0279740155
      9  C         5.4679005013   -1.7128169980   -1.8249982371
     10  O         5.2354514746   -1.1772533292   -3.1043914429
     11  O         6.8413775795   -1.8400338872   -1.5570523615
     12  H         0.6940684522    0.3668152312    0.7743378835
     13  H         0.8058877205    1.2794147038   -0.7271462188
     14  H         0.4813721710   -1.5162391938   -0.4840014326
     15  H         2.9965541537   -0.6531423428   -2.0489172551
     16  H         2.8710949734   -1.7679887354   -0.7160855303
     17  H         5.1821122880    0.2388818161   -0.9472249036
     18  H         5.0555826517   -2.7189557131   -1.7394183880
     19  H         5.4925074374   -1.8381218156   -3.7588799335
     20  H         7.2464225272   -0.9620621023   -1.5845257415
   Point Group: c1    Number of degrees of freedom:    54


   Energy is   -647.197935552

 Hessian updated using BFGS update

 53 Hessian modes will be used to form the next step
  Hessian Eigenvalues:
     0.005262    0.006781    0.007438    0.007584    0.007994    0.008230
     0.013632    0.014574    0.014833    0.042199    0.043044    0.052644
     0.055813    0.057614    0.058793    0.063158    0.075542    0.077251
     0.092633    0.094903    0.118768    0.128863    0.142950    0.157980
     0.160002    0.170858    0.188557    0.200914    0.206446    0.218866
     0.221520    0.248261    0.249973    0.253479    0.291717    0.307275
     0.312135    0.312497    0.338423    0.339521    0.340794    0.341980
     0.343326    0.344045    0.372021    0.431919    0.444294    0.446455
     0.502831    0.527889    0.531527    0.625425    0.944839

 Minimum search - taking simple RFO step
 Searching for Lamda that Minimizes Along All modes
 Value Taken    Lamda =  -0.00012581
 Step Taken.  Stepsize is  0.065019

                             Maximum     Tolerance    Cnvgd?
         Gradient           0.002089      0.000300      NO
         Displacement       0.026117      0.001200      NO
         Energy change     -0.000683      0.000001      NO


 New Cartesian Coordinates Obtained by Inverse Iteration

 Displacement from previous Coordinates is:  0.111198
 ----------------------------------------------------------------
             Standard Nuclear Orientation (Angstroms)
    I     Atom           X                Y                Z
 ----------------------------------------------------------------
    1      C       1.0637227051     0.3297333938    -0.2473735239
    2      O       0.4524068638    -0.7004236162    -0.9988162265
    3      C       2.5740574228     0.2738308889    -0.2010487882
    4      O       3.1805752437     1.1007185765     0.4532270267
    5      C       3.2667048725    -0.7907202879    -1.0023403880
    6      C       4.7678547319    -0.7625463392    -0.8581552644
    7      O       5.0570599063    -1.2172038856     0.4941581841
    8      O       6.1019904435    -0.6336194548     1.0082004241
    9      C       5.4664873763    -1.7121331389    -1.8271125362
   10      O       5.2477792559    -1.1723213823    -3.1071750713
   11      O       6.8349524976    -1.8444700495    -1.5398430316
   12      H       0.6991415458     0.3581829717     0.7808525789
   13      H       0.8003602682     1.2775563108    -0.7172823763
   14      H       0.4786239228    -1.5147058442    -0.4866960293
   15      H       2.9885496350    -0.6567940255    -2.0482400896
   16      H       2.8716435346    -1.7672976635    -0.7126922499
   17      H       5.1840434131     0.2388066623    -0.9545531173
   18      H       5.0500979668    -2.7162274928    -1.7455143465
   19      H       5.4977990283    -1.8358094446    -3.7597736574
   20      H       7.2403693657    -0.9678281793    -1.5514783774
 ----------------------------------------------------------------
 Nuclear Repulsion Energy =         666.47999996 hartrees
 There are       44 alpha and       43 beta electrons
 Discretize the solute cavity surface with Lebedev spheres
	Using 110 Lebedev grid points for each H atom
	Using 194 Lebedev grid points for other atoms
	Atomic van der Waals radii will be scaled by 1.20
 Remove points where switching function is < 1.0e-08
 Keep 1608 surface tesserae and discard 1516 interior tesserae
 Molecular Surface Area = 179.540 Angst**2
 Applying Cartesian multipole field
    Component          Value
    ---------          -----
     (2,0,0)        1.00000E-12
     (0,2,0)        2.00000E-11
     (0,0,2)       -3.00000E-11
 Nucleus-field energy     =    -0.0000000043 hartrees
 Requested basis set is 6-311++G(2df,2p)
 There are 142 shells and 464 basis functions
 A cutoff of  1.0D-12 yielded   8558 shell pairs
 There are     89875 function pairs (    111289 Cartesian)
 Smallest overlap matrix eigenvalue = 4.25E-06
 Guess MOs from SCF MO coefficient file

 -----------------------------------------------------------------------
  General SCF calculation program by
  Eric Jon Sundstrom, Paul Horn, Yuezhi Mao, Dmitri Zuev, Alec White,
  David Stuck, Shaama M.S., Shane Yost, Joonho Lee, David Small,
  Daniel Levine, Susi Lehtola, Hugh Burton, Evgeny Epifanovsky,
  Bang C. Huynh
 -----------------------------------------------------------------------
 Exchange:     0.1500 Hartree-Fock + 1.0000 wB97M-V + LR-HF
 Correlation:  1.0000 wB97M-V
 Using SG-2 standard quadrature grid
 Nonlocal Correlation:  VV10 with C = 0.0100 and b = 6.00 and scale = 1.00000
 Grid used for NLC:  SG-1 standard quadrature
 
 Citation of the SMD model:
 Marenich, A.V.; Cramer, C.J.; Truhlar, D.G.
 J. Phys. Chem. B 2009, 113, 6378-6396.
 iSolventCode=           1
 Solvent: water                                                           
 
 vradii
            1           2           3           4           5           6
    1   1.8500000   1.5200000   1.8500000   1.5200000   1.8500000   1.8500000
            7           8           9          10          11          12
    1   1.5200000   1.5200000   1.8500000   1.5200000   1.5200000   1.2000000
           13          14          15          16          17          18
    1   1.2000000   1.2000000   1.2000000   1.2000000   1.2000000   1.2000000
           19          20
    1   1.2000000   1.2000000
 -------------------------------------------------------
 OpenMP BLAS3 based DFT computing Module                
 Release: version 1.0, May 2013, Q-Chem Inc. Pittsburgh 
 -------------------------------------------------------
 A unrestricted SCF calculation will be
 performed using Roothaan-Hall, DIIS, GDM
 SCF converges when RMS gradient is below 1.0e-07
 ---------------------------------------
  Cycle       Energy         DIIS error
 ---------------------------------------
    1    -647.1495790798      2.29e-04  Roothaan Step
 ---------------------------------------
  Cycle       Energy         DIIS error
 ---------------------------------------
    1    -647.1930061948      2.79e-04  
    2    -647.1973215331      3.15e-04  Done DIIS. Switching to GDM
 ---------------------------------------
  Cycle       Energy        RMS Gradient
 ---------------------------------------
    1    -647.1973215331      1.89e-02   Normal BFGS step
    2    -647.1932436559      3.22e-02  Line search: overstep
    3    -647.2042075438      3.71e-03   Normal BFGS step
    4    -647.2044476282      8.16e-04   Normal BFGS step
    5    -647.2044977498      2.02e-03   Normal BFGS step
    6    -647.2045121704      4.07e-04   Normal BFGS step
    7    -647.2045140967      5.93e-04   Normal BFGS step
    8    -647.2045153393      3.31e-04   Normal BFGS step
    9    -647.2045157934      2.52e-04   Normal BFGS step
   10    -647.2045160002      1.88e-04   Normal BFGS step
   11    -647.2045160960      1.40e-04   Normal BFGS step
   12    -647.2045161842      7.35e-05   Normal BFGS step
   13    -647.2045162312      2.11e-05   Normal BFGS step
   14    -647.2045162461      6.92e-06   Normal BFGS step
   15    -647.2045162482      3.67e-06   Normal BFGS step
   16    -647.2045162488      8.93e-07   Normal BFGS step
   17    -647.2045162488      3.08e-07   Normal BFGS step
   18    -647.2045162488      1.14e-07   Normal BFGS step
   19    -647.2045162488      6.09e-08  Convergence criterion met
 ---------------------------------------
 SCF time:   CPU 2119.92s  wall 143.00s 
<S^2> =          0.753899057
(3)  G-ENP(liq) elect-nuc-pol free energy of system     -647.204516249 a.u.
(4)  G-CDS(liq) cavity-dispersion-solvent structure 
     free energy                                                4.0982 kcal/mol
(6)  G-S(liq) free energy of system                     -647.197985392 a.u.
 SCF   energy in the final basis set =     -647.1979853920
 Total energy in the final basis set =     -647.1979853920
 
 --------------------------------------------------------------
 
                    Orbital Energies (a.u.)
 --------------------------------------------------------------
 
 Alpha MOs
 -- Occupied --
-19.4656 -19.4180 -19.3507 -19.3487 -19.3451 -19.3393 -10.4545 -10.4479
-10.4146 -10.3944 -10.3563  -1.3465  -1.2081  -1.1938  -1.1645  -1.1398
 -1.0314  -0.9090  -0.8566  -0.8197  -0.7503  -0.6882  -0.6768  -0.6579
 -0.6422  -0.6269  -0.6048  -0.5932  -0.5847  -0.5726  -0.5585  -0.5434
 -0.5342  -0.5224  -0.4927  -0.4757  -0.4520  -0.4478  -0.4417  -0.4250
 -0.4148  -0.4054  -0.3885  -0.3617
 -- Virtual --
  0.0258   0.0348   0.0375   0.0455   0.0577   0.0592   0.0612   0.0685
  0.0817   0.0915   0.0982   0.1040   0.1052   0.1233   0.1295   0.1418
  0.1443   0.1486   0.1550   0.1591   0.1628   0.1648   0.1689   0.1758
  0.1827   0.1932   0.1999   0.2013   0.2063   0.2166   0.2363   0.2433
  0.2474   0.2549   0.2622   0.2628   0.2729   0.2761   0.2809   0.2841
  0.3000   0.3061   0.3080   0.3108   0.3211   0.3244   0.3283   0.3337
  0.3458   0.3485   0.3542   0.3596   0.3623   0.3665   0.3709   0.3760
  0.3793   0.3850   0.3924   0.3979   0.4031   0.4051   0.4161   0.4173
  0.4293   0.4396   0.4490   0.4534   0.4700   0.4767   0.4952   0.5167
  0.5435   0.5470   0.5779   0.5809   0.5924   0.6050   0.6061   0.6203
  0.6325   0.6430   0.6545   0.6636   0.6702   0.6751   0.6893   0.6955
  0.7058   0.7101   0.7187   0.7274   0.7337   0.7511   0.7589   0.7732
  0.7824   0.7918   0.8326   0.8377   0.8580   0.8670   0.8796   0.8984
  0.9338   0.9399   0.9516   0.9691   1.0026   1.0210   1.0235   1.0400
  1.0498   1.0540   1.0560   1.0764   1.0911   1.1072   1.1105   1.1379
  1.1537   1.1565   1.1651   1.1708   1.1784   1.1966   1.1969   1.2071
  1.2120   1.2153   1.2241   1.2369   1.2462   1.2618   1.2665   1.2757
  1.2882   1.2979   1.3070   1.3130   1.3272   1.3413   1.3534   1.3646
  1.3708   1.3775   1.4009   1.4080   1.4123   1.4251   1.4255   1.4486
  1.4729   1.4939   1.4992   1.5049   1.5109   1.5274   1.5409   1.5587
  1.5664   1.5715   1.5921   1.6077   1.6161   1.6195   1.6326   1.6486
  1.6560   1.6864   1.6930   1.7008   1.7099   1.7344   1.7582   1.7680
  1.8179   1.8406   1.8725   1.8924   1.9061   1.9338   1.9380   1.9661
  1.9871   2.0108   2.0220   2.0702   2.0882   2.1234   2.1721   2.2027
  2.2181   2.2334   2.2651   2.3028   2.3235   2.3548   2.3660   2.3820
  2.4017   2.4104   2.4330   2.4599   2.4839   2.5325   2.5996   2.6030
  2.6570   2.6648   2.7447   2.7672   2.7770   2.8207   2.8300   2.8660
  2.8818   2.8967   2.9073   2.9227   2.9382   2.9623   2.9890   3.0196
  3.0359   3.0529   3.0869   3.1062   3.1222   3.1543   3.1613   3.1809
  3.2191   3.2361   3.2432   3.2684   3.2852   3.3083   3.3298   3.3534
  3.3798   3.4044   3.4146   3.4241   3.4518   3.4664   3.5010   3.5119
  3.5380   3.5626   3.5757   3.5896   3.6043   3.6305   3.6390   3.6486
  3.6621   3.6809   3.7038   3.7194   3.7455   3.7550   3.7757   3.7952
  3.8038   3.8154   3.8449   3.8508   3.8727   3.8947   3.8983   3.9202
  3.9391   3.9614   3.9728   3.9968   4.0180   4.0488   4.0627   4.0975
  4.1111   4.1224   4.1368   4.1579   4.1790   4.2308   4.2419   4.2543
  4.2712   4.2919   4.3095   4.3298   4.3609   4.3629   4.3859   4.3916
  4.4001   4.4278   4.4607   4.4948   4.5097   4.5318   4.5538   4.5612
  4.5894   4.6097   4.6391   4.6705   4.7111   4.7440   4.7611   4.8049
  4.8954   4.9094   4.9495   5.0230   5.0465   5.0906   5.0961   5.1068
  5.1630   5.1735   5.1911   5.1995   5.2177   5.2440   5.2509   5.2635
  5.2731   5.2811   5.2918   5.3074   5.3206   5.3218   5.3304   5.3571
  5.3862   5.3977   5.4082   5.4582   5.4916   5.4987   5.5116   5.5270
  5.5515   5.5763   5.5947   5.6071   5.6218   5.6263   5.6463   5.6598
  5.6709   5.6952   5.7086   5.7273   5.7554   5.7773   5.8198   5.8414
  5.8717   5.9967   6.0295   6.0519   6.1095   6.1573   6.3805   6.4804
  6.4855   6.5447   6.5927   6.6219   6.7514   6.7885   6.8473   6.8885
  6.9663   6.9920   7.0623   7.0784   7.1039   7.1068   7.1212   7.1841
  7.2300   7.2584   7.2684   7.3065   7.3170   7.3179   7.3237   7.3546
  7.3860   7.3904   7.4197   7.4364   7.4716   7.5525   7.6311   7.6406
  7.6572   7.6960   7.7761   7.7973   7.7998   7.8536   7.8926   8.0506
  8.1285  24.6016  24.7658  24.7711  24.8347  25.0311  50.4398  50.5599
 50.5994  50.6219  50.6305  50.7618
 
 Beta MOs
 -- Occupied --
-19.4553 -19.3993 -19.3506 -19.3486 -19.3451 -19.3393 -10.4541 -10.4479
-10.4149 -10.3944 -10.3562  -1.3204  -1.2077  -1.1937  -1.1645  -1.1396
 -1.0057  -0.8988  -0.8525  -0.8185  -0.7465  -0.6821  -0.6759  -0.6492
 -0.6206  -0.6185  -0.6025  -0.5836  -0.5793  -0.5615  -0.5479  -0.5428
 -0.5231  -0.5053  -0.4911  -0.4746  -0.4504  -0.4416  -0.4335  -0.4250
 -0.4107  -0.3865  -0.3618
 -- Virtual --
 -0.0313   0.0259   0.0350   0.0375   0.0458   0.0578   0.0594   0.0618
  0.0686   0.0821   0.0915   0.0990   0.1044   0.1054   0.1237   0.1310
  0.1419   0.1445   0.1504   0.1555   0.1617   0.1629   0.1653   0.1691
  0.1761   0.1830   0.1936   0.2008   0.2020   0.2083   0.2172   0.2381
  0.2446   0.2492   0.2556   0.2627   0.2719   0.2734   0.2776   0.2820
  0.2848   0.3003   0.3067   0.3089   0.3124   0.3220   0.3257   0.3294
  0.3346   0.3463   0.3497   0.3551   0.3600   0.3627   0.3670   0.3717
  0.3774   0.3799   0.3856   0.3930   0.3990   0.4033   0.4068   0.4165
  0.4189   0.4306   0.4407   0.4502   0.4545   0.4712   0.4771   0.4963
  0.5174   0.5439   0.5471   0.5786   0.5812   0.5926   0.6052   0.6067
  0.6205   0.6329   0.6433   0.6547   0.6640   0.6705   0.6756   0.6894
  0.6961   0.7063   0.7105   0.7190   0.7275   0.7339   0.7511   0.7593
  0.7740   0.7830   0.7925   0.8331   0.8388   0.8581   0.8674   0.8800
  0.8992   0.9342   0.9404   0.9530   0.9699   1.0035   1.0219   1.0253
  1.0432   1.0503   1.0548   1.0565   1.0773   1.0924   1.1089   1.1128
  1.1418   1.1575   1.1576   1.1667   1.1750   1.1897   1.1977   1.2023
  1.2094   1.2129   1.2184   1.2309   1.2409   1.2487   1.2671   1.2719
  1.2775   1.2912   1.2994   1.3096   1.3160   1.3282   1.3431   1.3548
  1.3660   1.3749   1.3782   1.4025   1.4088   1.4138   1.4260   1.4265
  1.4539   1.4739   1.4974   1.4994   1.5068   1.5134   1.5287   1.5423
  1.5605   1.5692   1.5752   1.5947   1.6089   1.6206   1.6228   1.6354
  1.6569   1.6606   1.6926   1.7042   1.7077   1.7217   1.7418   1.7604
  1.7696   1.8205   1.8423   1.8761   1.8943   1.9077   1.9379   1.9410
  1.9691   1.9891   2.0134   2.0257   2.0769   2.0921   2.1241   2.1740
  2.2050   2.2202   2.2376   2.2739   2.3066   2.3313   2.3586   2.3748
  2.3838   2.4042   2.4143   2.4361   2.4618   2.4841   2.5331   2.5998
  2.6037   2.6604   2.6692   2.7468   2.7678   2.7780   2.8209   2.8307
  2.8667   2.8821   2.8969   2.9076   2.9230   2.9383   2.9626   2.9893
  3.0199   3.0361   3.0543   3.0872   3.1070   3.1229   3.1546   3.1615
  3.1815   3.2193   3.2369   3.2435   3.2685   3.2853   3.3087   3.3301
  3.3538   3.3800   3.4046   3.4146   3.4243   3.4521   3.4667   3.5012
  3.5123   3.5383   3.5627   3.5765   3.5899   3.6044   3.6306   3.6392
  3.6494   3.6626   3.6812   3.7044   3.7194   3.7461   3.7553   3.7758
  3.7954   3.8044   3.8159   3.8453   3.8511   3.8728   3.8949   3.8988
  3.9205   3.9397   3.9618   3.9733   3.9973   4.0180   4.0492   4.0629
  4.0977   4.1114   4.1226   4.1371   4.1588   4.1793   4.2313   4.2423
  4.2547   4.2715   4.2925   4.3103   4.3302   4.3615   4.3633   4.3861
  4.3922   4.4011   4.4280   4.4622   4.4949   4.5100   4.5353   4.5577
  4.5630   4.5958   4.6113   4.6423   4.6862   4.7123   4.7529   4.7739
  4.8101   4.9072   4.9239   4.9562   5.0285   5.0595   5.1392   5.1444
  5.1682   5.1807   5.1961   5.2005   5.2100   5.2200   5.2524   5.2551
  5.2785   5.2853   5.2959   5.3032   5.3092   5.3242   5.3279   5.3417
  5.3623   5.3907   5.4088   5.4219   5.4588   5.4965   5.5074   5.5134
  5.5336   5.5538   5.5785   5.6036   5.6105   5.6240   5.6276   5.6500
  5.6604   5.6733   5.7000   5.7108   5.7290   5.7637   5.7823   5.8230
  5.8450   5.8817   5.9968   6.0311   6.0519   6.1114   6.1587   6.3806
  6.4970   6.5207   6.5566   6.5935   6.6329   6.7542   6.7890   6.9285
  6.9660   6.9947   7.0207   7.0687   7.0811   7.1048   7.1097   7.1522
  7.1922   7.2541   7.2652   7.2756   7.3163   7.3179   7.3230   7.3257
  7.3689   7.3913   7.3986   7.4363   7.4391   7.5049   7.5644   7.6320
  7.6407   7.6583   7.6966   7.7762   7.7978   7.8070   7.8584   7.8931
  8.0645   8.1478  24.6016  24.7658  24.7711  24.8349  25.0311  50.4527
 50.5677  50.5996  50.6231  50.6308  50.7619
 --------------------------------------------------------------
 
          Ground-State Mulliken Net Atomic Charges

     Atom                 Charge (a.u.)    Spin (a.u.)
  --------------------------------------------------------
      1 C                    -0.244215       0.002263
      2 O                    -0.428731       0.000154
      3 C                     0.390667      -0.005949
      4 O                    -0.458222      -0.000092
      5 C                    -0.437872       0.006754
      6 C                    -0.080977       0.004620
      7 O                     0.113594       0.310398
      8 O                    -0.229275       0.669117
      9 C                    -0.334631       0.010698
     10 O                    -0.408073       0.001586
     11 O                    -0.462150      -0.000463
     12 H                     0.210378       0.000155
     13 H                     0.204989      -0.000069
     14 H                     0.339200       0.000021
     15 H                     0.235535       0.000566
     16 H                     0.262826      -0.000304
     17 H                     0.330838       0.000639
     18 H                     0.303475      -0.000611
     19 H                     0.337865       0.000547
     20 H                     0.354779      -0.000032
  --------------------------------------------------------
  Sum of atomic charges =    -0.000000
  Sum of spin   charges =     1.000000

 -----------------------------------------------------------------
                    Cartesian Multipole Moments
 -----------------------------------------------------------------
    Charge (ESU x 10^10)
                 0.0000
    Dipole Moment (Debye)
         X      -3.4543      Y      -3.1461      Z      -3.8144
       Tot       6.0316
    Quadrupole Moments (Debye-Ang)
        XX     -94.8798     XY      -4.4955     YY     -61.2045
        XZ     -26.3747     YZ       4.7004     ZZ     -62.7592
    Octopole Moments (Debye-Ang^2)
       XXX    -965.2147    XXY      73.8495    XYY    -265.8986
       YYY     109.1933    XXZ     -86.9193    XYZ      31.5999
       YYZ      26.3805    XZZ    -232.3816    YZZ      19.2483
       ZZZ     118.0836
    Hexadecapole Moments (Debye-Ang^3)
      XXXX   -8958.2510   XXXY    1178.9382   XXYY   -1519.2568
      XYYY     688.3668   YYYY    -515.0269   XXXZ     -66.5563
      XXYZ      79.4381   XYYZ     130.8572   YYYZ    -163.9293
      XXZZ   -1284.1263   XYZZ     103.7254   YYZZ    -159.5017
      XZZZ     476.7523   YZZZ     -91.4678   ZZZZ    -667.0915
 -----------------------------------------------------------------
 Calculating analytic gradient of the SCF energy
 Gradient of CDS energy
            1           2           3           4           5           6
    1  -0.0013990   0.0006535   0.0011075  -0.0007118   0.0000761  -0.0000275
    2  -0.0002227   0.0005658   0.0013387  -0.0008711  -0.0001131  -0.0000858
    3  -0.0003253   0.0003462   0.0010431  -0.0007160  -0.0001135   0.0000147
            7           8           9          10          11          12
    1   0.0000677  -0.0000099   0.0025029   0.0004105  -0.0030234   0.0001347
    2   0.0000432  -0.0000818   0.0002725  -0.0007648   0.0003569  -0.0000538
    3  -0.0000204   0.0000564  -0.0016542   0.0023715  -0.0004655   0.0001488
           13          14          15          16          17          18
    1   0.0000868  -0.0003335  -0.0000213   0.0000407   0.0000730  -0.0000884
    2   0.0000709  -0.0004168   0.0000041  -0.0001050   0.0000752  -0.0001079
    3  -0.0001629  -0.0000188  -0.0001518   0.0000599   0.0000238   0.0001769
           19          20
    1  -0.0000099   0.0004714
    2  -0.0000598   0.0001552
    3  -0.0005135  -0.0000994
 Gradient of SCF Energy
            1           2           3           4           5           6
    1   0.0067655  -0.0040311  -0.0011234   0.0035942   0.0072264  -0.0026137
    2  -0.0104875   0.0179933  -0.0082884   0.0047995   0.0269508  -0.0146591
    3  -0.0069371  -0.0132178  -0.0043902   0.0051809   0.0053718   0.0045216
            7           8           9          10          11          12
    1   0.0022874  -0.0023294   0.0055980  -0.0034335  -0.0000722  -0.0041686
    2   0.0010222  -0.0004033   0.0151484   0.0126883  -0.0105760  -0.0006429
    3  -0.0001051   0.0000387   0.0003190   0.0085882   0.0047155   0.0079995
           13          14          15          16          17          18
    1  -0.0019760   0.0033978  -0.0034690  -0.0058977   0.0023051  -0.0069933
    2   0.0065283  -0.0158266  -0.0007735  -0.0137608   0.0030934  -0.0101963
    3  -0.0020250   0.0114756  -0.0072442   0.0031584  -0.0039783  -0.0007413
           19          20
    1   0.0026049   0.0023287
    2  -0.0118114   0.0092015
    3  -0.0101679  -0.0025625
 Max gradient component =       2.695E-02
 RMS gradient           =       8.093E-03
 Computing fast CPCM-SWIG gradient
 Updating gradient with PCM contributions...
 -- total gradient after adding PCM contribution --
---------------------------------------------------
  Atom         X              Y              Z     
---------------------------------------------------
   1       0.000148       0.000186      -0.000029
   2       0.000097      -0.000322       0.000568
   3      -0.000014      -0.000117       0.001097
   4      -0.000388      -0.000434      -0.000676
   5      -0.000286      -0.000074      -0.000663
   6       0.000763       0.000142      -0.000102
   7      -0.000094      -0.000084      -0.000489
   8       0.000161      -0.000001      -0.000107
   9      -0.000134      -0.000225       0.000263
  10      -0.000051      -0.000358      -0.000355
  11      -0.000220       0.000667       0.000313
  12       0.000084       0.000059      -0.000380
  13       0.000013      -0.000258      -0.000001
  14      -0.000030       0.000503      -0.000378
  15       0.000050      -0.000022       0.000412
  16       0.000075       0.000341       0.000045
  17      -0.000078      -0.000218       0.000086
  18       0.000015       0.000238       0.000137
  19       0.000072       0.000498       0.000387
  20      -0.000184      -0.000524      -0.000129
---------------------------------------------------
 Number of fixed atoms: 0
 Gradient time:  CPU 277.30 s  wall 23.62 s
 Geometry Optimization Parameters
   NAtoms,    NIC,     NZ,  NCons,   NDum,   NFix, NCnnct, MaxDiis
       20     132       0       0       0       0       0       0

 Cartesian Hessian Update
 Hessian updated using BFGS update


** GEOMETRY OPTIMIZATION IN DELOCALIZED INTERNAL COORDINATES **
   Searching for a Minimum

   Optimization Cycle:   3

                       Coordinates (Angstroms)
     ATOM                X               Y               Z
      1  C         1.0637227051    0.3297333938   -0.2473735239
      2  O         0.4524068638   -0.7004236162   -0.9988162265
[...]
    1   0.0000845  -0.0003316  -0.0000248   0.0000428   0.0000719  -0.0000913
    2   0.0000825  -0.0004159   0.0000071  -0.0001024   0.0000740  -0.0001085
    3  -0.0001552  -0.0000299  -0.0001541   0.0000620   0.0000240   0.0001623
           19          20
    1  -0.0000232   0.0004723
    2  -0.0000682   0.0001548
    3  -0.0005114  -0.0000950
 Gradient of SCF Energy
            1           2           3           4           5           6
    1   0.0065230  -0.0042917  -0.0009711   0.0039231   0.0075176  -0.0034323
    2  -0.0100426   0.0189425  -0.0081623   0.0052847   0.0277196  -0.0148654
    3  -0.0079987  -0.0131517  -0.0056293   0.0056820   0.0064992   0.0045538
            7           8           9          10          11          12
    1   0.0022740  -0.0024148   0.0059320  -0.0023783   0.0002779  -0.0041006
    2   0.0010033  -0.0003310   0.0155797   0.0134658  -0.0109958  -0.0012612
    3   0.0003639   0.0002201  -0.0000053   0.0090417   0.0038413   0.0087327
           13          14          15          16          17          18
    1  -0.0021530   0.0036818  -0.0035119  -0.0062107   0.0024472  -0.0071505
    2   0.0066038  -0.0169262  -0.0008731  -0.0144849   0.0032180  -0.0106367
    3  -0.0015322   0.0114331  -0.0077542   0.0031716  -0.0040614  -0.0008984
           19          20
    1   0.0016557   0.0023828
    2  -0.0127895   0.0095514
    3  -0.0104351  -0.0020731
 Max gradient component =       2.772E-02
 RMS gradient           =       8.396E-03
 Computing fast CPCM-SWIG gradient
 Updating gradient with PCM contributions...
 -- total gradient after adding PCM contribution --
---------------------------------------------------
  Atom         X              Y              Z     
---------------------------------------------------
   1       0.000026      -0.000010      -0.000001
   2      -0.000033       0.000012       0.000027
   3      -0.000013       0.000032       0.000007
   4      -0.000004      -0.000024      -0.000006
   5       0.000000       0.000000      -0.000010
   6       0.000022       0.000015      -0.000064
   7      -0.000053      -0.000062       0.000013
   8       0.000041       0.000031       0.000003
   9      -0.000042       0.000011       0.000022
  10       0.000039      -0.000025      -0.000022
  11       0.000009       0.000024      -0.000025
  12      -0.000009       0.000009      -0.000005
  13       0.000008      -0.000013      -0.000003
  14       0.000021       0.000006      -0.000018
  15       0.000009      -0.000003       0.000021
  16       0.000003       0.000003       0.000004
  17      -0.000001      -0.000004       0.000014
  18       0.000010       0.000005       0.000011
  19      -0.000026       0.000011       0.000008
  20      -0.000008      -0.000018       0.000023
---------------------------------------------------
 Number of fixed atoms: 0
 Gradient time:  CPU 282.69 s  wall 24.43 s
 Geometry Optimization Parameters
   NAtoms,    NIC,     NZ,  NCons,   NDum,   NFix, NCnnct, MaxDiis
       20     132       0       0       0       0       0       0

 Cartesian Hessian Update
 Hessian updated using BFGS update


** GEOMETRY OPTIMIZATION IN DELOCALIZED INTERNAL COORDINATES **
   Searching for a Minimum

   Optimization Cycle:   9

                       Coordinates (Angstroms)
     ATOM                X               Y               Z
      1  C         1.0660571488    0.3237733651   -0.2325855600
      2  O         0.4542957641   -0.6813138616   -1.0173527261
      3  C         2.5781629610    0.2872608125   -0.2171538741
      4  O         3.1870226054    1.1259783861    0.4206522509
      5  C         3.2687435449   -0.7840759424   -1.0114261882
      6  C         4.7689790185   -0.7600980837   -0.8625642275
      7  O         5.0515239238   -1.2052739763    0.4953712963
      8  O         6.0874048818   -0.6108432645    1.0149347645
      9  C         5.4697369349   -1.7163757806   -1.8248153092
     10  O         5.2558747581   -1.1829348814   -3.1084419619
     11  O         6.8375815243   -1.8501716714   -1.5327799864
     12  H         0.7257445879    0.2952847279    0.8048789827
     13  H         0.7766419401    1.2890307803   -0.6485619100
     14  H         0.4890151494   -1.5141220954   -0.5352659243
     15  H         2.9955334463   -0.6532232205   -2.0597162782
     16  H         2.8690032901   -1.7587673354   -0.7201859531
     17  H         5.1881490347    0.2399585763   -0.9642126926
     18  H         5.0514859113   -2.7197167659   -1.7416041604
     19  H         5.4622929584   -1.8656357292   -3.7570392154
     20  H         7.2409706161   -0.9720060399   -1.5237881869
   Point Group: c1    Number of degrees of freedom:    54


   Energy is   -647.198026122

 Hessian updated using BFGS update

 54 Hessian modes will be used to form the next step
  Hessian Eigenvalues:
     0.001401    0.005098    0.006300    0.007615    0.007843    0.010076
     0.011569    0.014731    0.027679    0.042663    0.043663    0.052633
     0.055574    0.057831    0.059682    0.067277    0.075523    0.081254
     0.093734    0.096983    0.119689    0.129998    0.145581    0.159871
     0.160285    0.167275    0.175904    0.188574    0.202506    0.213658
     0.219010    0.227593    0.248005    0.250425    0.269846    0.306559
     0.307623    0.311783    0.328194    0.338668    0.339896    0.341690
     0.342010    0.343916    0.350187    0.378860    0.436008    0.445415
     0.452122    0.512144    0.528831    0.531472    0.600120    0.944853

 Minimum search - taking simple RFO step
 Searching for Lamda that Minimizes Along All modes
 Value Taken    Lamda =  -0.00000032
 Step Taken.  Stepsize is  0.007652

                             Maximum     Tolerance    Cnvgd?
         Gradient           0.000049      0.000300     YES
         Displacement       0.003716      0.001200      NO
         Energy change     -0.000001      0.000001     YES

 Final energy is   -647.198026122287     


 ******************************
 **  OPTIMIZATION CONVERGED  **
 ******************************

                       Coordinates (Angstroms)
     ATOM                X               Y               Z
      1  C         1.0660571488    0.3237733651   -0.2325855600
      2  O         0.4542957641   -0.6813138616   -1.0173527261
      3  C         2.5781629610    0.2872608125   -0.2171538741
      4  O         3.1870226054    1.1259783861    0.4206522509
      5  C         3.2687435449   -0.7840759424   -1.0114261882
      6  C         4.7689790185   -0.7600980837   -0.8625642275
      7  O         5.0515239238   -1.2052739763    0.4953712963
      8  O         6.0874048818   -0.6108432645    1.0149347645
      9  C         5.4697369349   -1.7163757806   -1.8248153092
     10  O         5.2558747581   -1.1829348814   -3.1084419619
     11  O         6.8375815243   -1.8501716714   -1.5327799864
     12  H         0.7257445879    0.2952847279    0.8048789827
     13  H         0.7766419401    1.2890307803   -0.6485619100
     14  H         0.4890151494   -1.5141220954   -0.5352659243
     15  H         2.9955334463   -0.6532232205   -2.0597162782
     16  H         2.8690032901   -1.7587673354   -0.7201859531
     17  H         5.1881490347    0.2399585763   -0.9642126926
     18  H         5.0514859113   -2.7197167659   -1.7416041604
     19  H         5.4622929584   -1.8656357292   -3.7570392154
     20  H         7.2409706161   -0.9720060399   -1.5237881869

Z-matrix Print:
$molecule
0 2
O 
O  1 1.302437
C  1 1.456709 2 112.746534
H  3 1.089105 1 107.035821 2 -24.676533 0
C  3 1.507794 1 106.269926 2 -145.508841 0
H  5 1.091182 3 110.002760 1 -168.820835 0
H  5 1.092994 3 110.595636 1 -52.379115 0
C  5 1.501843 3 113.201070 1 70.385338 0
O  8 1.216944 5 122.599422 3 3.639676 0
C  8 1.512625 5 118.130922 3 -177.108901 0
H  10 1.090192 8 106.896603 5 -119.447712 0
H  10 1.092226 8 107.526694 5 125.223626 0
O  10 1.414324 8 114.891743 5 -0.129624 0
H  13 0.962903 10 108.737758 8 76.725978 0
C  3 1.526911 1 107.881730 2 93.494305 0
H  15 1.090207 3 110.622697 1 64.308795 0
O  15 1.405057 3 112.051369 1 -53.315584 0
H  17 0.966426 15 108.769045 3 -54.933162 0
O  15 1.406412 3 105.536077 1 -175.406696 0
H  19 0.964037 15 108.233686 3 -164.537775 0
$end

 
 --------------------------------------------------------------
 
                    Orbital Energies (a.u.)
 --------------------------------------------------------------
 
 Alpha MOs
 -- Occupied --
-19.4657 -19.4181 -19.3507 -19.3487 -19.3452 -19.3393 -10.4546 -10.4480
-10.4148 -10.3946 -10.3565  -1.3465  -1.2076  -1.1935  -1.1643  -1.1398
 -1.0312  -0.9090  -0.8564  -0.8195  -0.7503  -0.6880  -0.6766  -0.6579
 -0.6423  -0.6269  -0.6052  -0.5935  -0.5847  -0.5727  -0.5582  -0.5420
 -0.5343  -0.5223  -0.4928  -0.4758  -0.4514  -0.4470  -0.4416  -0.4257
 -0.4145  -0.4058  -0.3888  -0.3618
 -- Virtual --
  0.0258   0.0348   0.0376   0.0455   0.0580   0.0592   0.0612   0.0683
  0.0814   0.0917   0.0978   0.1040   0.1053   0.1230   0.1300   0.1416
  0.1445   0.1485   0.1547   0.1590   0.1628   0.1650   0.1687   0.1762
  0.1821   0.1935   0.1992   0.2013   0.2075   0.2169   0.2369   0.2439
  0.2474   0.2535   0.2615   0.2632   0.2732   0.2757   0.2791   0.2848
  0.2996   0.3056   0.3085   0.3111   0.3219   0.3250   0.3285   0.3343
  0.3455   0.3484   0.3537   0.3593   0.3620   0.3659   0.3703   0.3774
  0.3803   0.3847   0.3920   0.3978   0.4023   0.4044   0.4159   0.4178
  0.4288   0.4385   0.4479   0.4546   0.4693   0.4758   0.4938   0.5182
  0.5417   0.5471   0.5769   0.5818   0.5916   0.6060   0.6068   0.6184
  0.6317   0.6437   0.6553   0.6654   0.6698   0.6749   0.6884   0.6952
  0.7059   0.7102   0.7158   0.7263   0.7333   0.7512   0.7591   0.7721
  0.7828   0.7928   0.8317   0.8394   0.8568   0.8671   0.8804   0.8996
  0.9346   0.9384   0.9517   0.9712   1.0061   1.0191   1.0221   1.0418
  1.0505   1.0520   1.0563   1.0752   1.0908   1.1079   1.1093   1.1347
  1.1536   1.1557   1.1642   1.1712   1.1771   1.1946   1.1983   1.2067
  1.2126   1.2147   1.2231   1.2387   1.2455   1.2635   1.2679   1.2731
  1.2904   1.2977   1.3081   1.3149   1.3289   1.3410   1.3526   1.3625
  1.3678   1.3781   1.4023   1.4072   1.4115   1.4222   1.4246   1.4477
  1.4735   1.4933   1.4988   1.5051   1.5115   1.5258   1.5398   1.5622
  1.5673   1.5729   1.5903   1.6060   1.6160   1.6187   1.6333   1.6498
  1.6554   1.6853   1.6925   1.7039   1.7081   1.7355   1.7566   1.7687
  1.8141   1.8383   1.8682   1.8932   1.9039   1.9344   1.9367   1.9646
  1.9857   2.0128   2.0263   2.0676   2.0874   2.1230   2.1751   2.2047
  2.2250   2.2318   2.2648   2.3027   2.3247   2.3558   2.3643   2.3832
  2.4009   2.4107   2.4306   2.4587   2.4791   2.5247   2.6000   2.6059
  2.6558   2.6651   2.7470   2.7640   2.7746   2.8226   2.8310   2.8670
  2.8842   2.8956   2.9045   2.9242   2.9387   2.9618   2.9854   3.0217
  3.0376   3.0537   3.0867   3.1052   3.1183   3.1537   3.1600   3.1803
  3.2195   3.2374   3.2424   3.2666   3.2839   3.3076   3.3311   3.3533
  3.3811   3.4025   3.4147   3.4256   3.4501   3.4715   3.4985   3.5089
  3.5391   3.5622   3.5770   3.5908   3.6046   3.6274   3.6389   3.6492
  3.6639   3.6811   3.7054   3.7212   3.7437   3.7558   3.7740   3.7950
  3.8058   3.8108   3.8443   3.8516   3.8717   3.8919   3.8999   3.9247
  3.9404   3.9607   3.9725   3.9932   4.0188   4.0462   4.0614   4.0959
  4.1106   4.1203   4.1377   4.1548   4.1809   4.2298   4.2420   4.2557
  4.2704   4.2911   4.3081   4.3296   4.3596   4.3628   4.3845   4.3870
  4.3999   4.4260   4.4627   4.4887   4.5090   4.5322   4.5502   4.5610
  4.5895   4.6064   4.6375   4.6709   4.7113   4.7472   4.7604   4.8032
  4.8954   4.9078   4.9484   5.0227   5.0449   5.0903   5.0961   5.1068
  5.1626   5.1732   5.1910   5.1993   5.2196   5.2438   5.2552   5.2635
  5.2737   5.2805   5.2932   5.3075   5.3193   5.3224   5.3285   5.3554
  5.3875   5.3973   5.4054   5.4555   5.4885   5.4973   5.5111   5.5249
  5.5497   5.5750   5.5888   5.6038   5.6226   5.6255   5.6476   5.6574
  5.6697   5.6943   5.7103   5.7268   5.7539   5.7748   5.8170   5.8393
  5.8715   5.9971   6.0313   6.0495   6.1128   6.1538   6.3780   6.4781
  6.4853   6.5450   6.5912   6.6218   6.7492   6.7858   6.8472   6.8879
  6.9666   6.9925   7.0610   7.0754   7.1058   7.1079   7.1235   7.1832
  7.2292   7.2558   7.2659   7.3059   7.3153   7.3162   7.3236   7.3537
  7.3858   7.3893   7.4201   7.4353   7.4717   7.5531   7.6309   7.6399
  7.6572   7.6939   7.7766   7.7960   7.7988   7.8516   7.8926   8.0491
  8.1279  24.5981  24.7639  24.7698  24.8316  25.0295  50.4394  50.5597
 50.5988  50.6208  50.6293  50.7624
 
 Beta MOs
 -- Occupied --
-19.4553 -19.3994 -19.3506 -19.3486 -19.3452 -19.3393 -10.4543 -10.4480
-10.4151 -10.3946 -10.3564  -1.3204  -1.2072  -1.1935  -1.1643  -1.1396
 -1.0055  -0.8987  -0.8524  -0.8183  -0.7465  -0.6819  -0.6757  -0.6492
 -0.6208  -0.6188  -0.6029  -0.5835  -0.5793  -0.5614  -0.5478  -0.5414
 -0.5227  -0.5057  -0.4912  -0.4747  -0.4496  -0.4416  -0.4326  -0.4256
 -0.4114  -0.3868  -0.3617
 -- Virtual --
 -0.0314   0.0259   0.0349   0.0377   0.0458   0.0580   0.0593   0.0619
  0.0683   0.0819   0.0917   0.0985   0.1044   0.1056   0.1235   0.1314
  0.1417   0.1447   0.1503   0.1553   0.1613   0.1629   0.1656   0.1690
  0.1764   0.1824   0.1939   0.2001   0.2020   0.2096   0.2173   0.2389
  0.2450   0.2493   0.2542   0.2621   0.2718   0.2739   0.2770   0.2804
  0.2853   0.3001   0.3065   0.3090   0.3126   0.3226   0.3268   0.3293
  0.3351   0.3461   0.3495   0.3546   0.3597   0.3625   0.3665   0.3710
  0.3788   0.3810   0.3856   0.3925   0.3989   0.4026   0.4060   0.4162
  0.4191   0.4302   0.4395   0.4490   0.4557   0.4705   0.4762   0.4949
  0.5188   0.5420   0.5472   0.5777   0.5821   0.5919   0.6063   0.6074
  0.6186   0.6321   0.6441   0.6556   0.6658   0.6700   0.6755   0.6886
  0.6958   0.7065   0.7106   0.7160   0.7264   0.7335   0.7512   0.7596
  0.7731   0.7833   0.7936   0.8323   0.8406   0.8569   0.8675   0.8809
  0.9005   0.9350   0.9387   0.9529   0.9720   1.0071   1.0205   1.0233
  1.0455   1.0509   1.0528   1.0568   1.0763   1.0921   1.1087   1.1126
  1.1385   1.1565   1.1574   1.1660   1.1750   1.1890   1.1958   1.2035
  1.2086   1.2137   1.2175   1.2309   1.2421   1.2484   1.2689   1.2732
  1.2748   1.2945   1.2989   1.3096   1.3180   1.3299   1.3427   1.3548
  1.3635   1.3718   1.3789   1.4039   1.4083   1.4125   1.4234   1.4253
  1.4533   1.4746   1.4956   1.4996   1.5082   1.5130   1.5268   1.5414
  1.5649   1.5694   1.5764   1.5928   1.6075   1.6199   1.6228   1.6361
  1.6569   1.6610   1.6918   1.7056   1.7075   1.7212   1.7425   1.7589
  1.7703   1.8170   1.8397   1.8720   1.8952   1.9052   1.9389   1.9396
  1.9674   1.9878   2.0156   2.0301   2.0742   2.0911   2.1237   2.1769
  2.2074   2.2268   2.2354   2.2740   2.3064   2.3325   2.3592   2.3744
  2.3846   2.4042   2.4134   2.4335   2.4606   2.4794   2.5254   2.6004
  2.6063   2.6591   2.6698   2.7486   2.7648   2.7759   2.8228   2.8315
  2.8676   2.8846   2.8957   2.9047   2.9245   2.9388   2.9622   2.9857
  3.0220   3.0379   3.0550   3.0871   3.1060   3.1190   3.1540   3.1602
  3.1809   3.2197   3.2382   3.2427   3.2668   3.2840   3.3080   3.3313
  3.3537   3.3812   3.4028   3.4148   3.4259   3.4505   3.4719   3.4987
  3.5093   3.5393   3.5624   3.5778   3.5912   3.6047   3.6275   3.6392
  3.6499   3.6644   3.6814   3.7059   3.7212   3.7443   3.7560   3.7742
  3.7953   3.8064   3.8113   3.8447   3.8520   3.8718   3.8922   3.9004
  3.9250   3.9410   3.9610   3.9731   3.9936   4.0188   4.0466   4.0616
  4.0961   4.1108   4.1206   4.1380   4.1557   4.1812   4.2303   4.2424
  4.2560   4.2707   4.2918   4.3088   4.3300   4.3602   4.3631   4.3849
  4.3874   4.4008   4.4264   4.4641   4.4888   4.5094   4.5359   4.5542
  4.5618   4.5965   4.6080   4.6407   4.6864   4.7122   4.7560   4.7734
  4.8084   4.9067   4.9228   4.9552   5.0280   5.0579   5.1390   5.1442
  5.1678   5.1809   5.1958   5.2004   5.2102   5.2223   5.2529   5.2600
  5.2780   5.2829   5.2960   5.3034   5.3100   5.3250   5.3277   5.3402
  5.3604   5.3914   5.4085   5.4195   5.4560   5.4946   5.5051   5.5130
  5.5309   5.5511   5.5768   5.6027   5.6046   5.6245   5.6267   5.6507
  5.6585   5.6719   5.6998   5.7119   5.7285   5.7622   5.7798   5.8202
  5.8430   5.8818   5.9972   6.0328   6.0495   6.1149   6.1549   6.3781
  6.4941   6.5211   6.5567   6.5920   6.6329   6.7520   6.7863   6.9283
  6.9656   6.9948   7.0213   7.0675   7.0777   7.1064   7.1123   7.1537
  7.1914   7.2529   7.2630   7.2722   7.3154   7.3157   7.3231   7.3260
  7.3675   7.3919   7.3970   7.4354   7.4392   7.5052   7.5647   7.6316
  7.6401   7.6581   7.6945   7.7766   7.7970   7.8054   7.8566   7.8931
  8.0630   8.1472  24.5980  24.7639  24.7698  24.8317  25.0295  50.4524
 50.5675  50.5990  50.6221  50.6296  50.7624
 --------------------------------------------------------------
 
          Ground-State Mulliken Net Atomic Charges

     Atom                 Charge (a.u.)    Spin (a.u.)
  --------------------------------------------------------
      1 C                    -0.232758       0.002278
      2 O                    -0.429360       0.000175
      3 C                     0.380200      -0.005767
      4 O                    -0.458525      -0.000204
      5 C                    -0.444629       0.007019
      6 C                    -0.088283       0.004473
      7 O                     0.113813       0.310861
      8 O                    -0.229502       0.669025
      9 C                    -0.324924       0.010440
     10 O                    -0.407525       0.001575
     11 O                    -0.462398      -0.000684
     12 H                     0.212828       0.000167
     13 H                     0.202832      -0.000100
     14 H                     0.340115       0.000026
     15 H                     0.236465       0.000648
     16 H                     0.264530      -0.000351
     17 H                     0.332290       0.000531
     18 H                     0.302677      -0.000623
     19 H                     0.337452       0.000529
     20 H                     0.354701      -0.000017
  --------------------------------------------------------
  Sum of atomic charges =     0.000000
  Sum of spin   charges =     1.000000

 -----------------------------------------------------------------
                    Cartesian Multipole Moments
 -----------------------------------------------------------------
    Charge (ESU x 10^10)
                 0.0000
    Dipole Moment (Debye)
         X      -3.5313      Y      -3.3338      Z      -3.7277
       Tot       6.1221
    Quadrupole Moments (Debye-Ang)
        XX     -95.8721     XY      -4.9305     YY     -61.0393
        XZ     -25.5167     YZ       5.0713     ZZ     -62.9174
    Octopole Moments (Debye-Ang^2)
       XXX    -973.6009    XXY      72.6804    XYY    -265.6136
       YYY     107.0985    XXZ     -79.5576    XYZ      31.7055
       YYZ      25.6278    XZZ    -234.9059    YZZ      18.1459
       ZZZ     119.6958
    Hexadecapole Moments (Debye-Ang^3)
      XXXX   -9018.6166   XXXY    1177.8884   XXYY   -1518.9319
      XYYY     681.0698   YYYY    -514.6283   XXXZ      -9.3015
      XXYZ      74.2722   XYYZ     128.8912   YYYZ    -161.5886
      XXZZ   -1308.2897   XYZZ     102.3896   YYZZ    -156.4612
      XZZZ     488.4673   YZZZ     -89.8989   ZZZZ    -670.6333
 -----------------------------------------------------------------
 Total job time:  1508.54s(wall), 21607.18s(cpu) 
 Fri May 31 16:52:25 2024

        *************************************************************
        *                                                           *
        *  Thank you very much for using Q-Chem.  Have a nice day.  *
        *                                                           *
        *************************************************************


