
Running Job 1 of 1 Q_in.in
qchem Q_in.in_103114.0 /scratch/ari.fischer/qChem2234344.hpc-mn1/qchem103114/ 0
/usr/local/qchem-5.4.1/exe/qcprog.exe_s Q_in.in_103114.0 /scratch/ari.fischer/qChem2234344.hpc-mn1/qchem103114/
                  Welcome to Q-Chem
     A Quantum Leap Into The Future Of Chemistry


 Q-Chem 5.4, Q-Chem, Inc., Pleasanton, CA (2021)

 License issued to: Nanyang Technological University (site)

 E. Epifanovsky,  A. T. B. Gilbert,  Xintian Feng,  Joonho Lee,  Yuezhi Mao,  
 N. Mardirossian,  P. Pokhilko,  A. White,  M. Wormit,  M. P. Coons,  
 A. L. Dempwolff,  Zhengting Gan,  D. Hait,  P. R. Horn,  L. D. Jacobson,  
 I. Kaliman,  J. Kussmann,  A. W. Lange,  Ka Un Lao,  D. S. Levine,  Jie Liu,  
 S. C. McKenzie,  A. F. Morrison,  K. Nanda,  F. Plasser,  D. R. Rehn,  
 M. L. Vidal,  Zhi-Qiang You,  Ying Zhu,  B. Alam,  B. Albrecht,  
 A. Aldossary,  E. Alguire,  J. H. Andersen,  D. Barton,  K. Begam,  A. Behn,  
 Y. A. Bernard,  E. J. Berquist,  H. Burton,  A. Carreras,  K. Carter-Fenk,  
 R. Chakraborty,  A. D. Chien,  K. D. Closser,  V. Cofer-Shabica,  
 S. Dasgupta,  Jia Deng,  M. de Wergifosse,  M. Diedenhofen,  Hainam Do,  
 S. Ehlert,  Po-Tung Fang,  S. Fatehi,  Qingguo Feng,  T. Friedhoff,  
 J. Gayvert,  Qinghui Ge,  G. Gidofalvi,  M. Goldey,  J. Gomes,  
 C. Gonzalez-Espinoza,  S. Gulania,  A. Gunina,  M. W. D. Hanson-Heine,  
 P. H. P. Harbach,  A. W. Hauser,  M. F. Herbst,  M. Hernandez Vera,  
 M. Hodecker,  Z. C. Holden,  S. Houck,  Xunkun Huang,  Kerwin Hui,  
 B. C. Huynh,  M. Ivanov,  Hyunjun Ji,  Hanjie Jiang,  B. Kaduk,  S. Kaehler,  
 K. Khistyaev,  Jaehoon Kim,  P. Klunzinger,  Z. Koczor-Benda,  
 Joong Hoon Koh,  D. Kosenkov,  L. Koulias,  T. Kowalczyk,  C. M. Krauter,  
 K. Kue,  A. Kunitsa,  T. Kus,  A. Landau,  K. V. Lawler,  D. Lefrancois,  
 S. Lehtola,  Rain Li,  Yi-Pei Li,  Jiashu Liang,  M. Liebenthal,  
 Hung-Hsuan Lin,  You-Sheng Lin,  Fenglai Liu,  Kuan-Yu Liu,  
 M. Loipersberger,  A. Luenser,  A. Manjanath,  P. Manohar,  E. Mansoor,  
 S. F. Manzer,  Shan-Ping Mao,  A. V. Marenich,  T. Markovich,  S. Mason,  
 S. A. Maurer,  P. F. McLaughlin,  M. F. S. J. Menger,  J.-M. Mewes,  
 S. A. Mewes,  P. Morgante,  J. W. Mullinax,  K. J. Oosterbaan,  G. Paran,  
 Alexander C. Paul,  Suranjan K. Paul,  F. Pavosevic,  Zheng Pei,  S. Prager,  
 E. I. Proynov,  E. Ramos,  B. Rana,  A. E. Rask,  A. Rettig,  R. M. Richard,  
 F. Rob,  E. Rossomme,  T. Scheele,  M. Scheurer,  M. Schneider,  
 N. Sergueev,  S. M. Sharada,  W. Skomorowski,  D. W. Small,  C. J. Stein,  
 Yu-Chuan Su,  E. J. Sundstrom,  Zhen Tao,  J. Thirman,  T. Tsuchimochi,  
 N. M. Tubman,  S. P. Veccham,  O. Vydrov,  J. Wenzel,  J. Witte,  A. Yamada,  
 Kun Yao,  S. Yeganeh,  S. R. Yost,  A. Zech,  Igor Ying Zhang,  Xing Zhang,  
 Yu Zhang,  D. Zuev,  A. Aspuru-Guzik,  A. T. Bell,  N. A. Besley,  
 K. B. Bravaya,  B. R. Brooks,  D. Casanova,  Jeng-Da Chai,  S. Coriani,  
 C. J. Cramer,  A. E. DePrince, III,  R. A. DiStasio Jr.,  A. Dreuw,  
 B. D. Dunietz,  T. R. Furlani,  W. A. Goddard III,  S. Grimme,  
 S. Hammes-Schiffer,  T. Head-Gordon,  W. J. Hehre,  Chao-Ping Hsu,  
 T.-C. Jagau,  Yousung Jung,  A. Klamt,  Jing Kong,  D. S. Lambrecht,  
 WanZhen Liang,  N. J. Mayhall,  C. W. McCurdy,  J. B. Neaton,  
 C. Ochsenfeld,  J. A. Parkhill,  R. Peverati,  V. A. Rassolov,  Yihan Shao,  
 L. V. Slipchenko,  T. Stauch,  R. P. Steele,  J. E. Subotnik,  
 A. J. W. Thom,  A. Tkatchenko,  D. G. Truhlar,  T. Van Voorhis,  
 T. A. Wesolowski,  K. B. Whaley,  H. L. Woodcock III,  P. M. Zimmerman,  
 S. Faraji,  P. M. W. Gill,  M. Head-Gordon,  J. M. Herbert,  A. I. Krylov

 Additional authors for Version 5.4.1: 
 S. Kotaru,  Shaozhi Li,  Xiangyuan Li,  F. Matz,  A. Molle,  Haisheng Ren,  
 Yingli Su,  Hung-Yi Tsai,  C. Utku,  Fang Wang

 Contributors to earlier versions of Q-Chem not listed above: 
 R. D. Adamson,  B. Austin,  R. Baer,  J. Baker,  G. J. O. Beran,  
 K. Brandhorst,  S. T. Brown,  E. F. C. Byrd,  A. K. Chakraborty,  
 G. K. L. Chan,  Chun-Min Chang,  Yunqing Chen,  C.-L. Cheng,  
 Siu Hung Chien,  D. M. Chipman,  D. L. Crittenden,  H. Dachsel,  
 R. J. Doerksen,  A. D. Dutoi,  R. G. Edgar,  J. Fosso-Tande,  
 L. Fusti-Molnar,  D. Ghosh,  A. Ghysels,  A. Golubeva-Zadorozhnaya,  
 J. Gonthier,  M. S. Gordon,  S. R. Gwaltney,  G. Hawkins,  J. E. Herr,  
 A. Heyden,  S. Hirata,  E. G. Hohenstein,  G. Kedziora,  F. J. Keil,  
 C. Kelley,  Jihan Kim,  R. A. King,  R. Z. Khaliullin,  P. P. Korambath,  
 W. Kurlancheek,  A. Laurent,  A. M. Lee,  M. S. Lee,  S. V. Levchenko,  
 Ching Yeh Lin,  D. Liotard,  E. Livshits,  R. C. Lochan,  I. Lotan,  
 L. A. Martinez-Martinez,  P. E. Maslen,  N. Nair,  D. P. O'Neill,  
 D. Neuhauser,  E. Neuscamman,  C. M. Oana,  R. Olivares-Amaya,  R. Olson,  
 T. M. Perrine,  B. Peters,  P. A. Pieniazek,  A. Prociuk,  Y. M. Rhee,  
 J. Ritchie,  M. A. Rohrdanz,  E. Rosta,  N. J. Russ,  H. F. Schaefer III,  
 M. W. Schmidt,  N. E. Schultz,  S. Sharma,  N. Shenvi,  C. D. Sherrill,  
 A. C. Simmonett,  A. Sodt,  T. Stein,  D. Stuck,  K. S. Thanthiriwatte,  
 V. Vanovschi,  L. Vogt,  Tao Wang,  A. Warshel,  M. A. Watson,  
 C. F. Williams,  Q. Wu,  X. Xu,  Jun Yang,  W. Zhang,  Yan Zhao

 Please cite Q-Chem as follows:
 Y. Shao et al., Mol. Phys. 113, 184-215 (2015)
 DOI: 10.1080/00268976.2014.952696

 Q-Chem 5.4.1 for Intel X86 EM64T Linux

 Parts of Q-Chem use Armadillo 9.800.1 (Horizon Scraper).
 http://arma.sourceforge.net/

 Q-Chem begins on Fri Jul 12 11:22:16 2024  

 Host: 
0

     Scratch files written to /scratch/ari.fischer/qChem2234344.hpc-mn1/qchem103114//
 Aug1521 |scratch|qcdevops|jenkins|workspace|build_RNUM 8249   
 Processing $rem in /usr/local/qchem-5.4.1/config/preferences:
 Processing $rem in /home/ari.fischer/.qchemrc:
 Symmetry turned off for PCM/SM12/SMD calculation


!!********************************************.
!!******************Warning*******************.
!!Desired Analytical derivatives not available.
!!Finite difference job might take a long time.
!!********************************************.
!!********************************************.


 2-order derivative to be evaluated numerically with 1-order analytical derivatives

 Checking the input file for inconsistencies... 	...done.

--------------------------------------------------------------
User input:
--------------------------------------------------------------
$molecule
-1 2
O         0.9284835487   -0.0596839701   -0.1810431746
C         2.3131923298   -0.2921500952    0.0621415644
C         2.8637295024    0.7711457937    0.9956251965
O         2.0083076093    1.1789315408    1.8919043832
C         4.1461527359    1.1891703249    0.8301371856
C         4.8916442740    2.1547542609    1.6697487777
C         4.1453428704    2.9311834769    2.7597746330
O         3.1419828317    3.7283505460    2.1701729729
O         3.6238834205    2.0919120124    3.7599017685
H         0.6195941290    0.3948848129    0.6184630810
H         2.8371004326   -0.2988503543   -0.8908679145
H         2.4466469469   -1.2698376979    0.5377011511
H         4.6919049552    0.7971134587   -0.0187298086
H         5.4495997917    2.8711160488    1.0676099234
H         4.8474288515    3.6065047926    3.2436745105
H         2.4735273355    3.0974834859    1.8460025851
H         2.9366336873    1.5606830351    3.2917458927
O         5.9621452258    1.3862348965    2.3812031522
O         6.9640896214    2.1407573313    2.7310731201
$end

$rem
BASIS = 6-311++G(2df,2p)
GUI = 2
JOB_TYPE = Frequency
METHOD = wB97M-V
SOLVENT_METHOD = SMD
SCF_ALGORITHM = DIIS_GDM
MAX_SCF_CYCLES = 400
SCF_CONVERGENCE = 7
THRESH = 12
$end
--------------------------------------------------------------
 ----------------------------------------------------------------
             Standard Nuclear Orientation (Angstroms)
    I     Atom           X                Y                Z
 ----------------------------------------------------------------
    1      O       0.9284835487    -0.0596839701    -0.1810431746
    2      C       2.3131923298    -0.2921500952     0.0621415644
    3      C       2.8637295024     0.7711457937     0.9956251965
    4      O       2.0083076093     1.1789315408     1.8919043832
    5      C       4.1461527359     1.1891703249     0.8301371856
    6      C       4.8916442740     2.1547542609     1.6697487777
    7      C       4.1453428704     2.9311834769     2.7597746330
    8      O       3.1419828317     3.7283505460     2.1701729729
    9      O       3.6238834205     2.0919120124     3.7599017685
   10      H       0.6195941290     0.3948848129     0.6184630810
   11      H       2.8371004326    -0.2988503543    -0.8908679145
   12      H       2.4466469469    -1.2698376979     0.5377011511
   13      H       4.6919049552     0.7971134587    -0.0187298086
   14      H       5.4495997917     2.8711160488     1.0676099234
   15      H       4.8474288515     3.6065047926     3.2436745105
   16      H       2.4735273355     3.0974834859     1.8460025851
   17      H       2.9366336873     1.5606830351     3.2917458927
   18      O       5.9621452258     1.3862348965     2.3812031522
   19      O       6.9640896214     2.1407573313     2.7310731201
 ----------------------------------------------------------------
 Nuclear Repulsion Energy =         666.15372857 hartrees
 There are       44 alpha and       43 beta electrons
 Requested basis set is 6-311++G(2df,2p)
 There are 136 shells and 454 basis functions

 Total QAlloc Memory Limit 288000 MB
 Mega-Array Size       188 MB
 MEM_STATIC part       192 MB
 
 Citation of the SMD model:
 Marenich, A.V.; Cramer, C.J.; Truhlar, D.G.
 J. Phys. Chem. B 2009, 113, 6378-6396.
 iSolventCode=           1
 Solvent: water                                                           
 
 vradii
            1           2           3           4           5           6
    1   1.5200000   1.8500000   1.8500000   1.5200000   1.8500000   1.8500000
            7           8           9          10          11          12
    1   1.8500000   1.5200000   1.5200000   1.2000000   1.2000000   1.2000000
           13          14          15          16          17          18
    1   1.2000000   1.2000000   1.2000000   1.2000000   1.2000000   1.5200000
           19
    1   1.5200000
 Changing PCM_VDW_RADII to SMD_RADIUS
 Discretize the solute cavity surface with Lebedev spheres
	Using 110 Lebedev grid points for each H atom
	Using 194 Lebedev grid points for other atoms
	Atomic van der Waals radii will be scaled by 1.20
 Remove points where switching function is < 1.0e-08
 Keep 1450 surface tesserae and discard 1564 interior tesserae
 Molecular Surface Area = 165.535 Angst**2
 A cutoff of  1.0D-12 yielded   8012 shell pairs
 There are     88491 function pairs (    110355 Cartesian)
 Smallest overlap matrix eigenvalue = 3.70E-06
 Guess from superposition of atomic densities
 Warning:  Energy on first SCF cycle will be non-variational
 SAD guess density has 86.000000 electrons

 -----------------------------------------------------------------------
  General SCF calculation program by
  Eric Jon Sundstrom, Paul Horn, Yuezhi Mao, Dmitri Zuev, Alec White,
  David Stuck, Shaama M.S., Shane Yost, Joonho Lee, David Small,
  Daniel Levine, Susi Lehtola, Hugh Burton, Evgeny Epifanovsky,
  Bang C. Huynh
 -----------------------------------------------------------------------
 Exchange:     0.1500 Hartree-Fock + 1.0000 wB97M-V + LR-HF
 Correlation:  1.0000 wB97M-V
 Using SG-2 standard quadrature grid
 Nonlocal Correlation:  VV10 with C = 0.0100 and b = 6.00 and scale = 1.00000
 Grid used for NLC:  SG-1 standard quadrature
 using 16 threads for integral computing
 -------------------------------------------------------
 OpenMP Integral computing Module                
 Release: version 1.0, May 2013, Q-Chem Inc. Pittsburgh 
 -------------------------------------------------------
 
 Citation of the SMD model:
 Marenich, A.V.; Cramer, C.J.; Truhlar, D.G.
 J. Phys. Chem. B 2009, 113, 6378-6396.
 iSolventCode=           1
 Solvent: water                                                           
 
 vradii
            1           2           3           4           5           6
    1   1.5200000   1.8500000   1.8500000   1.5200000   1.8500000   1.8500000
            7           8           9          10          11          12
    1   1.8500000   1.5200000   1.5200000   1.2000000   1.2000000   1.2000000
           13          14          15          16          17          18
    1   1.2000000   1.2000000   1.2000000   1.2000000   1.2000000   1.5200000
           19
    1   1.5200000
 -------------------------------------------------------
 OpenMP BLAS3 based DFT computing Module                
 Release: version 1.0, May 2013, Q-Chem Inc. Pittsburgh 
 -------------------------------------------------------
 A unrestricted SCF calculation will be
 performed using DIIS, GDM
 SCF converges when RMS gradient is below 1.0e-07
 ---------------------------------------
  Cycle       Energy         DIIS error
 ---------------------------------------
    1    -648.7983358215      1.16e-02  
    2    -646.5011353129      1.65e-03  Done DIIS. Switching to GDM
 ---------------------------------------
  Cycle       Energy        RMS Gradient
 ---------------------------------------
    1    -646.5011353129      7.79e-02   Descent step
    2    -646.6888587645      3.27e-02   Normal BFGS step
    3    -646.7222856301      3.10e-02   Normal BFGS step
    4    -646.7254963312      1.36e-02   Normal BFGS step
    5    -646.7281695747      9.92e-03   Normal BFGS step
    6    -646.7284837050      5.82e-03   Normal BFGS step
    7    -646.7286336724      2.41e-03   Normal BFGS step
    8    -646.7286608023      1.08e-03   Normal BFGS step
    9    -646.7286720671      6.59e-04   Normal BFGS step
   10    -646.7286743083      3.29e-04   Normal BFGS step
   11    -646.7286749464      2.00e-04   Normal BFGS step
   12    -646.7286751625      1.85e-04   Normal BFGS step
   13    -646.7286753269      1.53e-04   Normal BFGS step
   14    -646.7286754782      8.23e-05   Normal BFGS step
   15    -646.7286755303      5.58e-05   Normal BFGS step
   16    -646.7286755501      1.80e-05   Normal BFGS step
   17    -646.7286755537      6.35e-06   Normal BFGS step
   18    -646.7286755545      3.15e-06   Normal BFGS step
   19    -646.7286755547      1.65e-06   Normal BFGS step
   20    -646.7286755547      7.27e-07   Normal BFGS step
   21    -646.7286755547      4.69e-07   Normal BFGS step
   22    -646.7286755547      1.95e-07   Normal BFGS step
   23    -646.7286755546      9.59e-08  Convergence criterion met
 ---------------------------------------
 SCF time:   CPU 3329.21s  wall 228.00s 
<S^2> =          0.754186934
(3)  G-ENP(liq) elect-nuc-pol free energy of system     -646.728675555 a.u.
(4)  G-CDS(liq) cavity-dispersion-solvent structure 
     free energy                                                2.9235 kcal/mol
(6)  G-S(liq) free energy of system                     -646.724016716 a.u.
 SCF   energy in the final basis set =     -646.7240167159
 Total energy in the final basis set =     -646.7240167159
 
 --------------------------------------------------------------
 
                    Orbital Energies (a.u.)
 --------------------------------------------------------------
 
 Alpha MOs
 -- Occupied --
-19.4526 -19.4062 -19.3359 -19.3274 -19.3265 -19.2839 -10.4406 -10.3987
-10.3912 -10.3742 -10.3062  -1.3313  -1.1946  -1.1543  -1.1200  -1.1044
 -1.0057  -0.8826  -0.8373  -0.7904  -0.7310  -0.6540  -0.6514  -0.6382
 -0.6187  -0.6071  -0.5959  -0.5808  -0.5624  -0.5582  -0.5216  -0.5089
 -0.4930  -0.4854  -0.4710  -0.4580  -0.4318  -0.4170  -0.4002  -0.3961
 -0.3869  -0.3714  -0.3483  -0.2965
 -- Virtual --
  0.0285   0.0406   0.0450   0.0506   0.0605   0.0662   0.0742   0.0821
  0.1003   0.1056   0.1094   0.1148   0.1274   0.1296   0.1406   0.1476
  0.1554   0.1629   0.1656   0.1683   0.1752   0.1860   0.1896   0.1910
  0.1963   0.2052   0.2108   0.2215   0.2255   0.2396   0.2508   0.2574
  0.2678   0.2706   0.2751   0.2766   0.2888   0.2963   0.3006   0.3101
  0.3149   0.3182   0.3228   0.3256   0.3363   0.3443   0.3466   0.3522
  0.3549   0.3608   0.3705   0.3722   0.3778   0.3840   0.3900   0.3932
  0.3972   0.4020   0.4106   0.4200   0.4281   0.4354   0.4449   0.4485
  0.4670   0.4696   0.5033   0.5123   0.5256   0.5380   0.5554   0.5765
  0.5963   0.6095   0.6132   0.6274   0.6329   0.6459   0.6539   0.6618
  0.6664   0.6762   0.6878   0.7000   0.7145   0.7235   0.7312   0.7361
  0.7449   0.7599   0.7690   0.7887   0.7970   0.8087   0.8122   0.8493
  0.8613   0.8802   0.8885   0.9075   0.9136   0.9335   0.9547   0.9642
  0.9941   1.0290   1.0354   1.0593   1.0760   1.0825   1.0923   1.1027
  1.1052   1.1204   1.1343   1.1420   1.1479   1.1575   1.1756   1.1819
  1.1907   1.1952   1.2006   1.2034   1.2157   1.2260   1.2404   1.2428
  1.2592   1.2700   1.2722   1.2860   1.2957   1.3039   1.3246   1.3335
  1.3463   1.3610   1.3688   1.3813   1.3882   1.4249   1.4299   1.4419
  1.4438   1.4543   1.4678   1.4836   1.4905   1.5102   1.5173   1.5399
  1.5419   1.5547   1.5671   1.5783   1.5826   1.6154   1.6272   1.6365
  1.6483   1.6611   1.6708   1.6832   1.6935   1.7148   1.7590   1.7712
  1.7793   1.7971   1.8082   1.8524   1.9179   1.9345   1.9618   1.9791
  1.9965   2.0197   2.0560   2.0824   2.1120   2.1655   2.1724   2.1909
  2.2089   2.2428   2.2515   2.2887   2.3145   2.3249   2.3470   2.3633
  2.4048   2.4095   2.4208   2.4758   2.5128   2.5430   2.5486   2.5502
  2.6058   2.6331   2.6625   2.7272   2.7353   2.7674   2.8086   2.8328
  2.8573   2.8839   2.9074   2.9357   2.9448   2.9636   2.9906   3.0165
  3.0206   3.0307   3.0745   3.0900   3.1044   3.1318   3.1625   3.1803
  3.2067   3.2354   3.2386   3.2779   3.2910   3.3250   3.3351   3.3523
  3.3847   3.4014   3.4105   3.4304   3.4453   3.4588   3.4785   3.4952
  3.5116   3.5314   3.5555   3.5657   3.5798   3.6066   3.6414   3.6595
  3.6707   3.6785   3.7001   3.7044   3.7148   3.7532   3.7623   3.7801
  3.8047   3.8314   3.8444   3.8526   3.8630   3.9088   3.9132   3.9162
  3.9277   3.9426   3.9531   3.9726   4.0072   4.0287   4.0707   4.0981
  4.1495   4.1776   4.1873   4.2108   4.2230   4.2401   4.2461   4.2749
  4.2860   4.2960   4.3116   4.3723   4.3935   4.3997   4.4346   4.4468
  4.4620   4.4835   4.4947   4.5295   4.5518   4.5592   4.5755   4.6314
  4.6453   4.6930   4.7208   4.7467   4.7560   4.8159   4.8428   4.9255
  4.9330   5.0323   5.0452   5.0912   5.0999   5.1082   5.1726   5.1941
  5.2220   5.2388   5.2598   5.2649   5.2712   5.2852   5.2912   5.3035
  5.3334   5.3452   5.3499   5.3590   5.3845   5.3882   5.3928   5.4127
  5.4265   5.4348   5.4481   5.4789   5.5150   5.5288   5.5559   5.5901
  5.6102   5.6150   5.6282   5.6342   5.6496   5.6666   5.6902   5.7083
  5.7228   5.7633   5.7835   5.8082   5.8287   5.8543   5.9065   5.9673
  5.9713   6.0127   6.1029   6.1569   6.1825   6.3890   6.4891   6.5889
  6.5981   6.6285   6.6587   6.7440   6.8435   6.9007   6.9863   7.0827
  7.0996   7.1120   7.1256   7.1406   7.1863   7.2180   7.2340   7.2651
  7.2914   7.3116   7.3393   7.3658   7.3712   7.3927   7.4125   7.4400
  7.4555   7.4621   7.4908   7.5115   7.5998   7.6704   7.6990   7.7537
  7.7931   7.8085   7.8554   7.8871   7.9024   8.0355   8.1108  24.5950
 24.7203  24.7739  24.8370  25.2405  50.4409  50.5459  50.6000  50.6195
 50.6780  50.7687
 
 Beta MOs
 -- Occupied --
-19.4413 -19.3882 -19.3359 -19.3274 -19.3265 -19.2839 -10.4403 -10.3991
-10.3912 -10.3742 -10.3062  -1.3045  -1.1943  -1.1543  -1.1198  -1.1044
 -0.9781  -0.8746  -0.8320  -0.7897  -0.7273  -0.6497  -0.6405  -0.6332
 -0.6063  -0.6003  -0.5810  -0.5712  -0.5608  -0.5326  -0.5136  -0.4948
 -0.4921  -0.4822  -0.4699  -0.4574  -0.4308  -0.4051  -0.3970  -0.3843
 -0.3731  -0.3480  -0.2960
 -- Virtual --
 -0.0231   0.0286   0.0407   0.0452   0.0509   0.0609   0.0665   0.0744
  0.0825   0.1016   0.1066   0.1104   0.1150   0.1283   0.1301   0.1410
  0.1480   0.1560   0.1631   0.1664   0.1687   0.1757   0.1864   0.1903
  0.1919   0.1966   0.2052   0.2127   0.2231   0.2277   0.2416   0.2521
  0.2576   0.2685   0.2718   0.2776   0.2831   0.2914   0.2969   0.3037
  0.3119   0.3155   0.3192   0.3235   0.3264   0.3376   0.3449   0.3480
  0.3529   0.3573   0.3612   0.3708   0.3745   0.3782   0.3850   0.3904
  0.3939   0.3980   0.4034   0.4114   0.4206   0.4287   0.4360   0.4462
  0.4492   0.4678   0.4708   0.5036   0.5129   0.5259   0.5385   0.5557
  0.5766   0.5969   0.6098   0.6133   0.6279   0.6330   0.6471   0.6542
  0.6621   0.6666   0.6765   0.6881   0.7001   0.7146   0.7242   0.7313
  0.7364   0.7456   0.7601   0.7695   0.7895   0.7988   0.8088   0.8129
  0.8496   0.8617   0.8806   0.8897   0.9081   0.9138   0.9338   0.9551
  0.9651   0.9945   1.0305   1.0381   1.0605   1.0767   1.0834   1.0930
  1.1041   1.1101   1.1214   1.1367   1.1441   1.1498   1.1673   1.1776
  1.1851   1.1937   1.2010   1.2045   1.2096   1.2214   1.2340   1.2411
  1.2477   1.2635   1.2712   1.2782   1.2901   1.2969   1.3062   1.3253
  1.3346   1.3469   1.3618   1.3714   1.3833   1.3896   1.4260   1.4309
  1.4433   1.4456   1.4564   1.4695   1.4855   1.4929   1.5107   1.5179
  1.5427   1.5513   1.5581   1.5680   1.5795   1.5861   1.6208   1.6299
  1.6403   1.6512   1.6669   1.6792   1.6963   1.7046   1.7194   1.7668
  1.7737   1.7838   1.7989   1.8112   1.8590   1.9189   1.9379   1.9628
  1.9822   1.9978   2.0254   2.0589   2.0865   2.1150   2.1702   2.1733
  2.1913   2.2122   2.2456   2.2547   2.2974   2.3202   2.3346   2.3505
  2.3659   2.4085   2.4112   2.4235   2.4780   2.5134   2.5440   2.5493
  2.5507   2.6067   2.6336   2.6663   2.7293   2.7391   2.7682   2.8096
  2.8330   2.8580   2.8842   2.9074   2.9362   2.9449   2.9642   2.9908
  3.0166   3.0209   3.0310   3.0749   3.0907   3.1049   3.1319   3.1630
  3.1804   3.2070   3.2358   3.2392   3.2782   3.2911   3.3255   3.3356
  3.3524   3.3852   3.4015   3.4109   3.4307   3.4457   3.4591   3.4787
  3.4954   3.5121   3.5316   3.5556   3.5662   3.5801   3.6068   3.6417
  3.6597   3.6708   3.6791   3.7010   3.7048   3.7150   3.7535   3.7628
  3.7802   3.8048   3.8319   3.8446   3.8529   3.8633   3.9090   3.9135
  3.9168   3.9281   3.9427   3.9534   3.9728   4.0076   4.0289   4.0709
  4.0983   4.1499   4.1778   4.1879   4.2113   4.2236   4.2408   4.2463
  4.2755   4.2863   4.2960   4.3119   4.3734   4.3939   4.4002   4.4349
  4.4471   4.4628   4.4851   4.4955   4.5301   4.5545   4.5611   4.5851
  4.6356   4.6543   4.7037   4.7247   4.7529   4.7685   4.8170   4.8471
  4.9352   4.9528   5.0449   5.0503   5.1447   5.1463   5.1738   5.2037
  5.2085   5.2279   5.2619   5.2683   5.2746   5.2855   5.2904   5.3051
  5.3202   5.3343   5.3463   5.3546   5.3596   5.3865   5.3895   5.3942
  5.4250   5.4346   5.4470   5.4532   5.4803   5.5241   5.5365   5.5592
  5.5939   5.6136   5.6185   5.6287   5.6362   5.6507   5.6677   5.6908
  5.7091   5.7322   5.7685   5.7920   5.8130   5.8381   5.8550   5.9066
  5.9687   5.9714   6.0128   6.1042   6.1573   6.1831   6.4033   6.5337
  6.5950   6.5999   6.6315   6.6635   6.7449   6.9249   6.9781   7.0451
  7.0842   7.0998   7.1227   7.1408   7.1560   7.1958   7.2272   7.2538
  7.2820   7.2934   7.3182   7.3458   7.3676   7.3804   7.3962   7.4330
  7.4500   7.4592   7.4840   7.5010   7.5181   7.5999   7.6712   7.6992
  7.7540   7.7948   7.8201   7.8559   7.8876   7.9026   8.0490   8.1308
 24.5949  24.7202  24.7739  24.8371  25.2405  50.4533  50.5552  50.6000
 50.6201  50.6782  50.7688
 --------------------------------------------------------------
 
          Ground-State Mulliken Net Atomic Charges

     Atom                 Charge (a.u.)    Spin (a.u.)
  --------------------------------------------------------
      1 O                    -0.466725      -0.000037
      2 C                    -0.504431      -0.000423
      3 C                     0.153099       0.000869
      4 O                    -0.727415      -0.000198
      5 C                     0.025142       0.001857
      6 C                    -0.409323      -0.007452
      7 C                    -0.283003       0.012342
      8 O                    -0.420326       0.002389
      9 O                    -0.474381       0.001958
     10 H                     0.343043       0.000018
     11 H                     0.198120       0.000175
     12 H                     0.180634      -0.000165
     13 H                     0.278505      -0.001015
     14 H                     0.295985       0.005183
     15 H                     0.265041      -0.000447
     16 H                     0.344959      -0.000065
     17 H                     0.382765      -0.000199
     18 O                     0.072939       0.340591
     19 O                    -0.254628       0.644618
  --------------------------------------------------------
  Sum of atomic charges =    -1.000000
  Sum of spin   charges =     1.000000

 -----------------------------------------------------------------
                    Cartesian Multipole Moments
 -----------------------------------------------------------------
    Charge (ESU x 10^10)
                -4.8032
    Dipole Moment (Debye)
         X     -15.7996      Y      -8.1437      Z     -11.3220
       Tot      21.0745
    Quadrupole Moments (Debye-Ang)
        XX    -145.1049     XY     -30.7101     YY     -90.2063
        XZ     -51.1875     YZ     -23.7480     ZZ    -106.9432
    Octopole Moments (Debye-Ang^2)
       XXX   -1217.7767    XXY    -241.0603    XYY    -321.1745
       YYY    -396.5197    XXZ    -377.1409    XYZ     -90.7135
       YYZ    -174.0590    XZZ    -411.0718    YZZ    -182.4449
       ZZZ    -481.0698
    Hexadecapole Moments (Debye-Ang^3)
      XXXX   -9858.0952   XXXY   -2118.3341   XXYY   -1660.1828
      XYYY   -1581.2343   YYYY   -1963.9254   XXXZ   -3039.2653
      XXYZ    -677.3501   XYYZ    -689.8214   YYYZ    -936.7703
      XXZZ   -2225.3316   XYZZ    -741.3509   YYZZ    -750.7872
      XZZZ   -2044.0525   YZZZ   -1015.6109   ZZZZ   -2325.5484
 -----------------------------------------------------------------
 Calculating analytic gradient of the SCF energy
 Gradient of CDS energy
            1           2           3           4           5           6
    1   0.0001178  -0.0002029  -0.0014087   0.0012946   0.0002016   0.0001344
    2   0.0000551  -0.0008275   0.0007185  -0.0006207  -0.0000228   0.0000058
    3   0.0000131  -0.0007435   0.0016414  -0.0012989  -0.0001448   0.0000567
            7           8           9          10          11          12
    1  -0.0023211   0.0013111   0.0011950  -0.0004559   0.0001287  -0.0000047
    2  -0.0002429  -0.0010820   0.0017169   0.0000670   0.0001593  -0.0000317
    3   0.0016945   0.0007097  -0.0021733   0.0000434  -0.0000321   0.0001890
           13          14          15          16          17          18
    1   0.0000454   0.0001527   0.0002165  -0.0003092  -0.0001493   0.0000242
    2  -0.0000666   0.0001154  -0.0000186   0.0002229  -0.0001909   0.0000729
    3  -0.0001555  -0.0000592   0.0000332  -0.0001174   0.0002681   0.0000899
           19
    1   0.0000297
    2  -0.0000300
    3  -0.0000144
 Gradient of SCF Energy
            1           2           3           4           5           6
    1  -0.0270184   0.0417746   0.0391541  -0.0098325  -0.0371790   0.0401856
    2   0.0169876  -0.0348553   0.0051722  -0.0006340  -0.0079584   0.0052813
    3   0.0122361  -0.0009302  -0.0049090   0.0074024  -0.0129483  -0.0449807
            7           8           9          10          11          12
    1   0.0150119  -0.0294667  -0.0250178   0.0099187  -0.0105678  -0.0048767
    2   0.0387054  -0.0055286  -0.0231140  -0.0135161   0.0002709   0.0224557
    3   0.0245646  -0.0115628   0.0012794  -0.0202823   0.0210028  -0.0118313
           13          14          15          16          17          18
    1  -0.0133077  -0.0131168  -0.0216225   0.0218513   0.0221216   0.0056199
    2   0.0095376  -0.0218307  -0.0208590   0.0167442   0.0156699  -0.0016333
    3   0.0188529   0.0164320  -0.0171517   0.0089037   0.0089749   0.0076437
           19
    1  -0.0036318
    2  -0.0008954
    3  -0.0026961
 Max gradient component =       4.498E-02
 RMS gradient           =       1.968E-02
 Computing fast CPCM-SWIG gradient
 Updating gradient with PCM contributions...
 -- total gradient after adding PCM contribution --
---------------------------------------------------
  Atom         X              Y              Z     
---------------------------------------------------
   1      -0.000016       0.000013       0.000044
   2       0.000057      -0.000005      -0.000024
   3      -0.000067       0.000003       0.000050
   4       0.000018      -0.000031      -0.000059
   5       0.000062       0.000013      -0.000015
   6      -0.000137       0.000028      -0.000089
   7       0.000013      -0.000025       0.000027
   8      -0.000009      -0.000036      -0.000000
   9       0.000009       0.000041      -0.000021
  10      -0.000038       0.000008       0.000001
  11       0.000028       0.000002       0.000010
  12      -0.000004      -0.000000       0.000001
  13      -0.000012       0.000004       0.000000
  14       0.000015      -0.000016       0.000018
  15      -0.000000       0.000002       0.000005
  16       0.000020       0.000010      -0.000003
  17       0.000001       0.000008      -0.000024
  18       0.000068      -0.000015       0.000064
  19      -0.000009      -0.000003       0.000014
---------------------------------------------------
 Number of fixed atoms: 0
 Gradient time:  CPU 392.88 s  wall 32.30 s
 ######################################################
 ######################################################
 # Starting finite difference calculation for IDERIV  #
 Finite diff step size:  1.88973e-03 a.u.
 ----------------------------------------------------------------
             Standard Nuclear Orientation (Angstroms)
    I     Atom           X                Y                Z
 ----------------------------------------------------------------
    1      O       0.9294835487    -0.0596839701    -0.1810431746
    2      C       2.3131923298    -0.2921500952     0.0621415644
    3      C       2.8637295024     0.7711457937     0.9956251965
    4      O       2.0083076093     1.1789315408     1.8919043832
    5      C       4.1461527359     1.1891703249     0.8301371856
    6      C       4.8916442740     2.1547542609     1.6697487777
    7      C       4.1453428704     2.9311834769     2.7597746330
    8      O       3.1419828317     3.7283505460     2.1701729729
    9      O       3.6238834205     2.0919120124     3.7599017685
   10      H       0.6195941290     0.3948848129     0.6184630810
   11      H       2.8371004326    -0.2988503543    -0.8908679145
   12      H       2.4466469469    -1.2698376979     0.5377011511
   13      H       4.6919049552     0.7971134587    -0.0187298086
   14      H       5.4495997917     2.8711160488     1.0676099234
   15      H       4.8474288515     3.6065047926     3.2436745105
   16      H       2.4735273355     3.0974834859     1.8460025851
   17      H       2.9366336873     1.5606830351     3.2917458927
   18      O       5.9621452258     1.3862348965     2.3812031522
   19      O       6.9640896214     2.1407573313     2.7310731201
 ----------------------------------------------------------------
 Nuclear Repulsion Energy =         666.17810541 hartrees
 There are       44 alpha and       43 beta electrons
 Discretize the solute cavity surface with Lebedev spheres
	Using 110 Lebedev grid points for each H atom
	Using 194 Lebedev grid points for other atoms
	Atomic van der Waals radii will be scaled by 1.20
 Remove points where switching function is < 1.0e-08
 Keep 1451 surface tesserae and discard 1563 interior tesserae
 Molecular Surface Area = 165.529 Angst**2
 Requested basis set is 6-311++G(2df,2p)
 There are 136 shells and 454 basis functions
 A cutoff of  1.0D-12 yielded   8012 shell pairs
 There are     88491 function pairs (    110355 Cartesian)
 Smallest overlap matrix eigenvalue = 3.70E-06
 Guess MOs from SCF MO coefficient file

 -----------------------------------------------------------------------
  General SCF calculation program by
  Eric Jon Sundstrom, Paul Horn, Yuezhi Mao, Dmitri Zuev, Alec White,
  David Stuck, Shaama M.S., Shane Yost, Joonho Lee, David Small,
  Daniel Levine, Susi Lehtola, Hugh Burton, Evgeny Epifanovsky,
  Bang C. Huynh
 -----------------------------------------------------------------------
 Exchange:     0.1500 Hartree-Fock + 1.0000 wB97M-V + LR-HF
 Correlation:  1.0000 wB97M-V
 Using SG-2 standard quadrature grid
 Nonlocal Correlation:  VV10 with C = 0.0100 and b = 6.00 and scale = 1.00000
 Grid used for NLC:  SG-1 standard quadrature
 
 Citation of the SMD model:
 Marenich, A.V.; Cramer, C.J.; Truhlar, D.G.
 J. Phys. Chem. B 2009, 113, 6378-6396.
 iSolventCode=           1
 Solvent: water                                                           
 
 vradii
            1           2           3           4           5           6
    1   1.5200000   1.8500000   1.8500000   1.5200000   1.8500000   1.8500000
            7           8           9          10          11          12
    1   1.8500000   1.5200000   1.5200000   1.2000000   1.2000000   1.2000000
           13          14          15          16          17          18
    1   1.2000000   1.2000000   1.2000000   1.2000000   1.2000000   1.5200000
           19
    1   1.5200000
 -------------------------------------------------------
 OpenMP BLAS3 based DFT computing Module                
 Release: version 1.0, May 2013, Q-Chem Inc. Pittsburgh 
 -------------------------------------------------------
 A unrestricted SCF calculation will be
 performed using Roothaan-Hall, DIIS, GDM
 SCF converges when RMS gradient is below 1.0e-07
 ---------------------------------------
  Cycle       Energy         DIIS error
 ---------------------------------------
    1    -646.6335206468      1.52e-04  Roothaan Step
 ---------------------------------------
  Cycle       Energy         DIIS error
 ---------------------------------------
    1    -646.7239484795      1.62e-04  
    2    -646.7271570130      1.43e-04  Done DIIS. Switching to GDM
 ---------------------------------------
  Cycle       Energy        RMS Gradient
 ---------------------------------------
    1    -646.7271570130      5.23e-03   Normal BFGS step
    2    -646.7269788822      7.04e-03  Line search: overstep
    3    -646.7285427603      1.08e-03   Normal BFGS step
    4    -646.7286506687      4.41e-04   Normal BFGS step
    5    -646.7286698334      5.58e-04   Normal BFGS step
    6    -646.7286743065      2.00e-04   Normal BFGS step
    7    -646.7286749191      1.42e-04   Normal BFGS step
    8    -646.7286750945      4.66e-05   Normal BFGS step
    9    -646.7286751217      2.78e-05   Normal BFGS step
   10    -646.7286751347      1.43e-05   Normal BFGS step
   11    -646.7286751366      7.35e-06   Normal BFGS step
   12    -646.7286751374      6.24e-06   Normal BFGS step
   13    -646.7286751377      5.76e-06   Normal BFGS step
   14    -646.7286751378      4.74e-06   Normal BFGS step
   15    -646.7286751379      3.32e-06   Normal BFGS step
   16    -646.7286751379      1.87e-06   Normal BFGS step
   17    -646.7286751380      1.07e-06   Normal BFGS step
   18    -646.7286751380      1.91e-07   Normal BFGS step
   19    -646.7286751380      4.97e-08  Convergence criterion met
 ---------------------------------------
 SCF time:   CPU 2960.16s  wall 204.00s 
<S^2> =          0.754186959
(3)  G-ENP(liq) elect-nuc-pol free energy of system     -646.728675138 a.u.
(4)  G-CDS(liq) cavity-dispersion-solvent structure 
     free energy                                                2.9236 kcal/mol
(6)  G-S(liq) free energy of system                     -646.724016076 a.u.
 SCF   energy in the final basis set =     -646.7240160762
 Total energy in the final basis set =     -646.7240160762
 
 --------------------------------------------------------------
 
                    Orbital Energies (a.u.)
 --------------------------------------------------------------
 
 Alpha MOs
 -- Occupied --
-19.4525 -19.4062 -19.3359 -19.3274 -19.3265 -19.2839 -10.4406 -10.3987
-10.3911 -10.3741 -10.3062  -1.3313  -1.1946  -1.1544  -1.1200  -1.1045
 -1.0057  -0.8826  -0.8373  -0.7904  -0.7310  -0.6540  -0.6515  -0.6383
 -0.6187  -0.6071  -0.5959  -0.5808  -0.5624  -0.5582  -0.5217  -0.5089
 -0.4929  -0.4854  -0.4709  -0.4580  -0.4318  -0.4170  -0.4002  -0.3961
 -0.3868  -0.3714  -0.3483  -0.2965
 -- Virtual --
  0.0285   0.0406   0.0450   0.0506   0.0605   0.0662   0.0742   0.0821
  0.1003   0.1056   0.1094   0.1148   0.1274   0.1296   0.1406   0.1476
  0.1554   0.1629   0.1656   0.1683   0.1752   0.1860   0.1896   0.1910
  0.1963   0.2052   0.2108   0.2215   0.2255   0.2396   0.2509   0.2574
  0.2678   0.2707   0.2751   0.2767   0.2888   0.2963   0.3006   0.3101
  0.3149   0.3182   0.3229   0.3256   0.3363   0.3443   0.3466   0.3522
  0.3549   0.3609   0.3705   0.3722   0.3778   0.3840   0.3901   0.3932
  0.3972   0.4020   0.4106   0.4200   0.4281   0.4354   0.4449   0.4486
  0.4670   0.4696   0.5033   0.5123   0.5256   0.5380   0.5554   0.5766
  0.5963   0.6096   0.6132   0.6275   0.6329   0.6459   0.6539   0.6619
  0.6664   0.6762   0.6879   0.7000   0.7145   0.7236   0.7312   0.7361
  0.7449   0.7600   0.7690   0.7887   0.7970   0.8087   0.8122   0.8493
  0.8613   0.8802   0.8885   0.9075   0.9136   0.9335   0.9547   0.9642
  0.9941   1.0289   1.0354   1.0593   1.0761   1.0825   1.0923   1.1027
  1.1052   1.1204   1.1343   1.1420   1.1480   1.1575   1.1756   1.1819
  1.1907   1.1952   1.2006   1.2035   1.2157   1.2260   1.2404   1.2428
  1.2592   1.2700   1.2722   1.2860   1.2958   1.3038   1.3247   1.3336
  1.3463   1.3610   1.3688   1.3813   1.3882   1.4250   1.4299   1.4419
  1.4438   1.4543   1.4679   1.4836   1.4905   1.5102   1.5173   1.5399
  1.5419   1.5547   1.5671   1.5783   1.5826   1.6154   1.6272   1.6365
  1.6483   1.6611   1.6708   1.6833   1.6935   1.7148   1.7590   1.7712
  1.7793   1.7971   1.8083   1.8525   1.9179   1.9345   1.9618   1.9791
  1.9965   2.0197   2.0560   2.0824   2.1121   2.1656   2.1725   2.1909
  2.2092   2.2429   2.2515   2.2889   2.3146   2.3249   2.3470   2.3637
  2.4048   2.4096   2.4208   2.4758   2.5128   2.5430   2.5485   2.5504
  2.6058   2.6331   2.6625   2.7272   2.7354   2.7674   2.8087   2.8329
  2.8574   2.8839   2.9074   2.9357   2.9448   2.9636   2.9906   3.0166
  3.0206   3.0308   3.0745   3.0901   3.1045   3.1319   3.1625   3.1804
  3.2067   3.2355   3.2386   3.2780   3.2912   3.3250   3.3352   3.3525
  3.3849   3.4016   3.4105   3.4304   3.4454   3.4590   3.4785   3.4952
  3.5117   3.5314   3.5556   3.5657   3.5799   3.6067   3.6414   3.6595
  3.6706   3.6786   3.7001   3.7045   3.7149   3.7533   3.7623   3.7803
  3.8049   3.8315   3.8445   3.8526   3.8630   3.9088   3.9133   3.9162
  3.9278   3.9427   3.9531   3.9726   4.0072   4.0287   4.0708   4.0981
  4.1495   4.1776   4.1874   4.2108   4.2231   4.2402   4.2461   4.2749
  4.2858   4.2962   4.3113   4.3723   4.3936   4.3998   4.4347   4.4469
  4.4620   4.4835   4.4947   4.5296   4.5518   4.5592   4.5756   4.6314
  4.6453   4.6930   4.7208   4.7467   4.7559   4.8159   4.8428   4.9255
  4.9330   5.0323   5.0452   5.0912   5.0999   5.1082   5.1726   5.1941
  5.2220   5.2388   5.2599   5.2649   5.2713   5.2852   5.2912   5.3036
  5.3334   5.3452   5.3498   5.3590   5.3845   5.3882   5.3930   5.4127
  5.4266   5.4351   5.4484   5.4789   5.5150   5.5288   5.5559   5.5902
  5.6101   5.6151   5.6283   5.6343   5.6497   5.6666   5.6902   5.7083
  5.7228   5.7633   5.7835   5.8082   5.8287   5.8543   5.9073   5.9673
  5.9721   6.0144   6.1029   6.1569   6.1826   6.3890   6.4891   6.5891
  6.6005   6.6287   6.6589   6.7440   6.8435   6.9007   6.9863   7.0827
  7.0996   7.1120   7.1256   7.1406   7.1863   7.2179   7.2340   7.2650
  7.2914   7.3111   7.3388   7.3661   7.3714   7.3928   7.4125   7.4400
  7.4555   7.4620   7.4908   7.5115   7.6007   7.6704   7.6990   7.7538
  7.7933   7.8085   7.8554   7.8871   7.9025   8.0355   8.1108  24.5950
 24.7204  24.7754  24.8370  25.2406  50.4409  50.5459  50.6002  50.6195
 50.6780  50.7687
 
 Beta MOs
 -- Occupied --
-19.4413 -19.3882 -19.3359 -19.3274 -19.3265 -19.2839 -10.4402 -10.3991
-10.3912 -10.3741 -10.3062  -1.3045  -1.1943  -1.1544  -1.1198  -1.1045
 -0.9781  -0.8745  -0.8320  -0.7897  -0.7273  -0.6498  -0.6405  -0.6332
 -0.6063  -0.6003  -0.5811  -0.5712  -0.5609  -0.5327  -0.5136  -0.4948
 -0.4921  -0.4822  -0.4698  -0.4574  -0.4308  -0.4051  -0.3970  -0.3842
 -0.3731  -0.3480  -0.2960
 -- Virtual --
 -0.0231   0.0286   0.0407   0.0452   0.0509   0.0609   0.0665   0.0744
  0.0825   0.1016   0.1066   0.1104   0.1150   0.1283   0.1301   0.1410
  0.1480   0.1560   0.1631   0.1664   0.1687   0.1757   0.1864   0.1903
  0.1919   0.1966   0.2052   0.2127   0.2231   0.2277   0.2416   0.2521
  0.2576   0.2685   0.2718   0.2777   0.2831   0.2914   0.2969   0.3037
  0.3119   0.3156   0.3193   0.3236   0.3264   0.3376   0.3450   0.3480
  0.3529   0.3574   0.3613   0.3709   0.3745   0.3782   0.3851   0.3905
  0.3939   0.3980   0.4034   0.4114   0.4206   0.4287   0.4360   0.4462
  0.4493   0.4678   0.4708   0.5036   0.5129   0.5259   0.5385   0.5557
  0.5767   0.5969   0.6098   0.6133   0.6279   0.6330   0.6471   0.6542
  0.6622   0.6666   0.6766   0.6881   0.7002   0.7147   0.7242   0.7313
  0.7364   0.7456   0.7602   0.7695   0.7896   0.7988   0.8088   0.8129
  0.8495   0.8617   0.8806   0.8897   0.9081   0.9138   0.9338   0.9551
  0.9651   0.9945   1.0305   1.0381   1.0605   1.0767   1.0834   1.0930
  1.1041   1.1101   1.1214   1.1367   1.1441   1.1498   1.1673   1.1776
  1.1851   1.1937   1.2010   1.2045   1.2096   1.2214   1.2340   1.2411
  1.2477   1.2635   1.2713   1.2783   1.2901   1.2970   1.3061   1.3254
  1.3347   1.3469   1.3618   1.3714   1.3833   1.3897   1.4260   1.4310
  1.4433   1.4457   1.4564   1.4695   1.4855   1.4929   1.5107   1.5179
  1.5426   1.5513   1.5581   1.5681   1.5795   1.5861   1.6208   1.6299
  1.6402   1.6511   1.6669   1.6793   1.6963   1.7046   1.7194   1.7668
  1.7737   1.7837   1.7989   1.8112   1.8590   1.9189   1.9379   1.9628
  1.9822   1.9978   2.0254   2.0590   2.0866   2.1151   2.1703   2.1734
  2.1913   2.2125   2.2457   2.2547   2.2975   2.3204   2.3346   2.3505
  2.3663   2.4086   2.4113   2.4236   2.4780   2.5135   2.5441   2.5493
  2.5509   2.6066   2.6336   2.6664   2.7294   2.7391   2.7683   2.8096
  2.8330   2.8580   2.8842   2.9075   2.9363   2.9449   2.9642   2.9908
  3.0166   3.0210   3.0311   3.0749   3.0908   3.1049   3.1321   3.1630
  3.1805   3.2070   3.2358   3.2392   3.2783   3.2913   3.3256   3.3357
  3.3526   3.3853   3.4018   3.4110   3.4307   3.4457   3.4592   3.4787
  3.4954   3.5122   3.5316   3.5557   3.5663   3.5801   3.6069   3.6417
  3.6597   3.6707   3.6792   3.7010   3.7049   3.7151   3.7535   3.7628
  3.7804   3.8049   3.8320   3.8448   3.8530   3.8633   3.9091   3.9136
  3.9168   3.9282   3.9427   3.9534   3.9728   4.0076   4.0289   4.0709
  4.0983   4.1499   4.1778   4.1880   4.2113   4.2236   4.2408   4.2463
  4.2755   4.2861   4.2962   4.3116   4.3734   4.3941   4.4002   4.4350
  4.4471   4.4629   4.4852   4.4955   4.5301   4.5545   4.5611   4.5851
  4.6356   4.6543   4.7037   4.7247   4.7529   4.7685   4.8170   4.8471
  4.9352   4.9528   5.0449   5.0503   5.1447   5.1463   5.1738   5.2037
  5.2085   5.2279   5.2619   5.2684   5.2746   5.2856   5.2904   5.3051
  5.3202   5.3343   5.3463   5.3546   5.3596   5.3865   5.3895   5.3944
  5.4251   5.4348   5.4473   5.4532   5.4803   5.5241   5.5365   5.5592
  5.5939   5.6136   5.6185   5.6288   5.6363   5.6508   5.6677   5.6907
  5.7091   5.7322   5.7685   5.7920   5.8130   5.8382   5.8550   5.9074
  5.9688   5.9722   6.0145   6.1042   6.1574   6.1831   6.4033   6.5337
  6.5959   6.6015   6.6316   6.6637   6.7450   6.9249   6.9781   7.0451
  7.0842   7.0999   7.1227   7.1408   7.1560   7.1958   7.2271   7.2537
  7.2818   7.2934   7.3176   7.3454   7.3681   7.3805   7.3963   7.4330
  7.4499   7.4592   7.4840   7.5010   7.5181   7.6008   7.6712   7.6992
  7.7540   7.7950   7.8201   7.8559   7.8876   7.9026   8.0490   8.1308
 24.5950  24.7202  24.7754  24.8372  25.2405  50.4533  50.5552  50.6003
 50.6201  50.6782  50.7688
 --------------------------------------------------------------
 
          Ground-State Mulliken Net Atomic Charges

     Atom                 Charge (a.u.)    Spin (a.u.)
  --------------------------------------------------------
      1 O                    -0.466423      -0.000037
      2 C                    -0.504329      -0.000423
      3 C                     0.152913       0.000870
      4 O                    -0.727493      -0.000197
      5 C                     0.025152       0.001857
      6 C                    -0.409301      -0.007452
      7 C                    -0.283014       0.012342
      8 O                    -0.420336       0.002389
      9 O                    -0.474386       0.001958
     10 H                     0.343161       0.000018
     11 H                     0.198060       0.000175
     12 H                     0.180460      -0.000165
     13 H                     0.278487      -0.001015
     14 H                     0.295979       0.005183
     15 H                     0.265038      -0.000447
     16 H                     0.344965      -0.000065
     17 H                     0.382768      -0.000199
     18 O                     0.072940       0.340595
     19 O                    -0.254641       0.644613
  --------------------------------------------------------
  Sum of atomic charges =    -1.000000
  Sum of spin   charges =     1.000000

 -----------------------------------------------------------------
                    Cartesian Multipole Moments
 -----------------------------------------------------------------
    Charge (ESU x 10^10)
                -4.8032
    Dipole Moment (Debye)
         X     -15.8061      Y      -8.1435      Z     -11.3226
       Tot      21.0796
    Quadrupole Moments (Debye-Ang)
        XX    -145.1274     XY     -30.7103     YY     -90.2087
        XZ     -51.1899     YZ     -23.7489     ZZ    -106.9448
    Octopole Moments (Debye-Ang^2)
       XXX   -1217.8848    XXY    -241.0687    XYY    -321.1936
       YYY    -396.5231    XXZ    -377.1548    XYZ     -90.7174
       YYZ    -174.0635    XZZ    -411.0871    YZZ    -182.4470
       ZZZ    -481.0748
    Hexadecapole Moments (Debye-Ang^3)
      XXXX   -9858.5924   XXXY   -2118.4043   XXYY   -1660.2541
      XYYY   -1581.2515   YYYY   -1963.9512   XXXZ   -3039.3452
      XXYZ    -677.3753   XYYZ    -689.8385   YYYZ    -936.7793
      XXZZ   -2225.3903   XYZZ    -741.3624   YYZZ    -750.7978
      XZZZ   -2044.0699   YZZZ   -1015.6202   ZZZZ   -2325.5660
 -----------------------------------------------------------------
 Calculating analytic gradient of the SCF energy
 Gradient of CDS energy
            1           2           3           4           5           6
    1   0.0001183  -0.0002029  -0.0014087   0.0012946   0.0002016   0.0001344
    2   0.0000554  -0.0008277   0.0007185  -0.0006207  -0.0000228   0.0000058
    3   0.0000133  -0.0007430   0.0016413  -0.0012989  -0.0001448   0.0000567
            7           8           9          10          11          12
    1  -0.0023211   0.0013111   0.0011950  -0.0004560   0.0001284  -0.0000048
    2  -0.0002429  -0.0010820   0.0017169   0.0000668   0.0001594  -0.0000318
    3   0.0016945   0.0007097  -0.0021733   0.0000431  -0.0000324   0.0001890
           13          14          15          16          17          18
    1   0.0000454   0.0001527   0.0002165  -0.0003092  -0.0001493   0.0000242
    2  -0.0000666   0.0001154  -0.0000186   0.0002229  -0.0001909   0.0000729
    3  -0.0001555  -0.0000592   0.0000332  -0.0001174   0.0002681   0.0000899
           19
    1   0.0000297
    2  -0.0000300
    3  -0.0000144
 Gradient of SCF Energy
            1           2           3           4           5           6
    1  -0.0264244   0.0414248   0.0390984  -0.0098238  -0.0371803   0.0401959
    2   0.0167843  -0.0348392   0.0051756  -0.0006321  -0.0079595   0.0052813
    3   0.0120860  -0.0010007  -0.0049163   0.0074064  -0.0129692  -0.0449795
            7           8           9          10          11          12
    1   0.0150120  -0.0294672  -0.0250180   0.0098018  -0.0106078  -0.0049128
    2   0.0387101  -0.0055296  -0.0231166  -0.0133675   0.0002786   0.0224783
    3   0.0245675  -0.0115642   0.0012777  -0.0200338   0.0210017  -0.0118454
           13          14          15          16          17          18
    1  -0.0133126  -0.0131202  -0.0216247   0.0218506   0.0221210   0.0056207
    2   0.0095432  -0.0218347  -0.0208608   0.0167454   0.0156724  -0.0016335
    3   0.0188582   0.0164347  -0.0171532   0.0089054   0.0089775   0.0076446
           19
    1  -0.0036335
    2  -0.0008957
    3  -0.0026973
 Max gradient component =       4.498E-02
 RMS gradient           =       1.964E-02
 Computing fast CPCM-SWIG gradient
 Updating gradient with PCM contributions...
 -- total gradient after adding PCM contribution --
---------------------------------------------------
  Atom         X              Y              Z     
---------------------------------------------------
   1       0.000694      -0.000199      -0.000062
   2      -0.000334       0.000030      -0.000108
   3      -0.000137       0.000010       0.000034
   4       0.000022      -0.000030      -0.000051
   5       0.000059       0.000003      -0.000028
   6      -0.000136       0.000026      -0.000084
   7       0.000012      -0.000025       0.000028
   8      -0.000009      -0.000036      -0.000001
   9       0.000010       0.000041      -0.000021
  10      -0.000187       0.000157       0.000235
  11      -0.000027       0.000010       0.000001
  12      -0.000048       0.000022      -0.000016
  13      -0.000012       0.000006      -0.000000
  14       0.000014      -0.000017       0.000016
  15      -0.000000       0.000002       0.000004
  16       0.000020       0.000010      -0.000002
  17       0.000000       0.000008      -0.000024
  18       0.000068      -0.000015       0.000064
  19      -0.000010      -0.000003       0.000014
---------------------------------------------------
 Number of fixed atoms: 0
 Gradient time:  CPU 397.06 s  wall 33.44 s
 ----------------------------------------------------------------
             Standard Nuclear Orientation (Angstroms)
    I     Atom           X                Y                Z
 ----------------------------------------------------------------
    1      O       0.9274835487    -0.0596839701    -0.1810431746
    2      C       2.3131923298    -0.2921500952     0.0621415644
    3      C       2.8637295024     0.7711457937     0.9956251965
    4      O       2.0083076093     1.1789315408     1.8919043832
    5      C       4.1461527359     1.1891703249     0.8301371856
    6      C       4.8916442740     2.1547542609     1.6697487777
    7      C       4.1453428704     2.9311834769     2.7597746330
    8      O       3.1419828317     3.7283505460     2.1701729729
    9      O       3.6238834205     2.0919120124     3.7599017685
   10      H       0.6195941290     0.3948848129     0.6184630810
   11      H       2.8371004326    -0.2988503543    -0.8908679145
   12      H       2.4466469469    -1.2698376979     0.5377011511
   13      H       4.6919049552     0.7971134587    -0.0187298086
   14      H       5.4495997917     2.8711160488     1.0676099234
   15      H       4.8474288515     3.6065047926     3.2436745105
   16      H       2.4735273355     3.0974834859     1.8460025851
   17      H       2.9366336873     1.5606830351     3.2917458927
   18      O       5.9621452258     1.3862348965     2.3812031522
   19      O       6.9640896214     2.1407573313     2.7310731201
 ----------------------------------------------------------------
 Nuclear Repulsion Energy =         666.12936771 hartrees
 There are       44 alpha and       43 beta electrons
 Discretize the solute cavity surface with Lebedev spheres
	Using 110 Lebedev grid points for each H atom
	Using 194 Lebedev grid points for other atoms
	Atomic van der Waals radii will be scaled by 1.20
 Remove points where switching function is < 1.0e-08
 Keep 1449 surface tesserae and discard 1565 interior tesserae
 Molecular Surface Area = 165.542 Angst**2
 Requested basis set is 6-311++G(2df,2p)
 There are 136 shells and 454 basis functions
 A cutoff of  1.0D-12 yielded   8012 shell pairs
 There are     88491 function pairs (    110355 Cartesian)
 Smallest overlap matrix eigenvalue = 3.70E-06
 Guess MOs from SCF MO coefficient file

 -----------------------------------------------------------------------
  General SCF calculation program by
  Eric Jon Sundstrom, Paul Horn, Yuezhi Mao, Dmitri Zuev, Alec White,
  David Stuck, Shaama M.S., Shane Yost, Joonho Lee, David Small,
  Daniel Levine, Susi Lehtola, Hugh Burton, Evgeny Epifanovsky,
  Bang C. Huynh
 -----------------------------------------------------------------------
 Exchange:     0.1500 Hartree-Fock + 1.0000 wB97M-V + LR-HF
 Correlation:  1.0000 wB97M-V
 Using SG-2 standard quadrature grid
 Nonlocal Correlation:  VV10 with C = 0.0100 and b = 6.00 and scale = 1.00000
 Grid used for NLC:  SG-1 standard quadrature
 
 Citation of the SMD model:
 Marenich, A.V.; Cramer, C.J.; Truhlar, D.G.
 J. Phys. Chem. B 2009, 113, 6378-6396.
 iSolventCode=           1
 Solvent: water                                                           
 
 vradii
            1           2           3           4           5           6
    1   1.5200000   1.8500000   1.8500000   1.5200000   1.8500000   1.8500000
            7           8           9          10          11          12
    1   1.8500000   1.5200000   1.5200000   1.2000000   1.2000000   1.2000000
           13          14          15          16          17          18
    1   1.2000000   1.2000000   1.2000000   1.2000000   1.2000000   1.5200000
           19
    1   1.5200000
 -------------------------------------------------------
 OpenMP BLAS3 based DFT computing Module                
 Release: version 1.0, May 2013, Q-Chem Inc. Pittsburgh 
 -------------------------------------------------------
 A unrestricted SCF calculation will be
 performed using Roothaan-Hall, DIIS, GDM
 SCF converges when RMS gradient is below 1.0e-07
 ---------------------------------------
  Cycle       Energy         DIIS error
 ---------------------------------------
    1    -646.6335233963      1.52e-04  Roothaan Step
 ---------------------------------------
  Cycle       Energy         DIIS error
 ---------------------------------------
    1    -646.7239434933      1.62e-04  
    2    -646.7271571731      1.43e-04  Done DIIS. Switching to GDM
 ---------------------------------------
  Cycle       Energy        RMS Gradient
 ---------------------------------------
    1    -646.7271571731      5.23e-03   Normal BFGS step
    2    -646.7269797359      7.06e-03  Line search: overstep
    3    -646.7285419310      1.08e-03   Normal BFGS step
    4    -646.7286501387      4.41e-04   Normal BFGS step
    5    -646.7286693208      5.58e-04   Normal BFGS step
    6    -646.7286738013      2.00e-04   Normal BFGS step
    7    -646.7286744160      1.41e-04   Normal BFGS step
    8    -646.7286745917      4.67e-05   Normal BFGS step
    9    -646.7286746190      2.78e-05   Normal BFGS step
   10    -646.7286746320      1.43e-05   Normal BFGS step
   11    -646.7286746339      7.34e-06   Normal BFGS step
   12    -646.7286746348      6.40e-06   Normal BFGS step
   13    -646.7286746350      5.88e-06   Normal BFGS step
   14    -646.7286746352      4.82e-06   Normal BFGS step
   15    -646.7286746352      3.36e-06   Normal BFGS step
   16    -646.7286746353      1.87e-06   Normal BFGS step
   17    -646.7286746353      1.08e-06   Normal BFGS step
   18    -646.7286746354      1.88e-07   Normal BFGS step
   19    -646.7286746353      4.99e-08  Convergence criterion met
 ---------------------------------------
 SCF time:   CPU 2949.66s  wall 202.00s 
<S^2> =          0.754186908
(3)  G-ENP(liq) elect-nuc-pol free energy of system     -646.728674635 a.u.
(4)  G-CDS(liq) cavity-dispersion-solvent structure 
     free energy                                                2.9233 kcal/mol
(6)  G-S(liq) free energy of system                     -646.724016019 a.u.
 SCF   energy in the final basis set =     -646.7240160188
 Total energy in the final basis set =     -646.7240160188
 
 --------------------------------------------------------------
 
                    Orbital Energies (a.u.)
 --------------------------------------------------------------
 
 Alpha MOs
 -- Occupied --
-19.4526 -19.4062 -19.3359 -19.3274 -19.3265 -19.2839 -10.4406 -10.3987
-10.3912 -10.3742 -10.3063  -1.3313  -1.1946  -1.1541  -1.1200  -1.1044
 -1.0057  -0.8826  -0.8374  -0.7905  -0.7310  -0.6539  -0.6514  -0.6382
 -0.6187  -0.6070  -0.5959  -0.5808  -0.5623  -0.5582  -0.5215  -0.5089
 -0.4930  -0.4854  -0.4710  -0.4580  -0.4319  -0.4170  -0.4002  -0.3961
 -0.3870  -0.3714  -0.3483  -0.2966
 -- Virtual --
  0.0284   0.0406   0.0450   0.0506   0.0605   0.0662   0.0742   0.0821
  0.1002   0.1056   0.1094   0.1148   0.1274   0.1296   0.1406   0.1476
  0.1554   0.1629   0.1656   0.1683   0.1752   0.1860   0.1896   0.1910
  0.1963   0.2052   0.2108   0.2215   0.2255   0.2396   0.2508   0.2574
  0.2678   0.2706   0.2751   0.2765   0.2888   0.2963   0.3006   0.3101
  0.3149   0.3182   0.3228   0.3256   0.3363   0.3443   0.3466   0.3521
  0.3548   0.3608   0.3705   0.3722   0.3778   0.3839   0.3900   0.3932
  0.3972   0.4020   0.4106   0.4200   0.4281   0.4353   0.4448   0.4484
  0.4670   0.4696   0.5033   0.5123   0.5256   0.5380   0.5554   0.5765
  0.5963   0.6095   0.6132   0.6274   0.6329   0.6459   0.6539   0.6618
  0.6664   0.6762   0.6878   0.6999   0.7144   0.7235   0.7312   0.7361
  0.7449   0.7599   0.7689   0.7887   0.7970   0.8087   0.8122   0.8493
  0.8613   0.8802   0.8884   0.9075   0.9136   0.9335   0.9547   0.9642
  0.9941   1.0290   1.0354   1.0592   1.0760   1.0825   1.0923   1.1027
  1.1052   1.1203   1.1342   1.1420   1.1479   1.1575   1.1756   1.1819
  1.1907   1.1952   1.2006   1.2034   1.2157   1.2260   1.2404   1.2428
  1.2592   1.2700   1.2722   1.2859   1.2957   1.3039   1.3245   1.3335
  1.3463   1.3610   1.3688   1.3812   1.3881   1.4249   1.4298   1.4418
  1.4438   1.4542   1.4678   1.4836   1.4905   1.5103   1.5173   1.5399
  1.5420   1.5546   1.5670   1.5783   1.5825   1.6154   1.6272   1.6366
  1.6483   1.6611   1.6707   1.6832   1.6935   1.7148   1.7590   1.7713
  1.7793   1.7971   1.8082   1.8524   1.9179   1.9345   1.9618   1.9791
  1.9965   2.0197   2.0560   2.0824   2.1119   2.1654   2.1724   2.1909
  2.2085   2.2427   2.2515   2.2886   2.3143   2.3249   2.3470   2.3629
  2.4048   2.4093   2.4208   2.4758   2.5127   2.5430   2.5486   2.5501
  2.6058   2.6331   2.6624   2.7272   2.7353   2.7673   2.8086   2.8328
  2.8573   2.8839   2.9073   2.9357   2.9447   2.9635   2.9906   3.0164
  3.0205   3.0307   3.0744   3.0900   3.1044   3.1316   3.1624   3.1802
  3.2066   3.2353   3.2386   3.2778   3.2909   3.3249   3.3350   3.3521
  3.3846   3.4011   3.4104   3.4304   3.4453   3.4587   3.4785   3.4951
  3.5116   3.5314   3.5555   3.5656   3.5798   3.6066   3.6414   3.6595
  3.6708   3.6785   3.7001   3.7044   3.7147   3.7532   3.7623   3.7799
  3.8046   3.8314   3.8442   3.8526   3.8629   3.9087   3.9132   3.9162
  3.9277   3.9425   3.9530   3.9725   4.0072   4.0287   4.0707   4.0981
  4.1495   4.1775   4.1872   4.2107   4.2230   4.2401   4.2461   4.2749
  4.2862   4.2958   4.3118   4.3723   4.3933   4.3997   4.4345   4.4468
  4.4620   4.4834   4.4947   4.5295   4.5517   4.5592   4.5755   4.6314
  4.6453   4.6930   4.7208   4.7467   4.7560   4.8158   4.8428   4.9255
  4.9330   5.0323   5.0453   5.0912   5.0999   5.1082   5.1726   5.1941
  5.2220   5.2388   5.2598   5.2649   5.2712   5.2852   5.2912   5.3035
  5.3334   5.3452   5.3499   5.3590   5.3845   5.3882   5.3927   5.4126
  5.4265   5.4345   5.4479   5.4789   5.5150   5.5287   5.5558   5.5900
  5.6102   5.6150   5.6281   5.6341   5.6495   5.6666   5.6903   5.7083
  5.7228   5.7633   5.7835   5.8081   5.8286   5.8543   5.9057   5.9672
  5.9706   6.0111   6.1028   6.1569   6.1825   6.3890   6.4891   6.5886
  6.5958   6.6284   6.6585   6.7440   6.8435   6.9007   6.9863   7.0826
  7.0995   7.1120   7.1256   7.1405   7.1863   7.2180   7.2341   7.2652
  7.2914   7.3121   7.3398   7.3654   7.3710   7.3927   7.4125   7.4400
  7.4555   7.4621   7.4907   7.5116   7.5990   7.6704   7.6990   7.7537
  7.7929   7.8084   7.8554   7.8871   7.9024   8.0355   8.1108  24.5949
 24.7202  24.7724  24.8370  25.2404  50.4409  50.5459  50.5998  50.6195
 50.6780  50.7687
 
 Beta MOs
 -- Occupied --
-19.4413 -19.3882 -19.3359 -19.3274 -19.3265 -19.2839 -10.4403 -10.3991
-10.3912 -10.3742 -10.3062  -1.3045  -1.1943  -1.1541  -1.1198  -1.1044
 -0.9781  -0.8746  -0.8320  -0.7897  -0.7273  -0.6497  -0.6405  -0.6332
 -0.6063  -0.6003  -0.5810  -0.5712  -0.5608  -0.5326  -0.5135  -0.4948
 -0.4922  -0.4822  -0.4699  -0.4574  -0.4309  -0.4051  -0.3971  -0.3844
 -0.3731  -0.3481  -0.2960
 -- Virtual --
 -0.0231   0.0286   0.0407   0.0452   0.0509   0.0609   0.0665   0.0744
  0.0825   0.1016   0.1066   0.1104   0.1150   0.1283   0.1300   0.1410
  0.1480   0.1560   0.1631   0.1664   0.1687   0.1757   0.1864   0.1903
  0.1919   0.1966   0.2052   0.2127   0.2231   0.2277   0.2416   0.2520
  0.2576   0.2685   0.2717   0.2776   0.2831   0.2914   0.2969   0.3037
  0.3119   0.3155   0.3192   0.3235   0.3264   0.3376   0.3449   0.3480
  0.3529   0.3573   0.3612   0.3708   0.3745   0.3781   0.3850   0.3904
  0.3939   0.3980   0.4034   0.4114   0.4206   0.4287   0.4360   0.4462
  0.4491   0.4678   0.4708   0.5036   0.5129   0.5259   0.5385   0.5557
  0.5766   0.5968   0.6097   0.6132   0.6279   0.6330   0.6471   0.6542
  0.6621   0.6666   0.6765   0.6881   0.7001   0.7146   0.7242   0.7313
  0.7363   0.7456   0.7601   0.7694   0.7895   0.7987   0.8088   0.8129
  0.8496   0.8617   0.8806   0.8897   0.9081   0.9138   0.9338   0.9551
  0.9651   0.9945   1.0305   1.0381   1.0604   1.0767   1.0833   1.0930
  1.1042   1.1101   1.1213   1.1366   1.1441   1.1498   1.1673   1.1776
  1.1851   1.1936   1.2009   1.2045   1.2096   1.2214   1.2340   1.2411
  1.2477   1.2635   1.2712   1.2782   1.2901   1.2969   1.3062   1.3253
  1.3345   1.3469   1.3618   1.3713   1.3833   1.3896   1.4259   1.4308
  1.4432   1.4456   1.4564   1.4695   1.4854   1.4929   1.5107   1.5178
  1.5427   1.5513   1.5581   1.5680   1.5795   1.5861   1.6208   1.6300
  1.6403   1.6512   1.6669   1.6792   1.6963   1.7046   1.7193   1.7668
  1.7738   1.7838   1.7989   1.8111   1.8590   1.9189   1.9379   1.9628
  1.9822   1.9978   2.0254   2.0589   2.0865   2.1149   2.1701   2.1733
  2.1913   2.2119   2.2456   2.2547   2.2973   2.3200   2.3346   2.3504
  2.3656   2.4085   2.4112   2.4235   2.4780   2.5133   2.5440   2.5493
  2.5505   2.6067   2.6336   2.6663   2.7293   2.7390   2.7682   2.8095
  2.8329   2.8580   2.8842   2.9074   2.9362   2.9448   2.9641   2.9908
  3.0165   3.0209   3.0310   3.0748   3.0907   3.1049   3.1318   3.1630
  3.1803   3.2070   3.2357   3.2392   3.2781   3.2910   3.3254   3.3355
  3.3522   3.3851   3.4013   3.4109   3.4306   3.4457   3.4589   3.4787
  3.4953   3.5121   3.5316   3.5555   3.5662   3.5800   3.6068   3.6417
  3.6597   3.6709   3.6791   3.7010   3.7048   3.7150   3.7535   3.7628
  3.7800   3.8046   3.8319   3.8445   3.8529   3.8633   3.9090   3.9135
  3.9168   3.9281   3.9426   3.9534   3.9727   4.0076   4.0289   4.0708
  4.0983   4.1499   4.1777   4.1878   4.2112   4.2236   4.2408   4.2463
  4.2755   4.2864   4.2958   4.3121   4.3733   4.3938   4.4001   4.4347
  4.4471   4.4628   4.4851   4.4955   4.5301   4.5545   4.5611   4.5851
  4.6356   4.6543   4.7037   4.7247   4.7529   4.7685   4.8170   4.8471
  4.9352   4.9528   5.0449   5.0503   5.1447   5.1463   5.1739   5.2037
  5.2085   5.2279   5.2618   5.2683   5.2746   5.2855   5.2904   5.3051
  5.3202   5.3342   5.3463   5.3546   5.3596   5.3865   5.3894   5.3941
  5.4250   5.4343   5.4467   5.4532   5.4803   5.5240   5.5364   5.5592
  5.5938   5.6135   5.6185   5.6286   5.6361   5.6506   5.6676   5.6909
  5.7091   5.7322   5.7685   5.7920   5.8130   5.8380   5.8550   5.9058
  5.9686   5.9707   6.0112   6.1042   6.1573   6.1830   6.4033   6.5337
  6.5934   6.5989   6.6313   6.6634   6.7449   6.9248   6.9781   7.0451
  7.0841   7.0997   7.1227   7.1407   7.1560   7.1958   7.2272   7.2538
  7.2821   7.2934   7.3188   7.3461   7.3670   7.3804   7.3962   7.4330
  7.4500   7.4592   7.4840   7.5010   7.5181   7.5990   7.6712   7.6992
  7.7540   7.7946   7.8201   7.8559   7.8876   7.9025   8.0490   8.1308
 24.5948  24.7201  24.7724  24.8371  25.2404  50.4533  50.5552  50.5999
 50.6201  50.6782  50.7687
 --------------------------------------------------------------
 
          Ground-State Mulliken Net Atomic Charges

     Atom                 Charge (a.u.)    Spin (a.u.)
  --------------------------------------------------------
      1 O                    -0.467025      -0.000037
      2 C                    -0.504535      -0.000422
      3 C                     0.153285       0.000869
      4 O                    -0.727337      -0.000198
      5 C                     0.025132       0.001856
      6 C                    -0.409346      -0.007453
      7 C                    -0.282991       0.012342
      8 O                    -0.420317       0.002389
      9 O                    -0.474376       0.001958
     10 H                     0.342925       0.000018
     11 H                     0.198180       0.000175
     12 H                     0.180807      -0.000165
     13 H                     0.278522      -0.001015
     14 H                     0.295992       0.005183
     15 H                     0.265043      -0.000447
     16 H                     0.344953      -0.000065
     17 H                     0.382763      -0.000199
     18 O                     0.072939       0.340587
     19 O                    -0.254614       0.644624
  --------------------------------------------------------
  Sum of atomic charges =    -1.000000
  Sum of spin   charges =     1.000000

 -----------------------------------------------------------------
                    Cartesian Multipole Moments
 -----------------------------------------------------------------
    Charge (ESU x 10^10)
                -4.8032
    Dipole Moment (Debye)
         X     -15.7932      Y      -8.1439      Z     -11.3215
       Tot      21.0695
    Quadrupole Moments (Debye-Ang)
        XX    -145.0825     XY     -30.7099     YY     -90.2039
        XZ     -51.1852     YZ     -23.7471     ZZ    -106.9415
    Octopole Moments (Debye-Ang^2)
       XXX   -1217.6686    XXY    -241.0518    XYY    -321.1555
       YYY    -396.5163    XXZ    -377.1270    XYZ     -90.7096
       YYZ    -174.0546    XZZ    -411.0564    YZZ    -182.4427
       ZZZ    -481.0648
    Hexadecapole Moments (Debye-Ang^3)
      XXXX   -9857.5977   XXXY   -2118.2637   XXYY   -1660.1115
      XYYY   -1581.2171   YYYY   -1963.8996   XXXZ   -3039.1851
      XXYZ    -677.3249   XYYZ    -689.8043   YYYZ    -936.7614
      XXZZ   -2225.2727   XYZZ    -741.3393   YYZZ    -750.7766
      XZZZ   -2044.0350   YZZZ   -1015.6014   ZZZZ   -2325.5307
 -----------------------------------------------------------------
 Calculating analytic gradient of the SCF energy
 Gradient of CDS energy
            1           2           3           4           5           6
    1   0.0001174  -0.0002030  -0.0014086   0.0012946   0.0002016   0.0001344
    2   0.0000548  -0.0008273   0.0007185  -0.0006207  -0.0000228   0.0000058
    3   0.0000130  -0.0007440   0.0016415  -0.0012989  -0.0001448   0.0000567
            7           8           9          10          11          12
    1  -0.0023211   0.0013111   0.0011950  -0.0004558   0.0001291  -0.0000047
    2  -0.0002429  -0.0010820   0.0017169   0.0000671   0.0001592  -0.0000317
    3   0.0016945   0.0007097  -0.0021733   0.0000437  -0.0000318   0.0001890
           13          14          15          16          17          18
    1   0.0000454   0.0001527   0.0002165  -0.0003092  -0.0001493   0.0000242
    2  -0.0000666   0.0001154  -0.0000186   0.0002229  -0.0001909   0.0000729
    3  -0.0001555  -0.0000592   0.0000332  -0.0001174   0.0002681   0.0000899
           19
    1   0.0000297
    2  -0.0000300
    3  -0.0000144
 Gradient of SCF Energy
            1           2           3           4           5           6
    1  -0.0276087   0.0421213   0.0392096  -0.0098411  -0.0371776   0.0401753
    2   0.0171904  -0.0348708   0.0051687  -0.0006359  -0.0079573   0.0052814
    3   0.0123869  -0.0008604  -0.0049016   0.0073983  -0.0129275  -0.0449819
            7           8           9          10          11          12
    1   0.0150117  -0.0294663  -0.0250175   0.0100351  -0.0105278  -0.0048407
    2   0.0387007  -0.0055277  -0.0231114  -0.0136649   0.0002632   0.0224332
    3   0.0245617  -0.0115614   0.0012811  -0.0205309   0.0210039  -0.0118172
           13          14          15          16          17          18
    1  -0.0133029  -0.0131134  -0.0216202   0.0218520   0.0221221   0.0056191
    2   0.0095321  -0.0218268  -0.0208571   0.0167429   0.0156674  -0.0016331
    3   0.0188475   0.0164294  -0.0171503   0.0089021   0.0089723   0.0076428
           19
    1  -0.0036301
    2  -0.0008951
    3  -0.0026949
 Max gradient component =       4.498E-02
 RMS gradient           =       1.972E-02
 Computing fast CPCM-SWIG gradient
 Updating gradient with PCM contributions...
 -- total gradient after adding PCM contribution --
---------------------------------------------------
  Atom         X              Y              Z     
---------------------------------------------------
   1      -0.000721       0.000224       0.000151
   2       0.000446      -0.000040       0.000059
   3       0.000003      -0.000004       0.000066
   4       0.000014      -0.000032      -0.000066
   5       0.000064       0.000024      -0.000002
   6      -0.000137       0.000030      -0.000095
   7       0.000015      -0.000026       0.000026
   8      -0.000010      -0.000035      -0.000000
   9       0.000008       0.000040      -0.000021
  10       0.000110      -0.000142      -0.000234
  11       0.000082      -0.000006       0.000019
  12       0.000040      -0.000023       0.000018
  13      -0.000012       0.000003       0.000001
  14       0.000017      -0.000015       0.000019
  15      -0.000001       0.000002       0.000005
  16       0.000021       0.000009      -0.000003
  17       0.000002       0.000008      -0.000024
  18       0.000069      -0.000014       0.000065
  19      -0.000008      -0.000003       0.000015
---------------------------------------------------
 Number of fixed atoms: 0
 Gradient time:  CPU 407.74 s  wall 33.12 s
 ----------------------------------------------------------------
             Standard Nuclear Orientation (Angstroms)
    I     Atom           X                Y                Z
 ----------------------------------------------------------------
    1      O       0.9284835487    -0.0586839701    -0.1810431746
    2      C       2.3131923298    -0.2921500952     0.0621415644
    3      C       2.8637295024     0.7711457937     0.9956251965
    4      O       2.0083076093     1.1789315408     1.8919043832
    5      C       4.1461527359     1.1891703249     0.8301371856
    6      C       4.8916442740     2.1547542609     1.6697487777
    7      C       4.1453428704     2.9311834769     2.7597746330
    8      O       3.1419828317     3.7283505460     2.1701729729
    9      O       3.6238834205     2.0919120124     3.7599017685
   10      H       0.6195941290     0.3948848129     0.6184630810
   11      H       2.8371004326    -0.2988503543    -0.8908679145
   12      H       2.4466469469    -1.2698376979     0.5377011511
   13      H       4.6919049552     0.7971134587    -0.0187298086
   14      H       5.4495997917     2.8711160488     1.0676099234
   15      H       4.8474288515     3.6065047926     3.2436745105
   16      H       2.4735273355     3.0974834859     1.8460025851
   17      H       2.9366336873     1.5606830351     3.2917458927
   18      O       5.9621452258     1.3862348965     2.3812031522
   19      O       6.9640896214     2.1407573313     2.7310731201
 ----------------------------------------------------------------
 Nuclear Repulsion Energy =         666.16102519 hartrees
 There are       44 alpha and       43 beta electrons
 Discretize the solute cavity surface with Lebedev spheres
	Using 110 Lebedev grid points for each H atom
	Using 194 Lebedev grid points for other atoms
	Atomic van der Waals radii will be scaled by 1.20
 Remove points where switching function is < 1.0e-08
 Keep 1450 surface tesserae and discard 1564 interior tesserae
 Molecular Surface Area = 165.535 Angst**2
 Requested basis set is 6-311++G(2df,2p)
 There are 136 shells and 454 basis functions
 A cutoff of  1.0D-12 yielded   8012 shell pairs
 There are     88491 function pairs (    110355 Cartesian)
 Smallest overlap matrix eigenvalue = 3.70E-06
 Guess MOs from SCF MO coefficient file

 -----------------------------------------------------------------------
  General SCF calculation program by
  Eric Jon Sundstrom, Paul Horn, Yuezhi Mao, Dmitri Zuev, Alec White,
  David Stuck, Shaama M.S., Shane Yost, Joonho Lee, David Small,
  Daniel Levine, Susi Lehtola, Hugh Burton, Evgeny Epifanovsky,
  Bang C. Huynh
 -----------------------------------------------------------------------
 Exchange:     0.1500 Hartree-Fock + 1.0000 wB97M-V + LR-HF
 Correlation:  1.0000 wB97M-V
 Using SG-2 standard quadrature grid
 Nonlocal Correlation:  VV10 with C = 0.0100 and b = 6.00 and scale = 1.00000
 Grid used for NLC:  SG-1 standard quadrature
 
 Citation of the SMD model:
 Marenich, A.V.; Cramer, C.J.; Truhlar, D.G.
 J. Phys. Chem. B 2009, 113, 6378-6396.
 iSolventCode=           1
 Solvent: water                                                           
 
 vradii
            1           2           3           4           5           6
    1   1.5200000   1.8500000   1.8500000   1.5200000   1.8500000   1.8500000
            7           8           9          10          11          12
    1   1.8500000   1.5200000   1.5200000   1.2000000   1.2000000   1.2000000
           13          14          15          16          17          18
    1   1.2000000   1.2000000   1.2000000   1.2000000   1.2000000   1.5200000
           19
    1   1.5200000
 -------------------------------------------------------
 OpenMP BLAS3 based DFT computing Module                
 Release: version 1.0, May 2013, Q-Chem Inc. Pittsburgh 
 -------------------------------------------------------
 A unrestricted SCF calculation will be
 performed using Roothaan-Hall, DIIS, GDM
 SCF converges when RMS gradient is below 1.0e-07
 ---------------------------------------
  Cycle       Energy         DIIS error
 ---------------------------------------
    1    -646.6335091247      1.52e-04  Roothaan Step
 ---------------------------------------
  Cycle       Energy         DIIS error
 ---------------------------------------
    1    -646.7239439303      1.62e-04  
    2    -646.7271558925      1.43e-04  Done DIIS. Switching to GDM
 ---------------------------------------
  Cycle       Energy        RMS Gradient
 ---------------------------------------
    1    -646.7271558925      5.24e-03   Normal BFGS step
    2    -646.7269769324      7.07e-03  Line search: overstep
    3    -646.7285427640      1.08e-03   Normal BFGS step
    4    -646.7286508444      4.42e-04   Normal BFGS step
    5    -646.7286700248      5.56e-04   Normal BFGS step
    6    -646.7286744995      1.99e-04   Normal BFGS step
    7    -646.7286751117      1.41e-04   Normal BFGS step
    8    -646.7286752874      4.66e-05   Normal BFGS step
    9    -646.7286753146      2.78e-05   Normal BFGS step
   10    -646.7286753276      1.43e-05   Normal BFGS step
   11    -646.7286753295      7.33e-06   Normal BFGS step
   12    -646.7286753303      6.26e-06   Normal BFGS step
   13    -646.7286753305      5.78e-06   Normal BFGS step
   14    -646.7286753307      4.75e-06   Normal BFGS step
   15    -646.7286753307      3.33e-06   Normal BFGS step
   16    -646.7286753308      1.87e-06   Normal BFGS step
   17    -646.7286753308      1.08e-06   Normal BFGS step
   18    -646.7286753308      1.90e-07   Normal BFGS step
   19    -646.7286753308      4.96e-08  Convergence criterion met
 ---------------------------------------
 SCF time:   CPU 2951.37s  wall 203.00s 
<S^2> =          0.754186937
(3)  G-ENP(liq) elect-nuc-pol free energy of system     -646.728675331 a.u.
(4)  G-CDS(liq) cavity-dispersion-solvent structure 
     free energy                                                2.9235 kcal/mol
(6)  G-S(liq) free energy of system                     -646.724016387 a.u.
 SCF   energy in the final basis set =     -646.7240163869
 Total energy in the final basis set =     -646.7240163869
 
 --------------------------------------------------------------
 
                    Orbital Energies (a.u.)
 --------------------------------------------------------------
 
 Alpha MOs
 -- Occupied --
-19.4526 -19.4062 -19.3359 -19.3274 -19.3265 -19.2839 -10.4406 -10.3987
-10.3912 -10.3742 -10.3062  -1.3313  -1.1946  -1.1543  -1.1200  -1.1044
 -1.0057  -0.8826  -0.8374  -0.7905  -0.7310  -0.6540  -0.6514  -0.6382
 -0.6187  -0.6071  -0.5959  -0.5808  -0.5624  -0.5582  -0.5216  -0.5089
 -0.4930  -0.4853  -0.4710  -0.4580  -0.4318  -0.4170  -0.4002  -0.3961
 -0.3870  -0.3714  -0.3483  -0.2965
 -- Virtual --
  0.0285   0.0406   0.0450   0.0506   0.0605   0.0662   0.0742   0.0821
  0.1003   0.1056   0.1094   0.1148   0.1274   0.1296   0.1406   0.1476
  0.1554   0.1629   0.1656   0.1683   0.1752   0.1860   0.1896   0.1910
  0.1963   0.2052   0.2108   0.2215   0.2255   0.2396   0.2508   0.2574
  0.2678   0.2706   0.2751   0.2766   0.2888   0.2963   0.3006   0.3101
  0.3149   0.3182   0.3229   0.3256   0.3363   0.3443   0.3466   0.3522
  0.3549   0.3608   0.3705   0.3722   0.3778   0.3840   0.3900   0.3932
  0.3972   0.4020   0.4106   0.4200   0.4281   0.4354   0.4449   0.4485
  0.4670   0.4696   0.5033   0.5123   0.5256   0.5380   0.5554   0.5765
  0.5963   0.6096   0.6132   0.6275   0.6329   0.6459   0.6539   0.6618
  0.6664   0.6762   0.6878   0.7000   0.7144   0.7236   0.7312   0.7361
  0.7449   0.7600   0.7690   0.7887   0.7970   0.8087   0.8122   0.8493
  0.8613   0.8802   0.8885   0.9075   0.9136   0.9335   0.9547   0.9642
  0.9941   1.0290   1.0354   1.0593   1.0760   1.0825   1.0923   1.1027
  1.1051   1.1204   1.1343   1.1420   1.1479   1.1575   1.1756   1.1819
  1.1907   1.1952   1.2006   1.2035   1.2157   1.2260   1.2404   1.2428
  1.2592   1.2700   1.2723   1.2860   1.2957   1.3039   1.3246   1.3336
  1.3463   1.3610   1.3688   1.3812   1.3882   1.4249   1.4298   1.4419
  1.4438   1.4543   1.4679   1.4835   1.4905   1.5103   1.5173   1.5399
  1.5419   1.5547   1.5671   1.5784   1.5825   1.6154   1.6272   1.6365
  1.6483   1.6611   1.6708   1.6832   1.6935   1.7148   1.7591   1.7713
  1.7793   1.7971   1.8082   1.8525   1.9179   1.9345   1.9619   1.9791
  1.9965   2.0197   2.0560   2.0824   2.1120   2.1655   2.1723   2.1909
  2.2088   2.2427   2.2515   2.2888   2.3144   2.3249   2.3470   2.3633
[...]
 H          0.017  0.145  0.159   -0.053 -0.284 -0.294    0.075  0.506  0.530
 H         -0.001 -0.031 -0.038    0.033  0.046  0.027   -0.153  0.008  0.059
 H         -0.024  0.045 -0.022    0.042 -0.059  0.003   -0.101  0.146 -0.017
 H         -0.010  0.015  0.021    0.007 -0.000 -0.044   -0.024  0.034  0.075
 O          0.008 -0.015  0.004   -0.011  0.023 -0.007    0.011 -0.029  0.010
 O         -0.009  0.001 -0.005    0.016 -0.002  0.009   -0.013  0.005 -0.009
 TransDip  -0.192  0.068  0.000    0.422 -0.034  0.125   -0.084  0.086  0.257

 Mode:                28                     29                     30
 Frequency:      1187.69                1209.65                1223.31
 Force Cnst:      1.2863                 1.3718                 1.2054
 Red. Mass:       1.5477                 1.5912                 1.3672
 IR Active:          YES                    YES                    YES
 IR Intens:      155.183                238.712                116.745
 Raman Active:       YES                    YES                    YES
               X      Y      Z        X      Y      Z        X      Y      Z
 O         -0.021 -0.007  0.000   -0.006  0.003  0.003    0.011 -0.037 -0.017
 C          0.003  0.048  0.019    0.012  0.007 -0.000   -0.105 -0.000 -0.013
 C         -0.053 -0.121 -0.111   -0.018 -0.025 -0.021    0.006  0.090  0.050
 O         -0.042  0.030  0.056   -0.002 -0.001  0.006    0.036 -0.027 -0.035
 C          0.008 -0.016 -0.023   -0.005 -0.007  0.012    0.024  0.017  0.008
 C          0.036  0.048  0.012    0.019  0.010  0.014   -0.026 -0.030 -0.008
 C          0.012 -0.021 -0.046    0.109 -0.021 -0.026   -0.003  0.022  0.013
 O          0.000  0.005  0.004   -0.102  0.105 -0.055   -0.001  0.001 -0.002
 O         -0.010 -0.008  0.022   -0.022 -0.037  0.033   -0.001  0.000 -0.018
 H          0.183 -0.030  0.108   -0.026  0.003 -0.007    0.548 -0.064  0.245
 H          0.413  0.171  0.247    0.048  0.009  0.021    0.443  0.212  0.284
 H         -0.081  0.069  0.073    0.019  0.023  0.029   -0.441 -0.093 -0.120
 H          0.613  0.407  0.162   -0.055 -0.022 -0.013   -0.121 -0.101 -0.026
 H          0.064 -0.137 -0.180   -0.019  0.287  0.300    0.005 -0.049 -0.001
 H         -0.058  0.008  0.013    0.509 -0.407 -0.066    0.031 -0.055  0.073
 H         -0.017  0.018  0.004    0.318 -0.478  0.106    0.060 -0.076  0.019
 H         -0.025 -0.009  0.036   -0.026 -0.038  0.051   -0.023 -0.050  0.119
 O          0.001 -0.008  0.001    0.004 -0.000  0.004    0.001  0.009 -0.003
 O         -0.001  0.003 -0.001   -0.007 -0.002 -0.003   -0.001 -0.003  0.000
 TransDip   0.337 -0.080 -0.199    0.384 -0.310  0.032   -0.029  0.098  0.331

 Mode:                31                     32                     33
 Frequency:      1240.56                1270.87                1291.77
 Force Cnst:      1.1119                13.1967                 1.9507
 Red. Mass:       1.2263                13.8680                 1.9842
 IR Active:          YES                    YES                    YES
 IR Intens:      203.080                 22.544                114.931
 Raman Active:       YES                    YES                    YES
               X      Y      Z        X      Y      Z        X      Y      Z
 O         -0.000  0.006 -0.001   -0.003  0.007 -0.001   -0.001  0.004  0.002
 C          0.012 -0.004  0.003    0.006 -0.005 -0.001    0.004 -0.004 -0.010
 C         -0.002 -0.001  0.002   -0.025 -0.020 -0.003   -0.027  0.002  0.021
 O          0.003 -0.001  0.008    0.001  0.004  0.005    0.010 -0.005 -0.004
 C         -0.003 -0.007 -0.012   -0.001  0.018 -0.031    0.010 -0.024 -0.008
 C         -0.007  0.003  0.014   -0.012 -0.037  0.025   -0.065  0.036  0.044
 C         -0.074  0.006 -0.002    0.010 -0.003 -0.011   -0.035  0.138 -0.160
 O          0.024  0.012  0.013    0.002  0.006  0.003    0.079 -0.033  0.045
 O          0.023  0.041 -0.080    0.001  0.008 -0.015   -0.058 -0.080  0.060
 H         -0.069  0.007 -0.032   -0.024  0.005 -0.009   -0.020  0.004 -0.008
 H         -0.112 -0.038 -0.064   -0.020  0.000 -0.014   -0.004 -0.018 -0.013
 H          0.099  0.015  0.022    0.124  0.037  0.059    0.053  0.025  0.040
 H          0.055  0.022  0.012    0.011 -0.043  0.001   -0.054 -0.032 -0.043
 H          0.104 -0.200 -0.119    0.059 -0.137 -0.042    0.635 -0.245  0.358
 H         -0.134 -0.277  0.476   -0.176  0.047  0.184    0.047  0.218 -0.399
 H          0.255 -0.325  0.120    0.030 -0.041  0.030    0.171 -0.179  0.104
 H         -0.154 -0.184  0.563   -0.045 -0.038  0.138   -0.060 -0.112  0.143
 O         -0.011 -0.003 -0.011    0.508  0.399  0.168   -0.002  0.023 -0.033
 O          0.013  0.008  0.005   -0.488 -0.378 -0.167    0.008  0.001  0.004
 TransDip  -0.085 -0.224  0.388   -0.073 -0.131  0.027   -0.226  0.179 -0.187

 Mode:                34                     35                     36
 Frequency:      1316.46                1317.17                1364.15
 Force Cnst:      1.2563                 1.4116                 1.8654
 Red. Mass:       1.2303                 1.3809                 1.7014
 IR Active:          YES                    YES                    YES
 IR Intens:       42.876                197.199                236.484
 Raman Active:       YES                    YES                    YES
               X      Y      Z        X      Y      Z        X      Y      Z
 O         -0.013  0.013 -0.050    0.007 -0.002  0.033   -0.003 -0.009 -0.018
 C         -0.079 -0.039  0.008    0.041  0.010 -0.023    0.004  0.025  0.039
 C         -0.003 -0.017  0.030   -0.036  0.012  0.014    0.064 -0.016 -0.051
 O          0.007  0.002 -0.005    0.004 -0.002 -0.008   -0.021  0.009  0.017
 C          0.011  0.006  0.008    0.011 -0.005  0.014   -0.010 -0.022 -0.036
 C         -0.025 -0.018 -0.026   -0.055 -0.026 -0.042   -0.021  0.150  0.143
 C          0.018 -0.025  0.049    0.013 -0.059  0.096    0.028 -0.063 -0.017
 O         -0.021 -0.001 -0.014   -0.036 -0.001 -0.026   -0.028  0.000 -0.014
 O          0.010  0.014 -0.011    0.027  0.036 -0.023    0.003  0.009  0.017
 H          0.416 -0.013  0.164   -0.269  0.015 -0.106    0.161 -0.013  0.059
 H         -0.140  0.171 -0.017    0.117 -0.102  0.014   -0.126 -0.002 -0.031
 H          0.664  0.204  0.328   -0.300 -0.078 -0.121   -0.054 -0.040 -0.082
 H          0.057  0.042  0.021    0.133  0.115  0.040   -0.371 -0.279 -0.150
 H          0.262 -0.082  0.164    0.637 -0.263  0.322    0.186 -0.511 -0.428
 H          0.050 -0.062  0.054    0.104 -0.179  0.129    0.218 -0.260 -0.021
 H         -0.086  0.097 -0.042   -0.140  0.157 -0.076   -0.116  0.124 -0.067
 H          0.030  0.032 -0.067    0.059  0.074 -0.141    0.036  0.034 -0.111
 O         -0.010  0.014 -0.014   -0.010  0.039 -0.028    0.006 -0.006 -0.007
 O          0.007  0.002  0.004    0.008 -0.002  0.006   -0.003  0.001 -0.002
 TransDip  -0.103 -0.091  0.158   -0.394 -0.206  0.068    0.486  0.047 -0.063

 Mode:                37                     38                     39
 Frequency:      1365.84                1419.55                1437.60
 Force Cnst:      3.4046                 1.6916                 2.0975
 Red. Mass:       3.0976                 1.4248                 1.7226
 IR Active:          YES                    YES                    YES
 IR Intens:       64.146                210.344                226.067
 Raman Active:       YES                    YES                    YES
               X      Y      Z        X      Y      Z        X      Y      Z
 O          0.007  0.004  0.004    0.007  0.027  0.052    0.003 -0.005 -0.012
 C          0.015 -0.018 -0.030   -0.049 -0.082 -0.114    0.026  0.013  0.013
 C         -0.099  0.096  0.168   -0.027  0.023  0.052   -0.094  0.046  0.105
 O          0.064 -0.029 -0.065    0.009 -0.009 -0.018    0.046 -0.020 -0.047
 C         -0.028 -0.082 -0.089    0.044  0.012 -0.021   -0.041 -0.048 -0.047
 C         -0.031  0.067  0.088    0.009  0.032  0.041    0.073  0.038  0.022
 C          0.267 -0.039 -0.114   -0.026  0.007  0.004   -0.099  0.074  0.051
 O         -0.072  0.021 -0.020    0.003 -0.010 -0.001    0.014 -0.043 -0.000
 O         -0.048 -0.033  0.033    0.003  0.001  0.000    0.002 -0.004 -0.019
 H         -0.030  0.008 -0.018   -0.499  0.024 -0.172    0.141 -0.002  0.044
 H         -0.121 -0.114 -0.104    0.550  0.177  0.205   -0.241 -0.100 -0.128
 H         -0.009 -0.004  0.015    0.259  0.154  0.298   -0.065 -0.026 -0.038
 H          0.318  0.150  0.031   -0.063 -0.092 -0.048    0.375  0.238  0.084
 H         -0.072 -0.027 -0.059   -0.100 -0.108 -0.224   -0.105  0.019 -0.178
 H         -0.402  0.237  0.469    0.146 -0.126 -0.056    0.572 -0.347 -0.308
 H         -0.212  0.253 -0.101   -0.025  0.028 -0.010   -0.106  0.135 -0.058
 H         -0.060 -0.124  0.260    0.014  0.012 -0.033    0.002 -0.032  0.049
 O         -0.011 -0.011 -0.002   -0.000 -0.009  0.001    0.013 -0.008  0.009
 O          0.005  0.007  0.001   -0.003  0.001 -0.002   -0.013 -0.004 -0.006
 TransDip  -0.092  0.114  0.211   -0.464  0.027  0.006   -0.264  0.259  0.308

 Mode:                40                     41                     42
 Frequency:      1467.75                1480.64                1510.71
 Force Cnst:      1.9800                 1.3983                 1.8618
 Red. Mass:       1.5599                 1.0825                 1.3846
 IR Active:          YES                    YES                    YES
 IR Intens:      234.873                 11.657                 46.657
 Raman Active:       YES                    YES                    YES
               X      Y      Z        X      Y      Z        X      Y      Z
 O         -0.002  0.000  0.000    0.009 -0.008 -0.000    0.001  0.001  0.004
 C         -0.004  0.008  0.008    0.053 -0.053 -0.025    0.006  0.003  0.005
 C          0.019 -0.023 -0.037    0.007 -0.005 -0.004    0.016 -0.043 -0.061
 O         -0.013  0.009  0.017   -0.004  0.003  0.004   -0.013  0.018  0.029
 C          0.014  0.019  0.020   -0.004 -0.001  0.001    0.031  0.027  0.018
 C         -0.011 -0.042 -0.018   -0.002 -0.002 -0.001   -0.010 -0.022 -0.016
 C          0.001  0.145 -0.114   -0.003  0.003 -0.010    0.088  0.055  0.072
 O          0.008 -0.065  0.008    0.002 -0.001  0.001   -0.023 -0.028 -0.011
 O         -0.002 -0.018  0.050    0.002  0.000  0.005   -0.034 -0.018 -0.054
 H         -0.009 -0.001 -0.002   -0.002  0.002 -0.014   -0.065 -0.001 -0.021
 H          0.038 -0.030  0.030   -0.290  0.612 -0.197    0.021  0.061  0.012
 H          0.028 -0.013 -0.044   -0.467  0.157  0.497   -0.029  0.014  0.031
 H         -0.077 -0.042 -0.011   -0.003  0.008 -0.003   -0.128 -0.090 -0.036
 H         -0.076  0.148  0.136    0.005  0.005  0.014   -0.028  0.039  0.036
 H          0.146 -0.527  0.624   -0.016 -0.027  0.048    0.251  0.128 -0.225
 H         -0.256  0.308 -0.127    0.002 -0.004  0.003   -0.270  0.348 -0.164
 H          0.063  0.061 -0.140    0.011  0.020 -0.040   -0.185 -0.341  0.653
 O          0.002 -0.001  0.001    0.000  0.000  0.000   -0.003  0.002  0.000
 O          0.001 -0.000  0.000    0.000 -0.000  0.000    0.001  0.000  0.001
 TransDip  -0.050  0.316 -0.372    0.065  0.088  0.006    0.022  0.060  0.209

 Mode:                43                     44                     45
 Frequency:      1633.87                3019.23                3096.59
 Force Cnst:      9.0918                 5.7463                 6.1306
 Red. Mass:       5.7805                 1.0699                 1.0851
 IR Active:          YES                    YES                    YES
 IR Intens:      533.134                 65.666                 16.540
 Raman Active:       YES                    YES                    YES
               X      Y      Z        X      Y      Z        X      Y      Z
 O         -0.002  0.002  0.009    0.002  0.000  0.001   -0.000  0.000 -0.000
 C         -0.068 -0.051 -0.039    0.014 -0.071  0.019   -0.000 -0.000  0.001
 C          0.434  0.153 -0.025   -0.000 -0.000  0.001    0.001 -0.000 -0.000
 O         -0.047 -0.002  0.017   -0.000 -0.000  0.000   -0.000  0.000  0.000
 C         -0.411 -0.191 -0.019   -0.000 -0.000 -0.000    0.002 -0.001 -0.003
 C          0.044  0.035 -0.012   -0.000 -0.000  0.000   -0.043 -0.053  0.046
 C          0.002  0.013  0.000   -0.000 -0.000 -0.000    0.009  0.007  0.006
 O         -0.000 -0.007  0.003    0.000 -0.000  0.000   -0.000 -0.000 -0.000
 O         -0.003  0.000 -0.005    0.000  0.000 -0.000   -0.000 -0.000 -0.001
 H         -0.191 -0.008 -0.060    0.003 -0.006 -0.010    0.000  0.000  0.000
 H          0.264  0.125  0.123   -0.099 -0.019  0.185    0.006  0.000 -0.011
 H          0.088  0.004  0.028   -0.099  0.870 -0.427   -0.001  0.002 -0.001
 H          0.278  0.365  0.217    0.001 -0.001 -0.002   -0.028  0.018  0.037
 H          0.174  0.139  0.233    0.000  0.000 -0.001    0.506  0.639 -0.548
 H          0.081 -0.027 -0.042    0.001  0.001  0.000   -0.105 -0.099 -0.072
 H         -0.071  0.086 -0.065   -0.000  0.000 -0.000    0.003  0.003  0.001
 H         -0.048 -0.106  0.133   -0.001 -0.001  0.000    0.004  0.003  0.002
 O          0.018  0.005  0.012   -0.000 -0.000 -0.000   -0.000 -0.001  0.000
 O         -0.002 -0.003  0.000   -0.000  0.000 -0.000    0.000  0.000 -0.000
 TransDip   0.699  0.188 -0.152    0.102 -0.229  0.068   -0.042 -0.102  0.069

 Mode:                46                     47                     48
 Frequency:      3122.94                3123.37                3179.57
 Force Cnst:      6.2573                 6.2867                 6.4844
 Red. Mass:       1.0890                 1.0938                 1.0886
 IR Active:          YES                    YES                    YES
 IR Intens:       82.410                 36.596                 16.939
 Raman Active:       YES                    YES                    YES
               X      Y      Z        X      Y      Z        X      Y      Z
 O         -0.000  0.000  0.000    0.000  0.000  0.002    0.000  0.000  0.000
 C          0.002  0.001 -0.005    0.036  0.013 -0.079    0.003  0.001 -0.006
 C         -0.000  0.000  0.000    0.002  0.001 -0.000   -0.003 -0.002 -0.001
 O         -0.000 -0.000 -0.000   -0.000  0.000  0.000   -0.000  0.000  0.000
 C          0.001 -0.000 -0.001   -0.003  0.002  0.005    0.045 -0.029 -0.066
 C         -0.008 -0.009  0.007   -0.000 -0.000  0.000    0.003  0.003 -0.002
 C         -0.054 -0.053 -0.038    0.003  0.003  0.002    0.000  0.001  0.001
 O          0.001  0.002  0.001   -0.000 -0.000 -0.000    0.000 -0.000 -0.000
 O          0.004  0.003  0.003    0.000  0.000 -0.000   -0.000 -0.000 -0.000
 H          0.001 -0.001 -0.002   -0.001 -0.004 -0.015   -0.000 -0.001 -0.002
 H         -0.027 -0.000  0.049   -0.461  0.000  0.858   -0.033  0.001  0.059
 H          0.001 -0.011  0.004    0.022 -0.173  0.069    0.002 -0.009  0.005
 H         -0.010  0.007  0.015    0.034 -0.023 -0.055   -0.500  0.357  0.779
 H          0.086  0.102 -0.090    0.003  0.005 -0.004   -0.028 -0.033  0.026
 H          0.624  0.611  0.440   -0.037 -0.036 -0.026   -0.008 -0.009 -0.007
 H         -0.010 -0.021 -0.006   -0.000  0.001 -0.000    0.000  0.002  0.001
 H         -0.047 -0.038 -0.036   -0.001 -0.001  0.000    0.002  0.002  0.003
 O          0.000 -0.000 -0.000   -0.000  0.000  0.000    0.000 -0.000 -0.000
 O         -0.000  0.000  0.000    0.000 -0.000 -0.000   -0.000 -0.000 -0.000
 TransDip  -0.196 -0.181 -0.115    0.115  0.007 -0.156    0.038 -0.055 -0.114

 Mode:                49                     50                     51
 Frequency:      3334.70                3612.36                3694.04
 Force Cnst:      7.0018                 8.1975                 8.5614
 Red. Mass:       1.0687                 1.0662                 1.0649
 IR Active:          YES                    YES                    YES
 IR Intens:      821.688                417.522                194.040
 Raman Active:       YES                    YES                    YES
               X      Y      Z        X      Y      Z        X      Y      Z
 O          0.000 -0.000 -0.001    0.001 -0.001 -0.001    0.022 -0.029 -0.050
 C          0.000  0.000 -0.000    0.000 -0.000  0.000    0.002 -0.001 -0.002
 C          0.005 -0.001 -0.004    0.002 -0.001 -0.002   -0.001  0.000  0.000
 O         -0.001  0.000  0.004   -0.001  0.002  0.001    0.001  0.000  0.000
 C         -0.002 -0.000  0.001   -0.001 -0.000  0.000    0.000 -0.000 -0.000
 C          0.000  0.001  0.001    0.000  0.000  0.001   -0.000 -0.000 -0.000
 C         -0.005 -0.007 -0.000   -0.003 -0.001 -0.002   -0.000  0.000  0.000
 O          0.002  0.003  0.000   -0.044 -0.038 -0.022    0.001  0.001  0.000
 O         -0.044 -0.035 -0.028   -0.002 -0.002 -0.001    0.001  0.001  0.000
 H         -0.011  0.005  0.009   -0.011  0.011  0.018   -0.363  0.464  0.805
 H         -0.002  0.001  0.006   -0.000  0.000  0.002   -0.010 -0.002  0.011
 H         -0.000  0.001  0.000   -0.000  0.000 -0.000   -0.004  0.006 -0.005
 H         -0.001 -0.003 -0.002   -0.000 -0.001 -0.000   -0.000  0.001  0.001
 H          0.004  0.001 -0.006   -0.000 -0.000 -0.000    0.000  0.000 -0.000
 H          0.044  0.046  0.020    0.019  0.012  0.013   -0.000 -0.000 -0.000
 H         -0.036 -0.027 -0.017    0.706  0.607  0.354   -0.015 -0.015 -0.008
 H          0.702  0.580  0.399    0.032  0.026  0.020   -0.010 -0.007 -0.008
 O         -0.000  0.000 -0.000    0.000 -0.000 -0.000    0.000 -0.000  0.000
 O         -0.000 -0.000 -0.000   -0.000  0.000 -0.000    0.000  0.000  0.000
 TransDip   0.499  0.487  0.597    0.367  0.468  0.272   -0.065  0.239  0.371

 STANDARD THERMODYNAMIC QUANTITIES AT   298.15 K  AND     1.00 ATM

   This Molecule has  0 Imaginary Frequencies
   Zero point vibrational energy:       88.806 kcal/mol

   Atom    1 Element O  Has Mass   15.99491
   Atom    2 Element C  Has Mass   12.00000
   Atom    3 Element C  Has Mass   12.00000
   Atom    4 Element O  Has Mass   15.99491
   Atom    5 Element C  Has Mass   12.00000
   Atom    6 Element C  Has Mass   12.00000
   Atom    7 Element C  Has Mass   12.00000
   Atom    8 Element O  Has Mass   15.99491
   Atom    9 Element O  Has Mass   15.99491
   Atom   10 Element H  Has Mass    1.00783
   Atom   11 Element H  Has Mass    1.00783
   Atom   12 Element H  Has Mass    1.00783
   Atom   13 Element H  Has Mass    1.00783
   Atom   14 Element H  Has Mass    1.00783
   Atom   15 Element H  Has Mass    1.00783
   Atom   16 Element H  Has Mass    1.00783
   Atom   17 Element H  Has Mass    1.00783
   Atom   18 Element O  Has Mass   15.99491
   Atom   19 Element O  Has Mass   15.99491
   Molecular Mass:   164.032100 amu
   Principal axes and moments of inertia in amu*Bohr^2:
                             1           2           3
    Eigenvalues --      945.84372  2691.69983  3205.20072
          X               0.77786    -0.62008    -0.10218
          Y               0.41836     0.63227    -0.65209
          Z               0.46895     0.46448     0.75123
   Rotational Symmetry Number is   1
   The Molecule is an Asymmetric Top
   Translational Enthalpy:        0.889 kcal/mol
   Rotational Enthalpy:           0.889 kcal/mol
   Vibrational Enthalpy:         94.193 kcal/mol
   gas constant (RT):             0.592 kcal/mol
   Translational Entropy:        41.193  cal/mol.K
   Rotational Entropy:           30.479  cal/mol.K
   Vibrational Entropy:          35.426  cal/mol.K

   Total Enthalpy:               96.563 kcal/mol
   Total Entropy:               107.098  cal/mol.K
 Total job time:  27611.15s(wall), 389056.01s(cpu) 
 Fri Jul 12 19:02:27 2024

        *************************************************************
        *                                                           *
        *  Thank you very much for using Q-Chem.  Have a nice day.  *
        *                                                           *
        *************************************************************


