
Running Job 1 of 1 Q_in.in
qchem Q_in.in_36644.0 /scratch/ari.fischer/qChem2232406.hpc-mn1/qchem36644/ 0
/usr/local/qchem-5.4.1/exe/qcprog.exe_s Q_in.in_36644.0 /scratch/ari.fischer/qChem2232406.hpc-mn1/qchem36644/
                  Welcome to Q-Chem
     A Quantum Leap Into The Future Of Chemistry


 Q-Chem 5.4, Q-Chem, Inc., Pleasanton, CA (2021)

 License issued to: Nanyang Technological University (site)

 E. Epifanovsky,  A. T. B. Gilbert,  Xintian Feng,  Joonho Lee,  Yuezhi Mao,  
 N. Mardirossian,  P. Pokhilko,  A. White,  M. Wormit,  M. P. Coons,  
 A. L. Dempwolff,  Zhengting Gan,  D. Hait,  P. R. Horn,  L. D. Jacobson,  
 I. Kaliman,  J. Kussmann,  A. W. Lange,  Ka Un Lao,  D. S. Levine,  Jie Liu,  
 S. C. McKenzie,  A. F. Morrison,  K. Nanda,  F. Plasser,  D. R. Rehn,  
 M. L. Vidal,  Zhi-Qiang You,  Ying Zhu,  B. Alam,  B. Albrecht,  
 A. Aldossary,  E. Alguire,  J. H. Andersen,  D. Barton,  K. Begam,  A. Behn,  
 Y. A. Bernard,  E. J. Berquist,  H. Burton,  A. Carreras,  K. Carter-Fenk,  
 R. Chakraborty,  A. D. Chien,  K. D. Closser,  V. Cofer-Shabica,  
 S. Dasgupta,  Jia Deng,  M. de Wergifosse,  M. Diedenhofen,  Hainam Do,  
 S. Ehlert,  Po-Tung Fang,  S. Fatehi,  Qingguo Feng,  T. Friedhoff,  
 J. Gayvert,  Qinghui Ge,  G. Gidofalvi,  M. Goldey,  J. Gomes,  
 C. Gonzalez-Espinoza,  S. Gulania,  A. Gunina,  M. W. D. Hanson-Heine,  
 P. H. P. Harbach,  A. W. Hauser,  M. F. Herbst,  M. Hernandez Vera,  
 M. Hodecker,  Z. C. Holden,  S. Houck,  Xunkun Huang,  Kerwin Hui,  
 B. C. Huynh,  M. Ivanov,  Hyunjun Ji,  Hanjie Jiang,  B. Kaduk,  S. Kaehler,  
 K. Khistyaev,  Jaehoon Kim,  P. Klunzinger,  Z. Koczor-Benda,  
 Joong Hoon Koh,  D. Kosenkov,  L. Koulias,  T. Kowalczyk,  C. M. Krauter,  
 K. Kue,  A. Kunitsa,  T. Kus,  A. Landau,  K. V. Lawler,  D. Lefrancois,  
 S. Lehtola,  Rain Li,  Yi-Pei Li,  Jiashu Liang,  M. Liebenthal,  
 Hung-Hsuan Lin,  You-Sheng Lin,  Fenglai Liu,  Kuan-Yu Liu,  
 M. Loipersberger,  A. Luenser,  A. Manjanath,  P. Manohar,  E. Mansoor,  
 S. F. Manzer,  Shan-Ping Mao,  A. V. Marenich,  T. Markovich,  S. Mason,  
 S. A. Maurer,  P. F. McLaughlin,  M. F. S. J. Menger,  J.-M. Mewes,  
 S. A. Mewes,  P. Morgante,  J. W. Mullinax,  K. J. Oosterbaan,  G. Paran,  
 Alexander C. Paul,  Suranjan K. Paul,  F. Pavosevic,  Zheng Pei,  S. Prager,  
 E. I. Proynov,  E. Ramos,  B. Rana,  A. E. Rask,  A. Rettig,  R. M. Richard,  
 F. Rob,  E. Rossomme,  T. Scheele,  M. Scheurer,  M. Schneider,  
 N. Sergueev,  S. M. Sharada,  W. Skomorowski,  D. W. Small,  C. J. Stein,  
 Yu-Chuan Su,  E. J. Sundstrom,  Zhen Tao,  J. Thirman,  T. Tsuchimochi,  
 N. M. Tubman,  S. P. Veccham,  O. Vydrov,  J. Wenzel,  J. Witte,  A. Yamada,  
 Kun Yao,  S. Yeganeh,  S. R. Yost,  A. Zech,  Igor Ying Zhang,  Xing Zhang,  
 Yu Zhang,  D. Zuev,  A. Aspuru-Guzik,  A. T. Bell,  N. A. Besley,  
 K. B. Bravaya,  B. R. Brooks,  D. Casanova,  Jeng-Da Chai,  S. Coriani,  
 C. J. Cramer,  A. E. DePrince, III,  R. A. DiStasio Jr.,  A. Dreuw,  
 B. D. Dunietz,  T. R. Furlani,  W. A. Goddard III,  S. Grimme,  
 S. Hammes-Schiffer,  T. Head-Gordon,  W. J. Hehre,  Chao-Ping Hsu,  
 T.-C. Jagau,  Yousung Jung,  A. Klamt,  Jing Kong,  D. S. Lambrecht,  
 WanZhen Liang,  N. J. Mayhall,  C. W. McCurdy,  J. B. Neaton,  
 C. Ochsenfeld,  J. A. Parkhill,  R. Peverati,  V. A. Rassolov,  Yihan Shao,  
 L. V. Slipchenko,  T. Stauch,  R. P. Steele,  J. E. Subotnik,  
 A. J. W. Thom,  A. Tkatchenko,  D. G. Truhlar,  T. Van Voorhis,  
 T. A. Wesolowski,  K. B. Whaley,  H. L. Woodcock III,  P. M. Zimmerman,  
 S. Faraji,  P. M. W. Gill,  M. Head-Gordon,  J. M. Herbert,  A. I. Krylov

 Additional authors for Version 5.4.1: 
 S. Kotaru,  Shaozhi Li,  Xiangyuan Li,  F. Matz,  A. Molle,  Haisheng Ren,  
 Yingli Su,  Hung-Yi Tsai,  C. Utku,  Fang Wang

 Contributors to earlier versions of Q-Chem not listed above: 
 R. D. Adamson,  B. Austin,  R. Baer,  J. Baker,  G. J. O. Beran,  
 K. Brandhorst,  S. T. Brown,  E. F. C. Byrd,  A. K. Chakraborty,  
 G. K. L. Chan,  Chun-Min Chang,  Yunqing Chen,  C.-L. Cheng,  
 Siu Hung Chien,  D. M. Chipman,  D. L. Crittenden,  H. Dachsel,  
 R. J. Doerksen,  A. D. Dutoi,  R. G. Edgar,  J. Fosso-Tande,  
 L. Fusti-Molnar,  D. Ghosh,  A. Ghysels,  A. Golubeva-Zadorozhnaya,  
 J. Gonthier,  M. S. Gordon,  S. R. Gwaltney,  G. Hawkins,  J. E. Herr,  
 A. Heyden,  S. Hirata,  E. G. Hohenstein,  G. Kedziora,  F. J. Keil,  
 C. Kelley,  Jihan Kim,  R. A. King,  R. Z. Khaliullin,  P. P. Korambath,  
 W. Kurlancheek,  A. Laurent,  A. M. Lee,  M. S. Lee,  S. V. Levchenko,  
 Ching Yeh Lin,  D. Liotard,  E. Livshits,  R. C. Lochan,  I. Lotan,  
 L. A. Martinez-Martinez,  P. E. Maslen,  N. Nair,  D. P. O'Neill,  
 D. Neuhauser,  E. Neuscamman,  C. M. Oana,  R. Olivares-Amaya,  R. Olson,  
 T. M. Perrine,  B. Peters,  P. A. Pieniazek,  A. Prociuk,  Y. M. Rhee,  
 J. Ritchie,  M. A. Rohrdanz,  E. Rosta,  N. J. Russ,  H. F. Schaefer III,  
 M. W. Schmidt,  N. E. Schultz,  S. Sharma,  N. Shenvi,  C. D. Sherrill,  
 A. C. Simmonett,  A. Sodt,  T. Stein,  D. Stuck,  K. S. Thanthiriwatte,  
 V. Vanovschi,  L. Vogt,  Tao Wang,  A. Warshel,  M. A. Watson,  
 C. F. Williams,  Q. Wu,  X. Xu,  Jun Yang,  W. Zhang,  Yan Zhao

 Please cite Q-Chem as follows:
 Y. Shao et al., Mol. Phys. 113, 184-215 (2015)
 DOI: 10.1080/00268976.2014.952696

 Q-Chem 5.4.1 for Intel X86 EM64T Linux

 Parts of Q-Chem use Armadillo 9.800.1 (Horizon Scraper).
 http://arma.sourceforge.net/

 Q-Chem begins on Thu Jul 11 19:05:40 2024  

 Host: 
0

     Scratch files written to /scratch/ari.fischer/qChem2232406.hpc-mn1/qchem36644//
 Aug1521 |scratch|qcdevops|jenkins|workspace|build_RNUM 8249   
 Processing $rem in /usr/local/qchem-5.4.1/config/preferences:
 Processing $rem in /home/ari.fischer/.qchemrc:
 Symmetry turned off for PCM/SM12/SMD calculation

 Checking the input file for inconsistencies... 	...done.

--------------------------------------------------------------
User input:
--------------------------------------------------------------
$molecule
-1 2
O         0.8966093353   -0.0781910383   -0.1007625725
C         2.2946283263   -0.2831900607    0.0512356949
C         2.8683707457    0.8009128743    0.9606138869
O         1.9902488622    1.2635266730    1.8197121826
C         4.1681738527    1.1765761918    0.8231659976
C         4.9043787652    2.1550688574    1.6634975625
C         4.1329153512    2.9223173133    2.7488611966
O         3.1189513315    3.7006019531    2.1538834385
O         3.6321580698    2.0649397469    3.7474758772
H         0.6821832907    0.4432052101    0.7030102909
H         2.7717462889   -0.2744828469   -0.9336792996
H         2.4892587045   -1.2661656492    0.5094950118
H         4.7404434082    0.7324023010    0.0116875100
H         5.4682915872    2.8777507595    1.0649472214
H         4.8284065915    3.6087692472    3.2391862282
H         2.4622876203    3.0230379514    1.8601330490
H         2.9314549619    1.5495263429    3.2727147503
O         5.9693309931    1.3897517441    2.3860515671
O         6.9415520135    2.1733461290    2.7850094069
$end

$rem
BASIS = 6-311++G(2df,2p)
GUI = 2
JOB_TYPE = Optimization
METHOD = wB97M-V
SCF_ALGORITHM = DIIS_GDM
MAX_SCF_CYCLES = 400
GEOM_OPT_MAX_CYCLES = 150
SCF_CONVERGENCE = 7
THRESH = 12
Solvent_method = SMD
$end
--------------------------------------------------------------
 ----------------------------------------------------------------
             Standard Nuclear Orientation (Angstroms)
    I     Atom           X                Y                Z
 ----------------------------------------------------------------
    1      O       0.8966093353    -0.0781910383    -0.1007625725
    2      C       2.2946283263    -0.2831900607     0.0512356949
    3      C       2.8683707457     0.8009128743     0.9606138869
    4      O       1.9902488622     1.2635266730     1.8197121826
    5      C       4.1681738527     1.1765761918     0.8231659976
    6      C       4.9043787652     2.1550688574     1.6634975625
    7      C       4.1329153512     2.9223173133     2.7488611966
    8      O       3.1189513315     3.7006019531     2.1538834385
    9      O       3.6321580698     2.0649397469     3.7474758772
   10      H       0.6821832907     0.4432052101     0.7030102909
   11      H       2.7717462889    -0.2744828469    -0.9336792996
   12      H       2.4892587045    -1.2661656492     0.5094950118
   13      H       4.7404434082     0.7324023010     0.0116875100
   14      H       5.4682915872     2.8777507595     1.0649472214
   15      H       4.8284065915     3.6087692472     3.2391862282
   16      H       2.4622876203     3.0230379514     1.8601330490
   17      H       2.9314549619     1.5495263429     3.2727147503
   18      O       5.9693309931     1.3897517441     2.3860515671
   19      O       6.9415520135     2.1733461290     2.7850094069
 ----------------------------------------------------------------
 Nuclear Repulsion Energy =         666.96142469 hartrees
 There are       44 alpha and       43 beta electrons
 Requested basis set is 6-311++G(2df,2p)
 There are 136 shells and 454 basis functions

 Total QAlloc Memory Limit 288000 MB
 Mega-Array Size       188 MB
 MEM_STATIC part       192 MB
 
 Citation of the SMD model:
 Marenich, A.V.; Cramer, C.J.; Truhlar, D.G.
 J. Phys. Chem. B 2009, 113, 6378-6396.
 iSolventCode=           1
 Solvent: water                                                           
 
 vradii
            1           2           3           4           5           6
    1   1.5200000   1.8500000   1.8500000   1.5200000   1.8500000   1.8500000
            7           8           9          10          11          12
    1   1.8500000   1.5200000   1.5200000   1.2000000   1.2000000   1.2000000
           13          14          15          16          17          18
    1   1.2000000   1.2000000   1.2000000   1.2000000   1.2000000   1.5200000
           19
    1   1.5200000
 Changing PCM_VDW_RADII to SMD_RADIUS
 Discretize the solute cavity surface with Lebedev spheres
	Using 110 Lebedev grid points for each H atom
	Using 194 Lebedev grid points for other atoms
	Atomic van der Waals radii will be scaled by 1.20
 Remove points where switching function is < 1.0e-08
 Keep 1446 surface tesserae and discard 1568 interior tesserae
 Molecular Surface Area = 164.901 Angst**2
 A cutoff of  1.0D-12 yielded   8023 shell pairs
 There are     88569 function pairs (    110464 Cartesian)
 Smallest overlap matrix eigenvalue = 3.51E-06

 Scale SEOQF with 1.000000e-02/1.000000e-01/1.000000e-01

 Standard Electronic Orientation quadrupole field applied
 Nucleus-field energy     =    -0.0000000118 hartrees
 Guess from superposition of atomic densities
 Warning:  Energy on first SCF cycle will be non-variational
 SAD guess density has 86.000000 electrons

 -----------------------------------------------------------------------
  General SCF calculation program by
  Eric Jon Sundstrom, Paul Horn, Yuezhi Mao, Dmitri Zuev, Alec White,
  David Stuck, Shaama M.S., Shane Yost, Joonho Lee, David Small,
  Daniel Levine, Susi Lehtola, Hugh Burton, Evgeny Epifanovsky,
  Bang C. Huynh
 -----------------------------------------------------------------------
 Exchange:     0.1500 Hartree-Fock + 1.0000 wB97M-V + LR-HF
 Correlation:  1.0000 wB97M-V
 Using SG-2 standard quadrature grid
 Nonlocal Correlation:  VV10 with C = 0.0100 and b = 6.00 and scale = 1.00000
 Grid used for NLC:  SG-1 standard quadrature
 
 Citation of the SMD model:
 Marenich, A.V.; Cramer, C.J.; Truhlar, D.G.
 J. Phys. Chem. B 2009, 113, 6378-6396.
 iSolventCode=           1
 Solvent: water                                                           
 
 vradii
            1           2           3           4           5           6
    1   1.5200000   1.8500000   1.8500000   1.5200000   1.8500000   1.8500000
            7           8           9          10          11          12
    1   1.8500000   1.5200000   1.5200000   1.2000000   1.2000000   1.2000000
           13          14          15          16          17          18
    1   1.2000000   1.2000000   1.2000000   1.2000000   1.2000000   1.5200000
           19
    1   1.5200000
 using 16 threads for integral computing
 -------------------------------------------------------
 OpenMP Integral computing Module                
 Release: version 1.0, May 2013, Q-Chem Inc. Pittsburgh 
 -------------------------------------------------------
 -------------------------------------------------------
 OpenMP BLAS3 based DFT computing Module                
 Release: version 1.0, May 2013, Q-Chem Inc. Pittsburgh 
 -------------------------------------------------------
 A unrestricted SCF calculation will be
 performed using DIIS, GDM
 SCF converges when RMS gradient is below 1.0e-07
 ---------------------------------------
  Cycle       Energy         DIIS error
 ---------------------------------------
    1    -648.7445431504      1.15e-02  
    2    -646.5029379689      1.63e-03  Done DIIS. Switching to GDM
 ---------------------------------------
  Cycle       Energy        RMS Gradient
 ---------------------------------------
    1    -646.5029379689      7.89e-02   Descent step
    2    -646.6883385983      3.61e-02   Normal BFGS step
    3    -646.7209641074      3.27e-02   Normal BFGS step
    4    -646.7242344749      1.61e-02   Normal BFGS step
    5    -646.7270778944      1.02e-02   Normal BFGS step
    6    -646.7274264683      5.95e-03   Normal BFGS step
    7    -646.7275860581      2.35e-03   Normal BFGS step
    8    -646.7276140336      1.23e-03   Normal BFGS step
    9    -646.7276262252      6.28e-04   Normal BFGS step
   10    -646.7276287180      2.48e-04   Normal BFGS step
   11    -646.7276293486      1.68e-04   Normal BFGS step
   12    -646.7276295333      1.48e-04   Normal BFGS step
   13    -646.7276296513      1.36e-04   Normal BFGS step
   14    -646.7276297747      8.77e-05   Normal BFGS step
   15    -646.7276298225      5.74e-05   Normal BFGS step
   16    -646.7276298444      2.08e-05   Normal BFGS step
   17    -646.7276298485      6.58e-06   Normal BFGS step
   18    -646.7276298493      2.65e-06   Normal BFGS step
   19    -646.7276298495      1.44e-06   Normal BFGS step
   20    -646.7276298495      7.39e-07   Normal BFGS step
   21    -646.7276298495      3.99e-07   Normal BFGS step
   22    -646.7276298495      1.70e-07   Normal BFGS step
   23    -646.7276298495      8.29e-08  Convergence criterion met
 ---------------------------------------
 SCF time:   CPU 3382.31s  wall 233.00s 
<S^2> =          0.754213793
(3)  G-ENP(liq) elect-nuc-pol free energy of system     -646.727629849 a.u.
(4)  G-CDS(liq) cavity-dispersion-solvent structure 
     free energy                                                2.8385 kcal/mol
(6)  G-S(liq) free energy of system                     -646.723106389 a.u.
 SCF   energy in the final basis set =     -646.7231063891
 Total energy in the final basis set =     -646.7231063891
 
 --------------------------------------------------------------
 
                    Orbital Energies (a.u.)
 --------------------------------------------------------------
 
 Alpha MOs
 -- Occupied --
-19.4531 -19.4077 -19.3334 -19.3290 -19.3258 -19.2883 -10.4407 -10.4003
-10.3940 -10.3760 -10.3094  -1.3268  -1.1936  -1.1548  -1.1179  -1.1040
 -1.0065  -0.8829  -0.8349  -0.7874  -0.7287  -0.6526  -0.6492  -0.6377
 -0.6170  -0.6046  -0.5961  -0.5817  -0.5613  -0.5559  -0.5212  -0.5113
 -0.4936  -0.4857  -0.4708  -0.4555  -0.4315  -0.4163  -0.4012  -0.3980
 -0.3858  -0.3720  -0.3528  -0.2981
 -- Virtual --
  0.0285   0.0407   0.0447   0.0506   0.0601   0.0665   0.0749   0.0811
  0.0998   0.1050   0.1090   0.1150   0.1260   0.1310   0.1409   0.1484
  0.1550   0.1628   0.1642   0.1683   0.1749   0.1858   0.1884   0.1928
  0.1959   0.2054   0.2120   0.2233   0.2247   0.2379   0.2506   0.2590
  0.2672   0.2673   0.2745   0.2772   0.2890   0.2978   0.3004   0.3087
  0.3121   0.3200   0.3258   0.3264   0.3357   0.3442   0.3443   0.3493
  0.3542   0.3591   0.3677   0.3725   0.3752   0.3828   0.3880   0.3939
  0.3974   0.4029   0.4105   0.4148   0.4268   0.4352   0.4437   0.4477
  0.4667   0.4676   0.5051   0.5095   0.5321   0.5413   0.5531   0.5761
  0.5964   0.6081   0.6127   0.6252   0.6300   0.6436   0.6539   0.6617
  0.6669   0.6704   0.6893   0.6959   0.7099   0.7244   0.7296   0.7350
  0.7412   0.7605   0.7682   0.7843   0.7926   0.8075   0.8146   0.8506
  0.8683   0.8846   0.8908   0.9113   0.9139   0.9299   0.9616   0.9665
  0.9927   1.0358   1.0395   1.0608   1.0789   1.0801   1.0903   1.1066
  1.1100   1.1220   1.1330   1.1429   1.1436   1.1583   1.1742   1.1802
  1.1904   1.1968   1.2040   1.2106   1.2185   1.2268   1.2430   1.2461
  1.2594   1.2718   1.2782   1.2874   1.2941   1.3041   1.3213   1.3269
  1.3496   1.3529   1.3640   1.3835   1.3870   1.4260   1.4328   1.4366
  1.4473   1.4513   1.4631   1.4755   1.4869   1.5068   1.5147   1.5363
  1.5425   1.5532   1.5638   1.5707   1.5946   1.6111   1.6256   1.6416
  1.6490   1.6620   1.6733   1.6863   1.6905   1.7254   1.7654   1.7740
  1.7907   1.7991   1.8214   1.8460   1.9278   1.9438   1.9563   1.9920
  1.9969   2.0243   2.0580   2.0845   2.1193   2.1540   2.1831   2.1948
  2.2116   2.2447   2.2773   2.2822   2.3121   2.3279   2.3371   2.3732
  2.3971   2.4243   2.4347   2.4775   2.5183   2.5453   2.5541   2.5644
  2.6041   2.6547   2.6650   2.7296   2.7324   2.7787   2.8151   2.8357
  2.8547   2.8850   2.9020   2.9291   2.9497   2.9602   2.9864   3.0141
  3.0220   3.0351   3.0711   3.0867   3.0966   3.1386   3.1595   3.1917
  3.2104   3.2323   3.2385   3.2733   3.2972   3.3253   3.3351   3.3415
  3.3866   3.3931   3.4105   3.4233   3.4452   3.4569   3.4730   3.4984
  3.5082   3.5392   3.5509   3.5541   3.5835   3.6185   3.6343   3.6511
  3.6555   3.6793   3.7034   3.7049   3.7179   3.7514   3.7675   3.7826
  3.8111   3.8295   3.8442   3.8493   3.8638   3.9090   3.9103   3.9180
  3.9254   3.9451   3.9570   3.9723   4.0017   4.0236   4.0591   4.0963
  4.1387   4.1747   4.1786   4.1957   4.2131   4.2326   4.2434   4.2631
  4.2744   4.2794   4.3117   4.3616   4.3745   4.3993   4.4281   4.4386
  4.4602   4.4720   4.4827   4.5066   4.5409   4.5608   4.5698   4.6238
  4.6337   4.6810   4.7186   4.7414   4.7586   4.8110   4.8261   4.9107
  4.9291   5.0271   5.0428   5.0903   5.1002   5.1095   5.1742   5.1992
  5.2230   5.2358   5.2508   5.2603   5.2724   5.2843   5.2965   5.3048
  5.3375   5.3500   5.3558   5.3648   5.3823   5.3848   5.3971   5.4131
  5.4262   5.4341   5.4511   5.4795   5.5090   5.5218   5.5451   5.5816
  5.5944   5.6066   5.6169   5.6207   5.6324   5.6610   5.6813   5.6996
  5.7159   5.7543   5.7733   5.7948   5.8277   5.8474   5.9061   5.9481
  5.9598   5.9838   6.0835   6.1483   6.1673   6.3870   6.4543   6.5636
  6.5825   6.6098   6.6424   6.7365   6.8436   6.8989   6.9819   7.0909
  7.1023   7.1078   7.1263   7.1463   7.1816   7.2094   7.2271   7.2524
  7.2731   7.2924   7.3375   7.3476   7.3696   7.3978   7.4127   7.4399
  7.4619   7.4701   7.4952   7.5137   7.5762   7.6541   7.7066   7.7446
  7.8004   7.8105   7.8584   7.8908   7.9113   8.0254   8.0878  24.5834
 24.7038  24.7565  24.8220  25.2151  50.4308  50.5408  50.6056  50.6162
 50.6772  50.7671
 
 Beta MOs
 -- Occupied --
-19.4420 -19.3896 -19.3333 -19.3290 -19.3258 -19.2883 -10.4404 -10.4007
-10.3941 -10.3760 -10.3094  -1.3000  -1.1933  -1.1548  -1.1178  -1.1040
 -0.9782  -0.8748  -0.8299  -0.7867  -0.7250  -0.6487  -0.6380  -0.6327
 -0.6050  -0.5986  -0.5817  -0.5705  -0.5599  -0.5329  -0.5144  -0.4947
 -0.4914  -0.4826  -0.4694  -0.4549  -0.4303  -0.4045  -0.3965  -0.3840
 -0.3741  -0.3525  -0.2975
 -- Virtual --
 -0.0255   0.0286   0.0408   0.0449   0.0509   0.0605   0.0668   0.0752
  0.0814   0.1012   0.1060   0.1101   0.1152   0.1267   0.1316   0.1413
  0.1488   0.1556   0.1630   0.1653   0.1686   0.1754   0.1862   0.1893
  0.1936   0.1962   0.2057   0.2143   0.2246   0.2269   0.2402   0.2517
  0.2591   0.2677   0.2707   0.2783   0.2816   0.2913   0.2986   0.3025
  0.3097   0.3135   0.3210   0.3267   0.3273   0.3365   0.3445   0.3460
  0.3506   0.3557   0.3595   0.3693   0.3732   0.3755   0.3840   0.3890
  0.3942   0.3980   0.4041   0.4112   0.4154   0.4274   0.4359   0.4451
  0.4483   0.4676   0.4685   0.5058   0.5099   0.5325   0.5417   0.5533
  0.5762   0.5969   0.6084   0.6129   0.6255   0.6301   0.6448   0.6542
  0.6621   0.6673   0.6706   0.6897   0.6960   0.7101   0.7250   0.7297
  0.7351   0.7420   0.7608   0.7688   0.7854   0.7942   0.8082   0.8148
  0.8509   0.8686   0.8853   0.8918   0.9114   0.9144   0.9303   0.9619
  0.9675   0.9931   1.0382   1.0418   1.0617   1.0796   1.0812   1.0920
  1.1084   1.1131   1.1236   1.1347   1.1451   1.1458   1.1688   1.1768
  1.1843   1.1949   1.2013   1.2066   1.2145   1.2270   1.2342   1.2447
  1.2526   1.2623   1.2727   1.2831   1.2924   1.2948   1.3050   1.3222
  1.3280   1.3501   1.3538   1.3660   1.3863   1.3882   1.4281   1.4336
  1.4377   1.4498   1.4530   1.4637   1.4768   1.4893   1.5075   1.5151
  1.5424   1.5498   1.5557   1.5651   1.5731   1.5965   1.6171   1.6308
  1.6454   1.6520   1.6693   1.6763   1.6960   1.7069   1.7302   1.7745
  1.7748   1.7971   1.8003   1.8240   1.8524   1.9291   1.9476   1.9574
  1.9951   1.9984   2.0283   2.0612   2.0893   2.1217   2.1569   2.1876
  2.1949   2.2153   2.2492   2.2825   2.2883   2.3156   2.3342   2.3443
  2.3749   2.4016   2.4265   2.4365   2.4791   2.5188   2.5460   2.5551
  2.5650   2.6050   2.6556   2.6678   2.7299   2.7386   2.7796   2.8159
  2.8359   2.8553   2.8851   2.9020   2.9297   2.9499   2.9607   2.9866
  3.0143   3.0225   3.0351   3.0715   3.0875   3.0970   3.1388   3.1599
  3.1918   3.2108   3.2324   3.2393   3.2736   3.2974   3.3261   3.3353
  3.3416   3.3870   3.3932   3.4111   3.4235   3.4456   3.4571   3.4733
  3.4986   3.5086   3.5394   3.5514   3.5544   3.5838   3.6187   3.6346
  3.6513   3.6556   3.6800   3.7041   3.7054   3.7183   3.7518   3.7677
  3.7827   3.8111   3.8300   3.8445   3.8496   3.8641   3.9092   3.9107
  3.9184   3.9258   3.9453   3.9572   3.9725   4.0021   4.0238   4.0593
  4.0965   4.1392   4.1753   4.1787   4.1961   4.2137   4.2333   4.2437
  4.2636   4.2748   4.2794   4.3121   4.3627   4.3750   4.3994   4.4284
  4.4388   4.4611   4.4735   4.4836   4.5072   4.5449   4.5615   4.5776
  4.6321   4.6381   4.6933   4.7219   4.7501   4.7693   4.8126   4.8298
  4.9198   4.9499   5.0388   5.0488   5.1453   5.1480   5.1766   5.2073
  5.2099   5.2292   5.2525   5.2725   5.2739   5.2817   5.2953   5.3014
  5.3185   5.3399   5.3527   5.3562   5.3653   5.3838   5.3871   5.3976
  5.4213   5.4376   5.4511   5.4528   5.4814   5.5164   5.5291   5.5488
  5.5878   5.5966   5.6098   5.6177   5.6224   5.6338   5.6613   5.6827
  5.7005   5.7239   5.7581   5.7877   5.7992   5.8335   5.8480   5.9062
  5.9495   5.9600   5.9840   6.0848   6.1483   6.1682   6.4014   6.4986
  6.5717   6.5843   6.6106   6.6461   6.7374   6.9254   6.9769   7.0415
  7.0921   7.1030   7.1237   7.1461   7.1512   7.1935   7.2102   7.2469
  7.2728   7.2765   7.2962   7.3383   7.3658   7.3706   7.4020   7.4314
  7.4561   7.4708   7.4858   7.5072   7.5148   7.5762   7.6549   7.7068
  7.7448   7.8077   7.8169   7.8589   7.8914   7.9114   8.0383   8.1079
 24.5833  24.7036  24.7565  24.8222  25.2151  50.4432  50.5500  50.6057
 50.6169  50.6773  50.7672
 --------------------------------------------------------------
 
          Ground-State Mulliken Net Atomic Charges

     Atom                 Charge (a.u.)    Spin (a.u.)
  --------------------------------------------------------
      1 O                    -0.476852      -0.000015
      2 C                    -0.487658      -0.000120
      3 C                     0.134254      -0.000929
      4 O                    -0.709468      -0.000546
      5 C                     0.019993       0.004236
      6 C                    -0.401570      -0.008950
      7 C                    -0.295353       0.012765
      8 O                    -0.432736       0.002408
      9 O                    -0.462073       0.001755
     10 H                     0.348333       0.000027
     11 H                     0.195277       0.000131
     12 H                     0.180381      -0.000203
     13 H                     0.285505      -0.001031
     14 H                     0.290657       0.005702
     15 H                     0.260422      -0.000265
     16 H                     0.353326      -0.000058
     17 H                     0.377826      -0.000277
     18 O                     0.070825       0.335660
     19 O                    -0.251086       0.649712
  --------------------------------------------------------
  Sum of atomic charges =    -1.000000
  Sum of spin   charges =     1.000000

 -----------------------------------------------------------------
                    Cartesian Multipole Moments
 -----------------------------------------------------------------
    Charge (ESU x 10^10)
                -4.8032
    Dipole Moment (Debye)
         X     -15.4074      Y      -8.3458      Z     -11.1736
       Tot      20.7820
    Quadrupole Moments (Debye-Ang)
        XX    -143.4601     XY     -31.1174     YY     -91.3246
        XZ     -50.7609     YZ     -23.7970     ZZ    -105.7050
    Octopole Moments (Debye-Ang^2)
       XXX   -1205.3833    XXY    -241.7016    XYY    -322.6525
       YYY    -400.6026    XXZ    -376.5584    XYZ     -91.3541
       YYZ    -174.8952    XZZ    -410.2275    YZZ    -182.0674
       ZZZ    -477.3766
    Hexadecapole Moments (Debye-Ang^3)
      XXXX   -9759.6019   XXXY   -2114.1396   XXYY   -1661.3839
      XYYY   -1587.0540   YYYY   -1969.6965   XXXZ   -3038.7357
      XXYZ    -682.6235   XYYZ    -692.2984   YYYZ    -938.1621
      XXZZ   -2232.7555   XYZZ    -743.9621   YYZZ    -747.7291
      XZZZ   -2042.9814   YZZZ   -1010.3880   ZZZZ   -2303.6637
 -----------------------------------------------------------------
 Calculating analytic gradient of the SCF energy
 Gradient of CDS energy
            1           2           3           4           5           6
    1   0.0001160  -0.0003054  -0.0014495   0.0013670   0.0001743   0.0001362
    2   0.0000576  -0.0008348   0.0008352  -0.0007060  -0.0000232   0.0000103
    3   0.0000077  -0.0007338   0.0015900  -0.0012802  -0.0001417   0.0000557
            7           8           9          10          11          12
    1  -0.0022594   0.0014720   0.0009485  -0.0004351   0.0001445   0.0000244
    2   0.0002026  -0.0011725   0.0013767   0.0000720   0.0001476  -0.0000397
    3   0.0011530   0.0007971  -0.0017403   0.0000695  -0.0000417   0.0001885
           13          14          15          16          17          18
    1   0.0000851   0.0001613   0.0002270  -0.0003017  -0.0001597   0.0000207
    2  -0.0000676   0.0001195  -0.0000242   0.0002055  -0.0001993   0.0000703
    3  -0.0001429  -0.0000585   0.0000445  -0.0001063   0.0002710   0.0000860
           19
    1   0.0000337
    2  -0.0000299
    3  -0.0000176
 Gradient of SCF Energy
            1           2           3           4           5           6
    1  -0.0251938   0.0391033   0.0456998  -0.0143663  -0.0428176   0.0415928
    2   0.0147751  -0.0305495   0.0062243   0.0020027  -0.0094799   0.0047270
    3   0.0067643  -0.0018037  -0.0039486   0.0092801  -0.0106689  -0.0462992
            7           8           9          10          11          12
    1   0.0084500  -0.0262885  -0.0193170   0.0091410  -0.0078225  -0.0048162
    2   0.0356891   0.0008796  -0.0204991  -0.0118028  -0.0003140   0.0186563
    3   0.0261194  -0.0104414   0.0063772  -0.0142779   0.0179275  -0.0100466
           13          14          15          16          17          18
    1  -0.0114058  -0.0111676  -0.0191443   0.0182609   0.0178541   0.0012674
    2   0.0090374  -0.0195999  -0.0193279   0.0107362   0.0124145  -0.0075512
    3   0.0155555   0.0144585  -0.0156602   0.0066918   0.0047306   0.0061045
           19
    1   0.0009701
    2   0.0039821
    3  -0.0008629
 Max gradient component =       4.630E-02
 RMS gradient           =       1.870E-02
 Computing fast CPCM-SWIG gradient
 Updating gradient with PCM contributions...
 -- total gradient after adding PCM contribution --
---------------------------------------------------
  Atom         X              Y              Z     
---------------------------------------------------
   1       0.000444      -0.003174      -0.006819
   2      -0.006270       0.002134       0.002422
   3       0.000894       0.001431       0.000117
   4      -0.004384       0.001153       0.002426
   5       0.001901       0.000920      -0.000043
   6       0.000090       0.000014       0.000982
   7      -0.007320      -0.003593      -0.001449
   8       0.003600       0.007571       0.000071
   9       0.006002       0.001460       0.005515
  10       0.001330       0.003063       0.005913
  11       0.001706      -0.000516      -0.003438
  12       0.001407      -0.003790       0.001008
  13       0.002304      -0.001439      -0.002146
  14       0.002099       0.002150      -0.001705
  15       0.002350       0.002041       0.001488
  16      -0.002706      -0.006159      -0.000671
  17      -0.003553      -0.001802      -0.004423
  18      -0.004741      -0.006885      -0.001351
  19       0.004849       0.005420       0.002105
---------------------------------------------------
 Number of fixed atoms: 0
 Gradient time:  CPU 425.63 s  wall 34.37 s
 Geometry Optimization Parameters
   NAtoms,    NIC,     NZ,  NCons,   NDum,   NFix, NCnnct, MaxDiis
       19     121       0       0       0       0       0       0


** GEOMETRY OPTIMIZATION IN DELOCALIZED INTERNAL COORDINATES **
   Searching for a Minimum

   Optimization Cycle:   1

                       Coordinates (Angstroms)
     ATOM                X               Y               Z
      1  O         0.8966093353   -0.0781910383   -0.1007625725
      2  C         2.2946283263   -0.2831900607    0.0512356949
      3  C         2.8683707457    0.8009128743    0.9606138869
      4  O         1.9902488622    1.2635266730    1.8197121826
      5  C         4.1681738527    1.1765761918    0.8231659976
      6  C         4.9043787652    2.1550688574    1.6634975625
      7  C         4.1329153512    2.9223173133    2.7488611966
      8  O         3.1189513315    3.7006019531    2.1538834385
      9  O         3.6321580698    2.0649397469    3.7474758772
     10  H         0.6821832907    0.4432052101    0.7030102909
     11  H         2.7717462889   -0.2744828469   -0.9336792996
     12  H         2.4892587045   -1.2661656492    0.5094950118
     13  H         4.7404434082    0.7324023010    0.0116875100
     14  H         5.4682915872    2.8777507595    1.0649472214
     15  H         4.8284065915    3.6087692472    3.2391862282
     16  H         2.4622876203    3.0230379514    1.8601330490
     17  H         2.9314549619    1.5495263429    3.2727147503
     18  O         5.9693309931    1.3897517441    2.3860515671
     19  O         6.9415520135    2.1733461290    2.7850094069
   Point Group: c1    Number of degrees of freedom:    51


   Energy is   -646.723106389


 Attempting to generate delocalized internal coordinates
 Initial Hessian constructed with Jon Baker's OPTIMIZE code

 51 Hessian modes will be used to form the next step
  Hessian Eigenvalues:
     0.002774    0.004307    0.005620    0.011146    0.012851    0.014334
     0.014558    0.016070    0.017928    0.027703    0.041610    0.055178
     0.055326    0.058988    0.062975    0.073493    0.089196    0.094570
     0.113880    0.139130    0.159993    0.160000    0.160000    0.160000
     0.184714    0.191850    0.194064    0.210664    0.220002    0.220315
     0.249997    0.250000    0.250000    0.288018    0.297114    0.326619
     0.334759    0.339892    0.342668    0.343058    0.344321    0.350697
     0.422920    0.440167    0.442849    0.493107    0.498198    0.510415
     0.529547    0.637882    0.642604

 Minimum search - taking simple RFO step
 Searching for Lamda that Minimizes Along All modes
 Value Taken    Lamda =  -0.00172072
 Step Taken.  Stepsize is  0.230627

                             Maximum     Tolerance    Cnvgd?
         Gradient           0.009786      0.000300      NO
         Displacement       0.099200      0.001200      NO
         Energy change     *********      0.000001      NO


 New Cartesian Coordinates Obtained by Inverse Iteration

 Displacement from previous Coordinates is:  0.579726
 ----------------------------------------------------------------
             Standard Nuclear Orientation (Angstroms)
    I     Atom           X                Y                Z
 ----------------------------------------------------------------
    1      O       0.9116110110    -0.1368837230    -0.1156782524
    2      C       2.3160001754    -0.3019140872     0.0453218366
    3      C       2.8615724538     0.7721439126     0.9757648151
    4      O       1.9907015614     1.1878804396     1.8596289488
    5      C       4.1453388038     1.1820975827     0.8325928967
    6      C       4.8881062124     2.1528230882     1.6739937065
    7      C       4.1471973147     2.9318383419     2.7697828198
    8      O       3.1854894453     3.7818545639     2.1874167217
    9      O       3.5780314135     2.0864190553     3.7413910173
   10      H       0.6469527153     0.3651866267     0.6775774267
   11      H       2.7962695835    -0.2613851681    -0.9307122754
   12      H       2.5284242344    -1.2815847374     0.4871989037
   13      H       4.7060195770     0.7662915159     0.0049811288
   14      H       5.4463348642     2.8704397874     1.0736572537
   15      H       4.8677793354     3.5659706186     3.2821180980
   16      H       2.4877098612     3.1776349075     1.8532861750
   17      H       2.8548022863     1.6149144622     3.2671546921
   18      O       5.9590772048     1.3784317010     2.3736803840
   19      O       6.9739720462     2.1275448119     2.7070827036
 ----------------------------------------------------------------
 Nuclear Repulsion Energy =         664.66943437 hartrees
 There are       44 alpha and       43 beta electrons
 Discretize the solute cavity surface with Lebedev spheres
	Using 110 Lebedev grid points for each H atom
	Using 194 Lebedev grid points for other atoms
	Atomic van der Waals radii will be scaled by 1.20
 Remove points where switching function is < 1.0e-08
 Keep 1449 surface tesserae and discard 1565 interior tesserae
 Molecular Surface Area = 165.870 Angst**2
 Applying Cartesian multipole field
    Component          Value
    ---------          -----
     (2,0,0)        1.00000E-12
     (0,2,0)        2.00000E-11
     (0,0,2)       -3.00000E-11
 Nucleus-field energy     =    -0.0000000115 hartrees
 Requested basis set is 6-311++G(2df,2p)
 There are 136 shells and 454 basis functions
 A cutoff of  1.0D-12 yielded   8000 shell pairs
 There are     88261 function pairs (    110036 Cartesian)
 Smallest overlap matrix eigenvalue = 3.62E-06
 Guess MOs from SCF MO coefficient file

 -----------------------------------------------------------------------
  General SCF calculation program by
  Eric Jon Sundstrom, Paul Horn, Yuezhi Mao, Dmitri Zuev, Alec White,
  David Stuck, Shaama M.S., Shane Yost, Joonho Lee, David Small,
  Daniel Levine, Susi Lehtola, Hugh Burton, Evgeny Epifanovsky,
  Bang C. Huynh
 -----------------------------------------------------------------------
 Exchange:     0.1500 Hartree-Fock + 1.0000 wB97M-V + LR-HF
 Correlation:  1.0000 wB97M-V
 Using SG-2 standard quadrature grid
 Nonlocal Correlation:  VV10 with C = 0.0100 and b = 6.00 and scale = 1.00000
 Grid used for NLC:  SG-1 standard quadrature
 
 Citation of the SMD model:
 Marenich, A.V.; Cramer, C.J.; Truhlar, D.G.
 J. Phys. Chem. B 2009, 113, 6378-6396.
 iSolventCode=           1
 Solvent: water                                                           
 
 vradii
            1           2           3           4           5           6
    1   1.5200000   1.8500000   1.8500000   1.5200000   1.8500000   1.8500000
            7           8           9          10          11          12
    1   1.8500000   1.5200000   1.5200000   1.2000000   1.2000000   1.2000000
           13          14          15          16          17          18
    1   1.2000000   1.2000000   1.2000000   1.2000000   1.2000000   1.5200000
           19
    1   1.5200000
 -------------------------------------------------------
 OpenMP BLAS3 based DFT computing Module                
 Release: version 1.0, May 2013, Q-Chem Inc. Pittsburgh 
 -------------------------------------------------------
 A unrestricted SCF calculation will be
 performed using Roothaan-Hall, DIIS, GDM
 SCF converges when RMS gradient is below 1.0e-07
 ---------------------------------------
  Cycle       Energy         DIIS error
 ---------------------------------------
    1    -646.6225705196      3.09e-04  Roothaan Step
 ---------------------------------------
  Cycle       Energy         DIIS error
 ---------------------------------------
    1    -646.7220472281      1.83e-04  
    2    -646.7258970007      1.71e-04  Done DIIS. Switching to GDM
 ---------------------------------------
  Cycle       Energy        RMS Gradient
 ---------------------------------------
    1    -646.7258970007      6.24e-03   Normal BFGS step
    2    -646.7254028047      8.62e-03  Line search: overstep
    3    -646.7279211873      3.66e-03   Normal BFGS step
    4    -646.7280949240      1.92e-03   Normal BFGS step
    5    -646.7281264977      8.26e-04   Normal BFGS step
    6    -646.7281356925      4.33e-04   Normal BFGS step
    7    -646.7281371702      2.96e-04   Normal BFGS step
    8    -646.7281378188      2.10e-04   Normal BFGS step
    9    -646.7281380103      1.55e-04   Normal BFGS step
   10    -646.7281380929      1.24e-04   Normal BFGS step
   11    -646.7281381491      8.71e-05   Normal BFGS step
   12    -646.7281382014      3.86e-05   Normal BFGS step
   13    -646.7281382250      1.60e-05   Normal BFGS step
   14    -646.7281382300      6.31e-06   Normal BFGS step
   15    -646.7281382310      4.64e-06   Normal BFGS step
   16    -646.7281382312      2.19e-06   Normal BFGS step
   17    -646.7281382313      8.35e-07   Normal BFGS step
   18    -646.7281382313      6.49e-07   Normal BFGS step
   19    -646.7281382313      3.20e-07   Normal BFGS step
   20    -646.7281382313      7.49e-08  Convergence criterion met
 ---------------------------------------
 SCF time:   CPU 3140.52s  wall 215.00s 
<S^2> =          0.754196433
(3)  G-ENP(liq) elect-nuc-pol free energy of system     -646.728138231 a.u.
(4)  G-CDS(liq) cavity-dispersion-solvent structure 
     free energy                                                2.9105 kcal/mol
(6)  G-S(liq) free energy of system                     -646.723500085 a.u.
 SCF   energy in the final basis set =     -646.7235000851
 Total energy in the final basis set =     -646.7235000851
 
 --------------------------------------------------------------
 
                    Orbital Energies (a.u.)
 --------------------------------------------------------------
 
 Alpha MOs
 -- Occupied --
-19.4528 -19.4067 -19.3390 -19.3261 -19.3255 -19.2839 -10.4415 -10.3993
-10.3911 -10.3743 -10.3059  -1.3301  -1.1944  -1.1536  -1.1199  -1.1015
 -1.0066  -0.8823  -0.8370  -0.7897  -0.7312  -0.6536  -0.6506  -0.6384
 -0.6179  -0.6071  -0.5949  -0.5803  -0.5618  -0.5579  -0.5219  -0.5103
 -0.4905  -0.4857  -0.4715  -0.4559  -0.4320  -0.4170  -0.4004  -0.3969
 -0.3858  -0.3719  -0.3494  -0.2957
 -- Virtual --
  0.0283   0.0409   0.0446   0.0502   0.0606   0.0666   0.0734   0.0818
  0.1007   0.1051   0.1093   0.1147   0.1266   0.1312   0.1400   0.1476
  0.1553   0.1635   0.1656   0.1680   0.1743   0.1857   0.1901   0.1923
  0.1950   0.2052   0.2106   0.2234   0.2248   0.2393   0.2516   0.2581
  0.2655   0.2690   0.2755   0.2761   0.2884   0.2964   0.3015   0.3092
  0.3127   0.3170   0.3217   0.3251   0.3363   0.3419   0.3457   0.3528
  0.3560   0.3612   0.3673   0.3722   0.3773   0.3835   0.3893   0.3914
  0.3966   0.4037   0.4109   0.4176   0.4282   0.4354   0.4458   0.4503
  0.4683   0.4694   0.5010   0.5104   0.5292   0.5429   0.5538   0.5770
  0.5974   0.6100   0.6152   0.6227   0.6308   0.6467   0.6579   0.6630
  0.6675   0.6726   0.6910   0.6949   0.7133   0.7225   0.7289   0.7358
  0.7441   0.7609   0.7696   0.7847   0.7966   0.8060   0.8142   0.8480
  0.8656   0.8839   0.8895   0.9067   0.9122   0.9306   0.9570   0.9602
  0.9908   1.0298   1.0393   1.0586   1.0747   1.0810   1.0887   1.1030
  1.1032   1.1236   1.1341   1.1447   1.1458   1.1599   1.1785   1.1815
  1.1869   1.1911   1.1947   1.2069   1.2134   1.2228   1.2361   1.2424
  1.2579   1.2654   1.2736   1.2845   1.2955   1.3005   1.3212   1.3330
  1.3462   1.3580   1.3631   1.3848   1.3869   1.4273   1.4303   1.4385
  1.4430   1.4549   1.4656   1.4834   1.4891   1.5110   1.5131   1.5386
  1.5431   1.5548   1.5636   1.5758   1.5928   1.6198   1.6288   1.6377
  1.6515   1.6677   1.6704   1.6793   1.6979   1.7208   1.7478   1.7657
  1.7795   1.8014   1.8201   1.8498   1.9279   1.9335   1.9553   1.9782
  1.9975   2.0149   2.0546   2.0759   2.1065   2.1595   2.1713   2.1897
  2.2012   2.2358   2.2464   2.2821   2.3099   2.3223   2.3495   2.3734
  2.4001   2.4025   2.4278   2.4754   2.5099   2.5417   2.5507   2.5655
  2.6081   2.6413   2.6660   2.7259   2.7314   2.7651   2.8157   2.8357
  2.8576   2.8854   2.9002   2.9299   2.9468   2.9582   2.9828   3.0081
  3.0227   3.0332   3.0660   3.0869   3.0974   3.1332   3.1621   3.1903
  3.2051   3.2331   3.2385   3.2706   3.2952   3.3229   3.3388   3.3444
  3.3753   3.3938   3.4064   3.4195   3.4440   3.4532   3.4796   3.4939
  3.5138   3.5376   3.5500   3.5627   3.5816   3.6064   3.6349   3.6512
  3.6609   3.6808   3.7033   3.7070   3.7194   3.7562   3.7703   3.7816
  3.8115   3.8256   3.8434   3.8524   3.8611   3.9027   3.9102   3.9152
  3.9264   3.9396   3.9570   3.9687   4.0083   4.0277   4.0623   4.1005
  4.1422   4.1684   4.1888   4.2059   4.2175   4.2297   4.2417   4.2713
  4.2781   4.2866   4.3099   4.3620   4.3834   4.3913   4.4234   4.4368
  4.4561   4.4846   4.4948   4.5210   4.5501   4.5699   4.5828   4.6314
  4.6454   4.6888   4.7202   4.7464   4.7591   4.8137   4.8475   4.9224
  4.9315   5.0307   5.0452   5.0934   5.1004   5.1087   5.1732   5.1981
  5.2218   5.2390   5.2512   5.2602   5.2644   5.2798   5.2949   5.3018
  5.3288   5.3407   5.3518   5.3590   5.3808   5.3862   5.3891   5.4085
  5.4248   5.4366   5.4508   5.4758   5.5157   5.5218   5.5540   5.5876
  5.6041   5.6123   5.6298   5.6351   5.6456   5.6631   5.6859   5.7023
  5.7161   5.7589   5.7838   5.8069   5.8292   5.8512   5.9117   5.9599
  5.9732   6.0055   6.1012   6.1530   6.1762   6.3938   6.4798   6.5824
  6.5984   6.6188   6.6526   6.7405   6.8407   6.8992   6.9826   7.0736
  7.0989   7.1103   7.1198   7.1293   7.1779   7.2202   7.2316   7.2589
  7.2890   7.3012   7.3355   7.3584   7.3698   7.3908   7.4111   7.4367
  7.4410   7.4689   7.4818   7.5137   7.5962   7.6671   7.6878   7.7485
  7.8003   7.8154   7.8580   7.8871   7.9034   8.0342   8.1077  24.5960
 24.7149  24.7744  24.8288  25.2446  50.4387  50.5437  50.6050  50.6155
 50.6743  50.7611
 
 Beta MOs
 -- Occupied --
-19.4416 -19.3887 -19.3389 -19.3261 -19.3254 -19.2839 -10.4411 -10.3997
-10.3911 -10.3743 -10.3059  -1.3033  -1.1940  -1.1536  -1.1197  -1.1015
 -0.9788  -0.8744  -0.8317  -0.7889  -0.7275  -0.6494  -0.6401  -0.6328
 -0.6049  -0.6001  -0.5811  -0.5713  -0.5606  -0.5317  -0.5142  -0.4952
 -0.4903  -0.4830  -0.4700  -0.4555  -0.4306  -0.4056  -0.3958  -0.3838
 -0.3737  -0.3492  -0.2953
 -- Virtual --
 -0.0240   0.0285   0.0410   0.0448   0.0506   0.0610   0.0668   0.0736
  0.0821   0.1020   0.1058   0.1108   0.1150   0.1274   0.1318   0.1404
  0.1480   0.1559   0.1637   0.1664   0.1685   0.1748   0.1861   0.1910
  0.1931   0.1953   0.2053   0.2127   0.2245   0.2273   0.2412   0.2528
  0.2583   0.2671   0.2703   0.2771   0.2831   0.2907   0.2970   0.3043
  0.3111   0.3137   0.3178   0.3226   0.3257   0.3379   0.3430   0.3465
  0.3537   0.3581   0.3616   0.3685   0.3736   0.3778   0.3847   0.3898
  0.3922   0.3973   0.4049   0.4117   0.4180   0.4289   0.4361   0.4473
  0.4510   0.4689   0.4707   0.5014   0.5110   0.5297   0.5432   0.5542
  0.5771   0.5978   0.6103   0.6154   0.6231   0.6309   0.6478   0.6581
  0.6633   0.6677   0.6730   0.6912   0.6950   0.7135   0.7231   0.7292
  0.7360   0.7448   0.7610   0.7703   0.7855   0.7985   0.8061   0.8147
  0.8483   0.8659   0.8846   0.8904   0.9073   0.9124   0.9309   0.9573
  0.9612   0.9911   1.0314   1.0419   1.0597   1.0756   1.0820   1.0902
  1.1041   1.1070   1.1259   1.1375   1.1474   1.1477   1.1653   1.1802
  1.1828   1.1923   1.1941   1.2037   1.2118   1.2179   1.2311   1.2371
  1.2478   1.2621   1.2683   1.2784   1.2893   1.2969   1.3027   1.3219
  1.3343   1.3468   1.3588   1.3655   1.3866   1.3885   1.4276   1.4316
  1.4398   1.4449   1.4568   1.4681   1.4844   1.4914   1.5117   1.5141
  1.5402   1.5550   1.5559   1.5663   1.5773   1.5954   1.6253   1.6335
  1.6413   1.6529   1.6735   1.6809   1.6977   1.7007   1.7259   1.7570
  1.7682   1.7825   1.8040   1.8222   1.8564   1.9295   1.9361   1.9557
  1.9814   1.9990   2.0215   2.0569   2.0795   2.1103   2.1634   2.1722
  2.1907   2.2041   2.2386   2.2499   2.2902   2.3187   2.3316   2.3526
  2.3746   2.4019   2.4072   2.4301   2.4772   2.5105   2.5425   2.5519
  2.5661   2.6088   2.6430   2.6680   2.7264   2.7374   2.7660   2.8165
  2.8357   2.8582   2.8857   2.9005   2.9305   2.9469   2.9588   2.9830
  3.0083   3.0232   3.0333   3.0666   3.0876   3.0978   3.1334   3.1626
  3.1905   3.2054   3.2332   3.2393   3.2709   3.2953   3.3235   3.3394
  3.3445   3.3756   3.3939   3.4069   3.4198   3.4444   3.4534   3.4799
  3.4941   3.5141   3.5378   3.5501   3.5632   3.5820   3.6066   3.6351
  3.6514   3.6610   3.6814   3.7041   3.7074   3.7199   3.7566   3.7704
  3.7818   3.8116   3.8261   3.8436   3.8526   3.8614   3.9030   3.9106
  3.9156   3.9268   3.9398   3.9573   3.9689   4.0087   4.0278   4.0625
  4.1008   4.1426   4.1686   4.1893   4.2064   4.2180   4.2302   4.2422
  4.2720   4.2784   4.2866   4.3102   4.3629   4.3839   4.3921   4.4237
  4.4371   4.4567   4.4863   4.4955   4.5214   4.5548   4.5704   4.5931
  4.6355   4.6520   4.7009   4.7245   4.7561   4.7679   4.8149   4.8515
  4.9317   4.9518   5.0417   5.0518   5.1463   5.1468   5.1782   5.2062
  5.2094   5.2255   5.2527   5.2607   5.2716   5.2852   5.2917   5.3035
  5.3179   5.3297   5.3427   5.3562   5.3592   5.3833   5.3879   5.3895
  5.4195   5.4377   5.4486   5.4524   5.4776   5.5201   5.5333   5.5573
  5.5909   5.6087   5.6153   5.6307   5.6370   5.6460   5.6641   5.6867
  5.7035   5.7239   5.7651   5.7959   5.8088   5.8370   5.8530   5.9119
  5.9613   5.9735   6.0056   6.1022   6.1533   6.1769   6.4083   6.5243
  6.5893   6.5993   6.6217   6.6569   6.7415   6.9224   6.9765   7.0409
  7.0753   7.0993   7.1189   7.1260   7.1546   7.1871   7.2313   7.2495
  7.2780   7.2902   7.3052   7.3370   7.3700   7.3773   7.3934   7.4310
  7.4376   7.4589   7.4801   7.4988   7.5201   7.5962   7.6679   7.6882
  7.7489   7.8053   7.8236   7.8587   7.8876   7.9036   8.0478   8.1275
 24.5959  24.7147  24.7744  24.8290  25.2446  50.4510  50.5530  50.6050
 50.6161  50.6745  50.7611
 --------------------------------------------------------------
 
          Ground-State Mulliken Net Atomic Charges

     Atom                 Charge (a.u.)    Spin (a.u.)
  --------------------------------------------------------
      1 O                    -0.476832      -0.000020
      2 C                    -0.493375      -0.000411
      3 C                     0.190680       0.000790
      4 O                    -0.737811      -0.000086
      5 C                    -0.011958       0.000736
      6 C                    -0.403882      -0.006172
      7 C                    -0.289229       0.012711
      8 O                    -0.413780       0.002531
      9 O                    -0.476953       0.001793
     10 H                     0.347193       0.000017
     11 H                     0.196002       0.000170
     12 H                     0.181649      -0.000158
     13 H                     0.281480      -0.000998
     14 H                     0.295556       0.005258
     15 H                     0.262027      -0.000772
     16 H                     0.346503      -0.000069
     17 H                     0.384183       0.000037
     18 O                     0.070359       0.338425
     19 O                    -0.251813       0.646220
  --------------------------------------------------------
  Sum of atomic charges =    -1.000000
  Sum of spin   charges =     1.000000

 -----------------------------------------------------------------
                    Cartesian Multipole Moments
 -----------------------------------------------------------------
    Charge (ESU x 10^10)
                -4.8032
    Dipole Moment (Debye)
         X     -15.6646      Y      -7.7721      Z     -11.2795
       Tot      20.8089
    Quadrupole Moments (Debye-Ang)
        XX    -144.8437     XY     -30.3375     YY     -89.8633
        XZ     -50.6270     YZ     -23.0710     ZZ    -106.0389
    Octopole Moments (Debye-Ang^2)
       XXX   -1216.0326    XXY    -240.6432    XYY    -321.4992
       YYY    -396.0145    XXZ    -373.0008    XYZ     -88.5364
       YYZ    -172.9975    XZZ    -407.4165    YZZ    -179.4825
       ZZZ    -477.8423
    Hexadecapole Moments (Debye-Ang^3)
      XXXX   -9848.9281   XXXY   -2116.5208   XXYY   -1667.2776
      XYYY   -1591.6242   YYYY   -1987.5815   XXXZ   -3006.2811
      XXYZ    -666.3023   XYYZ    -686.2635   YYYZ    -940.8318
      XXZZ   -2201.1951   XYZZ    -729.9173   YYZZ    -747.0379
      XZZZ   -2021.6062   YZZZ   -1006.5112   ZZZZ   -2302.2817
 -----------------------------------------------------------------
 Calculating analytic gradient of the SCF energy
 Gradient of CDS energy
            1           2           3           4           5           6
    1   0.0001035  -0.0002492  -0.0014489   0.0013574   0.0001771   0.0001345
    2   0.0000525  -0.0008216   0.0007504  -0.0006466  -0.0000217   0.0000071
    3   0.0000093  -0.0007588   0.0016600  -0.0013263  -0.0001383   0.0000559
            7           8           9          10          11          12
    1  -0.0023358   0.0014772   0.0010702  -0.0004443   0.0001400   0.0000119
    2   0.0003385  -0.0013390   0.0013795   0.0000600   0.0001525  -0.0000347
    3   0.0011382   0.0008304  -0.0017301   0.0000628  -0.0000263   0.0001871
           13          14          15          16          17          18
    1   0.0000744   0.0001466   0.0002090  -0.0003056  -0.0001707   0.0000280
    2  -0.0000611   0.0001152  -0.0000275   0.0002376  -0.0001770   0.0000649
    3  -0.0001415  -0.0000623   0.0000364  -0.0001252   0.0002686   0.0000694
           19
    1   0.0000245
    2  -0.0000290
    3  -0.0000092
 Gradient of SCF Energy
            1           2           3           4           5           6
    1  -0.0264263   0.0431017   0.0484729  -0.0112691  -0.0443231   0.0414340
    2   0.0155620  -0.0337440   0.0061405  -0.0030189  -0.0119101   0.0074206
    3   0.0113736  -0.0034860  -0.0065590   0.0089330  -0.0136281  -0.0435134
            7           8           9          10          11          12
    1   0.0138746  -0.0223647  -0.0279020   0.0085975  -0.0094004  -0.0062465
    2   0.0413282   0.0013787  -0.0259317  -0.0127318  -0.0007351   0.0225829
    3   0.0233380  -0.0080774   0.0004414  -0.0183630   0.0213161  -0.0112330
           13          14          15          16          17          18
    1  -0.0138286  -0.0129487  -0.0220395   0.0167376   0.0228418   0.0037454
    2   0.0098211  -0.0218045  -0.0194430   0.0109402   0.0169553  -0.0033034
    3   0.0187508   0.0163828  -0.0177230   0.0072329   0.0109439   0.0062515
           19
    1  -0.0020567
    2   0.0004930
    3  -0.0023812
 Max gradient component =       4.847E-02
 RMS gradient           =       2.014E-02
 Computing fast CPCM-SWIG gradient
 Updating gradient with PCM contributions...
 -- total gradient after adding PCM contribution --
---------------------------------------------------
  Atom         X              Y              Z     
---------------------------------------------------
   1       0.000494      -0.001506      -0.001928
   2      -0.001594      -0.000158      -0.000165
   3       0.005084      -0.000510      -0.004352
   4      -0.001306      -0.000656       0.002425
   5      -0.002004      -0.001406       0.000195
   6       0.001180       0.000624       0.000649
   7      -0.001088       0.003736      -0.001220
   8       0.006487       0.006447       0.002752
   9      -0.002181      -0.003970      -0.001590
  10      -0.000916       0.001591       0.002167
  11       0.000577      -0.000209      -0.000013
  12       0.000500      -0.000191      -0.000181
  13      -0.000329      -0.000606       0.000507
  14       0.000151      -0.000130       0.000207
  15      -0.000020      -0.000031       0.000216
  16      -0.004741      -0.005128      -0.001248
  17      -0.000299       0.002401       0.002736
  18      -0.001623      -0.001666      -0.001545
  19       0.001628       0.001366       0.000387
---------------------------------------------------
 Number of fixed atoms: 0
 Gradient time:  CPU 421.09 s  wall 34.10 s
 Geometry Optimization Parameters
   NAtoms,    NIC,     NZ,  NCons,   NDum,   NFix, NCnnct, MaxDiis
       19     121       0       0       0       0       0       0

 Cartesian Hessian Update
 Hessian updated using BFGS update


** GEOMETRY OPTIMIZATION IN DELOCALIZED INTERNAL COORDINATES **
   Searching for a Minimum

   Optimization Cycle:   2

                       Coordinates (Angstroms)
     ATOM                X               Y               Z
      1  O         0.9116110110   -0.1368837230   -0.1156782524
      2  C         2.3160001754   -0.3019140872    0.0453218366
      3  C         2.8615724538    0.7721439126    0.9757648151
      4  O         1.9907015614    1.1878804396    1.8596289488
      5  C         4.1453388038    1.1820975827    0.8325928967
      6  C         4.8881062124    2.1528230882    1.6739937065
      7  C         4.1471973147    2.9318383419    2.7697828198
      8  O         3.1854894453    3.7818545639    2.1874167217
      9  O         3.5780314135    2.0864190553    3.7413910173
     10  H         0.6469527153    0.3651866267    0.6775774267
     11  H         2.7962695835   -0.2613851681   -0.9307122754
     12  H         2.5284242344   -1.2815847374    0.4871989037
     13  H         4.7060195770    0.7662915159    0.0049811288
     14  H         5.4463348642    2.8704397874    1.0736572537
     15  H         4.8677793354    3.5659706186    3.2821180980
     16  H         2.4877098612    3.1776349075    1.8532861750
     17  H         2.8548022863    1.6149144622    3.2671546921
     18  O         5.9590772048    1.3784317010    2.3736803840
     19  O         6.9739720462    2.1275448119    2.7070827036
   Point Group: c1    Number of degrees of freedom:    51


   Energy is   -646.723500085

 Hessian updated using BFGS update

 50 Hessian modes will be used to form the next step
  Hessian Eigenvalues:
     0.002770    0.005501    0.005826    0.011946    0.012839    0.014187
     0.015153    0.016649    0.018339    0.028034    0.041255    0.054160
     0.057010    0.060112    0.063067    0.073071    0.089197    0.093795
     0.113903    0.125876    0.139140    0.159994    0.162262    0.188516
     0.192783    0.206967    0.209567    0.217248    0.239667    0.249584
     0.249998    0.261010    0.289028    0.300377    0.323521    0.327089
     0.337530    0.342820    0.343883    0.348296    0.355827    0.421934
     0.440329    0.446140    0.455195    0.504723    0.512318    0.563621
     0.620632    0.640601

 Minimum search - taking simple RFO step
 Searching for Lamda that Minimizes Along All modes
 Value Taken    Lamda =  -0.00157255
 Step Taken.  Stepsize is  0.248685

                             Maximum     Tolerance    Cnvgd?
         Gradient           0.008225      0.000300      NO
         Displacement       0.097405      0.001200      NO
         Energy change     -0.000394      0.000001      NO


 New Cartesian Coordinates Obtained by Inverse Iteration

 Displacement from previous Coordinates is:  0.595697
 ----------------------------------------------------------------
             Standard Nuclear Orientation (Angstroms)
    I     Atom           X                Y                Z
 ----------------------------------------------------------------
    1      O       0.9232205285    -0.0944819386    -0.1682360161
    2      C       2.3162922275    -0.2857102279     0.0602338406
    3      C       2.8535678641     0.7900771865     0.9854144578
    4      O       1.9760872386     1.2536510286     1.8309895408
    5      C       4.1436296453     1.1757611379     0.8536696526
    6      C       4.8881068937     2.1518794252     1.6796763933
    7      C       4.1451294310     2.9312198454     2.7647584502
    8      O       3.1218591213     3.6995898742     2.1727455086
    9      O       3.6396474679     2.0957035437     3.7757973176
   10      H       0.6138733522     0.4291007917     0.5847103850
   11      H       2.8336068559    -0.2789817257    -0.8915400684
   12      H       2.4779053500    -1.2539166936     0.5338883074
   13      H       4.7000925585     0.7508258330     0.0330594007
   14      H       5.4308338754     2.8654401906     1.0682415360
   15      H       4.8353549180     3.6209416368     3.2357928989
   16      H       2.4550279892     3.0739468062     1.8466728692
   17      H       2.9804373564     1.5211684603     3.3295647833
   18      O       5.9673492538     1.3960092719     2.3844050490
   19      O       6.9893681724     2.1374792536     2.6863946939
 ----------------------------------------------------------------
 Nuclear Repulsion Energy =         666.54425227 hartrees
 There are       44 alpha and       43 beta electrons
 Discretize the solute cavity surface with Lebedev spheres
	Using 110 Lebedev grid points for each H atom
	Using 194 Lebedev grid points for other atoms
	Atomic van der Waals radii will be scaled by 1.20
 Remove points where switching function is < 1.0e-08
 Keep 1453 surface tesserae and discard 1561 interior tesserae
 Molecular Surface Area = 165.243 Angst**2
 Applying Cartesian multipole field
    Component          Value
    ---------          -----
     (2,0,0)        1.00000E-12
     (0,2,0)        2.00000E-11
     (0,0,2)       -3.00000E-11
 Nucleus-field energy     =    -0.0000000118 hartrees
 Requested basis set is 6-311++G(2df,2p)
 There are 136 shells and 454 basis functions
 A cutoff of  1.0D-12 yielded   8025 shell pairs
 There are     88555 function pairs (    110422 Cartesian)
 Smallest overlap matrix eigenvalue = 3.53E-06
 Guess MOs from SCF MO coefficient file

 -----------------------------------------------------------------------
  General SCF calculation program by
  Eric Jon Sundstrom, Paul Horn, Yuezhi Mao, Dmitri Zuev, Alec White,
  David Stuck, Shaama M.S., Shane Yost, Joonho Lee, David Small,
  Daniel Levine, Susi Lehtola, Hugh Burton, Evgeny Epifanovsky,
  Bang C. Huynh
 -----------------------------------------------------------------------
 Exchange:     0.1500 Hartree-Fock + 1.0000 wB97M-V + LR-HF
 Correlation:  1.0000 wB97M-V
 Using SG-2 standard quadrature grid
 Nonlocal Correlation:  VV10 with C = 0.0100 and b = 6.00 and scale = 1.00000
 Grid used for NLC:  SG-1 standard quadrature
 
 Citation of the SMD model:
 Marenich, A.V.; Cramer, C.J.; Truhlar, D.G.
 J. Phys. Chem. B 2009, 113, 6378-6396.
 iSolventCode=           1
 Solvent: water                                                           
 
 vradii
            1           2           3           4           5           6
    1   1.5200000   1.8500000   1.8500000   1.5200000   1.8500000   1.8500000
            7           8           9          10          11          12
    1   1.8500000   1.5200000   1.5200000   1.2000000   1.2000000   1.2000000
           13          14          15          16          17          18
    1   1.2000000   1.2000000   1.2000000   1.2000000   1.2000000   1.5200000
           19
    1   1.5200000
 -------------------------------------------------------
 OpenMP BLAS3 based DFT computing Module                
 Release: version 1.0, May 2013, Q-Chem Inc. Pittsburgh 
 -------------------------------------------------------
 A unrestricted SCF calculation will be
 performed using Roothaan-Hall, DIIS, GDM
 SCF converges when RMS gradient is below 1.0e-07
 ---------------------------------------
  Cycle       Energy         DIIS error
 ---------------------------------------
    1    -646.6227107650      3.10e-04  Roothaan Step
 ---------------------------------------
  Cycle       Energy         DIIS error
 ---------------------------------------
    1    -646.7224544927      1.74e-04  
    2    -646.7261482993      1.55e-04  Done DIIS. Switching to GDM
 ---------------------------------------
  Cycle       Energy        RMS Gradient
 ---------------------------------------
    1    -646.7261482993      6.34e-03   Normal BFGS step
    2    -646.7258664418      7.99e-03  Line search: overstep
    3    -646.7277978676      1.34e-03   Normal BFGS step
    4    -646.7279377393      7.74e-04   Normal BFGS step
    5    -646.7279597882      6.32e-04   Normal BFGS step
    6    -646.7279669623      6.69e-04   Normal BFGS step
    7    -646.7279680767      5.13e-04   Normal BFGS step
    8    -646.7279688743      4.61e-04   Normal BFGS step
    9    -646.7279698185      2.48e-04   Normal BFGS step
   10    -646.7279702370      1.40e-04   Normal BFGS step
   11    -646.7279704324      8.44e-05   Normal BFGS step
   12    -646.7279704739      2.63e-05   Normal BFGS step
   13    -646.7279704839      7.13e-06   Normal BFGS step
   14    -646.7279704855      2.47e-06   Normal BFGS step
   15    -646.7279704859      2.39e-06   Normal BFGS step
   16    -646.7279704860      1.08e-06   Normal BFGS step
   17    -646.7279704860      4.03e-07   Normal BFGS step
   18    -646.7279704860      2.85e-07   Normal BFGS step
   19    -646.7279704860      2.09e-07   Normal BFGS step
   20    -646.7279704860      7.19e-08  Convergence criterion met
 ---------------------------------------
 SCF time:   CPU 3130.18s  wall 216.00s 
<S^2> =          0.754166222
(3)  G-ENP(liq) elect-nuc-pol free energy of system     -646.727970486 a.u.
(4)  G-CDS(liq) cavity-dispersion-solvent structure 
     free energy                                                2.9254 kcal/mol
(6)  G-S(liq) free energy of system                     -646.723308539 a.u.
 SCF   energy in the final basis set =     -646.7233085392
 Total energy in the final basis set =     -646.7233085392
 
 --------------------------------------------------------------
 
                    Orbital Energies (a.u.)
 --------------------------------------------------------------
 
 Alpha MOs
 -- Occupied --
-19.4527 -19.4060 -19.3317 -19.3299 -19.3260 -19.2821 -10.4407 -10.3980
-10.3894 -10.3726 -10.3039  -1.3339  -1.1946  -1.1535  -1.1201  -1.1034
 -1.0067  -0.8833  -0.8387  -0.7918  -0.7326  -0.6536  -0.6523  -0.6419
 -0.6210  -0.6062  -0.5955  -0.5800  -0.5634  -0.5594  -0.5229  -0.5091
 -0.4923  -0.4840  -0.4721  -0.4559  -0.4316  -0.4160  -0.4009  -0.3955
 -0.3858  -0.3713  -0.3482  -0.2950
 -- Virtual --
  0.0284   0.0407   0.0450   0.0502   0.0604   0.0665   0.0747   0.0809
  0.1019   0.1065   0.1097   0.1153   0.1266   0.1294   0.1403   0.1485
  0.1552   0.1629   0.1655   0.1685   0.1755   0.1866   0.1893   0.1908
  0.1965   0.2062   0.2119   0.2235   0.2257   0.2389   0.2495   0.2574
  0.2680   0.2698   0.2754   0.2770   0.2873   0.2997   0.3024   0.3092
  0.3141   0.3211   0.3277   0.3282   0.3365   0.3444   0.3475   0.3505
  0.3566   0.3605   0.3709   0.3746   0.3778   0.3851   0.3909   0.3960
  0.3989   0.4022   0.4107   0.4171   0.4284   0.4352   0.4442   0.4508
  0.4657   0.4714   0.5036   0.5101   0.5296   0.5373   0.5567   0.5776
  0.5979   0.6129   0.6130   0.6273   0.6318   0.6493   0.6522   0.6617
  0.6653   0.6781   0.6922   0.7012   0.7145   0.7224   0.7381   0.7393
  0.7417   0.7587   0.7704   0.7874   0.8016   0.8107   0.8157   0.8478
  0.8640   0.8843   0.8917   0.9088   0.9116   0.9359   0.9582   0.9664
  0.9968   1.0254   1.0322   1.0602   1.0776   1.0825   1.0914   1.1026
  1.1094   1.1157   1.1325   1.1401   1.1465   1.1554   1.1771   1.1799
  1.1911   1.1955   1.1995   1.2102   1.2162   1.2286   1.2408   1.2449
  1.2609   1.2754   1.2763   1.2849   1.2988   1.3052   1.3231   1.3290
  1.3420   1.3579   1.3619   1.3791   1.3922   1.4281   1.4327   1.4433
  1.4489   1.4549   1.4672   1.4827   1.4913   1.5096   1.5158   1.5405
  1.5454   1.5615   1.5653   1.5760   1.5870   1.6131   1.6296   1.6415
  1.6479   1.6642   1.6744   1.6790   1.6998   1.7173   1.7570   1.7755
  1.7851   1.8012   1.8204   1.8474   1.9136   1.9483   1.9521   1.9818
  1.9972   2.0209   2.0470   2.0913   2.1159   2.1666   2.1802   2.1882
  2.2098   2.2424   2.2708   2.2862   2.3086   2.3243   2.3344   2.3730
  2.4076   2.4178   2.4220   2.4854   2.5187   2.5323   2.5398   2.5522
  2.5989   2.6505   2.6578   2.7192   2.7288   2.7688   2.8117   2.8337
  2.8541   2.8839   2.9095   2.9315   2.9469   2.9637   2.9931   3.0158
  3.0192   3.0333   3.0773   3.0895   3.1035   3.1348   3.1567   3.1956
  3.2096   3.2347   3.2464   3.2825   3.2909   3.3259   3.3356   3.3451
  3.3830   3.3964   3.4108   3.4314   3.4521   3.4610   3.4761   3.4994
  3.5202   3.5407   3.5606   3.5648   3.5834   3.6190   3.6459   3.6566
  3.6723   3.6796   3.6998   3.7124   3.7207   3.7545   3.7743   3.7889
  3.8128   3.8339   3.8486   3.8553   3.8619   3.9062   3.9123   3.9200
  3.9329   3.9483   3.9551   3.9799   4.0095   4.0428   4.0760   4.1012
  4.1471   4.1861   4.1907   4.2094   4.2241   4.2446   4.2517   4.2811
  4.2873   4.2993   4.3171   4.3743   4.4007   4.4135   4.4457   4.4558
  4.4706   4.4831   4.4980   4.5265   4.5624   4.5771   4.5801   4.6388
  4.6564   4.6972   4.7320   4.7481   4.7634   4.8205   4.8567   4.9325
  4.9378   5.0391   5.0510   5.0910   5.0995   5.1068   5.1716   5.1999
  5.2202   5.2408   5.2569   5.2673   5.2718   5.2845   5.2953   5.3052
  5.3348   5.3473   5.3488   5.3600   5.3847   5.3907   5.3969   5.4115
  5.4257   5.4414   5.4542   5.4792   5.5187   5.5358   5.5591   5.5964
  5.6117   5.6219   5.6267   5.6384   5.6583   5.6658   5.6883   5.7119
  5.7290   5.7607   5.7935   5.8164   5.8440   5.8627   5.9134   5.9739
  5.9837   6.0287   6.1154   6.1545   6.1870   6.3992   6.5059   6.6004
  6.6041   6.6435   6.6691   6.7476   6.8420   6.9001   6.9876   7.0951
  7.1006   7.1135   7.1256   7.1605   7.1942   7.2011   7.2316   7.2644
  7.3098   7.3191   7.3443   7.3695   7.3782   7.4007   7.4150   7.4471
  7.4572   7.4743   7.5017   7.5145   7.6148   7.6681   7.7209   7.7577
  7.7878   7.8084   7.8535   7.8764   7.8988   8.0417   8.1217  24.6073
 24.7326  24.7915  24.8498  25.2652  50.4457  50.5486  50.6073  50.6222
 50.6796  50.7679
 
 Beta MOs
 -- Occupied --
-19.4415 -19.3880 -19.3316 -19.3299 -19.3260 -19.2821 -10.4404 -10.3984
-10.3894 -10.3726 -10.3038  -1.3071  -1.1943  -1.1535  -1.1200  -1.1034
 -0.9794  -0.8754  -0.8331  -0.7910  -0.7288  -0.6491  -0.6418  -0.6366
 -0.6083  -0.5991  -0.5803  -0.5718  -0.5616  -0.5332  -0.5146  -0.4954
 -0.4910  -0.4815  -0.4712  -0.4554  -0.4308  -0.4036  -0.3980  -0.3840
 -0.3725  -0.3479  -0.2946
 -- Virtual --
 -0.0223   0.0286   0.0409   0.0452   0.0505   0.0608   0.0668   0.0749
  0.0813   0.1031   0.1073   0.1111   0.1156   0.1274   0.1298   0.1408
  0.1489   0.1559   0.1631   0.1664   0.1688   0.1760   0.1870   0.1905
  0.1913   0.1968   0.2064   0.2135   0.2245   0.2284   0.2407   0.2506
  0.2576   0.2685   0.2712   0.2770   0.2841   0.2903   0.3004   0.3053
  0.3109   0.3147   0.3222   0.3282   0.3296   0.3377   0.3461   0.3479
  0.3513   0.3589   0.3608   0.3724   0.3756   0.3782   0.3866   0.3912
  0.3968   0.3997   0.4037   0.4114   0.4179   0.4291   0.4357   0.4455
  0.4514   0.4665   0.4727   0.5040   0.5108   0.5297   0.5382   0.5570
  0.5777   0.5984   0.6131   0.6132   0.6278   0.6318   0.6504   0.6526
  0.6620   0.6655   0.6784   0.6925   0.7013   0.7148   0.7229   0.7382
  0.7398   0.7424   0.7592   0.7707   0.7883   0.8031   0.8113   0.8161
  0.8480   0.8643   0.8850   0.8928   0.9092   0.9118   0.9364   0.9586
  0.9672   0.9971   1.0264   1.0362   1.0609   1.0782   1.0836   1.0925
  1.1039   1.1128   1.1169   1.1340   1.1423   1.1487   1.1676   1.1800
  1.1832   1.1945   1.1981   1.2088   1.2129   1.2229   1.2361   1.2418
  1.2494   1.2641   1.2769   1.2807   1.2894   1.3009   1.3068   1.3238
  1.3300   1.3427   1.3593   1.3637   1.3817   1.3938   1.4298   1.4335
  1.4441   1.4514   1.4566   1.4680   1.4849   1.4936   1.5107   1.5162
  1.5421   1.5558   1.5641   1.5672   1.5785   1.5885   1.6187   1.6335
  1.6456   1.6509   1.6695   1.6793   1.6993   1.7069   1.7233   1.7645
  1.7763   1.7907   1.8027   1.8232   1.8537   1.9148   1.9520   1.9535
  1.9842   1.9985   2.0250   2.0511   2.0963   2.1177   2.1690   2.1823
  2.1899   2.2125   2.2466   2.2724   2.2920   2.3163   2.3294   2.3439
  2.3755   2.4126   2.4204   2.4233   2.4872   2.5195   2.5327   2.5412
  2.5527   2.5996   2.6513   2.6608   2.7232   2.7315   2.7696   2.8127
  2.8339   2.8549   2.8841   2.9095   2.9318   2.9473   2.9642   2.9934
  3.0159   3.0194   3.0338   3.0777   3.0903   3.1039   3.1350   3.1572
  3.1957   3.2099   3.2348   3.2471   3.2827   3.2911   3.3265   3.3359
  3.3453   3.3836   3.3966   3.4112   3.4316   3.4526   3.4613   3.4763
  3.4996   3.5207   3.5409   3.5610   3.5651   3.5837   3.6191   3.6461
  3.6569   3.6724   3.6803   3.7005   3.7128   3.7213   3.7549   3.7744
  3.7890   3.8129   3.8345   3.8489   3.8555   3.8624   3.9065   3.9128
  3.9204   3.9333   3.9485   3.9555   3.9803   4.0098   4.0430   4.0761
  4.1014   4.1475   4.1863   4.1914   4.2099   4.2247   4.2452   4.2520
  4.2817   4.2876   4.2994   4.3174   4.3756   4.4012   4.4137   4.4460
  4.4559   4.4714   4.4847   4.4990   4.5269   4.5684   4.5774   4.5892
  4.6450   4.6614   4.7094   4.7385   4.7531   4.7746   4.8216   4.8606
  4.9454   4.9541   5.0499   5.0579   5.1436   5.1457   5.1749   5.2048
  5.2112   5.2258   5.2579   5.2708   5.2783   5.2792   5.2966   5.3065
  5.3224   5.3355   5.3485   5.3532   5.3627   5.3863   5.3923   5.3984
  5.4231   5.4394   5.4511   5.4560   5.4806   5.5302   5.5432   5.5615
  5.5984   5.6140   5.6233   5.6308   5.6404   5.6595   5.6678   5.6887
  5.7132   5.7351   5.7689   5.8036   5.8194   5.8534   5.8632   5.9135
  5.9744   5.9845   6.0289   6.1171   6.1549   6.1875   6.4137   6.5504
  6.6025   6.6093   6.6470   6.6745   6.7487   6.9232   6.9770   7.0464
  7.0957   7.1015   7.1226   7.1532   7.1660   7.1987   7.2106   7.2535
  7.2812   7.3148   7.3305   7.3479   7.3701   7.3839   7.4063   7.4372
  7.4569   7.4654   7.4947   7.5065   7.5212   7.6148   7.6688   7.7211
  7.7581   7.7881   7.8211   7.8540   7.8770   7.8989   8.0554   8.1416
 24.6072  24.7324  24.7915  24.8500  25.2652  50.4581  50.5580  50.6073
 50.6229  50.6797  50.7679
 --------------------------------------------------------------
 
          Ground-State Mulliken Net Atomic Charges

     Atom                 Charge (a.u.)    Spin (a.u.)
  --------------------------------------------------------
      1 O                    -0.475709      -0.000025
      2 C                    -0.495495      -0.000346
      3 C                     0.124995       0.000785
      4 O                    -0.735536       0.000048
      5 C                     0.066902       0.000308
      6 C                    -0.430058      -0.005703
      7 C                    -0.281017       0.012497
      8 O                    -0.433464       0.002448
      9 O                    -0.462651       0.002257
     10 H                     0.343682       0.000014
     11 H                     0.197560       0.000180
     12 H                     0.183903      -0.000131
     13 H                     0.283037      -0.000961
     14 H                     0.292643       0.004887
     15 H                     0.271467      -0.000578
     16 H                     0.352993      -0.000061
     17 H                     0.376716      -0.000266
     18 O                     0.074064       0.341921
     19 O                    -0.254032       0.642726
  --------------------------------------------------------
  Sum of atomic charges =    -1.000000
  Sum of spin   charges =     1.000000

 -----------------------------------------------------------------
                    Cartesian Multipole Moments
 -----------------------------------------------------------------
    Charge (ESU x 10^10)
                -4.8032
    Dipole Moment (Debye)
         X     -15.5760      Y      -8.2333      Z     -11.0603
       Tot      20.8021
    Quadrupole Moments (Debye-Ang)
        XX    -144.4425     XY     -30.8833     YY     -90.7682
        XZ     -49.7390     YZ     -23.8769     ZZ    -105.4055
    Octopole Moments (Debye-Ang^2)
       XXX   -1218.5103    XXY    -241.8847    XYY    -321.1677
       YYY    -397.3962    XXZ    -371.2030    XYZ     -89.4596
       YYZ    -174.2283    XZZ    -404.8387    YZZ    -181.5792
       ZZZ    -474.3488
    Hexadecapole Moments (Debye-Ang^3)
      XXXX   -9900.7058   XXXY   -2128.2956   XXYY   -1659.1078
      XYYY   -1576.9349   YYYY   -1959.3448   XXXZ   -3016.2039
      XXYZ    -669.1370   XYYZ    -685.1289   YYYZ    -936.0126
      XXZZ   -2200.0056   XYZZ    -733.3275   YYZZ    -747.1698
      XZZZ   -2018.8121   YZZZ   -1011.0337   ZZZZ   -2296.7414
 -----------------------------------------------------------------
 Calculating analytic gradient of the SCF energy
 Gradient of CDS energy
            1           2           3           4           5           6
    1   0.0001116  -0.0002137  -0.0014115   0.0013053   0.0001761   0.0001379
    2   0.0000411  -0.0008232   0.0008046  -0.0006913  -0.0000213   0.0000083
    3   0.0000113  -0.0007451   0.0015337  -0.0012055  -0.0001416   0.0000536
            7           8           9          10          11          12
    1  -0.0024435   0.0014557   0.0011725  -0.0004510   0.0001370  -0.0000093
    2  -0.0001958  -0.0011450   0.0017445   0.0000711   0.0001515  -0.0000241
    3   0.0016797   0.0007843  -0.0022348   0.0000382  -0.0000174   0.0001864
           13          14          15          16          17          18
    1   0.0000691   0.0001472   0.0002127  -0.0003050  -0.0001454   0.0000263
    2  -0.0000641   0.0001106  -0.0000164   0.0002209  -0.0002072   0.0000662
    3  -0.0001384  -0.0000609   0.0000299  -0.0001115   0.0002784   0.0000719
           19
    1   0.0000279
    2  -0.0000304
    3  -0.0000120
 Gradient of SCF Energy
            1           2           3           4           5           6
    1  -0.0277942   0.0463985   0.0478716  -0.0115241  -0.0440208   0.0404313
    2   0.0190841  -0.0342515   0.0031435   0.0014474  -0.0115610   0.0071038
    3   0.0150685  -0.0054603  -0.0054744   0.0056620  -0.0111365  -0.0467838
            7           8           9          10          11          12
    1   0.0203287  -0.0355976  -0.0238832   0.0093242  -0.0117581  -0.0060112
    2   0.0407631  -0.0138800  -0.0212385  -0.0162513   0.0003571   0.0253620
    3   0.0287209  -0.0138724  -0.0003483  -0.0221131   0.0240854  -0.0131666
           13          14          15          16          17          18
    1  -0.0154562  -0.0143842  -0.0226288   0.0248058   0.0218462   0.0076659
    2   0.0112856  -0.0237454  -0.0232085   0.0226419   0.0146853   0.0014743
    3   0.0202166   0.0185911  -0.0177582   0.0095438   0.0096746   0.0080636
           19
    1  -0.0056138
    2  -0.0032118
    3  -0.0035128
 Max gradient component =       4.787E-02
 RMS gradient           =       2.165E-02
 Computing fast CPCM-SWIG gradient
 Updating gradient with PCM contributions...
 -- total gradient after adding PCM contribution --
---------------------------------------------------
  Atom         X              Y              Z     
---------------------------------------------------
   1      -0.000277       0.001117       0.003820
   2       0.002920      -0.001127      -0.002252
   3       0.005592      -0.002249      -0.000097
   4       0.000392       0.001910      -0.001869
   5      -0.003749      -0.000665      -0.000385
   6       0.000052       0.000365      -0.000394
   7       0.007392       0.002962       0.003742
   8      -0.005142      -0.009898      -0.001594
   9      -0.000399       0.002979      -0.001910
  10      -0.001144      -0.001050      -0.002745
  11      -0.001056       0.000210       0.002839
  12      -0.000448       0.003146      -0.001129
  13      -0.002167       0.001047       0.001986
  14      -0.001966      -0.002004       0.001481
  15      -0.001485      -0.001560      -0.001397
  16       0.001317       0.006529       0.000098
  17       0.000184      -0.002642       0.000140
  18       0.002069       0.003764       0.000203
  19      -0.002085      -0.002837      -0.000538
---------------------------------------------------
 Number of fixed atoms: 0
 Gradient time:  CPU 418.04 s  wall 34.28 s
 Geometry Optimization Parameters
   NAtoms,    NIC,     NZ,  NCons,   NDum,   NFix, NCnnct, MaxDiis
       19     121       0       0       0       0       0       0

 Cartesian Hessian Update
 Hessian updated using BFGS update


** GEOMETRY OPTIMIZATION IN DELOCALIZED INTERNAL COORDINATES **
   Searching for a Minimum

   Optimization Cycle:   3

                       Coordinates (Angstroms)
     ATOM                X               Y               Z
      1  O         0.9232205285   -0.0944819386   -0.1682360161
      2  C         2.3162922275   -0.2857102279    0.0602338406
      3  C         2.8535678641    0.7900771865    0.9854144578
      4  O         1.9760872386    1.2536510286    1.8309895408
      5  C         4.1436296453    1.1757611379    0.8536696526
      6  C         4.8881068937    2.1518794252    1.6796763933
      7  C         4.1451294310    2.9312198454    2.7647584502
      8  O         3.1218591213    3.6995898742    2.1727455086
      9  O         3.6396474679    2.0957035437    3.7757973176
     10  H         0.6138733522    0.4291007917    0.5847103850
     11  H         2.8336068559   -0.2789817257   -0.8915400684
     12  H         2.4779053500   -1.2539166936    0.5338883074
     13  H         4.7000925585    0.7508258330    0.0330594007
     14  H         5.4308338754    2.8654401906    1.0682415360
     15  H         4.8353549180    3.6209416368    3.2357928989
     16  H         2.4550279892    3.0739468062    1.8466728692
     17  H         2.9804373564    1.5211684603    3.3295647833
     18  O         5.9673492538    1.3960092719    2.3844050490
     19  O         6.9893681724    2.1374792536    2.6863946939
   Point Group: c1    Number of degrees of freedom:    51


   Energy is   -646.723308539

 Hessian updated using BFGS update

 51 Hessian modes will be used to form the next step
  Hessian Eigenvalues:
     0.002821    0.005546    0.006144    0.011871    0.012862    0.014241
     0.015357    0.017493    0.022672    0.031171    0.041763    0.055429
     0.057690    0.062744    0.063570    0.073000    0.089275    0.094156
     0.113817    0.139134    0.157894    0.159996    0.161670    0.168595
     0.188473    0.192775    0.208443    0.210134    0.218348    0.241014
[...]
    1   0.0001178  -0.0002029  -0.0014087   0.0012946   0.0002016   0.0001344
    2   0.0000551  -0.0008275   0.0007185  -0.0006207  -0.0000228   0.0000058
    3   0.0000131  -0.0007435   0.0016414  -0.0012989  -0.0001448   0.0000567
            7           8           9          10          11          12
    1  -0.0023211   0.0013111   0.0011950  -0.0004559   0.0001287  -0.0000047
    2  -0.0002429  -0.0010820   0.0017169   0.0000670   0.0001593  -0.0000317
    3   0.0016945   0.0007097  -0.0021733   0.0000434  -0.0000321   0.0001890
           13          14          15          16          17          18
    1   0.0000454   0.0001527   0.0002165  -0.0003092  -0.0001493   0.0000242
    2  -0.0000666   0.0001154  -0.0000186   0.0002229  -0.0001909   0.0000729
    3  -0.0001555  -0.0000592   0.0000332  -0.0001174   0.0002681   0.0000899
           19
    1   0.0000297
    2  -0.0000300
    3  -0.0000144
 Gradient of SCF Energy
            1           2           3           4           5           6
    1  -0.0270184   0.0417746   0.0391540  -0.0098324  -0.0371790   0.0401856
    2   0.0169876  -0.0348553   0.0051722  -0.0006340  -0.0079584   0.0052813
    3   0.0122361  -0.0009302  -0.0049090   0.0074023  -0.0129483  -0.0449807
            7           8           9          10          11          12
    1   0.0150119  -0.0294667  -0.0250178   0.0099187  -0.0105678  -0.0048767
    2   0.0387054  -0.0055286  -0.0231140  -0.0135162   0.0002709   0.0224557
    3   0.0245646  -0.0115628   0.0012794  -0.0202823   0.0210028  -0.0118313
           13          14          15          16          17          18
    1  -0.0133077  -0.0131168  -0.0216225   0.0218513   0.0221215   0.0056199
    2   0.0095376  -0.0218307  -0.0208590   0.0167442   0.0156699  -0.0016333
    3   0.0188529   0.0164320  -0.0171517   0.0089037   0.0089749   0.0076437
           19
    1  -0.0036318
    2  -0.0008954
    3  -0.0026961
 Max gradient component =       4.498E-02
 RMS gradient           =       1.968E-02
 Computing fast CPCM-SWIG gradient
 Updating gradient with PCM contributions...
 -- total gradient after adding PCM contribution --
---------------------------------------------------
  Atom         X              Y              Z     
---------------------------------------------------
   1      -0.000016       0.000013       0.000044
   2       0.000057      -0.000005      -0.000024
   3      -0.000067       0.000003       0.000050
   4       0.000018      -0.000031      -0.000059
   5       0.000062       0.000013      -0.000015
   6      -0.000137       0.000028      -0.000089
   7       0.000013      -0.000025       0.000027
   8      -0.000009      -0.000036      -0.000000
   9       0.000009       0.000041      -0.000021
  10      -0.000038       0.000008       0.000001
  11       0.000028       0.000002       0.000010
  12      -0.000004      -0.000000       0.000001
  13      -0.000012       0.000004       0.000000
  14       0.000015      -0.000016       0.000018
  15      -0.000000       0.000002       0.000005
  16       0.000020       0.000010      -0.000003
  17       0.000001       0.000008      -0.000024
  18       0.000068      -0.000015       0.000064
  19      -0.000009      -0.000003       0.000014
---------------------------------------------------
 Number of fixed atoms: 0
 Gradient time:  CPU 425.12 s  wall 34.18 s
 Geometry Optimization Parameters
   NAtoms,    NIC,     NZ,  NCons,   NDum,   NFix, NCnnct, MaxDiis
       19     121       0       0       0       0       0       0

 Cartesian Hessian Update
 Hessian updated using BFGS update


** GEOMETRY OPTIMIZATION IN DELOCALIZED INTERNAL COORDINATES **
   Searching for a Minimum

   Optimization Cycle:  12

                       Coordinates (Angstroms)
     ATOM                X               Y               Z
      1  O         0.9284835487   -0.0596839701   -0.1810431746
      2  C         2.3131923298   -0.2921500952    0.0621415644
      3  C         2.8637295024    0.7711457937    0.9956251965
      4  O         2.0083076093    1.1789315408    1.8919043832
      5  C         4.1461527359    1.1891703249    0.8301371856
      6  C         4.8916442740    2.1547542609    1.6697487777
      7  C         4.1453428704    2.9311834769    2.7597746330
      8  O         3.1419828317    3.7283505460    2.1701729729
      9  O         3.6238834205    2.0919120124    3.7599017685
     10  H         0.6195941290    0.3948848129    0.6184630810
     11  H         2.8371004326   -0.2988503543   -0.8908679145
     12  H         2.4466469469   -1.2698376979    0.5377011511
     13  H         4.6919049552    0.7971134587   -0.0187298086
     14  H         5.4495997917    2.8711160488    1.0676099234
     15  H         4.8474288515    3.6065047926    3.2436745105
     16  H         2.4735273355    3.0974834859    1.8460025851
     17  H         2.9366336873    1.5606830351    3.2917458927
     18  O         5.9621452258    1.3862348965    2.3812031522
     19  O         6.9640896214    2.1407573313    2.7310731201
   Point Group: c1    Number of degrees of freedom:    51


   Energy is   -646.724016715

 Hessian updated using BFGS update

 51 Hessian modes will be used to form the next step
  Hessian Eigenvalues:
     0.001074    0.002950    0.007082    0.009258    0.014392    0.014857
     0.018464    0.021881    0.030922    0.038863    0.042582    0.056317
     0.059887    0.064884    0.067927    0.072960    0.090210    0.094427
     0.114835    0.137561    0.159307    0.163310    0.170296    0.180588
     0.194618    0.199021    0.214252    0.220432    0.229649    0.244058
     0.252943    0.268093    0.297936    0.301014    0.322690    0.329979
     0.335603    0.343041    0.344021    0.345200    0.352663    0.426660
     0.445443    0.455178    0.475502    0.497704    0.516991    0.559498
     0.615478    0.636115    0.901603

 Minimum search - taking simple RFO step
 Searching for Lamda that Minimizes Along All modes
 Value Taken    Lamda =  -0.00000033
 Step Taken.  Stepsize is  0.005785

                             Maximum     Tolerance    Cnvgd?
         Gradient           0.000078      0.000300     YES
         Displacement       0.001858      0.001200      NO
         Energy change     -0.000001      0.000001     YES

 Final energy is   -646.724016715054     


 ******************************
 **  OPTIMIZATION CONVERGED  **
 ******************************

                       Coordinates (Angstroms)
     ATOM                X               Y               Z
      1  O         0.9284835487   -0.0596839701   -0.1810431746
      2  C         2.3131923298   -0.2921500952    0.0621415644
      3  C         2.8637295024    0.7711457937    0.9956251965
      4  O         2.0083076093    1.1789315408    1.8919043832
      5  C         4.1461527359    1.1891703249    0.8301371856
      6  C         4.8916442740    2.1547542609    1.6697487777
      7  C         4.1453428704    2.9311834769    2.7597746330
      8  O         3.1419828317    3.7283505460    2.1701729729
      9  O         3.6238834205    2.0919120124    3.7599017685
     10  H         0.6195941290    0.3948848129    0.6184630810
     11  H         2.8371004326   -0.2988503543   -0.8908679145
     12  H         2.4466469469   -1.2698376979    0.5377011511
     13  H         4.6919049552    0.7971134587   -0.0187298086
     14  H         5.4495997917    2.8711160488    1.0676099234
     15  H         4.8474288515    3.6065047926    3.2436745105
     16  H         2.4735273355    3.0974834859    1.8460025851
     17  H         2.9366336873    1.5606830351    3.2917458927
     18  O         5.9621452258    1.3862348965    2.3812031522
     19  O         6.9640896214    2.1407573313    2.7310731201

Z-matrix Print:
$molecule
-1 2
O 
C  1 1.304359
C  2 1.358948 1 127.329402
H  3 1.082649 2 117.373589 1 -175.300427 0
C  3 1.480898 2 127.342908 1 3.308561 0
H  5 1.089523 3 111.911123 2 -135.542384 0
O  5 1.497585 3 107.132732 2 111.639457 0
O  7 1.302154 5 112.352767 3 155.690875 0
C  2 1.518249 1 113.805046 3 179.817135 0
H  9 1.087544 2 111.617866 1 155.066348 0
H  9 1.095372 2 108.299560 1 -85.635120 0
O  9 1.424990 2 110.062153 1 34.356798 0
H  12 0.970183 9 104.192650 2 -28.077992 0
C  5 1.532307 3 119.243353 2 -8.140608 0
H  14 1.087724 5 108.462840 3 -178.264568 0
O  14 1.405899 5 112.594823 3 63.430335 0
H  16 0.986755 14 104.016594 5 -66.014338 0
O  14 1.410616 5 109.599843 3 -61.640938 0
H  18 0.974635 14 105.133491 5 69.523659 0
$end

 
 --------------------------------------------------------------
 
                    Orbital Energies (a.u.)
 --------------------------------------------------------------
 
 Alpha MOs
 -- Occupied --
-19.4526 -19.4062 -19.3359 -19.3274 -19.3265 -19.2839 -10.4406 -10.3987
-10.3912 -10.3742 -10.3062  -1.3313  -1.1946  -1.1543  -1.1200  -1.1044
 -1.0057  -0.8826  -0.8373  -0.7904  -0.7310  -0.6540  -0.6514  -0.6382
 -0.6187  -0.6071  -0.5959  -0.5808  -0.5624  -0.5582  -0.5216  -0.5089
 -0.4930  -0.4854  -0.4710  -0.4580  -0.4318  -0.4170  -0.4002  -0.3961
 -0.3869  -0.3714  -0.3483  -0.2965
 -- Virtual --
  0.0285   0.0406   0.0450   0.0506   0.0605   0.0662   0.0742   0.0821
  0.1003   0.1056   0.1094   0.1148   0.1274   0.1296   0.1406   0.1476
  0.1554   0.1629   0.1656   0.1683   0.1752   0.1860   0.1896   0.1910
  0.1963   0.2052   0.2108   0.2215   0.2255   0.2396   0.2508   0.2574
  0.2678   0.2706   0.2751   0.2766   0.2888   0.2963   0.3006   0.3101
  0.3149   0.3182   0.3228   0.3256   0.3363   0.3443   0.3466   0.3522
  0.3549   0.3608   0.3705   0.3722   0.3778   0.3840   0.3900   0.3932
  0.3972   0.4020   0.4106   0.4200   0.4281   0.4354   0.4449   0.4485
  0.4670   0.4696   0.5033   0.5123   0.5256   0.5380   0.5554   0.5765
  0.5963   0.6095   0.6132   0.6274   0.6329   0.6459   0.6539   0.6618
  0.6664   0.6762   0.6878   0.7000   0.7145   0.7235   0.7312   0.7361
  0.7449   0.7599   0.7690   0.7887   0.7970   0.8087   0.8122   0.8493
  0.8613   0.8802   0.8885   0.9075   0.9136   0.9335   0.9547   0.9642
  0.9941   1.0290   1.0354   1.0593   1.0760   1.0825   1.0923   1.1027
  1.1052   1.1204   1.1343   1.1420   1.1479   1.1575   1.1756   1.1819
  1.1907   1.1952   1.2006   1.2034   1.2157   1.2260   1.2404   1.2428
  1.2592   1.2700   1.2722   1.2860   1.2957   1.3039   1.3246   1.3335
  1.3463   1.3610   1.3688   1.3813   1.3882   1.4249   1.4299   1.4419
  1.4438   1.4543   1.4678   1.4836   1.4905   1.5102   1.5173   1.5399
  1.5419   1.5547   1.5671   1.5783   1.5826   1.6154   1.6272   1.6365
  1.6483   1.6611   1.6708   1.6832   1.6935   1.7148   1.7590   1.7712
  1.7793   1.7971   1.8082   1.8524   1.9179   1.9345   1.9618   1.9791
  1.9965   2.0197   2.0560   2.0824   2.1120   2.1655   2.1724   2.1909
  2.2089   2.2428   2.2515   2.2887   2.3145   2.3249   2.3470   2.3633
  2.4048   2.4095   2.4208   2.4758   2.5128   2.5430   2.5486   2.5502
  2.6058   2.6331   2.6625   2.7272   2.7353   2.7674   2.8086   2.8328
  2.8573   2.8839   2.9074   2.9357   2.9448   2.9636   2.9906   3.0165
  3.0206   3.0307   3.0745   3.0900   3.1044   3.1318   3.1625   3.1803
  3.2067   3.2354   3.2386   3.2779   3.2910   3.3250   3.3351   3.3523
  3.3847   3.4014   3.4105   3.4304   3.4453   3.4588   3.4785   3.4952
  3.5116   3.5314   3.5555   3.5657   3.5798   3.6066   3.6414   3.6595
  3.6707   3.6785   3.7001   3.7044   3.7148   3.7532   3.7623   3.7801
  3.8047   3.8314   3.8444   3.8526   3.8630   3.9088   3.9132   3.9162
  3.9277   3.9426   3.9531   3.9726   4.0072   4.0287   4.0707   4.0981
  4.1495   4.1776   4.1873   4.2108   4.2230   4.2401   4.2461   4.2749
  4.2860   4.2960   4.3116   4.3723   4.3935   4.3997   4.4346   4.4468
  4.4620   4.4835   4.4947   4.5295   4.5518   4.5592   4.5755   4.6314
  4.6453   4.6930   4.7208   4.7467   4.7560   4.8159   4.8428   4.9255
  4.9330   5.0323   5.0452   5.0912   5.0999   5.1082   5.1726   5.1941
  5.2220   5.2388   5.2598   5.2649   5.2712   5.2852   5.2912   5.3035
  5.3334   5.3452   5.3499   5.3590   5.3845   5.3882   5.3928   5.4127
  5.4265   5.4348   5.4481   5.4789   5.5150   5.5288   5.5559   5.5901
  5.6102   5.6150   5.6282   5.6342   5.6496   5.6666   5.6902   5.7083
  5.7228   5.7633   5.7835   5.8082   5.8287   5.8543   5.9065   5.9673
  5.9713   6.0127   6.1029   6.1569   6.1825   6.3890   6.4891   6.5889
  6.5981   6.6285   6.6587   6.7440   6.8435   6.9007   6.9863   7.0827
  7.0996   7.1120   7.1256   7.1406   7.1863   7.2180   7.2340   7.2651
  7.2914   7.3116   7.3393   7.3658   7.3712   7.3927   7.4125   7.4400
  7.4555   7.4621   7.4908   7.5115   7.5998   7.6704   7.6990   7.7537
  7.7931   7.8085   7.8554   7.8871   7.9024   8.0355   8.1108  24.5950
 24.7203  24.7739  24.8370  25.2405  50.4409  50.5459  50.6000  50.6195
 50.6780  50.7687
 
 Beta MOs
 -- Occupied --
-19.4413 -19.3882 -19.3359 -19.3274 -19.3265 -19.2839 -10.4403 -10.3991
-10.3912 -10.3742 -10.3062  -1.3045  -1.1943  -1.1543  -1.1198  -1.1044
 -0.9781  -0.8746  -0.8320  -0.7897  -0.7273  -0.6497  -0.6405  -0.6332
 -0.6063  -0.6003  -0.5810  -0.5712  -0.5608  -0.5326  -0.5136  -0.4948
 -0.4921  -0.4822  -0.4699  -0.4574  -0.4308  -0.4051  -0.3970  -0.3843
 -0.3731  -0.3480  -0.2960
 -- Virtual --
 -0.0231   0.0286   0.0407   0.0452   0.0509   0.0609   0.0665   0.0744
  0.0825   0.1016   0.1066   0.1104   0.1150   0.1283   0.1301   0.1410
  0.1480   0.1560   0.1631   0.1664   0.1687   0.1757   0.1864   0.1903
  0.1919   0.1966   0.2052   0.2127   0.2231   0.2277   0.2416   0.2521
  0.2576   0.2685   0.2718   0.2776   0.2831   0.2914   0.2969   0.3037
  0.3119   0.3155   0.3192   0.3235   0.3264   0.3376   0.3449   0.3480
  0.3529   0.3573   0.3612   0.3708   0.3745   0.3782   0.3850   0.3904
  0.3939   0.3980   0.4034   0.4114   0.4206   0.4287   0.4360   0.4462
  0.4492   0.4678   0.4708   0.5036   0.5129   0.5259   0.5385   0.5557
  0.5766   0.5969   0.6098   0.6133   0.6279   0.6330   0.6471   0.6542
  0.6621   0.6666   0.6765   0.6881   0.7001   0.7146   0.7242   0.7313
  0.7364   0.7456   0.7601   0.7695   0.7895   0.7988   0.8088   0.8129
  0.8496   0.8617   0.8806   0.8897   0.9081   0.9138   0.9338   0.9551
  0.9651   0.9945   1.0305   1.0381   1.0605   1.0767   1.0834   1.0930
  1.1041   1.1101   1.1214   1.1367   1.1441   1.1498   1.1673   1.1776
  1.1851   1.1937   1.2010   1.2045   1.2096   1.2214   1.2340   1.2411
  1.2477   1.2635   1.2712   1.2782   1.2901   1.2969   1.3062   1.3253
  1.3346   1.3469   1.3618   1.3714   1.3833   1.3896   1.4260   1.4309
  1.4433   1.4456   1.4564   1.4695   1.4855   1.4929   1.5107   1.5179
  1.5427   1.5513   1.5581   1.5680   1.5795   1.5861   1.6208   1.6299
  1.6403   1.6512   1.6669   1.6792   1.6963   1.7046   1.7194   1.7668
  1.7737   1.7838   1.7989   1.8112   1.8590   1.9189   1.9379   1.9628
  1.9822   1.9978   2.0254   2.0589   2.0865   2.1150   2.1702   2.1733
  2.1913   2.2122   2.2456   2.2547   2.2974   2.3202   2.3346   2.3505
  2.3659   2.4085   2.4112   2.4235   2.4780   2.5134   2.5440   2.5493
  2.5507   2.6067   2.6336   2.6663   2.7293   2.7391   2.7682   2.8096
  2.8330   2.8580   2.8842   2.9074   2.9362   2.9449   2.9642   2.9908
  3.0166   3.0209   3.0310   3.0749   3.0907   3.1049   3.1319   3.1630
  3.1804   3.2070   3.2358   3.2392   3.2782   3.2911   3.3255   3.3356
  3.3524   3.3852   3.4015   3.4109   3.4307   3.4457   3.4591   3.4787
  3.4954   3.5121   3.5316   3.5556   3.5662   3.5801   3.6068   3.6417
  3.6597   3.6708   3.6791   3.7010   3.7048   3.7150   3.7535   3.7628
  3.7802   3.8048   3.8319   3.8446   3.8529   3.8633   3.9090   3.9135
  3.9168   3.9281   3.9427   3.9534   3.9728   4.0076   4.0289   4.0709
  4.0983   4.1499   4.1778   4.1879   4.2113   4.2236   4.2408   4.2463
  4.2755   4.2863   4.2960   4.3119   4.3734   4.3939   4.4002   4.4349
  4.4471   4.4628   4.4851   4.4955   4.5301   4.5545   4.5611   4.5851
  4.6356   4.6543   4.7037   4.7247   4.7529   4.7685   4.8170   4.8471
  4.9352   4.9528   5.0449   5.0503   5.1447   5.1463   5.1738   5.2037
  5.2085   5.2279   5.2619   5.2683   5.2746   5.2855   5.2904   5.3051
  5.3202   5.3343   5.3463   5.3546   5.3596   5.3865   5.3895   5.3942
  5.4250   5.4346   5.4470   5.4532   5.4803   5.5241   5.5365   5.5592
  5.5939   5.6136   5.6185   5.6287   5.6362   5.6507   5.6677   5.6908
  5.7091   5.7322   5.7685   5.7920   5.8130   5.8381   5.8550   5.9066
  5.9687   5.9714   6.0128   6.1042   6.1573   6.1831   6.4033   6.5337
  6.5950   6.5999   6.6315   6.6635   6.7449   6.9249   6.9781   7.0451
  7.0842   7.0998   7.1227   7.1408   7.1560   7.1958   7.2272   7.2538
  7.2820   7.2934   7.3182   7.3458   7.3676   7.3804   7.3962   7.4330
  7.4500   7.4592   7.4840   7.5010   7.5181   7.5999   7.6712   7.6992
  7.7540   7.7948   7.8201   7.8559   7.8876   7.9026   8.0490   8.1308
 24.5949  24.7202  24.7739  24.8371  25.2405  50.4533  50.5552  50.6000
 50.6201  50.6782  50.7688
 --------------------------------------------------------------
 
          Ground-State Mulliken Net Atomic Charges

     Atom                 Charge (a.u.)    Spin (a.u.)
  --------------------------------------------------------
      1 O                    -0.466725      -0.000037
      2 C                    -0.504431      -0.000423
      3 C                     0.153099       0.000870
      4 O                    -0.727415      -0.000198
      5 C                     0.025142       0.001856
      6 C                    -0.409324      -0.007452
      7 C                    -0.283003       0.012342
      8 O                    -0.420326       0.002389
      9 O                    -0.474381       0.001958
     10 H                     0.343043       0.000018
     11 H                     0.198120       0.000175
     12 H                     0.180634      -0.000165
     13 H                     0.278505      -0.001015
     14 H                     0.295985       0.005183
     15 H                     0.265041      -0.000447
     16 H                     0.344959      -0.000065
     17 H                     0.382765      -0.000199
     18 O                     0.072939       0.340591
     19 O                    -0.254627       0.644618
  --------------------------------------------------------
  Sum of atomic charges =    -1.000000
  Sum of spin   charges =     1.000000

 -----------------------------------------------------------------
                    Cartesian Multipole Moments
 -----------------------------------------------------------------
    Charge (ESU x 10^10)
                -4.8032
    Dipole Moment (Debye)
         X     -15.7996      Y      -8.1437      Z     -11.3220
       Tot      21.0745
    Quadrupole Moments (Debye-Ang)
        XX    -145.1049     XY     -30.7101     YY     -90.2063
        XZ     -51.1875     YZ     -23.7480     ZZ    -106.9432
    Octopole Moments (Debye-Ang^2)
       XXX   -1217.7767    XXY    -241.0602    XYY    -321.1745
       YYY    -396.5197    XXZ    -377.1409    XYZ     -90.7135
       YYZ    -174.0590    XZZ    -411.0717    YZZ    -182.4449
       ZZZ    -481.0698
    Hexadecapole Moments (Debye-Ang^3)
      XXXX   -9858.0948   XXXY   -2118.3340   XXYY   -1660.1828
      XYYY   -1581.2344   YYYY   -1963.9254   XXXZ   -3039.2651
      XXYZ    -677.3501   XYYZ    -689.8214   YYYZ    -936.7703
      XXZZ   -2225.3315   XYZZ    -741.3509   YYZZ    -750.7872
      XZZZ   -2044.0525   YZZZ   -1015.6108   ZZZZ   -2325.5484
 -----------------------------------------------------------------
 Total job time:  3000.83s(wall), 42462.88s(cpu) 
 Thu Jul 11 19:55:41 2024

        *************************************************************
        *                                                           *
        *  Thank you very much for using Q-Chem.  Have a nice day.  *
        *                                                           *
        *************************************************************


