
Running Job 1 of 1 Q_in.in
qchem Q_in.in_83200.0 /scratch/ari.fischer/qChem1476990.hpc-mn1/qchem83200/ 0
/usr/local/qchem-5.4.1/exe/qcprog.exe_s Q_in.in_83200.0 /scratch/ari.fischer/qChem1476990.hpc-mn1/qchem83200/
                  Welcome to Q-Chem
     A Quantum Leap Into The Future Of Chemistry


 Q-Chem 5.4, Q-Chem, Inc., Pleasanton, CA (2021)

 License issued to: Nanyang Technological University (site)

 E. Epifanovsky,  A. T. B. Gilbert,  Xintian Feng,  Joonho Lee,  Yuezhi Mao,  
 N. Mardirossian,  P. Pokhilko,  A. White,  M. Wormit,  M. P. Coons,  
 A. L. Dempwolff,  Zhengting Gan,  D. Hait,  P. R. Horn,  L. D. Jacobson,  
 I. Kaliman,  J. Kussmann,  A. W. Lange,  Ka Un Lao,  D. S. Levine,  Jie Liu,  
 S. C. McKenzie,  A. F. Morrison,  K. Nanda,  F. Plasser,  D. R. Rehn,  
 M. L. Vidal,  Zhi-Qiang You,  Ying Zhu,  B. Alam,  B. Albrecht,  
 A. Aldossary,  E. Alguire,  J. H. Andersen,  D. Barton,  K. Begam,  A. Behn,  
 Y. A. Bernard,  E. J. Berquist,  H. Burton,  A. Carreras,  K. Carter-Fenk,  
 R. Chakraborty,  A. D. Chien,  K. D. Closser,  V. Cofer-Shabica,  
 S. Dasgupta,  Jia Deng,  M. de Wergifosse,  M. Diedenhofen,  Hainam Do,  
 S. Ehlert,  Po-Tung Fang,  S. Fatehi,  Qingguo Feng,  T. Friedhoff,  
 J. Gayvert,  Qinghui Ge,  G. Gidofalvi,  M. Goldey,  J. Gomes,  
 C. Gonzalez-Espinoza,  S. Gulania,  A. Gunina,  M. W. D. Hanson-Heine,  
 P. H. P. Harbach,  A. W. Hauser,  M. F. Herbst,  M. Hernandez Vera,  
 M. Hodecker,  Z. C. Holden,  S. Houck,  Xunkun Huang,  Kerwin Hui,  
 B. C. Huynh,  M. Ivanov,  Hyunjun Ji,  Hanjie Jiang,  B. Kaduk,  S. Kaehler,  
 K. Khistyaev,  Jaehoon Kim,  P. Klunzinger,  Z. Koczor-Benda,  
 Joong Hoon Koh,  D. Kosenkov,  L. Koulias,  T. Kowalczyk,  C. M. Krauter,  
 K. Kue,  A. Kunitsa,  T. Kus,  A. Landau,  K. V. Lawler,  D. Lefrancois,  
 S. Lehtola,  Rain Li,  Yi-Pei Li,  Jiashu Liang,  M. Liebenthal,  
 Hung-Hsuan Lin,  You-Sheng Lin,  Fenglai Liu,  Kuan-Yu Liu,  
 M. Loipersberger,  A. Luenser,  A. Manjanath,  P. Manohar,  E. Mansoor,  
 S. F. Manzer,  Shan-Ping Mao,  A. V. Marenich,  T. Markovich,  S. Mason,  
 S. A. Maurer,  P. F. McLaughlin,  M. F. S. J. Menger,  J.-M. Mewes,  
 S. A. Mewes,  P. Morgante,  J. W. Mullinax,  K. J. Oosterbaan,  G. Paran,  
 Alexander C. Paul,  Suranjan K. Paul,  F. Pavosevic,  Zheng Pei,  S. Prager,  
 E. I. Proynov,  E. Ramos,  B. Rana,  A. E. Rask,  A. Rettig,  R. M. Richard,  
 F. Rob,  E. Rossomme,  T. Scheele,  M. Scheurer,  M. Schneider,  
 N. Sergueev,  S. M. Sharada,  W. Skomorowski,  D. W. Small,  C. J. Stein,  
 Yu-Chuan Su,  E. J. Sundstrom,  Zhen Tao,  J. Thirman,  T. Tsuchimochi,  
 N. M. Tubman,  S. P. Veccham,  O. Vydrov,  J. Wenzel,  J. Witte,  A. Yamada,  
 Kun Yao,  S. Yeganeh,  S. R. Yost,  A. Zech,  Igor Ying Zhang,  Xing Zhang,  
 Yu Zhang,  D. Zuev,  A. Aspuru-Guzik,  A. T. Bell,  N. A. Besley,  
 K. B. Bravaya,  B. R. Brooks,  D. Casanova,  Jeng-Da Chai,  S. Coriani,  
 C. J. Cramer,  A. E. DePrince, III,  R. A. DiStasio Jr.,  A. Dreuw,  
 B. D. Dunietz,  T. R. Furlani,  W. A. Goddard III,  S. Grimme,  
 S. Hammes-Schiffer,  T. Head-Gordon,  W. J. Hehre,  Chao-Ping Hsu,  
 T.-C. Jagau,  Yousung Jung,  A. Klamt,  Jing Kong,  D. S. Lambrecht,  
 WanZhen Liang,  N. J. Mayhall,  C. W. McCurdy,  J. B. Neaton,  
 C. Ochsenfeld,  J. A. Parkhill,  R. Peverati,  V. A. Rassolov,  Yihan Shao,  
 L. V. Slipchenko,  T. Stauch,  R. P. Steele,  J. E. Subotnik,  
 A. J. W. Thom,  A. Tkatchenko,  D. G. Truhlar,  T. Van Voorhis,  
 T. A. Wesolowski,  K. B. Whaley,  H. L. Woodcock III,  P. M. Zimmerman,  
 S. Faraji,  P. M. W. Gill,  M. Head-Gordon,  J. M. Herbert,  A. I. Krylov

 Additional authors for Version 5.4.1: 
 S. Kotaru,  Shaozhi Li,  Xiangyuan Li,  F. Matz,  A. Molle,  Haisheng Ren,  
 Yingli Su,  Hung-Yi Tsai,  C. Utku,  Fang Wang

 Contributors to earlier versions of Q-Chem not listed above: 
 R. D. Adamson,  B. Austin,  R. Baer,  J. Baker,  G. J. O. Beran,  
 K. Brandhorst,  S. T. Brown,  E. F. C. Byrd,  A. K. Chakraborty,  
 G. K. L. Chan,  Chun-Min Chang,  Yunqing Chen,  C.-L. Cheng,  
 Siu Hung Chien,  D. M. Chipman,  D. L. Crittenden,  H. Dachsel,  
 R. J. Doerksen,  A. D. Dutoi,  R. G. Edgar,  J. Fosso-Tande,  
 L. Fusti-Molnar,  D. Ghosh,  A. Ghysels,  A. Golubeva-Zadorozhnaya,  
 J. Gonthier,  M. S. Gordon,  S. R. Gwaltney,  G. Hawkins,  J. E. Herr,  
 A. Heyden,  S. Hirata,  E. G. Hohenstein,  G. Kedziora,  F. J. Keil,  
 C. Kelley,  Jihan Kim,  R. A. King,  R. Z. Khaliullin,  P. P. Korambath,  
 W. Kurlancheek,  A. Laurent,  A. M. Lee,  M. S. Lee,  S. V. Levchenko,  
 Ching Yeh Lin,  D. Liotard,  E. Livshits,  R. C. Lochan,  I. Lotan,  
 L. A. Martinez-Martinez,  P. E. Maslen,  N. Nair,  D. P. O'Neill,  
 D. Neuhauser,  E. Neuscamman,  C. M. Oana,  R. Olivares-Amaya,  R. Olson,  
 T. M. Perrine,  B. Peters,  P. A. Pieniazek,  A. Prociuk,  Y. M. Rhee,  
 J. Ritchie,  M. A. Rohrdanz,  E. Rosta,  N. J. Russ,  H. F. Schaefer III,  
 M. W. Schmidt,  N. E. Schultz,  S. Sharma,  N. Shenvi,  C. D. Sherrill,  
 A. C. Simmonett,  A. Sodt,  T. Stein,  D. Stuck,  K. S. Thanthiriwatte,  
 V. Vanovschi,  L. Vogt,  Tao Wang,  A. Warshel,  M. A. Watson,  
 C. F. Williams,  Q. Wu,  X. Xu,  Jun Yang,  W. Zhang,  Yan Zhao

 Please cite Q-Chem as follows:
 Y. Shao et al., Mol. Phys. 113, 184-215 (2015)
 DOI: 10.1080/00268976.2014.952696

 Q-Chem 5.4.1 for Intel X86 EM64T Linux

 Parts of Q-Chem use Armadillo 9.800.1 (Horizon Scraper).
 http://arma.sourceforge.net/

 Q-Chem begins on Thu Feb 23 17:10:20 2023  

 Host: 
0

     Scratch files written to /scratch/ari.fischer/qChem1476990.hpc-mn1/qchem83200//
 Aug1521 |scratch|qcdevops|jenkins|workspace|build_RNUM 8249   
 Processing $rem in /usr/local/qchem-5.4.1/config/preferences:
 Processing $rem in /home/ari.fischer/.qchemrc:
 Symmetry turned off for PCM/SM12/SMD calculation


!!********************************************.
!!******************Warning*******************.
!!Desired Analytical derivatives not available.
!!Finite difference job might take a long time.
!!********************************************.
!!********************************************.


 2-order derivative to be evaluated numerically with 1-order analytical derivatives

 Checking the input file for inconsistencies... 	...done.

--------------------------------------------------------------
User input:
--------------------------------------------------------------
$molecule
0 2
C        -0.0946018658   -0.2862875634    0.6584936930
C        -0.9326906499   -1.0061475377    1.7100632223
C        -1.8049912755   -2.0592312116    1.0991852543
C        -2.2677558347   -1.9023689136   -0.1532427075
C        -1.9730784569   -0.6987579639   -0.8846737787
C        -1.0618262935    0.2009376215   -0.3951239502
C        -0.7389229415    1.4858086963   -1.0928020472
H         0.4026426038    0.5606858408    1.1328384958
H        -0.3165609268   -1.3998000679    2.5146230562
H        -2.0650997134   -2.9247158149    1.6922010420
H        -2.9196955240   -2.6409021586   -0.5990721757
H        -2.5357727604   -0.4668139355   -1.7797943829
H        -1.4514898466    1.6798452780   -1.8951024852
O         0.6011408131    1.4552179675   -1.5928950157
H        -0.7759790141    2.3107298853   -0.3838444184
H         0.6397831435    0.8067889401   -2.3052263705
O         0.8605859997   -1.1965739121    0.1325468757
H         1.3882957713   -0.7189683985   -0.5180206375
O        -1.6841331169    0.0743227755    2.3022829550
O        -2.3935963961    0.6843215779    1.2697162947
$end

$rem
BASIS = 6-311++G(2df,2p)
GUI = 2
JOB_TYPE = Frequency
METHOD = wB97M-V
SOLVENT_METHOD = SMD
SCF_ALGORITHM = DIIS_GDM
MAX_SCF_CYCLES = 400
SCF_CONVERGENCE = 7
THRESH = 12
UNRESTRICTED = 1
SYMMETRY_IGNORE = 1
$end
--------------------------------------------------------------
 ----------------------------------------------------------------
             Standard Nuclear Orientation (Angstroms)
    I     Atom           X                Y                Z
 ----------------------------------------------------------------
    1      C      -0.0946018658    -0.2862875634     0.6584936930
    2      C      -0.9326906499    -1.0061475377     1.7100632223
    3      C      -1.8049912755    -2.0592312116     1.0991852543
    4      C      -2.2677558347    -1.9023689136    -0.1532427075
    5      C      -1.9730784569    -0.6987579639    -0.8846737787
    6      C      -1.0618262935     0.2009376215    -0.3951239502
    7      C      -0.7389229415     1.4858086963    -1.0928020472
    8      H       0.4026426038     0.5606858408     1.1328384958
    9      H      -0.3165609268    -1.3998000679     2.5146230562
   10      H      -2.0650997134    -2.9247158149     1.6922010420
   11      H      -2.9196955240    -2.6409021586    -0.5990721757
   12      H      -2.5357727604    -0.4668139355    -1.7797943829
   13      H      -1.4514898466     1.6798452780    -1.8951024852
   14      O       0.6011408131     1.4552179675    -1.5928950157
   15      H      -0.7759790141     2.3107298853    -0.3838444184
   16      H       0.6397831435     0.8067889401    -2.3052263705
   17      O       0.8605859997    -1.1965739121     0.1325468757
   18      H       1.3882957713    -0.7189683985    -0.5180206375
   19      O      -1.6841331169     0.0743227755     2.3022829550
   20      O      -2.3935963961     0.6843215779     1.2697162947
 ----------------------------------------------------------------
 Nuclear Repulsion Energy =         663.35078592 hartrees
 There are       42 alpha and       41 beta electrons
 Requested basis set is 6-311++G(2df,2p)
 There are 142 shells and 464 basis functions

 Total QAlloc Memory Limit 288000 MB
 Mega-Array Size       188 MB
 MEM_STATIC part       192 MB
 
 Citation of the SMD model:
 Marenich, A.V.; Cramer, C.J.; Truhlar, D.G.
 J. Phys. Chem. B 2009, 113, 6378-6396.
 iSolventCode=           1
 Solvent: water                                                           
 
 vradii
            1           2           3           4           5           6
    1   1.8500000   1.8500000   1.8500000   1.8500000   1.8500000   1.8500000
            7           8           9          10          11          12
    1   1.8500000   1.2000000   1.2000000   1.2000000   1.2000000   1.2000000
           13          14          15          16          17          18
    1   1.2000000   1.5200000   1.2000000   1.2000000   1.5200000   1.2000000
           19          20
    1   1.5200000   1.5200000
 Changing PCM_VDW_RADII to SMD_RADIUS
 Discretize the solute cavity surface with Lebedev spheres
	Using 110 Lebedev grid points for each H atom
	Using 194 Lebedev grid points for other atoms
	Atomic van der Waals radii will be scaled by 1.20
 Remove points where switching function is < 1.0e-08
 Keep 1459 surface tesserae and discard 1665 interior tesserae
 Molecular Surface Area = 166.558 Angst**2
 A cutoff of  1.0D-12 yielded   9178 shell pairs
 There are     99134 function pairs (    123952 Cartesian)
 Smallest overlap matrix eigenvalue = 1.83E-06
 Guess from superposition of atomic densities
 Warning:  Energy on first SCF cycle will be non-variational
 SAD guess density has 83.000000 electrons

 -----------------------------------------------------------------------
  General SCF calculation program by
  Eric Jon Sundstrom, Paul Horn, Yuezhi Mao, Dmitri Zuev, Alec White,
  David Stuck, Shaama M.S., Shane Yost, Joonho Lee, David Small,
  Daniel Levine, Susi Lehtola, Hugh Burton, Evgeny Epifanovsky,
  Bang C. Huynh
 -----------------------------------------------------------------------
 Exchange:     0.1500 Hartree-Fock + 1.0000 wB97M-V + LR-HF
 Correlation:  1.0000 wB97M-V
 Using SG-2 standard quadrature grid
 Nonlocal Correlation:  VV10 with C = 0.0100 and b = 6.00 and scale = 1.00000
 Grid used for NLC:  SG-1 standard quadrature
 using 8 threads for integral computing
 -------------------------------------------------------
 OpenMP Integral computing Module                
 Release: version 1.0, May 2013, Q-Chem Inc. Pittsburgh 
 -------------------------------------------------------
 
 Citation of the SMD model:
 Marenich, A.V.; Cramer, C.J.; Truhlar, D.G.
 J. Phys. Chem. B 2009, 113, 6378-6396.
 iSolventCode=           1
 Solvent: water                                                           
 
 vradii
            1           2           3           4           5           6
    1   1.8500000   1.8500000   1.8500000   1.8500000   1.8500000   1.8500000
            7           8           9          10          11          12
    1   1.8500000   1.2000000   1.2000000   1.2000000   1.2000000   1.2000000
           13          14          15          16          17          18
    1   1.2000000   1.5200000   1.2000000   1.2000000   1.5200000   1.2000000
           19          20
    1   1.5200000   1.5200000
 -------------------------------------------------------
 OpenMP BLAS3 based DFT computing Module                
 Release: version 1.0, May 2013, Q-Chem Inc. Pittsburgh 
 -------------------------------------------------------
 A unrestricted SCF calculation will be
 performed using DIIS, GDM
 SCF converges when RMS gradient is below 1.0e-07
 ---------------------------------------
  Cycle       Energy         DIIS error
 ---------------------------------------
    1    -575.7109285123      1.16e-02  
    2    -572.7505506853      1.12e-03  Done DIIS. Switching to GDM
 ---------------------------------------
  Cycle       Energy        RMS Gradient
 ---------------------------------------
    1    -572.7505506853      7.38e-02   Descent step
    2    -572.8504020446      1.73e-02   Normal BFGS step
    3    -572.8658169282      2.96e-02   Normal BFGS step
    4    -572.8682713023      7.35e-03   Normal BFGS step
    5    -572.8694580168      7.47e-03   Normal BFGS step
    6    -572.8698765990      7.44e-03   Normal BFGS step
    7    -572.8701614435      4.84e-03   Normal BFGS step
    8    -572.8702559274      4.05e-03   Normal BFGS step
    9    -572.8702979477      1.93e-03   Normal BFGS step
   10    -572.8703229145      1.43e-03   Normal BFGS step
   11    -572.8703341543      1.27e-03   Normal BFGS step
   12    -572.8703424785      8.22e-04   Normal BFGS step
   13    -572.8703476063      4.79e-04   Normal BFGS step
   14    -572.8703502428      3.70e-04   Normal BFGS step
   15    -572.8703513528      2.60e-04   Normal BFGS step
   16    -572.8703517905      2.55e-04   Normal BFGS step
   17    -572.8703520091      1.36e-04   Normal BFGS step
   18    -572.8703521031      4.48e-05   Normal BFGS step
   19    -572.8703521242      1.87e-05   Normal BFGS step
   20    -572.8703521304      6.67e-06   Normal BFGS step
   21    -572.8703521316      2.93e-06   Normal BFGS step
   22    -572.8703521318      9.31e-07   Normal BFGS step
   23    -572.8703521318      3.54e-07   Normal BFGS step
   24    -572.8703521318      2.74e-07   Normal BFGS step
   25    -572.8703521318      1.78e-07   Normal BFGS step
   26    -572.8703521319      5.93e-08  Convergence criterion met
 ---------------------------------------
 SCF time:   CPU 4492.15s  wall 572.00s 
<S^2> =          0.787082768
(3)  G-ENP(liq) elect-nuc-pol free energy of system     -572.870352132 a.u.
(4)  G-CDS(liq) cavity-dispersion-solvent structure 
     free energy                                                3.0795 kcal/mol
(6)  G-S(liq) free energy of system                     -572.865444686 a.u.
 SCF   energy in the final basis set =     -572.8654446863
 Total energy in the final basis set =     -572.8654446863
 
 --------------------------------------------------------------
 
                    Orbital Energies (a.u.)
 --------------------------------------------------------------
 
 Alpha MOs
 -- Occupied --
-19.4053 -19.3851 -19.3472 -19.3443 -10.4085 -10.4066 -10.3929 -10.3858
-10.3711 -10.3612 -10.3583  -1.2667  -1.1715  -1.1587  -1.0053  -0.9833
 -0.8995  -0.8603  -0.8081  -0.7491  -0.7155  -0.6669  -0.6507  -0.6229
 -0.5997  -0.5873  -0.5808  -0.5693  -0.5552  -0.5458  -0.5244  -0.5093
 -0.5008  -0.4691  -0.4520  -0.4501  -0.4377  -0.4100  -0.4042  -0.3903
 -0.3531  -0.3146
 -- Virtual --
  0.0081   0.0253   0.0358   0.0383   0.0446   0.0553   0.0579   0.0716
  0.0803   0.0842   0.0976   0.1057   0.1070   0.1226   0.1240   0.1350
  0.1381   0.1413   0.1464   0.1503   0.1576   0.1583   0.1632   0.1696
  0.1726   0.1766   0.1784   0.1886   0.1908   0.1972   0.1998   0.2057
  0.2139   0.2143   0.2201   0.2353   0.2399   0.2529   0.2628   0.2665
  0.2772   0.2792   0.2856   0.2959   0.3053   0.3082   0.3160   0.3222
  0.3249   0.3317   0.3390   0.3431   0.3474   0.3554   0.3597   0.3630
  0.3723   0.3778   0.3834   0.3902   0.3918   0.4014   0.4026   0.4124
  0.4181   0.4291   0.4320   0.4450   0.4507   0.4660   0.4717   0.4913
  0.5051   0.5277   0.5355   0.5412   0.5652   0.5837   0.5890   0.5979
  0.6093   0.6188   0.6275   0.6423   0.6425   0.6519   0.6663   0.6718
  0.6849   0.6956   0.7009   0.7078   0.7183   0.7216   0.7252   0.7356
  0.7382   0.7548   0.7700   0.7764   0.7841   0.7915   0.8133   0.8200
  0.8234   0.8425   0.8500   0.8596   0.8640   0.8765   0.8913   0.9060
  0.9292   0.9434   0.9688   0.9880   1.0049   1.0238   1.0457   1.0653
  1.0698   1.0899   1.0996   1.1133   1.1168   1.1337   1.1394   1.1610
  1.1694   1.1812   1.1926   1.1974   1.2084   1.2211   1.2257   1.2439
  1.2551   1.2618   1.2692   1.2778   1.2857   1.2900   1.2940   1.3050
  1.3114   1.3195   1.3291   1.3424   1.3567   1.3734   1.3843   1.3961
  1.4098   1.4195   1.4239   1.4268   1.4383   1.4541   1.4587   1.4732
  1.4830   1.5071   1.5151   1.5344   1.5481   1.5521   1.5626   1.5657
  1.5764   1.5982   1.6103   1.6238   1.6320   1.6569   1.6627   1.6646
  1.6998   1.7158   1.7315   1.7581   1.7669   1.7989   1.8243   1.8321
  1.8658   1.8847   1.9202   1.9286   1.9426   1.9780   1.9910   2.0040
  2.0247   2.0620   2.0941   2.1021   2.1349   2.1694   2.1896   2.2476
  2.2731   2.2816   2.3111   2.3264   2.3739   2.3958   2.4303   2.4469
  2.4756   2.6115   2.6303   2.6781   2.7113   2.7248   2.7285   2.7465
  2.7733   2.8006   2.8176   2.8228   2.8449   2.8570   2.8680   2.8825
  2.9036   2.9300   2.9404   2.9564   2.9602   2.9633   2.9712   2.9842
  3.0047   3.0186   3.0546   3.0783   3.0837   3.0945   3.1198   3.1380
  3.1635   3.1860   3.2003   3.2049   3.2337   3.2559   3.2676   3.2874
  3.3098   3.3287   3.3447   3.3571   3.3700   3.3894   3.3983   3.4165
  3.4266   3.4379   3.4584   3.4696   3.4868   3.5040   3.5226   3.5284
  3.5380   3.5625   3.5984   3.6113   3.6296   3.6472   3.6602   3.6750
  3.6860   3.7121   3.7230   3.7284   3.7455   3.7635   3.7712   3.8043
  3.8094   3.8163   3.8284   3.8418   3.8644   3.8698   3.8842   3.8955
  3.9158   3.9384   3.9484   3.9604   3.9821   3.9947   3.9980   4.0311
  4.0579   4.0879   4.0930   4.1374   4.1462   4.1604   4.1716   4.2160
  4.2193   4.2296   4.2427   4.2770   4.3060   4.3240   4.3356   4.3512
  4.3630   4.3786   4.3985   4.4173   4.4267   4.4387   4.4493   4.4794
  4.5058   4.5209   4.5506   4.5614   4.5974   4.6023   4.6366   4.6476
  4.6540   4.6830   4.7215   4.7278   4.7437   4.7751   4.8048   4.8535
  4.8806   4.8992   4.9188   4.9645   4.9866   5.0624   5.1012   5.1610
  5.1838   5.2216   5.2357   5.2507   5.2697   5.2858   5.2927   5.2988
  5.3131   5.3209   5.3373   5.3540   5.3840   5.3909   5.4136   5.4640
  5.4914   5.5002   5.5073   5.5322   5.5888   5.5966   5.6137   5.6650
  5.6826   5.6871   5.6976   5.7377   5.7464   5.7630   5.8093   5.8636
  5.8977   5.9174   5.9563   6.0277   6.0588   6.0846   6.1510   6.2043
  6.3189   6.5962   6.6019   6.6839   6.9849   7.0264   7.0589   7.1030
  7.1236   7.1685   7.2584   7.3025   7.3117   7.3219   7.3563   7.3908
  7.4206   7.4375   7.4686   7.4958   7.6546   7.7152   7.7842   7.8195
  7.8636   7.9612   8.1679  24.3877  24.6173  24.7538  24.7892  24.8344
 25.0819  25.2733  50.5193  50.5880  50.6069  50.6657
 
 Beta MOs
 -- Occupied --
-19.4029 -19.3701 -19.3474 -19.3444 -10.4085 -10.4061 -10.3929 -10.3862
-10.3660 -10.3599 -10.3578  -1.2528  -1.1714  -1.1588  -0.9894  -0.9734
 -0.8967  -0.8526  -0.8050  -0.7458  -0.7122  -0.6604  -0.6486  -0.6201
 -0.5951  -0.5821  -0.5734  -0.5631  -0.5537  -0.5446  -0.5178  -0.5031
 -0.4883  -0.4617  -0.4480  -0.4378  -0.4255  -0.4011  -0.3897  -0.3624
 -0.3282
 -- Virtual --
 -0.0597   0.0172   0.0258   0.0356   0.0388   0.0454   0.0553   0.0579
  0.0724   0.0803   0.0844   0.0980   0.1056   0.1101   0.1230   0.1284
  0.1366   0.1387   0.1420   0.1471   0.1525   0.1578   0.1582   0.1631
  0.1718   0.1731   0.1777   0.1794   0.1891   0.1924   0.1978   0.2020
  0.2080   0.2143   0.2167   0.2204   0.2358   0.2400   0.2533   0.2631
  0.2673   0.2780   0.2801   0.2871   0.2974   0.3060   0.3083   0.3176
  0.3241   0.3254   0.3327   0.3399   0.3443   0.3484   0.3560   0.3606
  0.3638   0.3735   0.3789   0.3843   0.3906   0.3930   0.4021   0.4029
  0.4126   0.4190   0.4295   0.4339   0.4461   0.4515   0.4667   0.4732
  0.4924   0.5057   0.5288   0.5361   0.5423   0.5669   0.5850   0.5905
  0.6015   0.6115   0.6199   0.6292   0.6437   0.6442   0.6550   0.6685
  0.6754   0.6861   0.6967   0.7025   0.7085   0.7196   0.7222   0.7266
  0.7366   0.7404   0.7566   0.7719   0.7793   0.7859   0.7953   0.8138
  0.8228   0.8248   0.8446   0.8533   0.8605   0.8662   0.8791   0.8933
  0.9076   0.9321   0.9440   0.9713   0.9889   1.0067   1.0248   1.0467
  1.0668   1.0705   1.0912   1.1011   1.1150   1.1177   1.1356   1.1406
  1.1625   1.1714   1.1823   1.1969   1.2005   1.2102   1.2229   1.2288
  1.2449   1.2569   1.2636   1.2707   1.2788   1.2872   1.2921   1.2980
  1.3064   1.3136   1.3228   1.3311   1.3470   1.3591   1.3762   1.3897
  1.3986   1.4120   1.4206   1.4269   1.4308   1.4406   1.4561   1.4616
  1.4748   1.4858   1.5093   1.5162   1.5386   1.5499   1.5547   1.5645
  1.5686   1.5784   1.5994   1.6122   1.6267   1.6340   1.6592   1.6645
  1.6662   1.7034   1.7191   1.7338   1.7595   1.7709   1.8021   1.8307
  1.8420   1.8696   1.8880   1.9240   1.9380   1.9468   1.9808   1.9961
  2.0093   2.0296   2.0636   2.1004   2.1054   2.1400   2.1716   2.1902
  2.2540   2.2765   2.2836   2.3156   2.3279   2.3766   2.3990   2.4310
  2.4514   2.4768   2.6147   2.6331   2.6812   2.7172   2.7278   2.7307
  2.7540   2.7791   2.8050   2.8241   2.8271   2.8489   2.8593   2.8737
  2.8866   2.9176   2.9386   2.9454   2.9615   2.9662   2.9738   2.9806
  2.9891   3.0109   3.0250   3.0566   3.0805   3.0891   3.0983   3.1228
  3.1399   3.1657   3.1924   3.2041   3.2101   3.2370   3.2601   3.2734
  3.2896   3.3123   3.3328   3.3506   3.3634   3.3748   3.3955   3.4041
  3.4182   3.4341   3.4402   3.4618   3.4766   3.4940   3.5071   3.5258
  3.5326   3.5426   3.5683   3.6069   3.6147   3.6328   3.6511   3.6711
  3.6783   3.6902   3.7159   3.7259   3.7325   3.7489   3.7685   3.7770
  3.8062   3.8122   3.8199   3.8334   3.8469   3.8673   3.8737   3.8872
  3.8998   3.9193   3.9405   3.9510   3.9636   3.9842   3.9986   4.0033
  4.0330   4.0625   4.0921   4.0960   4.1430   4.1481   4.1638   4.1745
  4.2177   4.2222   4.2338   4.2465   4.2806   4.3086   4.3251   4.3396
  4.3581   4.3657   4.3813   4.4004   4.4199   4.4302   4.4420   4.4540
  4.4822   4.5098   4.5263   4.5555   4.5661   4.5996   4.6093   4.6414
  4.6547   4.6618   4.6895   4.7254   4.7355   4.7490   4.7831   4.8080
  4.8613   4.8900   4.9061   4.9286   4.9724   4.9977   5.0804   5.1122
  5.1787   5.2021   5.2389   5.2570   5.2661   5.2828   5.2952   5.3053
  5.3064   5.3188   5.3311   5.3429   5.3592   5.3922   5.4079   5.4296
  5.4738   5.5026   5.5109   5.5179   5.5411   5.5906   5.6027   5.6180
  5.6693   5.6848   5.6908   5.7004   5.7437   5.7525   5.7659   5.8172
  5.8728   5.9016   5.9190   5.9577   6.0299   6.0639   6.0879   6.1596
  6.2159   6.3368   6.5984   6.6066   6.6862   6.9999   7.0489   7.1042
  7.1118   7.1272   7.2258   7.2893   7.3028   7.3139   7.3262   7.3567
  7.3931   7.4288   7.4399   7.4818   7.5239   7.6549   7.7164   7.7851
  7.8301   7.8636   7.9786   8.1754  24.3888  24.6187  24.7540  24.7892
 24.8348  25.0840  25.2752  50.5300  50.5881  50.6093  50.6656
 --------------------------------------------------------------
 
          Ground-State Mulliken Net Atomic Charges

     Atom                 Charge (a.u.)    Spin (a.u.)
  --------------------------------------------------------
      1 C                    -0.158491       0.039813
      2 C                    -0.326954      -0.005738
      3 C                    -0.149818       0.210947
      4 C                    -0.368204      -0.069700
      5 C                    -0.671852       0.372167
      6 C                     0.584800      -0.099394
      7 C                    -0.411109      -0.010520
      8 H                     0.328983      -0.000408
      9 H                     0.267453       0.002343
     10 H                     0.322937      -0.005893
     11 H                     0.296997       0.003371
     12 H                     0.302846      -0.006454
     13 H                     0.233746       0.000421
     14 O                    -0.392282      -0.003381
     15 H                     0.225118      -0.000959
     16 H                     0.325333      -0.000561
     17 O                    -0.400180      -0.000989
     18 H                     0.341989       0.001315
     19 O                    -0.087264       0.075598
     20 O                    -0.264047       0.498022
  --------------------------------------------------------
  Sum of atomic charges =     0.000000
  Sum of spin   charges =     1.000000

 -----------------------------------------------------------------
                    Cartesian Multipole Moments
 -----------------------------------------------------------------
    Charge (ESU x 10^10)
                 0.0000
    Dipole Moment (Debye)
         X       0.8455      Y      -2.7038      Z      -4.8341
       Tot       5.6031
    Quadrupole Moments (Debye-Ang)
        XX     -70.0649     XY       7.0891     YY     -65.3409
        XZ      10.7562     YZ      -3.6674     ZZ     -60.4927
    Octopole Moments (Debye-Ang^2)
       XXX     218.5469    XXY      -4.2190    XYY      43.2309
       YYY      41.8546    XXZ     -48.7478    XYZ      13.6906
       YYZ      -4.3371    XZZ      75.3085    YZZ       1.9398
       ZZZ     -72.1761
    Hexadecapole Moments (Debye-Ang^3)
      XXXX   -1011.8254   XXXY     -80.4277   XXYY    -244.0443
      XYYY     -88.5428   YYYY    -658.7718   XXXZ     203.3117
      XXYZ      37.6285   XYYZ      48.3912   YYYZ     112.8587
      XXZZ    -286.1346   XYZZ     -30.5165   YYZZ    -217.4496
      XZZZ     166.1078   YZZZ      90.0758   ZZZZ    -654.6918
 -----------------------------------------------------------------
 Calculating analytic gradient of the SCF energy
 Gradient of CDS energy
            1           2           3           4           5           6
    1   0.0001745   0.0000593  -0.0000702  -0.0002348  -0.0000021   0.0000807
    2  -0.0001321   0.0002135  -0.0003124  -0.0003552   0.0001942   0.0000286
    3  -0.0000169   0.0002239   0.0002684  -0.0001442  -0.0003306   0.0002475
            7           8           9          10          11          12
    1  -0.0002150  -0.0000051   0.0001397  -0.0000480  -0.0001243  -0.0000698
    2   0.0009379   0.0001927  -0.0000575  -0.0001599  -0.0001408   0.0000962
    3  -0.0005017   0.0000716   0.0001574   0.0001095  -0.0000850  -0.0001586
           13          14          15          16          17          18
    1  -0.0001212  -0.0000844   0.0001136   0.0002330  -0.0002895   0.0004232
    2  -0.0002222  -0.0002212  -0.0000817   0.0000295   0.0000835  -0.0001605
    3  -0.0000506   0.0002953   0.0003057  -0.0004488   0.0001290  -0.0000920
           19          20
    1  -0.0000186   0.0000592
    2   0.0000835  -0.0000161
    3  -0.0000840   0.0001042
 Gradient of SCF Energy
            1           2           3           4           5           6
    1   0.0076099  -0.0130958   0.0073336   0.0049012   0.0060683  -0.0071930
    2  -0.0052327   0.0099845  -0.0003553   0.0064828  -0.0105703   0.0136410
    3  -0.0063915   0.0048168  -0.0069196   0.0086549   0.0053383   0.0041616
            7           8           9          10          11          12
    1   0.0094217   0.0030002   0.0018505  -0.0013449  -0.0055805  -0.0062805
    2  -0.0099607   0.0020575  -0.0019705  -0.0057056  -0.0062711   0.0025181
    3   0.0045788   0.0003416   0.0031258   0.0032015  -0.0042793  -0.0116997
           13          14          15          16          17          18
    1  -0.0059225   0.0002640  -0.0008288   0.0002525  -0.0049568   0.0060233
    2   0.0005523   0.0198206   0.0027113  -0.0154106  -0.0101984   0.0063107
    3  -0.0083149   0.0138400   0.0011599  -0.0128529   0.0091519  -0.0105708
           19          20
    1   0.0015024  -0.0030247
    2   0.0011534   0.0004430
    3   0.0032430  -0.0005854
 Max gradient component =       1.982E-02
 RMS gradient           =       7.276E-03
 Computing fast CPCM-SWIG gradient
 Updating gradient with PCM contributions...
 -- total gradient after adding PCM contribution --
---------------------------------------------------
  Atom         X              Y              Z     
---------------------------------------------------
   1       0.000048      -0.000011      -0.000004
   2       0.000004       0.000038       0.000012
   3       0.000010       0.000006       0.000027
   4       0.000035       0.000041      -0.000064
   5      -0.000084      -0.000094      -0.000014
   6       0.000017       0.000017       0.000101
   7      -0.000021       0.000042      -0.000000
   8      -0.000014       0.000014      -0.000004
   9      -0.000003      -0.000022       0.000013
  10       0.000015      -0.000025      -0.000013
  11       0.000028      -0.000018      -0.000020
  12       0.000030      -0.000007      -0.000012
  13       0.000002      -0.000006      -0.000006
  14      -0.000011       0.000040       0.000023
  15      -0.000042       0.000015       0.000033
  16       0.000024      -0.000018       0.000004
  17      -0.000045      -0.000011      -0.000019
  18       0.000018       0.000038       0.000046
  19       0.000023      -0.000106       0.000049
  20      -0.000034       0.000066      -0.000152
---------------------------------------------------
 Number of fixed atoms: 0
 Gradient time:  CPU 538.00 s  wall 76.06 s
 ######################################################
 ######################################################
 # Starting finite difference calculation for IDERIV  #
 Finite diff step size:  1.88973e-03 a.u.
 ----------------------------------------------------------------
             Standard Nuclear Orientation (Angstroms)
    I     Atom           X                Y                Z
 ----------------------------------------------------------------
    1      C      -0.0936018658    -0.2862875634     0.6584936930
    2      C      -0.9326906499    -1.0061475377     1.7100632223
    3      C      -1.8049912755    -2.0592312116     1.0991852543
    4      C      -2.2677558347    -1.9023689136    -0.1532427075
    5      C      -1.9730784569    -0.6987579639    -0.8846737787
    6      C      -1.0618262935     0.2009376215    -0.3951239502
    7      C      -0.7389229415     1.4858086963    -1.0928020472
    8      H       0.4026426038     0.5606858408     1.1328384958
    9      H      -0.3165609268    -1.3998000679     2.5146230562
   10      H      -2.0650997134    -2.9247158149     1.6922010420
   11      H      -2.9196955240    -2.6409021586    -0.5990721757
   12      H      -2.5357727604    -0.4668139355    -1.7797943829
   13      H      -1.4514898466     1.6798452780    -1.8951024852
   14      O       0.6011408131     1.4552179675    -1.5928950157
   15      H      -0.7759790141     2.3107298853    -0.3838444184
   16      H       0.6397831435     0.8067889401    -2.3052263705
   17      O       0.8605859997    -1.1965739121     0.1325468757
   18      H       1.3882957713    -0.7189683985    -0.5180206375
   19      O      -1.6841331169     0.0743227755     2.3022829550
   20      O      -2.3935963961     0.6843215779     1.2697162947
 ----------------------------------------------------------------
 Nuclear Repulsion Energy =         663.33757596 hartrees
 There are       42 alpha and       41 beta electrons
 Discretize the solute cavity surface with Lebedev spheres
	Using 110 Lebedev grid points for each H atom
	Using 194 Lebedev grid points for other atoms
	Atomic van der Waals radii will be scaled by 1.20
 Remove points where switching function is < 1.0e-08
 Keep 1459 surface tesserae and discard 1665 interior tesserae
 Molecular Surface Area = 166.557 Angst**2
 Requested basis set is 6-311++G(2df,2p)
 There are 142 shells and 464 basis functions
 A cutoff of  1.0D-12 yielded   9178 shell pairs
 There are     99134 function pairs (    123952 Cartesian)
 Smallest overlap matrix eigenvalue = 1.83E-06
 Guess MOs from SCF MO coefficient file

 -----------------------------------------------------------------------
  General SCF calculation program by
  Eric Jon Sundstrom, Paul Horn, Yuezhi Mao, Dmitri Zuev, Alec White,
  David Stuck, Shaama M.S., Shane Yost, Joonho Lee, David Small,
  Daniel Levine, Susi Lehtola, Hugh Burton, Evgeny Epifanovsky,
  Bang C. Huynh
 -----------------------------------------------------------------------
 Exchange:     0.1500 Hartree-Fock + 1.0000 wB97M-V + LR-HF
 Correlation:  1.0000 wB97M-V
 Using SG-2 standard quadrature grid
 Nonlocal Correlation:  VV10 with C = 0.0100 and b = 6.00 and scale = 1.00000
 Grid used for NLC:  SG-1 standard quadrature
 
 Citation of the SMD model:
 Marenich, A.V.; Cramer, C.J.; Truhlar, D.G.
 J. Phys. Chem. B 2009, 113, 6378-6396.
 iSolventCode=           1
 Solvent: water                                                           
 
 vradii
            1           2           3           4           5           6
    1   1.8500000   1.8500000   1.8500000   1.8500000   1.8500000   1.8500000
            7           8           9          10          11          12
    1   1.8500000   1.2000000   1.2000000   1.2000000   1.2000000   1.2000000
           13          14          15          16          17          18
    1   1.2000000   1.5200000   1.2000000   1.2000000   1.5200000   1.2000000
           19          20
    1   1.5200000   1.5200000
 -------------------------------------------------------
 OpenMP BLAS3 based DFT computing Module                
 Release: version 1.0, May 2013, Q-Chem Inc. Pittsburgh 
 -------------------------------------------------------
 A unrestricted SCF calculation will be
 performed using Roothaan-Hall, DIIS, GDM
 SCF converges when RMS gradient is below 1.0e-07
 ---------------------------------------
  Cycle       Energy         DIIS error
 ---------------------------------------
    1    -572.8282560961      2.02e-04  Roothaan Step
 ---------------------------------------
  Cycle       Energy         DIIS error
 ---------------------------------------
    1    -572.8604654404      2.45e-04  
    2    -572.8658375390      2.37e-04  Done DIIS. Switching to GDM
 ---------------------------------------
  Cycle       Energy        RMS Gradient
 ---------------------------------------
    1    -572.8658375390      2.43e-02   Normal BFGS step
    2    -572.8647801339      3.87e-02  Line search: overstep
    3    -572.8700221543      5.27e-03   Normal BFGS step
    4    -572.8702199569      2.82e-03   Normal BFGS step
    5    -572.8703066330      1.77e-03   Normal BFGS step
    6    -572.8703264977      1.71e-03   Normal BFGS step
    7    -572.8703380734      1.32e-03   Normal BFGS step
    8    -572.8703476160      6.16e-04   Normal BFGS step
    9    -572.8703493437      4.21e-04   Normal BFGS step
   10    -572.8703501605      3.27e-04   Normal BFGS step
   11    -572.8703505984      2.57e-04   Normal BFGS step
   12    -572.8703510121      1.73e-04   Normal BFGS step
   13    -572.8703512512      1.06e-04   Normal BFGS step
   14    -572.8703513704      7.93e-05   Normal BFGS step
   15    -572.8703514185      6.27e-05   Normal BFGS step
   16    -572.8703514404      3.77e-05   Normal BFGS step
   17    -572.8703514508      2.05e-05   Normal BFGS step
   18    -572.8703514542      7.34e-06   Normal BFGS step
   19    -572.8703514548      3.89e-06   Normal BFGS step
   20    -572.8703514549      1.67e-06   Normal BFGS step
   21    -572.8703514549      8.80e-07   Normal BFGS step
   22    -572.8703514549      4.66e-07   Normal BFGS step
   23    -572.8703514549      1.76e-07   Normal BFGS step
   24    -572.8703514550      5.79e-08  Convergence criterion met
 ---------------------------------------
 SCF time:   CPU 4432.11s  wall 564.00s 
<S^2> =          0.787085223
(3)  G-ENP(liq) elect-nuc-pol free energy of system     -572.870351455 a.u.
(4)  G-CDS(liq) cavity-dispersion-solvent structure 
     free energy                                                3.0797 kcal/mol
(6)  G-S(liq) free energy of system                     -572.865443663 a.u.
 SCF   energy in the final basis set =     -572.8654436628
 Total energy in the final basis set =     -572.8654436628
 
 --------------------------------------------------------------
 
                    Orbital Energies (a.u.)
 --------------------------------------------------------------
 
 Alpha MOs
 -- Occupied --
-19.4053 -19.3850 -19.3473 -19.3443 -10.4085 -10.4066 -10.3929 -10.3858
-10.3711 -10.3612 -10.3583  -1.2666  -1.1716  -1.1587  -1.0052  -0.9833
 -0.8995  -0.8603  -0.8081  -0.7491  -0.7155  -0.6669  -0.6507  -0.6229
 -0.5997  -0.5873  -0.5809  -0.5694  -0.5552  -0.5458  -0.5244  -0.5093
 -0.5009  -0.4691  -0.4520  -0.4501  -0.4377  -0.4099  -0.4042  -0.3902
 -0.3531  -0.3146
 -- Virtual --
  0.0081   0.0252   0.0358   0.0383   0.0446   0.0553   0.0579   0.0716
  0.0803   0.0842   0.0977   0.1057   0.1070   0.1226   0.1240   0.1350
  0.1381   0.1413   0.1464   0.1503   0.1576   0.1583   0.1632   0.1696
  0.1726   0.1766   0.1784   0.1886   0.1908   0.1972   0.1998   0.2058
  0.2139   0.2143   0.2201   0.2352   0.2399   0.2528   0.2628   0.2665
  0.2773   0.2792   0.2857   0.2959   0.3053   0.3082   0.3160   0.3222
  0.3249   0.3317   0.3390   0.3432   0.3474   0.3554   0.3597   0.3630
  0.3723   0.3778   0.3834   0.3901   0.3918   0.4013   0.4025   0.4124
  0.4182   0.4291   0.4320   0.4449   0.4507   0.4660   0.4718   0.4913
  0.5051   0.5276   0.5355   0.5412   0.5652   0.5837   0.5890   0.5979
  0.6093   0.6188   0.6275   0.6423   0.6425   0.6520   0.6663   0.6718
  0.6849   0.6956   0.7009   0.7077   0.7183   0.7216   0.7252   0.7356
  0.7382   0.7548   0.7700   0.7764   0.7841   0.7915   0.8132   0.8200
  0.8234   0.8425   0.8500   0.8596   0.8640   0.8765   0.8912   0.9060
  0.9293   0.9434   0.9688   0.9880   1.0048   1.0238   1.0457   1.0653
  1.0698   1.0899   1.0996   1.1133   1.1167   1.1337   1.1394   1.1610
  1.1694   1.1812   1.1926   1.1974   1.2084   1.2211   1.2257   1.2439
  1.2551   1.2618   1.2691   1.2778   1.2857   1.2900   1.2940   1.3050
  1.3113   1.3196   1.3291   1.3424   1.3567   1.3734   1.3843   1.3961
  1.4098   1.4194   1.4239   1.4267   1.4382   1.4541   1.4587   1.4732
  1.4829   1.5070   1.5151   1.5344   1.5481   1.5522   1.5626   1.5657
  1.5764   1.5981   1.6102   1.6238   1.6320   1.6569   1.6626   1.6646
  1.6998   1.7157   1.7314   1.7580   1.7668   1.7989   1.8243   1.8321
  1.8658   1.8847   1.9202   1.9285   1.9425   1.9780   1.9910   2.0040
  2.0247   2.0621   2.0941   2.1020   2.1349   2.1694   2.1895   2.2477
  2.2732   2.2818   2.3113   2.3265   2.3739   2.3958   2.4303   2.4470
  2.4758   2.6114   2.6303   2.6781   2.7113   2.7249   2.7285   2.7465
  2.7733   2.8005   2.8175   2.8227   2.8448   2.8570   2.8680   2.8824
  2.9036   2.9300   2.9404   2.9564   2.9602   2.9632   2.9711   2.9841
  3.0046   3.0186   3.0545   3.0785   3.0834   3.0945   3.1195   3.1381
  3.1635   3.1859   3.2002   3.2049   3.2337   3.2560   3.2676   3.2873
  3.3098   3.3287   3.3446   3.3569   3.3700   3.3894   3.3982   3.4165
  3.4266   3.4377   3.4585   3.4696   3.4868   3.5039   3.5225   3.5284
  3.5380   3.5626   3.5983   3.6113   3.6297   3.6472   3.6602   3.6748
  3.6860   3.7121   3.7231   3.7285   3.7456   3.7635   3.7712   3.8044
  3.8094   3.8162   3.8283   3.8416   3.8644   3.8697   3.8842   3.8954
  3.9158   3.9384   3.9484   3.9604   3.9821   3.9946   3.9978   4.0309
  4.0579   4.0878   4.0930   4.1372   4.1462   4.1605   4.1714   4.2160
  4.2193   4.2295   4.2426   4.2769   4.3059   4.3238   4.3355   4.3512
  4.3630   4.3785   4.3985   4.4174   4.4265   4.4388   4.4495   4.4792
  4.5057   4.5208   4.5508   4.5615   4.5974   4.6023   4.6366   4.6474
  4.6539   4.6826   4.7214   4.7277   4.7434   4.7751   4.8048   4.8532
  4.8805   4.8989   4.9187   4.9643   4.9865   5.0624   5.1011   5.1609
  5.1837   5.2216   5.2357   5.2503   5.2697   5.2858   5.2927   5.2987
  5.3130   5.3209   5.3374   5.3540   5.3839   5.3910   5.4134   5.4640
  5.4915   5.5002   5.5073   5.5321   5.5888   5.5964   5.6141   5.6654
  5.6826   5.6872   5.6976   5.7379   5.7466   5.7629   5.8093   5.8636
  5.8979   5.9175   5.9573   6.0277   6.0589   6.0850   6.1509   6.2043
  6.3189   6.5962   6.6020   6.6856   6.9849   7.0264   7.0588   7.1030
  7.1236   7.1685   7.2584   7.3026   7.3117   7.3220   7.3564   7.3909
  7.4207   7.4379   7.4686   7.4959   7.6546   7.7153   7.7842   7.8195
  7.8637   7.9612   8.1679  24.3877  24.6172  24.7537  24.7893  24.8341
 25.0817  25.2731  50.5194  50.5880  50.6069  50.6659
 
 Beta MOs
 -- Occupied --
-19.4029 -19.3700 -19.3474 -19.3444 -10.4085 -10.4061 -10.3929 -10.3862
-10.3660 -10.3598 -10.3578  -1.2527  -1.1716  -1.1589  -0.9894  -0.9734
 -0.8966  -0.8525  -0.8050  -0.7458  -0.7122  -0.6605  -0.6486  -0.6201
 -0.5951  -0.5821  -0.5734  -0.5631  -0.5537  -0.5445  -0.5178  -0.5031
 -0.4884  -0.4617  -0.4480  -0.4377  -0.4255  -0.4012  -0.3896  -0.3624
 -0.3281
 -- Virtual --
 -0.0597   0.0172   0.0258   0.0356   0.0388   0.0454   0.0553   0.0579
  0.0724   0.0803   0.0844   0.0980   0.1056   0.1101   0.1230   0.1284
  0.1366   0.1387   0.1420   0.1471   0.1525   0.1578   0.1582   0.1631
  0.1718   0.1731   0.1777   0.1794   0.1891   0.1924   0.1978   0.2020
  0.2080   0.2143   0.2167   0.2204   0.2358   0.2399   0.2533   0.2631
  0.2673   0.2780   0.2801   0.2872   0.2974   0.3060   0.3082   0.3176
  0.3241   0.3253   0.3327   0.3399   0.3443   0.3484   0.3560   0.3606
  0.3638   0.3735   0.3789   0.3843   0.3906   0.3930   0.4021   0.4028
  0.4126   0.4190   0.4295   0.4339   0.4460   0.4515   0.4667   0.4733
  0.4924   0.5057   0.5287   0.5361   0.5422   0.5669   0.5850   0.5905
  0.6015   0.6115   0.6198   0.6292   0.6437   0.6442   0.6550   0.6685
  0.6754   0.6861   0.6967   0.7025   0.7085   0.7196   0.7223   0.7266
  0.7366   0.7404   0.7566   0.7719   0.7793   0.7859   0.7952   0.8138
  0.8228   0.8247   0.8446   0.8533   0.8605   0.8662   0.8791   0.8932
  0.9076   0.9321   0.9440   0.9713   0.9889   1.0066   1.0248   1.0467
  1.0668   1.0705   1.0913   1.1011   1.1151   1.1177   1.1356   1.1406
  1.1625   1.1714   1.1823   1.1969   1.2005   1.2102   1.2229   1.2288
  1.2448   1.2568   1.2636   1.2706   1.2787   1.2872   1.2921   1.2980
  1.3064   1.3135   1.3228   1.3311   1.3470   1.3590   1.3763   1.3897
  1.3986   1.4120   1.4206   1.4269   1.4308   1.4406   1.4561   1.4616
  1.4748   1.4858   1.5092   1.5162   1.5386   1.5499   1.5547   1.5645
  1.5686   1.5784   1.5994   1.6122   1.6267   1.6340   1.6592   1.6644
  1.6661   1.7034   1.7190   1.7337   1.7595   1.7707   1.8021   1.8307
  1.8420   1.8696   1.8880   1.9241   1.9379   1.9468   1.9808   1.9961
  2.0093   2.0295   2.0636   2.1004   2.1053   2.1400   2.1716   2.1902
  2.2541   2.2766   2.2837   2.3157   2.3280   2.3766   2.3990   2.4309
  2.4514   2.4771   2.6146   2.6331   2.6811   2.7172   2.7278   2.7308
  2.7541   2.7791   2.8049   2.8240   2.8270   2.8489   2.8593   2.8737
  2.8865   2.9176   2.9386   2.9454   2.9615   2.9662   2.9737   2.9804
  2.9890   3.0108   3.0251   3.0564   3.0807   3.0888   3.0981   3.1225
  3.1399   3.1657   3.1923   3.2040   3.2101   3.2371   3.2601   3.2734
  3.2895   3.3123   3.3328   3.3506   3.3632   3.3748   3.3955   3.4041
  3.4182   3.4341   3.4401   3.4619   3.4765   3.4940   3.5071   3.5258
  3.5326   3.5426   3.5684   3.6068   3.6147   3.6328   3.6511   3.6710
  3.6782   3.6902   3.7159   3.7259   3.7326   3.7490   3.7684   3.7770
  3.8063   3.8121   3.8199   3.8333   3.8468   3.8673   3.8736   3.8872
  3.8997   3.9192   3.9405   3.9510   3.9635   3.9842   3.9985   4.0031
  4.0328   4.0625   4.0919   4.0960   4.1428   4.1480   4.1638   4.1743
  4.2177   4.2221   4.2337   4.2464   4.2805   4.3085   4.3249   4.3394
  4.3581   4.3657   4.3812   4.4005   4.4200   4.4300   4.4420   4.4542
  4.4820   4.5098   4.5262   4.5557   4.5661   4.5996   4.6093   4.6414
  4.6545   4.6618   4.6891   4.7254   4.7355   4.7487   4.7831   4.8080
  4.8611   4.8899   4.9058   4.9285   4.9723   4.9976   5.0804   5.1122
  5.1786   5.2020   5.2388   5.2569   5.2659   5.2827   5.2952   5.3053
  5.3064   5.3187   5.3311   5.3429   5.3592   5.3922   5.4078   5.4295
  5.4738   5.5026   5.5110   5.5179   5.5410   5.5906   5.6025   5.6184
  5.6696   5.6849   5.6909   5.7004   5.7439   5.7526   5.7658   5.8173
  5.8728   5.9019   5.9191   5.9587   6.0299   6.0640   6.0883   6.1596
  6.2159   6.3368   6.5985   6.6066   6.6879   6.9999   7.0489   7.1042
  7.1118   7.1272   7.2258   7.2893   7.3028   7.3139   7.3264   7.3568
  7.3932   7.4289   7.4402   7.4818   7.5239   7.6549   7.7165   7.7851
  7.8301   7.8637   7.9786   8.1754  24.3888  24.6187  24.7539  24.7894
 24.8345  25.0838  25.2751  50.5300  50.5881  50.6094  50.6658
 --------------------------------------------------------------
 
          Ground-State Mulliken Net Atomic Charges

     Atom                 Charge (a.u.)    Spin (a.u.)
  --------------------------------------------------------
      1 C                    -0.158548       0.039821
      2 C                    -0.326871      -0.005718
      3 C                    -0.149918       0.211004
      4 C                    -0.368040      -0.069716
      5 C                    -0.671618       0.372282
      6 C                     0.584278      -0.099413
      7 C                    -0.411241      -0.010521
      8 H                     0.329109      -0.000409
      9 H                     0.267423       0.002342
     10 H                     0.322939      -0.005895
     11 H                     0.296989       0.003372
     12 H                     0.302862      -0.006457
     13 H                     0.233732       0.000421
     14 O                    -0.392279      -0.003380
     15 H                     0.225124      -0.000958
     16 H                     0.325335      -0.000561
     17 O                    -0.399804      -0.000971
     18 H                     0.341998       0.001318
     19 O                    -0.087328       0.075562
     20 O                    -0.264142       0.497875
  --------------------------------------------------------
  Sum of atomic charges =     0.000000
  Sum of spin   charges =     1.000000

 -----------------------------------------------------------------
                    Cartesian Multipole Moments
 -----------------------------------------------------------------
    Charge (ESU x 10^10)
                 0.0000
    Dipole Moment (Debye)
         X       0.8506      Y      -2.7050      Z      -4.8358
       Tot       5.6059
    Quadrupole Moments (Debye-Ang)
        XX     -70.0694     XY       7.0870     YY     -65.3413
        XZ      10.7593     YZ      -3.6650     ZZ     -60.4985
    Octopole Moments (Debye-Ang^2)
       XXX     218.5558    XXY      -4.2219    XYY      43.2356
       YYY      41.8514    XXZ     -48.7527    XYZ      13.6897
       YYZ      -4.3402    XZZ      75.3148    YZZ       1.9435
       ZZZ     -72.1907
    Hexadecapole Moments (Debye-Ang^3)
      XXXX   -1011.8755   XXXY     -80.4249   XXYY    -244.0538
      XYYY     -88.5486   YYYY    -658.7787   XXXZ     203.3187
      XXYZ      37.6262   XYYZ      48.3901   YYYZ     112.8708
      XXZZ    -286.1512   XYZZ     -30.5181   YYZZ    -217.4635
      XZZZ     166.1141   YZZZ      90.0972   ZZZZ    -654.7487
 -----------------------------------------------------------------
 Calculating analytic gradient of the SCF energy
 Gradient of CDS energy
            1           2           3           4           5           6
    1   0.0001934   0.0000591  -0.0000702  -0.0002348  -0.0000022   0.0000805
    2  -0.0001451   0.0002132  -0.0003124  -0.0003552   0.0001942   0.0000287
    3  -0.0000242   0.0002242   0.0002683  -0.0001442  -0.0003305   0.0002472
            7           8           9          10          11          12
    1  -0.0002150  -0.0000078   0.0001396  -0.0000480  -0.0001243  -0.0000698
    2   0.0009379   0.0001930  -0.0000575  -0.0001599  -0.0001408   0.0000962
    3  -0.0005017   0.0000717   0.0001574   0.0001095  -0.0000850  -0.0001586
           13          14          15          16          17          18
    1  -0.0001212  -0.0000844   0.0001136   0.0002331  -0.0003051   0.0004231
    2  -0.0002222  -0.0002212  -0.0000817   0.0000295   0.0000965  -0.0001607
    3  -0.0000506   0.0002953   0.0003057  -0.0004488   0.0001363  -0.0000921
           19          20
    1  -0.0000187   0.0000592
    2   0.0000835  -0.0000161
    3  -0.0000840   0.0001042
 Gradient of SCF Energy
            1           2           3           4           5           6
    1   0.0085686  -0.0132744   0.0073088   0.0049058   0.0060388  -0.0073967
    2  -0.0051128   0.0098944  -0.0003862   0.0064787  -0.0105537   0.0136437
    3  -0.0063607   0.0048753  -0.0069041   0.0086609   0.0053085   0.0040209
            7           8           9          10          11          12
    1   0.0094486   0.0027913   0.0018723  -0.0013466  -0.0055769  -0.0062770
    2  -0.0099608   0.0018746  -0.0019552  -0.0057036  -0.0062690   0.0025126
    3   0.0045799   0.0002392   0.0030983   0.0031971  -0.0042780  -0.0116984
           13          14          15          16          17          18
    1  -0.0059209   0.0002599  -0.0008269   0.0002551  -0.0052301   0.0059937
    2   0.0005449   0.0198335   0.0027092  -0.0154159  -0.0101069   0.0063564
    3  -0.0083088   0.0138393   0.0011595  -0.0128534   0.0092595  -0.0105625
           19          20
    1   0.0014528  -0.0030462
    2   0.0011767   0.0004394
    3   0.0032823  -0.0005550
 Max gradient component =       1.983E-02
 RMS gradient           =       7.298E-03
 Computing fast CPCM-SWIG gradient
 Updating gradient with PCM contributions...
 -- total gradient after adding PCM contribution --
---------------------------------------------------
  Atom         X              Y              Z     
---------------------------------------------------
   1       0.001037       0.000111       0.000025
   2      -0.000182      -0.000051       0.000063
   3      -0.000016      -0.000022       0.000047
   4       0.000036       0.000039      -0.000058
   5      -0.000104      -0.000074      -0.000042
   6      -0.000203       0.000020      -0.000036
   7       0.000002       0.000040       0.000002
   8      -0.000226      -0.000175      -0.000109
   9       0.000018      -0.000008      -0.000011
  10       0.000012      -0.000026      -0.000014
  11       0.000029      -0.000018      -0.000020
  12       0.000031      -0.000011      -0.000013
  13       0.000001      -0.000012      -0.000002
  14      -0.000011       0.000045       0.000021
  15      -0.000042       0.000014       0.000033
  16       0.000024      -0.000019       0.000004
  17      -0.000305       0.000085       0.000080
  18      -0.000022       0.000080       0.000063
  19      -0.000030      -0.000079       0.000086
  20      -0.000051       0.000060      -0.000119
---------------------------------------------------
 Number of fixed atoms: 0
 Gradient time:  CPU 546.97 s  wall 77.52 s
 ----------------------------------------------------------------
             Standard Nuclear Orientation (Angstroms)
    I     Atom           X                Y                Z
 ----------------------------------------------------------------
    1      C      -0.0956018658    -0.2862875634     0.6584936930
    2      C      -0.9326906499    -1.0061475377     1.7100632223
    3      C      -1.8049912755    -2.0592312116     1.0991852543
    4      C      -2.2677558347    -1.9023689136    -0.1532427075
    5      C      -1.9730784569    -0.6987579639    -0.8846737787
    6      C      -1.0618262935     0.2009376215    -0.3951239502
    7      C      -0.7389229415     1.4858086963    -1.0928020472
    8      H       0.4026426038     0.5606858408     1.1328384958
    9      H      -0.3165609268    -1.3998000679     2.5146230562
   10      H      -2.0650997134    -2.9247158149     1.6922010420
   11      H      -2.9196955240    -2.6409021586    -0.5990721757
   12      H      -2.5357727604    -0.4668139355    -1.7797943829
   13      H      -1.4514898466     1.6798452780    -1.8951024852
   14      O       0.6011408131     1.4552179675    -1.5928950157
   15      H      -0.7759790141     2.3107298853    -0.3838444184
   16      H       0.6397831435     0.8067889401    -2.3052263705
   17      O       0.8605859997    -1.1965739121     0.1325468757
   18      H       1.3882957713    -0.7189683985    -0.5180206375
   19      O      -1.6841331169     0.0743227755     2.3022829550
   20      O      -2.3935963961     0.6843215779     1.2697162947
 ----------------------------------------------------------------
 Nuclear Repulsion Energy =         663.36400203 hartrees
 There are       42 alpha and       41 beta electrons
 Discretize the solute cavity surface with Lebedev spheres
	Using 110 Lebedev grid points for each H atom
	Using 194 Lebedev grid points for other atoms
	Atomic van der Waals radii will be scaled by 1.20
 Remove points where switching function is < 1.0e-08
 Keep 1459 surface tesserae and discard 1665 interior tesserae
 Molecular Surface Area = 166.560 Angst**2
 Requested basis set is 6-311++G(2df,2p)
 There are 142 shells and 464 basis functions
 A cutoff of  1.0D-12 yielded   9178 shell pairs
 There are     99134 function pairs (    123952 Cartesian)
 Smallest overlap matrix eigenvalue = 1.83E-06
 Guess MOs from SCF MO coefficient file

 -----------------------------------------------------------------------
  General SCF calculation program by
  Eric Jon Sundstrom, Paul Horn, Yuezhi Mao, Dmitri Zuev, Alec White,
  David Stuck, Shaama M.S., Shane Yost, Joonho Lee, David Small,
  Daniel Levine, Susi Lehtola, Hugh Burton, Evgeny Epifanovsky,
  Bang C. Huynh
 -----------------------------------------------------------------------
 Exchange:     0.1500 Hartree-Fock + 1.0000 wB97M-V + LR-HF
 Correlation:  1.0000 wB97M-V
 Using SG-2 standard quadrature grid
 Nonlocal Correlation:  VV10 with C = 0.0100 and b = 6.00 and scale = 1.00000
 Grid used for NLC:  SG-1 standard quadrature
 
 Citation of the SMD model:
 Marenich, A.V.; Cramer, C.J.; Truhlar, D.G.
 J. Phys. Chem. B 2009, 113, 6378-6396.
 iSolventCode=           1
 Solvent: water                                                           
 
 vradii
            1           2           3           4           5           6
    1   1.8500000   1.8500000   1.8500000   1.8500000   1.8500000   1.8500000
            7           8           9          10          11          12
    1   1.8500000   1.2000000   1.2000000   1.2000000   1.2000000   1.2000000
           13          14          15          16          17          18
    1   1.2000000   1.5200000   1.2000000   1.2000000   1.5200000   1.2000000
           19          20
    1   1.5200000   1.5200000
 -------------------------------------------------------
 OpenMP BLAS3 based DFT computing Module                
 Release: version 1.0, May 2013, Q-Chem Inc. Pittsburgh 
 -------------------------------------------------------
 A unrestricted SCF calculation will be
 performed using Roothaan-Hall, DIIS, GDM
 SCF converges when RMS gradient is below 1.0e-07
 ---------------------------------------
  Cycle       Energy         DIIS error
 ---------------------------------------
    1    -572.8282513047      2.02e-04  Roothaan Step
 ---------------------------------------
  Cycle       Energy         DIIS error
 ---------------------------------------
    1    -572.8604384027      2.45e-04  
    2    -572.8657991855      2.38e-04  Done DIIS. Switching to GDM
 ---------------------------------------
  Cycle       Energy        RMS Gradient
 ---------------------------------------
    1    -572.8657991855      2.44e-02   Normal BFGS step
    2    -572.8647191994      3.89e-02  Line search: overstep
    3    -572.8700220244      5.26e-03   Normal BFGS step
    4    -572.8702197935      2.81e-03   Normal BFGS step
    5    -572.8703066818      1.76e-03   Normal BFGS step
    6    -572.8703263830      1.70e-03   Normal BFGS step
    7    -572.8703377903      1.31e-03   Normal BFGS step
    8    -572.8703472015      6.10e-04   Normal BFGS step
    9    -572.8703489098      4.17e-04   Normal BFGS step
   10    -572.8703497102      3.22e-04   Normal BFGS step
   11    -572.8703501373      2.53e-04   Normal BFGS step
   12    -572.8703505399      1.71e-04   Normal BFGS step
   13    -572.8703507742      1.06e-04   Normal BFGS step
   14    -572.8703508917      7.97e-05   Normal BFGS step
   15    -572.8703509392      6.28e-05   Normal BFGS step
   16    -572.8703509609      3.76e-05   Normal BFGS step
   17    -572.8703509713      2.07e-05   Normal BFGS step
   18    -572.8703509747      7.40e-06   Normal BFGS step
   19    -572.8703509754      3.89e-06   Normal BFGS step
   20    -572.8703509755      1.67e-06   Normal BFGS step
   21    -572.8703509755      8.79e-07   Normal BFGS step
   22    -572.8703509755      4.54e-07   Normal BFGS step
   23    -572.8703509755      1.78e-07   Normal BFGS step
   24    -572.8703509756      6.15e-08  Convergence criterion met
 ---------------------------------------
 SCF time:   CPU 4416.41s  wall 563.00s 
<S^2> =          0.787080305
(3)  G-ENP(liq) elect-nuc-pol free energy of system     -572.870350976 a.u.
(4)  G-CDS(liq) cavity-dispersion-solvent structure 
     free energy                                                3.0793 kcal/mol
(6)  G-S(liq) free energy of system                     -572.865443846 a.u.
 SCF   energy in the final basis set =     -572.8654438462
 Total energy in the final basis set =     -572.8654438462
 
 --------------------------------------------------------------
 
                    Orbital Energies (a.u.)
 --------------------------------------------------------------
 
 Alpha MOs
 -- Occupied --
-19.4054 -19.3851 -19.3472 -19.3443 -10.4085 -10.4066 -10.3929 -10.3858
-10.3711 -10.3612 -10.3583  -1.2667  -1.1713  -1.1586  -1.0053  -0.9834
 -0.8995  -0.8604  -0.8082  -0.7491  -0.7156  -0.6669  -0.6508  -0.6229
 -0.5997  -0.5873  -0.5808  -0.5693  -0.5552  -0.5458  -0.5244  -0.5094
 -0.5007  -0.4691  -0.4520  -0.4502  -0.4377  -0.4100  -0.4041  -0.3904
 -0.3532  -0.3146
 -- Virtual --
  0.0081   0.0253   0.0358   0.0383   0.0446   0.0553   0.0579   0.0716
  0.0803   0.0843   0.0976   0.1057   0.1070   0.1226   0.1240   0.1350
  0.1381   0.1414   0.1464   0.1503   0.1576   0.1583   0.1632   0.1696
  0.1726   0.1766   0.1784   0.1886   0.1908   0.1972   0.1998   0.2057
  0.2139   0.2143   0.2201   0.2353   0.2399   0.2529   0.2628   0.2665
  0.2772   0.2793   0.2856   0.2959   0.3053   0.3082   0.3160   0.3222
  0.3249   0.3317   0.3389   0.3431   0.3474   0.3554   0.3597   0.3630
  0.3723   0.3778   0.3833   0.3902   0.3918   0.4014   0.4026   0.4124
  0.4181   0.4291   0.4320   0.4450   0.4507   0.4660   0.4716   0.4913
  0.5052   0.5277   0.5355   0.5413   0.5651   0.5837   0.5890   0.5979
  0.6093   0.6189   0.6276   0.6423   0.6425   0.6519   0.6663   0.6718
  0.6849   0.6956   0.7009   0.7078   0.7183   0.7215   0.7253   0.7356
  0.7382   0.7548   0.7700   0.7764   0.7840   0.7916   0.8133   0.8200
  0.8235   0.8425   0.8500   0.8596   0.8640   0.8765   0.8913   0.9060
  0.9292   0.9434   0.9688   0.9880   1.0049   1.0238   1.0458   1.0654
  1.0698   1.0898   1.0996   1.1132   1.1168   1.1337   1.1394   1.1611
  1.1694   1.1812   1.1926   1.1974   1.2084   1.2212   1.2257   1.2439
  1.2552   1.2618   1.2693   1.2779   1.2857   1.2900   1.2941   1.3050
  1.3114   1.3195   1.3291   1.3424   1.3568   1.3734   1.3843   1.3961
  1.4098   1.4195   1.4239   1.4268   1.4383   1.4541   1.4587   1.4732
  1.4830   1.5072   1.5151   1.5345   1.5482   1.5521   1.5626   1.5656
  1.5764   1.5982   1.6103   1.6237   1.6321   1.6570   1.6627   1.6646
  1.6998   1.7159   1.7315   1.7581   1.7671   1.7989   1.8243   1.8321
  1.8658   1.8846   1.9202   1.9286   1.9426   1.9780   1.9910   2.0040
  2.0248   2.0620   2.0940   2.1022   2.1349   2.1694   2.1896   2.2475
  2.2730   2.2815   2.3110   2.3264   2.3739   2.3959   2.4303   2.4469
  2.4754   2.6116   2.6303   2.6781   2.7113   2.7248   2.7285   2.7464
  2.7732   2.8007   2.8176   2.8229   2.8449   2.8570   2.8681   2.8826
  2.9037   2.9300   2.9404   2.9563   2.9603   2.9634   2.9713   2.9843
  3.0048   3.0186   3.0547   3.0782   3.0840   3.0946   3.1201   3.1380
  3.1635   3.1861   3.2005   3.2049   3.2337   3.2558   3.2676   3.2874
  3.3098   3.3287   3.3447   3.3573   3.3700   3.3894   3.3983   3.4165
  3.4267   3.4380   3.4582   3.4696   3.4869   3.5040   3.5227   3.5283
  3.5379   3.5625   3.5985   3.6114   3.6295   3.6472   3.6603   3.6752
  3.6860   3.7121   3.7230   3.7283   3.7454   3.7636   3.7712   3.8042
  3.8095   3.8163   3.8285   3.8419   3.8644   3.8699   3.8841   3.8956
  3.9159   3.9384   3.9484   3.9605   3.9821   3.9948   3.9983   4.0313
  4.0579   4.0881   4.0930   4.1375   4.1463   4.1604   4.1719   4.2160
  4.2194   4.2297   4.2428   4.2770   4.3062   4.3241   4.3358   4.3513
  4.3629   4.3787   4.3984   4.4173   4.4268   4.4386   4.4491   4.4797
  4.5059   4.5209   4.5504   4.5614   4.5975   4.6023   4.6366   4.6479
  4.6540   4.6833   4.7215   4.7278   4.7440   4.7750   4.8049   4.8538
  4.8806   4.8995   4.9189   4.9646   4.9867   5.0624   5.1012   5.1611
  5.1839   5.2216   5.2357   5.2510   5.2698   5.2858   5.2927   5.2988
  5.3131   5.3209   5.3373   5.3540   5.3841   5.3909   5.4139   5.4640
  5.4914   5.5002   5.5073   5.5323   5.5889   5.5968   5.6133   5.6646
  5.6826   5.6870   5.6976   5.7375   5.7462   5.7630   5.8092   5.8636
  5.8975   5.9173   5.9553   6.0277   6.0588   6.0841   6.1510   6.2043
  6.3189   6.5962   6.6019   6.6821   6.9849   7.0264   7.0589   7.1030
  7.1236   7.1685   7.2584   7.3025   7.3117   7.3218   7.3563   7.3907
  7.4206   7.4372   7.4685   7.4958   7.6546   7.7151   7.7842   7.8196
  7.8635   7.9612   8.1679  24.3877  24.6174  24.7539  24.7890  24.8347
 25.0821  25.2735  50.5193  50.5880  50.6069  50.6655
 
 Beta MOs
 -- Occupied --
-19.4029 -19.3701 -19.3473 -19.3444 -10.4085 -10.4061 -10.3929 -10.3862
-10.3660 -10.3599 -10.3578  -1.2528  -1.1712  -1.1588  -0.9895  -0.9735
 -0.8967  -0.8527  -0.8051  -0.7458  -0.7123  -0.6603  -0.6486  -0.6201
 -0.5951  -0.5821  -0.5734  -0.5631  -0.5537  -0.5446  -0.5178  -0.5030
 -0.4883  -0.4616  -0.4481  -0.4378  -0.4255  -0.4011  -0.3898  -0.3624
 -0.3282
 -- Virtual --
 -0.0597   0.0171   0.0258   0.0356   0.0388   0.0454   0.0553   0.0579
  0.0724   0.0803   0.0844   0.0980   0.1056   0.1101   0.1230   0.1284
  0.1366   0.1387   0.1420   0.1471   0.1525   0.1578   0.1582   0.1631
  0.1718   0.1731   0.1777   0.1794   0.1891   0.1924   0.1978   0.2020
  0.2080   0.2143   0.2167   0.2204   0.2358   0.2400   0.2534   0.2631
  0.2672   0.2780   0.2801   0.2870   0.2974   0.3060   0.3083   0.3176
  0.3241   0.3254   0.3327   0.3399   0.3442   0.3484   0.3560   0.3606
  0.3638   0.3735   0.3789   0.3842   0.3906   0.3930   0.4022   0.4029
  0.4126   0.4190   0.4295   0.4339   0.4461   0.4515   0.4667   0.4731
  0.4924   0.5058   0.5288   0.5361   0.5423   0.5668   0.5850   0.5906
  0.6015   0.6115   0.6199   0.6292   0.6438   0.6442   0.6549   0.6685
  0.6754   0.6861   0.6967   0.7026   0.7085   0.7196   0.7222   0.7267
  0.7366   0.7403   0.7566   0.7719   0.7793   0.7859   0.7954   0.8139
  0.8228   0.8248   0.8447   0.8533   0.8605   0.8662   0.8791   0.8933
  0.9076   0.9321   0.9440   0.9713   0.9889   1.0067   1.0248   1.0467
  1.0669   1.0705   1.0912   1.1011   1.1150   1.1178   1.1356   1.1406
  1.1625   1.1714   1.1823   1.1970   1.2005   1.2102   1.2230   1.2288
  1.2449   1.2569   1.2635   1.2708   1.2789   1.2872   1.2921   1.2980
  1.3063   1.3136   1.3228   1.3312   1.3470   1.3591   1.3762   1.3896
  1.3986   1.4120   1.4207   1.4269   1.4308   1.4406   1.4561   1.4616
  1.4748   1.4858   1.5095   1.5162   1.5387   1.5499   1.5547   1.5645
  1.5686   1.5784   1.5995   1.6122   1.6266   1.6340   1.6592   1.6645
  1.6662   1.7034   1.7192   1.7338   1.7596   1.7711   1.8021   1.8308
  1.8420   1.8696   1.8880   1.9240   1.9380   1.9468   1.9808   1.9961
  2.0093   2.0296   2.0635   2.1003   2.1055   2.1400   2.1716   2.1902
  2.2539   2.2764   2.2834   2.3155   2.3279   2.3767   2.3990   2.4310
  2.4513   2.4766   2.6148   2.6331   2.6812   2.7172   2.7278   2.7308
  2.7540   2.7790   2.8051   2.8241   2.8271   2.8489   2.8593   2.8737
  2.8867   2.9176   2.9386   2.9454   2.9615   2.9662   2.9739   2.9807
  2.9891   3.0110   3.0250   3.0567   3.0804   3.0893   3.0984   3.1231
  3.1399   3.1657   3.1925   3.2042   3.2102   3.2370   3.2600   3.2734
  3.2896   3.3123   3.3328   3.3507   3.3636   3.3748   3.3956   3.4041
  3.4182   3.4342   3.4403   3.4616   3.4766   3.4940   3.5071   3.5259
  3.5326   3.5425   3.5682   3.6070   3.6148   3.6327   3.6511   3.6712
  3.6785   3.6902   3.7158   3.7258   3.7325   3.7488   3.7685   3.7770
  3.8061   3.8122   3.8199   3.8335   3.8471   3.8673   3.8738   3.8872
  3.8999   3.9193   3.9404   3.9510   3.9636   3.9842   3.9987   4.0036
  4.0332   4.0626   4.0923   4.0960   4.1431   4.1481   4.1637   4.1748
  4.2177   4.2222   4.2339   4.2466   4.2806   4.3087   4.3252   4.3397
  4.3582   4.3657   4.3814   4.4004   4.4199   4.4303   4.4419   4.4538
  4.4825   4.5099   4.5264   4.5553   4.5661   4.5997   4.6094   4.6415
  4.6550   4.6619   4.6898   4.7254   4.7356   4.7493   4.7831   4.8080
  4.8616   4.8901   4.9063   4.9287   4.9725   4.9978   5.0804   5.1123
  5.1788   5.2023   5.2389   5.2571   5.2662   5.2828   5.2953   5.3053
  5.3064   5.3189   5.3311   5.3428   5.3592   5.3921   5.4081   5.4297
  5.4738   5.5025   5.5109   5.5179   5.5412   5.5906   5.6028   5.6177
  5.6689   5.6848   5.6907   5.7004   5.7435   5.7523   5.7660   5.8172
  5.8729   5.9014   5.9190   5.9567   6.0299   6.0638   6.0874   6.1597
  6.2159   6.3368   6.5984   6.6066   6.6844   6.9999   7.0490   7.1042
  7.1118   7.1273   7.2258   7.2893   7.3027   7.3139   7.3261   7.3567
  7.3930   7.4287   7.4397   7.4818   7.5239   7.6549   7.7163   7.7851
  7.8302   7.8636   7.9786   8.1754  24.3888  24.6188  24.7541  24.7891
 24.8351  25.0842  25.2754  50.5300  50.5881  50.6093  50.6655
 --------------------------------------------------------------
 
          Ground-State Mulliken Net Atomic Charges

     Atom                 Charge (a.u.)    Spin (a.u.)
  --------------------------------------------------------
      1 C                    -0.158434       0.039806
      2 C                    -0.327037      -0.005758
      3 C                    -0.149718       0.210889
      4 C                    -0.368368      -0.069684
      5 C                    -0.672085       0.372052
      6 C                     0.585320      -0.099376
      7 C                    -0.410978      -0.010518
      8 H                     0.328857      -0.000407
      9 H                     0.267484       0.002344
     10 H                     0.322934      -0.005891
     11 H                     0.297004       0.003370
     12 H                     0.302831      -0.006451
     13 H                     0.233760       0.000421
     14 O                    -0.392286      -0.003383
     15 H                     0.225112      -0.000961
     16 H                     0.325331      -0.000562
     17 O                    -0.400555      -0.001008
     18 H                     0.341980       0.001312
     19 O                    -0.087200       0.075634
     20 O                    -0.263951       0.498170
  --------------------------------------------------------
  Sum of atomic charges =     0.000000
  Sum of spin   charges =     1.000000

 -----------------------------------------------------------------
                    Cartesian Multipole Moments
 -----------------------------------------------------------------
    Charge (ESU x 10^10)
                 0.0000
    Dipole Moment (Debye)
         X       0.8404      Y      -2.7025      Z      -4.8325
       Tot       5.6003
    Quadrupole Moments (Debye-Ang)
        XX     -70.0604     XY       7.0911     YY     -65.3405
        XZ      10.7531     YZ      -3.6698     ZZ     -60.4868
    Octopole Moments (Debye-Ang^2)
       XXX     218.5379    XXY      -4.2160    XYY      43.2263
       YYY      41.8578    XXZ     -48.7430    XYZ      13.6915
       YYZ      -4.3340    XZZ      75.3022    YZZ       1.9360
       ZZZ     -72.1614
    Hexadecapole Moments (Debye-Ang^3)
      XXXX   -1011.7754   XXXY     -80.4304   XXYY    -244.0347
      XYYY     -88.5370   YYYY    -658.7649   XXXZ     203.3046
      XXYZ      37.6308   XYYZ      48.3923   YYYZ     112.8466
      XXZZ    -286.1180   XYZZ     -30.5148   YYZZ    -217.4357
      XZZZ     166.1014   YZZZ      90.0544   ZZZZ    -654.6349
 -----------------------------------------------------------------
 Calculating analytic gradient of the SCF energy
 Gradient of CDS energy
            1           2           3           4           5           6
    1   0.0001610   0.0000596  -0.0000702  -0.0002348  -0.0000021   0.0000809
    2  -0.0001240   0.0002137  -0.0003124  -0.0003552   0.0001942   0.0000286
    3  -0.0000124   0.0002236   0.0002684  -0.0001442  -0.0003306   0.0002477
            7           8           9          10          11          12
    1  -0.0002150  -0.0000026   0.0001397  -0.0000480  -0.0001243  -0.0000698
    2   0.0009379   0.0001925  -0.0000575  -0.0001599  -0.0001408   0.0000962
    3  -0.0005017   0.0000716   0.0001574   0.0001095  -0.0000850  -0.0001586
           13          14          15          16          17          18
    1  -0.0001212  -0.0000844   0.0001136   0.0002330  -0.0002791   0.0004232
    2  -0.0002222  -0.0002212  -0.0000817   0.0000295   0.0000754  -0.0001604
    3  -0.0000506   0.0002953   0.0003057  -0.0004488   0.0001245  -0.0000919
           19          20
    1  -0.0000186   0.0000592
    2   0.0000835  -0.0000161
    3  -0.0000839   0.0001042
 Gradient of SCF Energy
            1           2           3           4           5           6
    1   0.0066566  -0.0129169   0.0073584   0.0048966   0.0060980  -0.0069888
    2  -0.0053580   0.0100749  -0.0003244   0.0064869  -0.0105868   0.0136381
    3  -0.0064258   0.0047579  -0.0069351   0.0086489   0.0053680   0.0043031
            7           8           9          10          11          12
    1   0.0093948   0.0032089   0.0018286  -0.0013432  -0.0055841  -0.0062841
    2  -0.0099605   0.0022400  -0.0019858  -0.0057075  -0.0062732   0.0025236
    3   0.0045776   0.0004438   0.0031533   0.0032058  -0.0042806  -0.0117011
           13          14          15          16          17          18
    1  -0.0059241   0.0002680  -0.0008306   0.0002499  -0.0046896   0.0060528
    2   0.0005597   0.0198077   0.0027133  -0.0154054  -0.0102843   0.0062651
    3  -0.0083209   0.0138407   0.0011603  -0.0128524   0.0090476  -0.0105789
           19          20
    1   0.0015520  -0.0030032
    2   0.0011301   0.0004466
    3   0.0032036  -0.0006159
 Max gradient component =       1.981E-02
 RMS gradient           =       7.256E-03
 Computing fast CPCM-SWIG gradient
 Updating gradient with PCM contributions...
 -- total gradient after adding PCM contribution --
---------------------------------------------------
  Atom         X              Y              Z     
---------------------------------------------------
   1      -0.000936      -0.000138      -0.000035
   2       0.000190       0.000127      -0.000040
   3       0.000037       0.000034       0.000006
   4       0.000034       0.000043      -0.000070
   5      -0.000063      -0.000113       0.000015
   6       0.000238       0.000015       0.000238
   7      -0.000045       0.000045      -0.000002
   8       0.000199       0.000202       0.000101
   9      -0.000024      -0.000036       0.000036
  10       0.000018      -0.000025      -0.000011
  11       0.000027      -0.000018      -0.000020
  12       0.000029      -0.000002      -0.000011
  13       0.000002       0.000000      -0.000010
  14      -0.000011       0.000034       0.000025
  15      -0.000043       0.000016       0.000032
  16       0.000024      -0.000018       0.000003
  17       0.000209      -0.000100      -0.000115
  18       0.000058      -0.000005       0.000029
  19       0.000076      -0.000133       0.000013
  20      -0.000018       0.000071      -0.000185
---------------------------------------------------
 Number of fixed atoms: 0
 Gradient time:  CPU 507.47 s  wall 71.95 s
 ----------------------------------------------------------------
             Standard Nuclear Orientation (Angstroms)
    I     Atom           X                Y                Z
 ----------------------------------------------------------------
    1      C      -0.0946018658    -0.2852875634     0.6584936930
    2      C      -0.9326906499    -1.0061475377     1.7100632223
    3      C      -1.8049912755    -2.0592312116     1.0991852543
    4      C      -2.2677558347    -1.9023689136    -0.1532427075
    5      C      -1.9730784569    -0.6987579639    -0.8846737787
    6      C      -1.0618262935     0.2009376215    -0.3951239502
    7      C      -0.7389229415     1.4858086963    -1.0928020472
    8      H       0.4026426038     0.5606858408     1.1328384958
    9      H      -0.3165609268    -1.3998000679     2.5146230562
   10      H      -2.0650997134    -2.9247158149     1.6922010420
   11      H      -2.9196955240    -2.6409021586    -0.5990721757
   12      H      -2.5357727604    -0.4668139355    -1.7797943829
   13      H      -1.4514898466     1.6798452780    -1.8951024852
   14      O       0.6011408131     1.4552179675    -1.5928950157
   15      H      -0.7759790141     2.3107298853    -0.3838444184
   16      H       0.6397831435     0.8067889401    -2.3052263705
   17      O       0.8605859997    -1.1965739121     0.1325468757
   18      H       1.3882957713    -0.7189683985    -0.5180206375
   19      O      -1.6841331169     0.0743227755     2.3022829550
   20      O      -2.3935963961     0.6843215779     1.2697162947
 ----------------------------------------------------------------
 Nuclear Repulsion Energy =         663.34522122 hartrees
 There are       42 alpha and       41 beta electrons
 Discretize the solute cavity surface with Lebedev spheres
	Using 110 Lebedev grid points for each H atom
	Using 194 Lebedev grid points for other atoms
	Atomic van der Waals radii will be scaled by 1.20
 Remove points where switching function is < 1.0e-08
 Keep 1459 surface tesserae and discard 1665 interior tesserae
 Molecular Surface Area = 166.557 Angst**2
 Requested basis set is 6-311++G(2df,2p)
 There are 142 shells and 464 basis functions
 A cutoff of  1.0D-12 yielded   9178 shell pairs
 There are     99134 function pairs (    123952 Cartesian)
 Smallest overlap matrix eigenvalue = 1.83E-06
 Guess MOs from SCF MO coefficient file

 -----------------------------------------------------------------------
  General SCF calculation program by
  Eric Jon Sundstrom, Paul Horn, Yuezhi Mao, Dmitri Zuev, Alec White,
  David Stuck, Shaama M.S., Shane Yost, Joonho Lee, David Small,
  Daniel Levine, Susi Lehtola, Hugh Burton, Evgeny Epifanovsky,
  Bang C. Huynh
 -----------------------------------------------------------------------
 Exchange:     0.1500 Hartree-Fock + 1.0000 wB97M-V + LR-HF
 Correlation:  1.0000 wB97M-V
 Using SG-2 standard quadrature grid
 Nonlocal Correlation:  VV10 with C = 0.0100 and b = 6.00 and scale = 1.00000
 Grid used for NLC:  SG-1 standard quadrature
 
 Citation of the SMD model:
 Marenich, A.V.; Cramer, C.J.; Truhlar, D.G.
 J. Phys. Chem. B 2009, 113, 6378-6396.
 iSolventCode=           1
 Solvent: water                                                           
 
 vradii
            1           2           3           4           5           6
    1   1.8500000   1.8500000   1.8500000   1.8500000   1.8500000   1.8500000
            7           8           9          10          11          12
    1   1.8500000   1.2000000   1.2000000   1.2000000   1.2000000   1.2000000
           13          14          15          16          17          18
    1   1.2000000   1.5200000   1.2000000   1.2000000   1.5200000   1.2000000
           19          20
    1   1.5200000   1.5200000
 -------------------------------------------------------
 OpenMP BLAS3 based DFT computing Module                
 Release: version 1.0, May 2013, Q-Chem Inc. Pittsburgh 
 -------------------------------------------------------
 A unrestricted SCF calculation will be
 performed using Roothaan-Hall, DIIS, GDM
 SCF converges when RMS gradient is below 1.0e-07
 ---------------------------------------
  Cycle       Energy         DIIS error
 ---------------------------------------
    1    -572.8282574060      2.02e-04  Roothaan Step
 ---------------------------------------
  Cycle       Energy         DIIS error
 ---------------------------------------
    1    -572.8604649048      2.45e-04  
    2    -572.8658360311      2.37e-04  Done DIIS. Switching to GDM
 ---------------------------------------
  Cycle       Energy        RMS Gradient
 ---------------------------------------
    1    -572.8658360311      2.42e-02   Normal BFGS step
    2    -572.8647793258      3.87e-02  Line search: overstep
    3    -572.8700219381      5.27e-03   Normal BFGS step
    4    -572.8702196344      2.81e-03   Normal BFGS step
    5    -572.8703062402      1.77e-03   Normal BFGS step
    6    -572.8703260661      1.71e-03   Normal BFGS step
    7    -572.8703375978      1.31e-03   Normal BFGS step
    8    -572.8703470990      6.13e-04   Normal BFGS step
    9    -572.8703488169      4.19e-04   Normal BFGS step
   10    -572.8703496249      3.25e-04   Normal BFGS step
   11    -572.8703500572      2.55e-04   Normal BFGS step
   12    -572.8703504652      1.72e-04   Normal BFGS step
   13    -572.8703507017      1.05e-04   Normal BFGS step
   14    -572.8703508202      7.89e-05   Normal BFGS step
   15    -572.8703508681      6.26e-05   Normal BFGS step
   16    -572.8703508900      3.76e-05   Normal BFGS step
   17    -572.8703509004      2.05e-05   Normal BFGS step
   18    -572.8703509038      7.40e-06   Normal BFGS step
   19    -572.8703509044      3.89e-06   Normal BFGS step
   20    -572.8703509046      1.68e-06   Normal BFGS step
   21    -572.8703509046      8.76e-07   Normal BFGS step
   22    -572.8703509046      4.49e-07   Normal BFGS step
   23    -572.8703509045      1.77e-07   Normal BFGS step
   24    -572.8703509046      6.18e-08  Convergence criterion met
 ---------------------------------------
 SCF time:   CPU 4381.27s  wall 557.00s 
<S^2> =          0.787097389
(3)  G-ENP(liq) elect-nuc-pol free energy of system     -572.870350905 a.u.
[...]
 Force Cnst:      0.8960                 0.9434                 1.2579
 Red. Mass:       1.1275                 1.1302                 1.4557
 IR Active:          YES                    YES                    YES
 IR Intens:       28.589                 24.394                 46.769
 Raman Active:       YES                    YES                    YES
               X      Y      Z        X      Y      Z        X      Y      Z
 C         -0.012 -0.007  0.020   -0.027  0.030  0.015    0.014 -0.019 -0.037
 C          0.023 -0.011  0.008    0.001 -0.009 -0.003    0.003 -0.005  0.051
 C          0.009 -0.011  0.031   -0.001 -0.007  0.004    0.015  0.030 -0.010
 C         -0.017 -0.013 -0.027    0.005  0.015 -0.004   -0.040 -0.042 -0.020
 C          0.026  0.028 -0.007   -0.029 -0.012 -0.013    0.002  0.011 -0.007
 C         -0.033  0.032 -0.042    0.043 -0.038  0.016    0.015  0.127 -0.077
 C          0.003 -0.027  0.015   -0.017  0.042  0.020   -0.013 -0.055  0.055
 H          0.029  0.068 -0.156   -0.050  0.146 -0.172   -0.097 -0.290  0.569
 H         -0.265 -0.213  0.133   -0.034 -0.100 -0.022    0.080  0.203  0.098
 H          0.376  0.212  0.522    0.063  0.036  0.094    0.037  0.048  0.026
 H         -0.072  0.292 -0.463    0.003  0.072 -0.098   -0.035 -0.010 -0.093
 H         -0.070 -0.070  0.026   -0.086 -0.182 -0.023   -0.185 -0.318  0.020
 H          0.069 -0.023 -0.039   -0.335 -0.174  0.243   -0.167 -0.228  0.151
 O          0.006  0.004 -0.005   -0.018 -0.019  0.008    0.007 -0.009 -0.004
 H         -0.111 -0.077  0.066    0.380  0.329 -0.296    0.002 -0.005 -0.005
 H         -0.110 -0.028  0.016    0.535  0.118 -0.079    0.159  0.040 -0.040
 O          0.005 -0.010  0.002    0.010 -0.020 -0.008   -0.008  0.038 -0.005
 H         -0.054  0.078  0.017   -0.034  0.063  0.013    0.247 -0.369 -0.085
 O          0.010 -0.008  0.007    0.000  0.003 -0.005    0.002 -0.007  0.005
 O         -0.006  0.006 -0.010   -0.001  0.000  0.001   -0.001  0.001 -0.002
 TransDip  -0.142  0.029  0.091    0.123  0.045 -0.089    0.126 -0.179 -0.007

 Mode:                34                     35                     36
 Frequency:      1222.44                1295.93                1328.39
 Force Cnst:      1.3116                 1.4034                 1.4437
 Red. Mass:       1.4896                 1.4183                 1.3886
 IR Active:          YES                    YES                    YES
 IR Intens:       98.434                  7.531                 14.190
 Raman Active:       YES                    YES                    YES
               X      Y      Z        X      Y      Z        X      Y      Z
 C          0.008 -0.003  0.010    0.012  0.020 -0.029    0.008  0.045 -0.041
 C          0.025  0.013 -0.002   -0.095 -0.037  0.123   -0.011 -0.013  0.010
 C         -0.020 -0.003 -0.041    0.029  0.012  0.007    0.028  0.022  0.028
 C         -0.013 -0.041  0.038   -0.009 -0.001 -0.023    0.013  0.006  0.013
 C          0.036  0.042  0.005   -0.021 -0.008 -0.016   -0.013 -0.064  0.038
 C         -0.015  0.133 -0.085    0.032  0.007  0.027   -0.081 -0.033 -0.087
 C         -0.002 -0.063  0.050   -0.000 -0.004 -0.011   -0.002 -0.003  0.073
 H          0.406 -0.078 -0.279    0.338 -0.135 -0.099    0.326 -0.331  0.280
 H         -0.095 -0.157  0.007    0.597 -0.324 -0.544   -0.046 -0.038  0.025
 H         -0.129 -0.084 -0.207    0.087  0.095  0.156   -0.066 -0.030 -0.090
 H          0.011 -0.190  0.249   -0.034  0.039 -0.057   -0.012  0.181 -0.229
 H         -0.122 -0.226  0.031   -0.064 -0.074 -0.008    0.315  0.503 -0.019
 H         -0.074 -0.183  0.090    0.010  0.026 -0.012    0.193 -0.010 -0.101
 O          0.002 -0.001 -0.006    0.002  0.002  0.002   -0.023 -0.006 -0.017
 H         -0.050 -0.054  0.034   -0.019 -0.049  0.040    0.069  0.195 -0.156
 H          0.072 -0.001 -0.004   -0.049 -0.010  0.009    0.266  0.045 -0.041
 O          0.003 -0.025  0.029    0.000  0.018  0.009    0.002 -0.003  0.015
 H         -0.352  0.498  0.111   -0.007  0.010 -0.002   -0.095  0.130  0.030
 O          0.006 -0.008  0.008   -0.020  0.013 -0.055    0.006 -0.007  0.007
 O         -0.003  0.005 -0.015    0.003  0.002  0.019   -0.002  0.005 -0.011
 TransDip  -0.234  0.143  0.160    0.058 -0.063 -0.018   -0.027  0.046  0.108

 Mode:                37                     38                     39
 Frequency:      1346.40                1367.95                1393.26
 Force Cnst:      1.6706                 1.4434                 1.4719
 Red. Mass:       1.5641                 1.3092                 1.2870
 IR Active:          YES                    YES                    YES
 IR Intens:       13.433                 15.010                158.957
 Raman Active:       YES                    YES                    YES
               X      Y      Z        X      Y      Z        X      Y      Z
 C         -0.021  0.070 -0.061    0.037 -0.027  0.041    0.019 -0.013  0.028
 C         -0.055 -0.145 -0.029   -0.040 -0.045  0.001   -0.020 -0.013  0.003
 C         -0.001  0.031  0.002   -0.015  0.007 -0.034   -0.002  0.011 -0.019
 C         -0.002  0.037 -0.051   -0.008  0.002 -0.010   -0.003 -0.013  0.015
 C         -0.029 -0.033 -0.001    0.038  0.041  0.019    0.028  0.027  0.014
 C          0.046 -0.019  0.048   -0.013  0.003 -0.019   -0.038 -0.002 -0.043
 C          0.012  0.018 -0.035   -0.043 -0.020  0.088   -0.045 -0.098  0.002
 H          0.375 -0.175 -0.063   -0.111  0.191 -0.186    0.010  0.038 -0.054
 H          0.034  0.688  0.308    0.201  0.299 -0.014    0.096  0.113 -0.025
 H          0.184  0.114  0.195    0.109  0.080  0.121    0.017  0.024  0.004
 H          0.032 -0.065  0.073    0.014 -0.107  0.141   -0.005  0.003 -0.006
 H         -0.046 -0.065  0.003   -0.053 -0.152  0.032    0.011 -0.024  0.014
 H         -0.131 -0.046  0.075    0.531  0.237 -0.341    0.034  0.128 -0.018
 O          0.009  0.003  0.009   -0.036 -0.016 -0.035    0.022  0.047  0.034
 H         -0.004 -0.061  0.055   -0.073  0.101 -0.048    0.634  0.263 -0.397
 H         -0.118 -0.026  0.026    0.428  0.069 -0.075   -0.535 -0.062  0.094
 O          0.003 -0.008  0.019   -0.005  0.003 -0.006   -0.001  0.005 -0.003
 H         -0.136  0.191  0.045    0.031 -0.044 -0.011    0.028 -0.040 -0.011
 O          0.022 -0.003  0.032    0.008 -0.004  0.012    0.008 -0.009  0.012
 O         -0.009  0.003 -0.010   -0.002  0.004 -0.012   -0.002  0.006 -0.017
 TransDip  -0.018  0.009 -0.116    0.073  0.016  0.099   -0.300 -0.033  0.268

 Mode:                40                     41                     42
 Frequency:      1405.81                1409.52                1434.33
 Force Cnst:      1.9763                 1.7864                 2.2143
 Red. Mass:       1.6972                 1.5261                 1.8268
 IR Active:          YES                    YES                    YES
 IR Intens:       20.006                 15.408                 36.379
 Raman Active:       YES                    YES                    YES
               X      Y      Z        X      Y      Z        X      Y      Z
 C          0.055 -0.069  0.128   -0.141 -0.020  0.087    0.049 -0.009 -0.018
 C         -0.064 -0.046 -0.030    0.051  0.053 -0.031    0.030  0.043  0.051
 C          0.016  0.038 -0.000   -0.040 -0.038 -0.036   -0.082 -0.097 -0.068
 C          0.004 -0.014  0.020    0.015  0.030  0.000    0.030  0.135 -0.087
 C          0.017 -0.030  0.036    0.014  0.010  0.012    0.009 -0.064  0.071
 C         -0.098  0.037 -0.100   -0.006 -0.038 -0.005   -0.064  0.002 -0.068
 C          0.057  0.029 -0.014   -0.008  0.012  0.002    0.025  0.007  0.004
 H         -0.009  0.264 -0.391    0.628 -0.322 -0.233   -0.190  0.015  0.213
 H          0.265  0.307 -0.112   -0.109 -0.049  0.036    0.060 -0.111 -0.036
 H         -0.023  0.007 -0.074    0.053  0.019  0.087    0.280  0.159  0.472
 H         -0.014  0.094 -0.123    0.040 -0.085  0.164    0.108 -0.295  0.534
 H          0.173  0.301  0.022   -0.023 -0.040  0.028    0.136  0.164  0.063
 H         -0.370 -0.262  0.276    0.031  0.039 -0.026   -0.141 -0.129  0.110
 O          0.010 -0.009  0.004   -0.000 -0.004 -0.002    0.004  0.002  0.004
 H         -0.204 -0.058  0.074   -0.005  0.029 -0.017    0.006  0.033 -0.032
 H          0.015  0.004 -0.008    0.040  0.017 -0.017   -0.035 -0.007  0.009
 O         -0.005  0.023 -0.013    0.020  0.057 -0.011   -0.007 -0.011  0.002
 H          0.130 -0.187 -0.047    0.326 -0.458 -0.119   -0.071  0.095  0.025
 O          0.005 -0.001  0.008    0.001 -0.005  0.001   -0.006 -0.001 -0.008
 O          0.002 -0.001 -0.004    0.004 -0.001 -0.004    0.000  0.002  0.002
 TransDip   0.125  0.057 -0.040   -0.046 -0.051  0.105    0.078 -0.037  0.173

 Mode:                43                     44                     45
 Frequency:      1477.14                1537.24                1650.36
 Force Cnst:      1.3959                 7.1623                 8.4491
 Red. Mass:       1.0859                 5.1442                 5.2650
 IR Active:          YES                    YES                    YES
 IR Intens:       17.436                243.017                 26.747
 Raman Active:       YES                    YES                    YES
               X      Y      Z        X      Y      Z        X      Y      Z
 C         -0.001  0.008 -0.010   -0.056 -0.062  0.064    0.019  0.018  0.019
 C          0.001  0.000  0.004    0.014 -0.007 -0.056   -0.038  0.003 -0.050
 C         -0.002  0.000 -0.006    0.065 -0.015  0.182    0.165  0.013  0.353
 C         -0.000 -0.004  0.005   -0.024  0.100 -0.185   -0.138  0.051 -0.348
 C          0.006  0.011 -0.002   -0.181 -0.269 -0.007    0.142  0.138  0.082
 C         -0.001 -0.011  0.006    0.245  0.297 -0.022   -0.138 -0.134 -0.054
 C          0.047 -0.064  0.006   -0.057 -0.120  0.055    0.019  0.030 -0.004
 H          0.006 -0.023  0.034   -0.067  0.199 -0.389    0.096 -0.041  0.030
 H         -0.003 -0.004  0.005   -0.162 -0.081  0.038   -0.105 -0.147 -0.077
 H          0.003  0.005  0.002   -0.089 -0.147 -0.052   -0.228 -0.289 -0.176
 H         -0.002  0.001 -0.001    0.012 -0.097  0.066   -0.103 -0.386  0.217
 H         -0.021 -0.035  0.006    0.140  0.398 -0.055   -0.135 -0.369  0.150
 H         -0.177  0.589  0.341    0.219  0.261 -0.077   -0.065 -0.066  0.039
 O          0.008 -0.004 -0.002   -0.001  0.008 -0.000    0.002  0.000 -0.001
 H         -0.527  0.262 -0.385    0.066  0.052 -0.139   -0.000  0.044 -0.026
 H         -0.003 -0.009 -0.000   -0.057 -0.010  0.010    0.004  0.000  0.000
 O          0.000 -0.002  0.001    0.004  0.011 -0.006    0.001 -0.001 -0.001
 H         -0.014  0.019  0.004    0.070 -0.100 -0.030    0.001 -0.004 -0.003
 O          0.001 -0.002  0.002   -0.015  0.025 -0.023    0.007 -0.011  0.004
 O         -0.001  0.001 -0.003   -0.000 -0.018  0.046    0.001  0.002 -0.012
 TransDip  -0.084  0.092  0.049    0.235 -0.191 -0.397   -0.049 -0.109  0.115

 Mode:                46                     47                     48
 Frequency:      3072.80                3083.02                3130.57
 Force Cnst:      5.9003                 6.0790                 6.3847
 Red. Mass:       1.0606                 1.0855                 1.1057
 IR Active:          YES                    YES                    YES
 IR Intens:       45.394                 33.544                 17.217
 Raman Active:       YES                    YES                    YES
               X      Y      Z        X      Y      Z        X      Y      Z
 C         -0.001 -0.002 -0.001   -0.042 -0.064 -0.036   -0.000 -0.001 -0.000
 C         -0.000 -0.000 -0.000    0.003 -0.002  0.002    0.001 -0.001  0.002
 C         -0.000 -0.000 -0.000    0.001  0.000  0.000    0.000  0.000  0.000
 C          0.000  0.000  0.000   -0.000 -0.000 -0.000   -0.000  0.000 -0.000
 C          0.000  0.000  0.000    0.000 -0.000 -0.000    0.000 -0.000  0.000
 C         -0.001 -0.001 -0.000    0.000 -0.001  0.001   -0.001 -0.001 -0.001
 C         -0.045  0.046 -0.027    0.001 -0.000  0.002   -0.025 -0.047 -0.078
 H          0.010  0.018  0.010    0.469  0.764  0.431    0.006  0.008  0.006
 H          0.001 -0.001  0.002   -0.032  0.020 -0.039   -0.013  0.008 -0.017
 H          0.000  0.000 -0.000    0.000  0.002 -0.002   -0.000 -0.002  0.001
 H         -0.000 -0.000 -0.001    0.002  0.002  0.001    0.001  0.001  0.001
 H          0.000  0.002 -0.002    0.002 -0.001  0.003   -0.002  0.002 -0.004
 H          0.547 -0.145  0.640   -0.017  0.006 -0.020    0.321 -0.096  0.374
 O         -0.001 -0.000  0.000    0.000 -0.000  0.000    0.000  0.001  0.001
 H          0.009 -0.385 -0.341    0.000  0.002 -0.000   -0.024  0.655  0.555
 H          0.001  0.003  0.006    0.000 -0.000  0.000   -0.006 -0.012 -0.008
 O         -0.000  0.000 -0.000    0.001 -0.000 -0.000    0.000  0.000 -0.000
 H          0.001 -0.001  0.000    0.005 -0.002  0.000   -0.000 -0.000  0.000
 O         -0.000  0.000 -0.000    0.000  0.000  0.000    0.000 -0.000  0.000
 O         -0.000 -0.000  0.000   -0.000  0.000 -0.000    0.000  0.000 -0.000
 TransDip  -0.142  0.120 -0.110   -0.066 -0.162 -0.062   -0.068 -0.043 -0.106

 Mode:                49                     50                     51
 Frequency:      3139.21                3194.56                3204.22
 Force Cnst:      6.3137                 6.5463                 6.5906
 Red. Mass:       1.0874                 1.0887                 1.0895
 IR Active:          YES                    YES                    YES
 IR Intens:       14.869                  9.580                 13.517
 Raman Active:       YES                    YES                    YES
               X      Y      Z        X      Y      Z        X      Y      Z
 C         -0.003 -0.004 -0.001    0.001  0.000  0.000   -0.000  0.000 -0.000
 C         -0.047  0.030 -0.064    0.001 -0.001  0.001    0.002 -0.000  0.002
 C         -0.000 -0.004  0.004   -0.005 -0.014  0.008   -0.012 -0.040  0.026
 C          0.000  0.000  0.000    0.026  0.028  0.020    0.032  0.038  0.020
 C         -0.000  0.000 -0.001   -0.038  0.014 -0.060    0.023 -0.010  0.038
 C         -0.000 -0.000  0.001    0.002  0.002  0.000   -0.001 -0.002 -0.000
 C         -0.000 -0.001 -0.002   -0.000 -0.000 -0.000    0.000  0.000  0.000
 H          0.027  0.041  0.021   -0.001 -0.002 -0.001    0.000  0.000  0.001
 H          0.562 -0.358  0.736   -0.013  0.007 -0.016   -0.020  0.011 -0.026
 H          0.015  0.050 -0.038    0.049  0.166 -0.113    0.140  0.470 -0.321
 H         -0.002 -0.001 -0.001   -0.303 -0.343 -0.209   -0.372 -0.424 -0.251
 H          0.005 -0.002  0.008    0.434 -0.174  0.691   -0.268  0.110 -0.428
 H          0.005 -0.001  0.006    0.002 -0.003  0.004   -0.001  0.002 -0.002
 O          0.000  0.000  0.000   -0.000  0.000  0.000    0.000  0.000 -0.000
 H         -0.000  0.016  0.013    0.001  0.002  0.003   -0.000  0.000 -0.001
 H         -0.000 -0.000 -0.000   -0.000  0.000  0.000    0.000 -0.000 -0.000
 O          0.000 -0.000 -0.000   -0.000  0.000  0.000    0.000 -0.000  0.000
 H          0.002 -0.001 -0.000   -0.000 -0.000  0.000   -0.000  0.000 -0.000
 O         -0.001  0.001 -0.000   -0.000  0.000 -0.000    0.000 -0.000  0.000
 O          0.001 -0.001  0.001   -0.000  0.000  0.000   -0.000  0.000 -0.000
 TransDip  -0.070  0.032 -0.097    0.027  0.065 -0.070    0.019  0.007  0.116

 Mode:                52                     53                     54
 Frequency:      3219.54                3815.30                3818.93
 Force Cnst:      6.7105                 9.1481                 9.1651
 Red. Mass:       1.0988                 1.0666                 1.0666
 IR Active:          YES                    YES                    YES
 IR Intens:       12.121                231.612                 81.584
 Raman Active:       YES                    YES                    YES
               X      Y      Z        X      Y      Z        X      Y      Z
 C          0.001  0.001  0.000    0.000  0.001 -0.001   -0.000 -0.000  0.000
 C          0.003 -0.000  0.004   -0.000 -0.000  0.000    0.000  0.000 -0.000
 C         -0.014 -0.055  0.042    0.000  0.000  0.000    0.000 -0.000  0.000
 C         -0.033 -0.036 -0.026   -0.000  0.000 -0.000    0.000  0.000 -0.000
 C         -0.007  0.005 -0.013   -0.000 -0.000 -0.000   -0.000 -0.000 -0.000
 C          0.000  0.000 -0.000   -0.000  0.000  0.000   -0.000  0.000  0.000
 C         -0.000 -0.000 -0.000   -0.000 -0.001 -0.000   -0.001 -0.001 -0.001
 H         -0.003 -0.005 -0.002   -0.002  0.002  0.001    0.001 -0.001 -0.000
 H         -0.029  0.015 -0.038    0.000 -0.000  0.001    0.000 -0.000 -0.000
 H          0.185  0.622 -0.429   -0.000 -0.000 -0.000   -0.000  0.000  0.000
 H          0.361  0.407  0.247   -0.000 -0.000 -0.000   -0.000 -0.000  0.000
 H          0.085 -0.038  0.139   -0.000 -0.000 -0.001   -0.000  0.000 -0.000
 H          0.000 -0.001  0.001   -0.001  0.000  0.001   -0.002 -0.000  0.003
 O         -0.000 -0.000  0.000    0.002 -0.014 -0.016    0.004 -0.039 -0.044
 H         -0.000 -0.000  0.000   -0.000  0.003  0.003   -0.001  0.009  0.009
 H         -0.000  0.000  0.000   -0.017  0.225  0.247   -0.047  0.628  0.698
 O         -0.000  0.000  0.000    0.033  0.028 -0.040   -0.012 -0.010  0.014
 H         -0.000 -0.000  0.000   -0.524 -0.452  0.636    0.185  0.162 -0.227
 O         -0.000  0.000 -0.000   -0.000 -0.000  0.000    0.000 -0.000  0.000
 O         -0.000 -0.000  0.000   -0.000  0.000 -0.000    0.000  0.000 -0.000
 TransDip  -0.037 -0.103 -0.023   -0.303 -0.071  0.375   -0.014  0.219  0.189

 STANDARD THERMODYNAMIC QUANTITIES AT   298.15 K  AND     1.00 ATM

   This Molecule has  1 Imaginary Frequencies
   Zero point vibrational energy:       97.643 kcal/mol

   Atom    1 Element C  Has Mass   12.00000
   Atom    2 Element C  Has Mass   12.00000
   Atom    3 Element C  Has Mass   12.00000
   Atom    4 Element C  Has Mass   12.00000
   Atom    5 Element C  Has Mass   12.00000
   Atom    6 Element C  Has Mass   12.00000
   Atom    7 Element C  Has Mass   12.00000
   Atom    8 Element H  Has Mass    1.00783
   Atom    9 Element H  Has Mass    1.00783
   Atom   10 Element H  Has Mass    1.00783
   Atom   11 Element H  Has Mass    1.00783
   Atom   12 Element H  Has Mass    1.00783
   Atom   13 Element H  Has Mass    1.00783
   Atom   14 Element O  Has Mass   15.99491
   Atom   15 Element H  Has Mass    1.00783
   Atom   16 Element H  Has Mass    1.00783
   Atom   17 Element O  Has Mass   15.99491
   Atom   18 Element H  Has Mass    1.00783
   Atom   19 Element O  Has Mass   15.99491
   Atom   20 Element O  Has Mass   15.99491
   Molecular Mass:   157.050110 amu
   Principal axes and moments of inertia in amu*Bohr^2:
                             1           2           3
    Eigenvalues --     1063.04853  1810.69517  1907.95114
          X              -0.49388    -0.59272     0.63622
          Y              -0.54910     0.77992     0.30034
          Z               0.67422     0.20101     0.71065
   Rotational Symmetry Number is   1
   The Molecule is an Asymmetric Top
   Translational Enthalpy:        0.889 kcal/mol
   Rotational Enthalpy:           0.889 kcal/mol
   Vibrational Enthalpy:        102.075 kcal/mol
   gas constant (RT):             0.592 kcal/mol
   Translational Entropy:        41.063  cal/mol.K
   Rotational Entropy:           29.686  cal/mol.K
   Vibrational Entropy:          25.393  cal/mol.K

   Total Enthalpy:              104.445 kcal/mol
   Total Entropy:                96.143  cal/mol.K
 Total job time:  74203.36s(wall), 575816.66s(cpu) 
 Fri Feb 24 13:47:03 2023

        *************************************************************
        *                                                           *
        *  Thank you very much for using Q-Chem.  Have a nice day.  *
        *                                                           *
        *************************************************************


