
Running Job 1 of 2 Q_in.in
qchem Q_in.in_113418.0 /scratch/ari.fischer/qChem1470881.hpc-mn1/qchem113418/ 0
/usr/local/qchem-5.4.1/exe/qcprog.exe_s Q_in.in_113418.0 /scratch/ari.fischer/qChem1470881.hpc-mn1/qchem113418/
                  Welcome to Q-Chem
     A Quantum Leap Into The Future Of Chemistry


 Q-Chem 5.4, Q-Chem, Inc., Pleasanton, CA (2021)

 License issued to: Nanyang Technological University (site)

 E. Epifanovsky,  A. T. B. Gilbert,  Xintian Feng,  Joonho Lee,  Yuezhi Mao,  
 N. Mardirossian,  P. Pokhilko,  A. White,  M. Wormit,  M. P. Coons,  
 A. L. Dempwolff,  Zhengting Gan,  D. Hait,  P. R. Horn,  L. D. Jacobson,  
 I. Kaliman,  J. Kussmann,  A. W. Lange,  Ka Un Lao,  D. S. Levine,  Jie Liu,  
 S. C. McKenzie,  A. F. Morrison,  K. Nanda,  F. Plasser,  D. R. Rehn,  
 M. L. Vidal,  Zhi-Qiang You,  Ying Zhu,  B. Alam,  B. Albrecht,  
 A. Aldossary,  E. Alguire,  J. H. Andersen,  D. Barton,  K. Begam,  A. Behn,  
 Y. A. Bernard,  E. J. Berquist,  H. Burton,  A. Carreras,  K. Carter-Fenk,  
 R. Chakraborty,  A. D. Chien,  K. D. Closser,  V. Cofer-Shabica,  
 S. Dasgupta,  Jia Deng,  M. de Wergifosse,  M. Diedenhofen,  Hainam Do,  
 S. Ehlert,  Po-Tung Fang,  S. Fatehi,  Qingguo Feng,  T. Friedhoff,  
 J. Gayvert,  Qinghui Ge,  G. Gidofalvi,  M. Goldey,  J. Gomes,  
 C. Gonzalez-Espinoza,  S. Gulania,  A. Gunina,  M. W. D. Hanson-Heine,  
 P. H. P. Harbach,  A. W. Hauser,  M. F. Herbst,  M. Hernandez Vera,  
 M. Hodecker,  Z. C. Holden,  S. Houck,  Xunkun Huang,  Kerwin Hui,  
 B. C. Huynh,  M. Ivanov,  Hyunjun Ji,  Hanjie Jiang,  B. Kaduk,  S. Kaehler,  
 K. Khistyaev,  Jaehoon Kim,  P. Klunzinger,  Z. Koczor-Benda,  
 Joong Hoon Koh,  D. Kosenkov,  L. Koulias,  T. Kowalczyk,  C. M. Krauter,  
 K. Kue,  A. Kunitsa,  T. Kus,  A. Landau,  K. V. Lawler,  D. Lefrancois,  
 S. Lehtola,  Rain Li,  Yi-Pei Li,  Jiashu Liang,  M. Liebenthal,  
 Hung-Hsuan Lin,  You-Sheng Lin,  Fenglai Liu,  Kuan-Yu Liu,  
 M. Loipersberger,  A. Luenser,  A. Manjanath,  P. Manohar,  E. Mansoor,  
 S. F. Manzer,  Shan-Ping Mao,  A. V. Marenich,  T. Markovich,  S. Mason,  
 S. A. Maurer,  P. F. McLaughlin,  M. F. S. J. Menger,  J.-M. Mewes,  
 S. A. Mewes,  P. Morgante,  J. W. Mullinax,  K. J. Oosterbaan,  G. Paran,  
 Alexander C. Paul,  Suranjan K. Paul,  F. Pavosevic,  Zheng Pei,  S. Prager,  
 E. I. Proynov,  E. Ramos,  B. Rana,  A. E. Rask,  A. Rettig,  R. M. Richard,  
 F. Rob,  E. Rossomme,  T. Scheele,  M. Scheurer,  M. Schneider,  
 N. Sergueev,  S. M. Sharada,  W. Skomorowski,  D. W. Small,  C. J. Stein,  
 Yu-Chuan Su,  E. J. Sundstrom,  Zhen Tao,  J. Thirman,  T. Tsuchimochi,  
 N. M. Tubman,  S. P. Veccham,  O. Vydrov,  J. Wenzel,  J. Witte,  A. Yamada,  
 Kun Yao,  S. Yeganeh,  S. R. Yost,  A. Zech,  Igor Ying Zhang,  Xing Zhang,  
 Yu Zhang,  D. Zuev,  A. Aspuru-Guzik,  A. T. Bell,  N. A. Besley,  
 K. B. Bravaya,  B. R. Brooks,  D. Casanova,  Jeng-Da Chai,  S. Coriani,  
 C. J. Cramer,  A. E. DePrince, III,  R. A. DiStasio Jr.,  A. Dreuw,  
 B. D. Dunietz,  T. R. Furlani,  W. A. Goddard III,  S. Grimme,  
 S. Hammes-Schiffer,  T. Head-Gordon,  W. J. Hehre,  Chao-Ping Hsu,  
 T.-C. Jagau,  Yousung Jung,  A. Klamt,  Jing Kong,  D. S. Lambrecht,  
 WanZhen Liang,  N. J. Mayhall,  C. W. McCurdy,  J. B. Neaton,  
 C. Ochsenfeld,  J. A. Parkhill,  R. Peverati,  V. A. Rassolov,  Yihan Shao,  
 L. V. Slipchenko,  T. Stauch,  R. P. Steele,  J. E. Subotnik,  
 A. J. W. Thom,  A. Tkatchenko,  D. G. Truhlar,  T. Van Voorhis,  
 T. A. Wesolowski,  K. B. Whaley,  H. L. Woodcock III,  P. M. Zimmerman,  
 S. Faraji,  P. M. W. Gill,  M. Head-Gordon,  J. M. Herbert,  A. I. Krylov

 Additional authors for Version 5.4.1: 
 S. Kotaru,  Shaozhi Li,  Xiangyuan Li,  F. Matz,  A. Molle,  Haisheng Ren,  
 Yingli Su,  Hung-Yi Tsai,  C. Utku,  Fang Wang

 Contributors to earlier versions of Q-Chem not listed above: 
 R. D. Adamson,  B. Austin,  R. Baer,  J. Baker,  G. J. O. Beran,  
 K. Brandhorst,  S. T. Brown,  E. F. C. Byrd,  A. K. Chakraborty,  
 G. K. L. Chan,  Chun-Min Chang,  Yunqing Chen,  C.-L. Cheng,  
 Siu Hung Chien,  D. M. Chipman,  D. L. Crittenden,  H. Dachsel,  
 R. J. Doerksen,  A. D. Dutoi,  R. G. Edgar,  J. Fosso-Tande,  
 L. Fusti-Molnar,  D. Ghosh,  A. Ghysels,  A. Golubeva-Zadorozhnaya,  
 J. Gonthier,  M. S. Gordon,  S. R. Gwaltney,  G. Hawkins,  J. E. Herr,  
 A. Heyden,  S. Hirata,  E. G. Hohenstein,  G. Kedziora,  F. J. Keil,  
 C. Kelley,  Jihan Kim,  R. A. King,  R. Z. Khaliullin,  P. P. Korambath,  
 W. Kurlancheek,  A. Laurent,  A. M. Lee,  M. S. Lee,  S. V. Levchenko,  
 Ching Yeh Lin,  D. Liotard,  E. Livshits,  R. C. Lochan,  I. Lotan,  
 L. A. Martinez-Martinez,  P. E. Maslen,  N. Nair,  D. P. O'Neill,  
 D. Neuhauser,  E. Neuscamman,  C. M. Oana,  R. Olivares-Amaya,  R. Olson,  
 T. M. Perrine,  B. Peters,  P. A. Pieniazek,  A. Prociuk,  Y. M. Rhee,  
 J. Ritchie,  M. A. Rohrdanz,  E. Rosta,  N. J. Russ,  H. F. Schaefer III,  
 M. W. Schmidt,  N. E. Schultz,  S. Sharma,  N. Shenvi,  C. D. Sherrill,  
 A. C. Simmonett,  A. Sodt,  T. Stein,  D. Stuck,  K. S. Thanthiriwatte,  
 V. Vanovschi,  L. Vogt,  Tao Wang,  A. Warshel,  M. A. Watson,  
 C. F. Williams,  Q. Wu,  X. Xu,  Jun Yang,  W. Zhang,  Yan Zhao

 Please cite Q-Chem as follows:
 Y. Shao et al., Mol. Phys. 113, 184-215 (2015)
 DOI: 10.1080/00268976.2014.952696

 Q-Chem 5.4.1 for Intel X86 EM64T Linux

 Parts of Q-Chem use Armadillo 9.800.1 (Horizon Scraper).
 http://arma.sourceforge.net/

 Q-Chem begins on Tue Feb 14 22:11:26 2023  

 Host: 
0

     Scratch files written to /scratch/ari.fischer/qChem1470881.hpc-mn1/qchem113418//
 Aug1521 |scratch|qcdevops|jenkins|workspace|build_RNUM 8249   
 Processing $rem in /usr/local/qchem-5.4.1/config/preferences:
 Processing $rem in /home/ari.fischer/.qchemrc:
 Now reading second FSM geometry
 Symmetry turned off for PCM/SM12/SMD calculation

 Checking the input file for inconsistencies... 	...done.

--------------------------------------------------------------
User input:
--------------------------------------------------------------
$molecule
0 2
C        -0.2253534428   -0.1397844562    0.6729784886
C        -0.8962185549   -1.1056838838    1.6481956904
C        -1.9111381252   -2.0273790149    1.0609817773
C        -2.4186674228   -1.8017075940   -0.1485992126
C        -2.0172186874   -0.6438624830   -0.9492583522
C        -1.0222774662    0.1571977686   -0.5706338622
C        -0.6030504200    1.3613803407   -1.3549606604
H        -0.0375569227    0.7947365936    1.2107018004
H        -0.1138878584   -1.6575745243    2.1662229861
H        -2.2186896339   -2.8742727498    1.6588159940
H        -3.1557219310   -2.4767189707   -0.5626930686
H        -2.5567947821   -0.4429850858   -1.8664805983
H        -1.2317475232    1.4810840489   -2.2375104374
O         0.7833353835    1.2935123556   -1.7280546825
H        -0.6944428048    2.2569694126   -0.7398515534
H         0.8689011078    0.6271613359   -2.4195808729
O         1.0263646134   -0.7451276272    0.3216924494
H         1.4125072101   -0.1873596416   -0.3684671293
O        -1.5016542552   -0.3419563325    2.7540906430
O        -2.5056968840    0.3847931077    2.3523852005
****
C        -0.0600066222   -0.3135205577    0.7955608055
C        -0.9784822494   -1.0537090034    1.7582108051
C        -1.7173499139   -2.1575665840    1.0712008585
C        -2.1565599186   -1.9374071279   -0.2206154243
C        -1.8926611525   -0.7332631784   -0.8448707863
C        -1.1583472874    0.3191545082   -0.0691578154
C        -0.6574678257    1.4818044130   -0.9091164815
H         0.4781628576    0.4745166757    1.3260267429
H        -0.4970126816   -1.3571814269    2.6836387448
H        -1.9169013808   -3.0795800365    1.5959972619
H        -2.7100131592   -2.7068360177   -0.7429988464
H        -2.2294102727   -0.5183762414   -1.8501743493
H        -1.4745251722    1.9310078550   -1.4750878685
O         0.3793760951    1.0326470500   -1.7780388714
H        -0.2230516320    2.2335649805   -0.2537698973
H        -0.0204667307    0.5583792750   -2.5157755311
O         0.8221532288   -1.1724563506    0.1134175498
H         1.1670151671   -0.6721216768   -0.6388700494
O        -1.8866771859    0.0079235374    2.1290650003
O        -2.0280605637    0.8637318063    0.9469641518
$end

$rem
BASIS = 6-311++G(2df,2p)
GUI = 2
JOB_TYPE = FSM
FSM_MODE = 2
METHOD = wB97M-v
MAX_SCF_CYCLES = 120
FSM_NGRAD = 6
FSM_NNODE = 20
SCF_CONVERGENCE = 7
THRESH = 12
SCF_ALGORITHM = DIIS_GDM
solvent_method = SMD
$end

--------------------------------------------------------------
 ----------------------------------------------------------------
             Standard Nuclear Orientation (Angstroms)
    I     Atom           X                Y                Z
 ----------------------------------------------------------------
    1      C      -0.2253534428    -0.1397844562     0.6729784886
    2      C      -0.8962185549    -1.1056838838     1.6481956904
    3      C      -1.9111381252    -2.0273790149     1.0609817773
    4      C      -2.4186674228    -1.8017075940    -0.1485992126
    5      C      -2.0172186874    -0.6438624830    -0.9492583522
    6      C      -1.0222774662     0.1571977686    -0.5706338622
    7      C      -0.6030504200     1.3613803407    -1.3549606604
    8      H      -0.0375569227     0.7947365936     1.2107018004
    9      H      -0.1138878584    -1.6575745243     2.1662229861
   10      H      -2.2186896339    -2.8742727498     1.6588159940
   11      H      -3.1557219310    -2.4767189707    -0.5626930686
   12      H      -2.5567947821    -0.4429850858    -1.8664805983
   13      H      -1.2317475232     1.4810840489    -2.2375104374
   14      O       0.7833353835     1.2935123556    -1.7280546825
   15      H      -0.6944428048     2.2569694126    -0.7398515534
   16      H       0.8689011078     0.6271613359    -2.4195808729
   17      O       1.0263646134    -0.7451276272     0.3216924494
   18      H       1.4125072101    -0.1873596416    -0.3684671293
   19      O      -1.5016542552    -0.3419563325     2.7540906430
   20      O      -2.5056968840     0.3847931077     2.3523852005
 ----------------------------------------------------------------
 Nuclear Repulsion Energy =         642.44399352 hartrees
 There are       42 alpha and       41 beta electrons
 Requested basis set is 6-311++G(2df,2p)
 There are 142 shells and 464 basis functions

 Total QAlloc Memory Limit 288000 MB
 Mega-Array Size       188 MB
 MEM_STATIC part       192 MB
 beginning FSman 

*******************************************
*******************************************
******** Starting FSM Calculation *********
*******************************************
*******************************************
-FSM parameters:
 Maximum displacement of each coordinate during optimization (Angstrom)      0.05
 Maximum optimization steps for each new node                                6
 The scaling factor for optimization (hartrees/Angstrom^2)                   1.75
 The number of LST interpolations used for reparameterization                100
-Aligning product structure to maximum coincidence with the reactant structure
 Total R --> P Distance 2.867781
 New node interpolation distace (Angstroms): 0.14
-Performing force calculation on reactant structure in state:0
 ----------------------------------------------------------------
             Standard Nuclear Orientation (Angstroms)
    I     Atom           X                Y                Z
 ----------------------------------------------------------------
    1      C      -0.2253534428    -0.1397844562     0.6729784886
    2      C      -0.8962185549    -1.1056838838     1.6481956904
    3      C      -1.9111381252    -2.0273790149     1.0609817773
    4      C      -2.4186674228    -1.8017075940    -0.1485992126
    5      C      -2.0172186874    -0.6438624830    -0.9492583522
    6      C      -1.0222774662     0.1571977686    -0.5706338622
    7      C      -0.6030504200     1.3613803407    -1.3549606604
    8      H      -0.0375569227     0.7947365936     1.2107018004
    9      H      -0.1138878584    -1.6575745243     2.1662229861
   10      H      -2.2186896339    -2.8742727498     1.6588159940
   11      H      -3.1557219310    -2.4767189707    -0.5626930686
   12      H      -2.5567947821    -0.4429850858    -1.8664805983
   13      H      -1.2317475232     1.4810840489    -2.2375104374
   14      O       0.7833353835     1.2935123556    -1.7280546825
   15      H      -0.6944428048     2.2569694126    -0.7398515534
   16      H       0.8689011078     0.6271613359    -2.4195808729
   17      O       1.0263646134    -0.7451276272     0.3216924494
   18      H       1.4125072101    -0.1873596416    -0.3684671293
   19      O      -1.5016542552    -0.3419563325     2.7540906430
   20      O      -2.5056968840     0.3847931077     2.3523852005
 ----------------------------------------------------------------
 Nuclear Repulsion Energy =         642.44399352 hartrees
 There are       42 alpha and       41 beta electrons
 
 Citation of the SMD model:
 Marenich, A.V.; Cramer, C.J.; Truhlar, D.G.
 J. Phys. Chem. B 2009, 113, 6378-6396.
 iSolventCode=           1
 Solvent: water                                                           
 
 vradii
            1           2           3           4           5           6
    1   1.8500000   1.8500000   1.8500000   1.8500000   1.8500000   1.8500000
            7           8           9          10          11          12
    1   1.8500000   1.2000000   1.2000000   1.2000000   1.2000000   1.2000000
           13          14          15          16          17          18
    1   1.2000000   1.5200000   1.2000000   1.2000000   1.5200000   1.2000000
           19          20
    1   1.5200000   1.5200000
 Changing PCM_VDW_RADII to SMD_RADIUS
 Discretize the solute cavity surface with Lebedev spheres
	Using 110 Lebedev grid points for each H atom
	Using 194 Lebedev grid points for other atoms
	Atomic van der Waals radii will be scaled by 1.20
 Remove points where switching function is < 1.0e-08
 Keep 1495 surface tesserae and discard 1629 interior tesserae
 Molecular Surface Area = 170.883 Angst**2
 Requested basis set is 6-311++G(2df,2p)
 There are 142 shells and 464 basis functions
 A cutoff of  1.0D-12 yielded   9019 shell pairs
 There are     96962 function pairs (    121050 Cartesian)
 Smallest overlap matrix eigenvalue = 1.47E-06

 Scale SEOQF with 1.000000e-01/1.000000e-01/1.000000e-01

 Standard Electronic Orientation quadrupole field applied
 Nucleus-field energy     =    -0.0000000061 hartrees
 Guess from superposition of atomic densities
 Warning:  Energy on first SCF cycle will be non-variational
 SAD guess density has 83.000000 electrons

 -----------------------------------------------------------------------
  General SCF calculation program by
  Eric Jon Sundstrom, Paul Horn, Yuezhi Mao, Dmitri Zuev, Alec White,
  David Stuck, Shaama M.S., Shane Yost, Joonho Lee, David Small,
  Daniel Levine, Susi Lehtola, Hugh Burton, Evgeny Epifanovsky,
  Bang C. Huynh
 -----------------------------------------------------------------------
 Exchange:     0.1500 Hartree-Fock + 1.0000 wB97M-V + LR-HF
 Correlation:  1.0000 wB97M-V
 Using SG-2 standard quadrature grid
 Nonlocal Correlation:  VV10 with C = 0.0100 and b = 6.00 and scale = 1.00000
 Grid used for NLC:  SG-1 standard quadrature
 
 Citation of the SMD model:
 Marenich, A.V.; Cramer, C.J.; Truhlar, D.G.
 J. Phys. Chem. B 2009, 113, 6378-6396.
 iSolventCode=           1
 Solvent: water                                                           
 
 vradii
            1           2           3           4           5           6
    1   1.8500000   1.8500000   1.8500000   1.8500000   1.8500000   1.8500000
            7           8           9          10          11          12
    1   1.8500000   1.2000000   1.2000000   1.2000000   1.2000000   1.2000000
           13          14          15          16          17          18
    1   1.2000000   1.5200000   1.2000000   1.2000000   1.5200000   1.2000000
           19          20
    1   1.5200000   1.5200000
 using 8 threads for integral computing
 -------------------------------------------------------
 OpenMP Integral computing Module                
 Release: version 1.0, May 2013, Q-Chem Inc. Pittsburgh 
 -------------------------------------------------------
 -------------------------------------------------------
 OpenMP BLAS3 based DFT computing Module                
 Release: version 1.0, May 2013, Q-Chem Inc. Pittsburgh 
 -------------------------------------------------------
 A unrestricted SCF calculation will be
 performed using DIIS, GDM
 SCF converges when RMS gradient is below 1.0e-07
 ---------------------------------------
  Cycle       Energy         DIIS error
 ---------------------------------------
    1    -575.7542195279      1.17e-02  
    2    -572.7582454000      1.23e-03  Done DIIS. Switching to GDM
 ---------------------------------------
  Cycle       Energy        RMS Gradient
 ---------------------------------------
    1    -572.7582454000      8.89e-02   Descent step
    2    -572.8771072744      2.15e-02   Normal BFGS step
    3    -572.8941822990      2.47e-02   Normal BFGS step
    4    -572.8977250192      5.15e-03   Normal BFGS step
    5    -572.8987530565      3.72e-03   Normal BFGS step
    6    -572.8989591236      3.02e-03   Normal BFGS step
    7    -572.8990247283      1.69e-03   Normal BFGS step
    8    -572.8990465245      9.31e-04   Normal BFGS step
    9    -572.8990499088      7.22e-04   Normal BFGS step
   10    -572.8990513505      4.65e-04   Normal BFGS step
   11    -572.8990521458      3.25e-04   Normal BFGS step
   12    -572.8990529901      2.31e-04   Normal BFGS step
   13    -572.8990534186      1.66e-04   Normal BFGS step
   14    -572.8990535391      7.94e-05   Normal BFGS step
   15    -572.8990535623      2.25e-05   Normal BFGS step
   16    -572.8990535678      1.03e-05   Normal BFGS step
   17    -572.8990535688      7.82e-06   Normal BFGS step
   18    -572.8990535692      4.66e-06   Normal BFGS step
   19    -572.8990535694      3.32e-06   Normal BFGS step
   20    -572.8990535695      1.61e-06   Normal BFGS step
   21    -572.8990535695      4.57e-07   Normal BFGS step
   22    -572.8990535695      1.43e-07   Normal BFGS step
   23    -572.8990535695      1.10e-07   Normal BFGS step
   24    -572.8990535694      5.79e-08  Convergence criterion met
 ---------------------------------------
 SCF time:   CPU 3848.24s  wall 492.00s 
<S^2> =          0.754138697
(3)  G-ENP(liq) elect-nuc-pol free energy of system     -572.899053569 a.u.
(4)  G-CDS(liq) cavity-dispersion-solvent structure 
     free energy                                                2.9924 kcal/mol
(6)  G-S(liq) free energy of system                     -572.894284824 a.u.
 SCF   energy in the final basis set =     -572.8942848243
 Total energy in the final basis set =     -572.8942848243
 
 --------------------------------------------------------------
 
                    Orbital Energies (a.u.)
 --------------------------------------------------------------
 
 Alpha MOs
 -- Occupied --
-19.4634 -19.4164 -19.3434 -19.3408 -10.4127 -10.4070 -10.3892 -10.3542
-10.3537 -10.3497 -10.3495  -1.3432  -1.1681  -1.1529  -1.0233  -0.9672
 -0.8963  -0.8587  -0.8020  -0.7502  -0.7174  -0.6682  -0.6442  -0.6345
 -0.6193  -0.6086  -0.5900  -0.5794  -0.5537  -0.5447  -0.5364  -0.5126
 -0.5041  -0.4715  -0.4536  -0.4414  -0.4295  -0.4095  -0.4033  -0.3914
 -0.3803  -0.3286
 -- Virtual --
  0.0163   0.0267   0.0362   0.0396   0.0454   0.0551   0.0586   0.0745
  0.0789   0.0846   0.0972   0.0996   0.1141   0.1207   0.1308   0.1350
  0.1407   0.1446   0.1514   0.1553   0.1577   0.1614   0.1664   0.1720
  0.1797   0.1814   0.1851   0.1915   0.1944   0.1986   0.2047   0.2052
  0.2096   0.2154   0.2248   0.2325   0.2466   0.2549   0.2594   0.2669
  0.2719   0.2725   0.2786   0.2841   0.2938   0.3044   0.3111   0.3144
  0.3184   0.3288   0.3327   0.3382   0.3421   0.3482   0.3544   0.3673
  0.3713   0.3796   0.3854   0.3902   0.3926   0.3964   0.4054   0.4115
  0.4166   0.4179   0.4387   0.4440   0.4566   0.4585   0.4749   0.4770
  0.5052   0.5313   0.5476   0.5541   0.5788   0.5873   0.5922   0.6008
  0.6148   0.6201   0.6316   0.6446   0.6506   0.6604   0.6650   0.6729
  0.6844   0.6868   0.6942   0.7003   0.7133   0.7164   0.7220   0.7380
  0.7418   0.7559   0.7604   0.7696   0.7881   0.7947   0.8044   0.8111
  0.8310   0.8328   0.8398   0.8493   0.8552   0.8892   0.8934   0.9029
  0.9129   0.9362   0.9662   0.9712   0.9948   1.0054   1.0305   1.0493
  1.0574   1.0611   1.0889   1.1105   1.1134   1.1271   1.1419   1.1467
  1.1550   1.1659   1.1828   1.1880   1.1985   1.2044   1.2153   1.2246
  1.2272   1.2483   1.2506   1.2587   1.2638   1.2700   1.2826   1.3025
  1.3073   1.3178   1.3345   1.3373   1.3575   1.3630   1.3783   1.3960
  1.4095   1.4122   1.4287   1.4318   1.4333   1.4471   1.4561   1.4585
  1.4727   1.4959   1.5058   1.5180   1.5258   1.5359   1.5473   1.5693
  1.5725   1.5853   1.6094   1.6222   1.6294   1.6504   1.6588   1.6772
  1.6847   1.7006   1.7032   1.7256   1.7460   1.7722   1.7861   1.8097
  1.8409   1.8448   1.8614   1.9049   1.9386   1.9550   1.9590   2.0171
  2.0219   2.0557   2.0826   2.1136   2.1383   2.1589   2.1727   2.1956
  2.2350   2.2807   2.3278   2.3404   2.3533   2.3769   2.4290   2.4411
  2.4732   2.5685   2.6236   2.6413   2.6766   2.7021   2.7144   2.7232
  2.7614   2.8093   2.8219   2.8311   2.8354   2.8468   2.8754   2.8887
  2.9017   2.9076   2.9387   2.9560   2.9682   2.9723   2.9824   2.9897
  3.0043   3.0114   3.0387   3.0498   3.0724   3.0856   3.1186   3.1319
  3.1473   3.1751   3.1901   3.2093   3.2273   3.2367   3.2516   3.2748
  3.3017   3.3113   3.3323   3.3483   3.3654   3.3808   3.3989   3.4056
  3.4135   3.4280   3.4297   3.4595   3.4781   3.5022   3.5102   3.5165
  3.5326   3.5467   3.5667   3.5852   3.6085   3.6257   3.6460   3.6617
  3.6684   3.6999   3.7142   3.7316   3.7489   3.7714   3.7744   3.7813
  3.8034   3.8213   3.8311   3.8545   3.8626   3.8739   3.8853   3.8966
  3.9204   3.9319   3.9467   3.9732   3.9775   3.9978   4.0154   4.0248
  4.0377   4.0760   4.0937   4.1255   4.1443   4.1688   4.1792   4.2054
  4.2354   4.2368   4.2522   4.2823   4.2996   4.3245   4.3354   4.3372
  4.3501   4.3674   4.3856   4.4006   4.4143   4.4380   4.4499   4.4666
  4.4901   4.5057   4.5369   4.5569   4.5796   4.6050   4.6225   4.6387
  4.6627   4.7072   4.7166   4.7473   4.7538   4.7851   4.8092   4.8780
  4.8850   4.9047   4.9465   4.9793   5.0248   5.0447   5.0619   5.0866
  5.1078   5.1211   5.1687   5.2151   5.2289   5.2634   5.2714   5.2785
  5.2990   5.3085   5.3322   5.3445   5.3508   5.3916   5.3999   5.4078
  5.4430   5.4660   5.5029   5.5340   5.5419   5.5723   5.6057   5.6639
  5.6690   5.6855   5.6896   5.7231   5.7479   5.7680   5.7974   5.8594
  5.8818   5.9021   5.9517   6.0061   6.0278   6.0945   6.3073   6.4413
  6.4749   6.5882   6.6007   6.6494   6.8843   6.9150   6.9836   7.1048
  7.1170   7.1358   7.2139   7.2544   7.2908   7.3094   7.3525   7.3740
  7.3896   7.4008   7.4319   7.4445   7.6364   7.7015   7.7839   7.8180
  7.8715   8.0276   8.0876  24.3165  24.5863  24.7294  24.7887  24.8017
 25.1522  25.3799  50.4275  50.5526  50.6022  50.6387
 
 Beta MOs
 -- Occupied --
-19.4529 -19.3978 -19.3434 -19.3408 -10.4131 -10.4067 -10.3892 -10.3543
-10.3537 -10.3497 -10.3492  -1.3167  -1.1680  -1.1529  -1.0009  -0.9582
 -0.8945  -0.8513  -0.8015  -0.7456  -0.7148  -0.6609  -0.6402  -0.6207
 -0.6075  -0.5886  -0.5857  -0.5688  -0.5494  -0.5368  -0.5198  -0.5056
 -0.5035  -0.4628  -0.4499  -0.4397  -0.4289  -0.3956  -0.3916  -0.3821
 -0.3275
 -- Virtual --
 -0.0318   0.0176   0.0270   0.0363   0.0401   0.0455   0.0552   0.0586
  0.0747   0.0792   0.0848   0.0978   0.1000   0.1149   0.1215   0.1312
  0.1359   0.1412   0.1452   0.1517   0.1558   0.1581   0.1620   0.1666
  0.1724   0.1801   0.1820   0.1856   0.1926   0.1953   0.1989   0.2049
  0.2062   0.2103   0.2172   0.2274   0.2331   0.2470   0.2576   0.2631
  0.2678   0.2726   0.2747   0.2796   0.2860   0.2946   0.3061   0.3123
  0.3165   0.3206   0.3300   0.3332   0.3390   0.3434   0.3488   0.3549
  0.3675   0.3729   0.3807   0.3871   0.3918   0.3931   0.3969   0.4057
  0.4119   0.4185   0.4190   0.4393   0.4446   0.4571   0.4590   0.4765
  0.4785   0.5054   0.5317   0.5480   0.5545   0.5791   0.5876   0.5926
  0.6009   0.6148   0.6202   0.6318   0.6450   0.6523   0.6606   0.6656
  0.6730   0.6846   0.6872   0.6946   0.7004   0.7134   0.7167   0.7224
  0.7382   0.7420   0.7564   0.7606   0.7703   0.7887   0.7948   0.8051
  0.8112   0.8314   0.8334   0.8399   0.8494   0.8554   0.8894   0.8939
  0.9032   0.9131   0.9368   0.9667   0.9730   0.9956   1.0068   1.0342
  1.0502   1.0578   1.0631   1.0900   1.1114   1.1137   1.1313   1.1460
  1.1484   1.1561   1.1692   1.1842   1.1909   1.2037   1.2128   1.2263
  1.2290   1.2350   1.2527   1.2551   1.2592   1.2663   1.2723   1.2838
  1.3037   1.3082   1.3209   1.3371   1.3408   1.3588   1.3649   1.3797
  1.3968   1.4105   1.4131   1.4317   1.4332   1.4353   1.4480   1.4572
  1.4608   1.4748   1.4972   1.5070   1.5194   1.5270   1.5445   1.5490
  1.5709   1.5741   1.5860   1.6132   1.6246   1.6310   1.6522   1.6626
  1.6801   1.6879   1.7089   1.7128   1.7339   1.7514   1.7811   1.7879
  1.8157   1.8453   1.8484   1.8704   1.9071   1.9458   1.9573   1.9625
  2.0177   2.0225   2.0589   2.0848   2.1173   2.1403   2.1663   2.1759
  2.1970   2.2396   2.2833   2.3382   2.3493   2.3619   2.3795   2.4294
  2.4427   2.4754   2.5701   2.6238   2.6461   2.6769   2.7036   2.7157
  2.7240   2.7618   2.8098   2.8228   2.8312   2.8355   2.8473   2.8765
  2.8890   2.9018   2.9084   2.9391   2.9563   2.9686   2.9727   2.9828
  2.9899   3.0047   3.0118   3.0392   3.0501   3.0724   3.0858   3.1193
  3.1321   3.1477   3.1756   3.1903   3.2094   3.2275   3.2373   3.2519
  3.2751   3.3018   3.3117   3.3327   3.3486   3.3657   3.3810   3.3992
  3.4061   3.4136   3.4284   3.4300   3.4596   3.4782   3.5026   3.5107
  3.5168   3.5326   3.5473   3.5670   3.5855   3.6087   3.6265   3.6462
  3.6618   3.6690   3.7002   3.7142   3.7322   3.7492   3.7716   3.7747
  3.7815   3.8037   3.8217   3.8313   3.8544   3.8630   3.8745   3.8855
  3.8969   3.9207   3.9321   3.9469   3.9735   3.9778   3.9979   4.0156
  4.0250   4.0379   4.0762   4.0940   4.1262   4.1448   4.1690   4.1795
  4.2058   4.2358   4.2371   4.2524   4.2824   4.2998   4.3251   4.3367
  4.3376   4.3505   4.3677   4.3858   4.4009   4.4145   4.4385   4.4503
  4.4670   4.4909   4.5067   4.5376   4.5582   4.5801   4.6233   4.6352
  4.6402   4.6632   4.7117   4.7185   4.7494   4.7642   4.7891   4.8118
  4.8852   4.8928   4.9185   4.9492   4.9810   5.0303   5.0580   5.0752
  5.1421   5.1433   5.1692   5.2031   5.2361   5.2458   5.2739   5.2933
  5.3071   5.3099   5.3191   5.3356   5.3483   5.3540   5.3942   5.4093
  5.4218   5.4570   5.4697   5.5119   5.5359   5.5538   5.5742   5.6103
  5.6660   5.6717   5.6869   5.6910   5.7234   5.7537   5.7747   5.8027
  5.8765   5.8820   5.9038   5.9520   6.0065   6.0281   6.0956   6.3088
  6.4549   6.5217   6.5886   6.6129   6.6499   6.9672   6.9935   7.0467
  7.1054   7.1363   7.1562   7.2410   7.2845   7.3064   7.3120   7.3532
  7.3767   7.3944   7.4216   7.4412   7.4849   7.6369   7.7021   7.7845
  7.8271   7.8754   8.0395   8.1093  24.3166  24.5863  24.7291  24.7887
 24.8019  25.1523  25.3799  50.4397  50.5626  50.6023  50.6387
 --------------------------------------------------------------
 
          Ground-State Mulliken Net Atomic Charges

     Atom                 Charge (a.u.)    Spin (a.u.)
  --------------------------------------------------------
      1 C                    -0.640011       0.012729
      2 C                    -0.038971      -0.011216
      3 C                    -0.330638       0.018145
      4 C                    -0.209344      -0.010137
      5 C                    -0.935121       0.016720
      6 C                     0.898158      -0.009536
      7 C                    -0.351368      -0.004184
      8 H                     0.294711       0.000353
      9 H                     0.242731       0.000933
     10 H                     0.327783      -0.000981
     11 H                     0.294659       0.000972
     12 H                     0.281291      -0.000011
     13 H                     0.241528       0.000064
     14 O                    -0.396528      -0.000268
     15 H                     0.218199       0.000119
     16 H                     0.328458       0.000053
     17 O                    -0.421408      -0.000636
     18 H                     0.334280       0.000210
     19 O                     0.071771       0.317332
     20 O                    -0.210182       0.669339
  --------------------------------------------------------
  Sum of atomic charges =     0.000000
  Sum of spin   charges =     1.000000

 -----------------------------------------------------------------
                    Cartesian Multipole Moments
 -----------------------------------------------------------------
    Charge (ESU x 10^10)
                 0.0000
    Dipole Moment (Debye)
         X      -0.4855      Y      -1.3664      Z      -4.1500
       Tot       4.3961
    Quadrupole Moments (Debye-Ang)
        XX     -69.6527     XY       4.8063     YY     -63.4401
        XZ       9.1055     YZ      -2.4857     ZZ     -63.5200
    Octopole Moments (Debye-Ang^2)
       XXX     205.0827    XXY       2.2250    XYY      44.1729
       YYY      51.2531    XXZ     -52.2756    XYZ      11.7519
       YYZ      -6.4187    XZZ      80.1516    YZZ       6.4008
       ZZZ    -100.4893
    Hexadecapole Moments (Debye-Ang^3)
      XXXX   -1042.1642   XXXY    -122.0400   XXYY    -239.8327
      XYYY    -145.6072   YYYY    -579.9413   XXXZ     249.5326
      XXYZ      46.1983   XYYZ      62.3467   YYYZ     132.6406
      XXZZ    -355.7773   XYZZ     -45.7256   YYZZ    -245.3019
      XZZZ     235.6990   YZZZ     119.5607   ZZZZ    -943.2417
 -----------------------------------------------------------------
 Calculating analytic gradient of the SCF energy
 Gradient of CDS energy
            1           2           3           4           5           6
    1   0.0001690   0.0000910  -0.0000580  -0.0003106   0.0000149   0.0001785
    2  -0.0000644   0.0001502  -0.0002883  -0.0003799   0.0002270  -0.0000554
    3   0.0000546   0.0001845   0.0002512  -0.0000658  -0.0003708   0.0002364
            7           8           9          10          11          12
    1  -0.0002824  -0.0000603   0.0001816  -0.0000556  -0.0001400  -0.0000572
    2   0.0009458   0.0001566  -0.0000654  -0.0001576  -0.0001282   0.0000868
    3  -0.0004520   0.0001101   0.0000918   0.0001144  -0.0000786  -0.0001683
           13          14          15          16          17          18
    1  -0.0000880  -0.0001622   0.0001486   0.0002747  -0.0002758   0.0004362
    2  -0.0002255  -0.0002156  -0.0000256  -0.0000271  -0.0000468  -0.0000185
    3  -0.0000763   0.0002171   0.0003011  -0.0004317   0.0000876  -0.0000210
           19          20
    1  -0.0000469   0.0000426
    2   0.0000827   0.0000492
    3  -0.0000376   0.0000535
 Gradient of SCF Energy
            1           2           3           4           5           6
    1   0.0027541  -0.0068132   0.0029525   0.0053120  -0.0017357   0.0018915
    2  -0.0043942   0.0114347   0.0014027   0.0035637  -0.0117087   0.0114220
    3  -0.0114218   0.0039172  -0.0045883   0.0052763   0.0080584   0.0052725
            7           8           9          10          11          12
    1   0.0128508   0.0008094   0.0015832  -0.0014312  -0.0055216  -0.0048367
    2  -0.0117140   0.0043465  -0.0026099  -0.0052721  -0.0049733   0.0020908
    3   0.0041352   0.0012823   0.0031166   0.0033045  -0.0034797  -0.0095402
           13          14          15          16          17          18
    1  -0.0055909  -0.0019360  -0.0022082   0.0007274   0.0004682   0.0015506
    2   0.0002551   0.0173265   0.0051988  -0.0128620  -0.0067704   0.0034154
    3  -0.0084585   0.0113833   0.0036824  -0.0105737   0.0048791  -0.0061441
           19          20
    1  -0.0002800  -0.0005460
    2   0.0002984  -0.0004499
    3   0.0009031  -0.0010046
 Max gradient component =       1.733E-02
 RMS gradient           =       6.308E-03
 Computing fast CPCM-SWIG gradient
 Updating gradient with PCM contributions...
 -- total gradient after adding PCM contribution --
---------------------------------------------------
  Atom         X              Y              Z     
---------------------------------------------------
   1      -0.000010       0.000024      -0.000002
   2      -0.000067      -0.000006       0.000007
   3      -0.000008       0.000021      -0.000001
   4      -0.000004      -0.000007      -0.000017
   5       0.000020       0.000005      -0.000000
   6      -0.000002      -0.000028       0.000010
   7       0.000071      -0.000003      -0.000009
   8      -0.000017      -0.000002      -0.000001
   9      -0.000021      -0.000017      -0.000005
  10      -0.000018       0.000007      -0.000005
  11       0.000016       0.000000      -0.000025
  12       0.000015       0.000010      -0.000010
  13       0.000009       0.000014       0.000002
  14      -0.000030       0.000026       0.000007
  15       0.000002      -0.000002       0.000013
  16       0.000033      -0.000017       0.000026
  17       0.000012      -0.000005       0.000013
  18       0.000023       0.000009       0.000012
  19      -0.000004      -0.000009       0.000013
  20      -0.000018      -0.000019      -0.000027
---------------------------------------------------
 Number of fixed atoms: 0
 Gradient time:  CPU 504.03 s  wall 73.28 s
-Performing force calculation on product structure in state0
 ----------------------------------------------------------------
             Standard Nuclear Orientation (Angstroms)
    I     Atom           X                Y                Z
 ----------------------------------------------------------------
    1      C      -0.0821723003    -0.2566259916     0.7942466554
    2      C      -1.0020945536    -0.9965174813     1.7557429195
    3      C      -1.7181263205    -2.1189572277     1.0746869929
    4      C      -2.1449076362    -1.9214261318    -0.2249299113
    5      C      -1.8895952498    -0.7220376280    -0.8617837164
    6      C      -1.1784848858     0.3500579365    -0.0914178271
    7      C      -0.6831304172     1.5083388210    -0.9406380223
    8      H       0.4392200681     0.5453377613     1.3205805022
    9      H      -0.5276272944    -1.2815224562     2.6906109916
   10      H      -1.9116568783    -3.0366901861     1.6091521460
   11      H      -2.6819229978    -2.7048846434    -0.7436041904
   12      H      -2.2172490677    -0.5247003049    -1.8736693700
   13      H      -1.4993092026     1.9392112315    -1.5219221238
   14      O       0.3697622692     1.0618867021    -1.7914677756
   15      H      -0.2664715321     2.2742600534    -0.2901762134
   16      H      -0.0150244807     0.5728066665    -2.5275380594
   17      O       0.8192718567    -1.1124381303     0.1337316023
   18      H       1.1663558793    -0.6173105163    -0.6209752953
   19      O      -1.9285704204     0.0575802708     2.1020591415
   20      O      -2.0672752354     0.8960538543     0.9072861535
 ----------------------------------------------------------------
 Nuclear Repulsion Energy =         681.52910688 hartrees
 There are       42 alpha and       41 beta electrons
 Discretize the solute cavity surface with Lebedev spheres
	Using 110 Lebedev grid points for each H atom
	Using 194 Lebedev grid points for other atoms
	Atomic van der Waals radii will be scaled by 1.20
 Remove points where switching function is < 1.0e-08
 Keep 1419 surface tesserae and discard 1705 interior tesserae
 Molecular Surface Area = 160.962 Angst**2
 Applying Cartesian multipole field
    Component          Value
    ---------          -----
     (2,0,0)        1.00000E-11
     (0,2,0)        2.00000E-11
     (0,0,2)       -3.00000E-11
 Nucleus-field energy     =     0.0000000011 hartrees
 Requested basis set is 6-311++G(2df,2p)
 There are 142 shells and 464 basis functions
 A cutoff of  1.0D-12 yielded   9272 shell pairs
 There are    100413 function pairs (    125640 Cartesian)
 Smallest overlap matrix eigenvalue = 1.98E-06
 Guess from superposition of atomic densities
 Warning:  Energy on first SCF cycle will be non-variational
 SAD guess density has 83.000000 electrons

 -----------------------------------------------------------------------
  General SCF calculation program by
  Eric Jon Sundstrom, Paul Horn, Yuezhi Mao, Dmitri Zuev, Alec White,
  David Stuck, Shaama M.S., Shane Yost, Joonho Lee, David Small,
  Daniel Levine, Susi Lehtola, Hugh Burton, Evgeny Epifanovsky,
  Bang C. Huynh
 -----------------------------------------------------------------------
 Exchange:     0.1500 Hartree-Fock + 1.0000 wB97M-V + LR-HF
 Correlation:  1.0000 wB97M-V
 Using SG-2 standard quadrature grid
 Nonlocal Correlation:  VV10 with C = 0.0100 and b = 6.00 and scale = 1.00000
 Grid used for NLC:  SG-1 standard quadrature
 
 Citation of the SMD model:
 Marenich, A.V.; Cramer, C.J.; Truhlar, D.G.
 J. Phys. Chem. B 2009, 113, 6378-6396.
 iSolventCode=           1
 Solvent: water                                                           
 
 vradii
            1           2           3           4           5           6
    1   1.8500000   1.8500000   1.8500000   1.8500000   1.8500000   1.8500000
            7           8           9          10          11          12
    1   1.8500000   1.2000000   1.2000000   1.2000000   1.2000000   1.2000000
           13          14          15          16          17          18
    1   1.2000000   1.5200000   1.2000000   1.2000000   1.5200000   1.2000000
           19          20
    1   1.5200000   1.5200000
 -------------------------------------------------------
 OpenMP BLAS3 based DFT computing Module                
 Release: version 1.0, May 2013, Q-Chem Inc. Pittsburgh 
 -------------------------------------------------------
 A unrestricted SCF calculation will be
 performed using DIIS, GDM
 SCF converges when RMS gradient is below 1.0e-07
 ---------------------------------------
  Cycle       Energy         DIIS error
 ---------------------------------------
    1    -575.9847804497      1.17e-02  
    2    -572.7967731795      1.10e-03  Done DIIS. Switching to GDM
 ---------------------------------------
  Cycle       Energy        RMS Gradient
 ---------------------------------------
    1    -572.7967731795      3.64e-02   Descent step
    2    -572.8943386087      1.65e-02   Normal BFGS step
    3    -572.9095802947      9.61e-03   Normal BFGS step
    4    -572.9114613889      5.82e-03   Normal BFGS step
    5    -572.9118309121      2.86e-03   Normal BFGS step
    6    -572.9119332498      6.16e-04   Normal BFGS step
    7    -572.9119472349      4.14e-04   Normal BFGS step
    8    -572.9119560071      1.45e-04   Normal BFGS step
    9    -572.9119563358      8.00e-05   Normal BFGS step
   10    -572.9119564352      3.45e-05   Normal BFGS step
   11    -572.9119564463      1.36e-05   Normal BFGS step
   12    -572.9119564501      7.52e-06   Normal BFGS step
   13    -572.9119564515      4.76e-06   Normal BFGS step
   14    -572.9119564518      2.50e-06   Normal BFGS step
   15    -572.9119564519      1.04e-06   Normal BFGS step
   16    -572.9119564519      4.82e-07   Normal BFGS step
   17    -572.9119564518      1.16e-07   Normal BFGS step
   18    -572.9119564518      5.57e-08  Convergence criterion met
 ---------------------------------------
 SCF time:   CPU 3243.52s  wall 414.00s 
<S^2> =          0.780622244
(3)  G-ENP(liq) elect-nuc-pol free energy of system     -572.911956452 a.u.
(4)  G-CDS(liq) cavity-dispersion-solvent structure 
     free energy                                                2.9930 kcal/mol
(6)  G-S(liq) free energy of system                     -572.907186866 a.u.
 SCF   energy in the final basis set =     -572.9071868657
 Total energy in the final basis set =     -572.9071868657
 
 --------------------------------------------------------------
 
                    Orbital Energies (a.u.)
 --------------------------------------------------------------
 
 Alpha MOs
 -- Occupied --
-19.4034 -19.4028 -19.3481 -19.3448 -10.4127 -10.4067 -10.4051 -10.3937
-10.3556 -10.3549 -10.3501  -1.2707  -1.1741  -1.1614  -1.0684  -0.9756
 -0.8889  -0.8559  -0.8088  -0.7506  -0.7104  -0.6822  -0.6582  -0.6328
 -0.6081  -0.5866  -0.5784  -0.5643  -0.5541  -0.5341  -0.5223  -0.5174
 -0.4935  -0.4804  -0.4609  -0.4526  -0.4352  -0.4227  -0.3958  -0.3906
 -0.3659  -0.2853
 -- Virtual --
  0.0244   0.0347   0.0366   0.0451   0.0549   0.0555   0.0680   0.0734
  0.0809   0.0852   0.0895   0.0935   0.1082   0.1244   0.1303   0.1360
  0.1372   0.1448   0.1469   0.1489   0.1567   0.1575   0.1606   0.1699
  0.1752   0.1771   0.1844   0.1885   0.1919   0.2021   0.2048   0.2139
  0.2167   0.2204   0.2239   0.2275   0.2390   0.2533   0.2574   0.2724
  0.2793   0.2867   0.2900   0.2941   0.3028   0.3135   0.3171   0.3225
  0.3314   0.3358   0.3455   0.3478   0.3539   0.3545   0.3627   0.3682
  0.3749   0.3778   0.3849   0.3905   0.4002   0.4020   0.4103   0.4187
  0.4207   0.4292   0.4372   0.4551   0.4700   0.4713   0.4819   0.4982
  0.5075   0.5141   0.5295   0.5435   0.5646   0.5831   0.5903   0.6034
  0.6087   0.6245   0.6252   0.6401   0.6520   0.6558   0.6616   0.6688
  0.6772   0.6924   0.6946   0.7069   0.7152   0.7221   0.7326   0.7370
  0.7446   0.7486   0.7655   0.7814   0.7913   0.7970   0.8097   0.8176
  0.8367   0.8544   0.8575   0.8717   0.8795   0.8874   0.8953   0.9107
  0.9384   0.9652   0.9675   1.0156   1.0257   1.0342   1.0469   1.0534
  1.0870   1.0896   1.0968   1.1026   1.1190   1.1380   1.1496   1.1603
  1.1649   1.1720   1.1757   1.1967   1.2148   1.2202   1.2222   1.2416
  1.2582   1.2634   1.2751   1.2774   1.2926   1.2960   1.3065   1.3257
  1.3381   1.3429   1.3461   1.3599   1.3662   1.3728   1.3854   1.3925
  1.4106   1.4158   1.4219   1.4427   1.4492   1.4645   1.4770   1.4925
  1.5024   1.5100   1.5334   1.5412   1.5462   1.5621   1.5780   1.5816
  1.5880   1.6137   1.6227   1.6362   1.6523   1.6569   1.6791   1.6924
  1.7158   1.7496   1.7609   1.7943   1.8027   1.8192   1.8450   1.8669
  1.8806   1.8931   1.9528   1.9615   1.9845   2.0038   2.0241   2.0452
  2.0658   2.0816   2.1235   2.1397   2.1697   2.1914   2.2159   2.2699
  2.2990   2.3164   2.3378   2.3828   2.3964   2.4216   2.4660   2.5123
  2.5272   2.6283   2.6659   2.6895   2.7175   2.7279   2.7610   2.7671
  2.7812   2.8113   2.8230   2.8406   2.8530   2.8611   2.8763   2.8791
  2.9079   2.9257   2.9367   2.9491   2.9517   2.9637   2.9969   3.0025
  3.0157   3.0298   3.0448   3.0788   3.0986   3.1195   3.1364   3.1577
  3.1800   3.1895   3.2209   3.2341   3.2590   3.2687   3.2949   3.3059
  3.3393   3.3437   3.3664   3.3742   3.3907   3.4185   3.4332   3.4361
  3.4504   3.4583   3.4863   3.5040   3.5160   3.5401   3.5563   3.5704
  3.5889   3.5990   3.6218   3.6377   3.6459   3.6634   3.6746   3.6811
  3.7064   3.7330   3.7398   3.7576   3.7693   3.7821   3.7926   3.8115
  3.8250   3.8310   3.8403   3.8602   3.8839   3.8920   3.9010   3.9061
  3.9312   3.9454   3.9629   3.9644   3.9728   4.0004   4.0169   4.0392
  4.0597   4.0801   4.1066   4.1170   4.1338   4.1602   4.1780   4.2039
  4.2485   4.2620   4.2731   4.2852   4.3089   4.3277   4.3323   4.3542
  4.3608   4.3810   4.4108   4.4170   4.4262   4.4579   4.4825   4.4940
  4.4952   4.5122   4.5404   4.5730   4.5853   4.5984   4.6296   4.6337
  4.6577   4.6706   4.6776   4.7026   4.7411   4.7449   4.7798   4.7876
  4.8296   4.8754   4.9718   4.9899   5.0555   5.1399   5.1585   5.1879
  5.2466   5.2556   5.2757   5.3016   5.3102   5.3154   5.3327   5.3422
  5.3514   5.3902   5.4074   5.4245   5.4488   5.4695   5.5033   5.5266
  5.5412   5.5621   5.6040   5.6083   5.6238   5.6342   5.6748   5.6876
  5.6990   5.7353   5.7571   5.7736   5.7916   5.7985   5.8762   5.9068
  5.9539   5.9867   6.0332   6.0479   6.0531   6.0988   6.1381   6.2612
  6.5926   6.6006   6.6620   6.7542   6.7605   7.0433   7.1111   7.1374
  7.2941   7.3075   7.3317   7.3432   7.3773   7.4050   7.4268   7.4543
  7.4604   7.4927   7.5463   7.6404   7.6586   7.7136   7.7933   7.8523
  7.9107   7.9705   8.2622  24.3795  24.7197  24.7445  24.7924  24.8452
 24.9361  25.2216  50.5999  50.6235  50.6782  50.6891
 
 Beta MOs
 -- Occupied --
-19.4020 -19.4015 -19.3479 -19.3449 -10.4133 -10.4072 -10.4045 -10.3937
-10.3532 -10.3473 -10.3466  -1.2681  -1.1737  -1.1612  -1.0653  -0.9687
 -0.8863  -0.8468  -0.8007  -0.7481  -0.7047  -0.6800  -0.6553  -0.6291
 -0.6067  -0.5804  -0.5754  -0.5609  -0.5502  -0.5310  -0.5199  -0.5141
 -0.4918  -0.4760  -0.4587  -0.4478  -0.4322  -0.3964  -0.3902  -0.3879
 -0.3594
 -- Virtual --
 -0.0196   0.0238   0.0343   0.0364   0.0446   0.0547   0.0552   0.0711
  0.0782   0.0807   0.0862   0.0902   0.0999   0.1092   0.1247   0.1299
  0.1366   0.1371   0.1462   0.1476   0.1482   0.1561   0.1573   0.1608
  0.1700   0.1751   0.1772   0.1861   0.1906   0.1928   0.2018   0.2047
  0.2130   0.2166   0.2207   0.2237   0.2274   0.2382   0.2555   0.2595
  0.2731   0.2792   0.2872   0.2911   0.2962   0.3048   0.3136   0.3182
  0.3261   0.3320   0.3382   0.3471   0.3497   0.3553   0.3557   0.3659
  0.3711   0.3753   0.3787   0.3861   0.3913   0.4005   0.4035   0.4101
  0.4206   0.4211   0.4292   0.4378   0.4557   0.4716   0.4726   0.4837
  0.5006   0.5076   0.5159   0.5325   0.5455   0.5669   0.5860   0.5934
  0.6101   0.6133   0.6246   0.6299   0.6442   0.6540   0.6574   0.6655
  0.6703   0.6812   0.6947   0.6960   0.7105   0.7177   0.7241   0.7353
  0.7381   0.7478   0.7515   0.7698   0.7853   0.7955   0.8030   0.8146
  0.8209   0.8402   0.8570   0.8617   0.8732   0.8845   0.8920   0.8979
  0.9132   0.9406   0.9671   0.9693   1.0170   1.0267   1.0354   1.0481
  1.0542   1.0886   1.0924   1.0977   1.1038   1.1202   1.1389   1.1503
  1.1631   1.1690   1.1732   1.1788   1.1985   1.2164   1.2219   1.2245
  1.2453   1.2596   1.2662   1.2769   1.2795   1.2934   1.2977   1.3080
  1.3282   1.3394   1.3443   1.3470   1.3620   1.3678   1.3744   1.3884
  1.3955   1.4135   1.4182   1.4244   1.4455   1.4534   1.4683   1.4790
  1.4976   1.5048   1.5125   1.5376   1.5441   1.5493   1.5652   1.5815
  1.5846   1.5898   1.6183   1.6249   1.6401   1.6578   1.6596   1.6814
  1.6963   1.7189   1.7538   1.7633   1.7966   1.8070   1.8227   1.8500
  1.8717   1.8821   1.8954   1.9572   1.9641   1.9904   2.0092   2.0274
  2.0479   2.0683   2.0831   2.1292   2.1419   2.1721   2.1927   2.2189
  2.2723   2.3012   2.3175   2.3402   2.3839   2.3989   2.4229   2.4680
  2.5145   2.5303   2.6348   2.6772   2.6944   2.7214   2.7310   2.7662
  2.7739   2.7964   2.8186   2.8362   2.8475   2.8647   2.8731   2.8853
  2.8918   2.9190   2.9333   2.9526   2.9611   2.9668   2.9820   3.0063
  3.0172   3.0292   3.0446   3.0606   3.0885   3.1110   3.1245   3.1534
  3.1677   3.1885   3.2018   3.2297   3.2406   3.2634   3.2771   3.3030
  3.3154   3.3496   3.3537   3.3755   3.3891   3.4002   3.4303   3.4435
  3.4447   3.4572   3.4720   3.4964   3.5077   3.5173   3.5555   3.5614
  3.5844   3.5980   3.6112   3.6320   3.6409   3.6575   3.6681   3.6898
  3.6917   3.7173   3.7354   3.7525   3.7671   3.7725   3.7900   3.8028
  3.8247   3.8357   3.8439   3.8470   3.8666   3.8891   3.8993   3.9077
  3.9100   3.9391   3.9509   3.9694   3.9707   3.9791   4.0067   4.0283
  4.0485   4.0659   4.0886   4.1146   4.1211   4.1417   4.1664   4.1834
  4.2093   4.2528   4.2672   4.2780   4.2883   4.3188   4.3367   4.3407
  4.3649   4.3662   4.3917   4.4153   4.4228   4.4299   4.4643   4.4897
  4.5024   4.5049   4.5177   4.5470   4.5792   4.5904   4.6091   4.6357
  4.6498   4.6692   4.6825   4.6925   4.7087   4.7461   4.7531   4.7858
  4.7948   4.8373   4.8856   4.9815   4.9979   5.0645   5.1538   5.1702
  5.1974   5.2563   5.2603   5.2790   5.3031   5.3117   5.3173   5.3376
  5.3443   5.3526   5.3917   5.4099   5.4285   5.4524   5.4735   5.5066
  5.5308   5.5425   5.5726   5.6086   5.6177   5.6324   5.6411   5.6768
  5.6952   5.7003   5.7364   5.7630   5.7756   5.7951   5.8025   5.8779
  5.9130   5.9564   5.9898   6.0372   6.0519   6.0670   6.1036   6.1522
  6.2633   6.5952   6.6025   6.6639   6.7552   6.7622   7.0467   7.1116
  7.1377   7.2947   7.3099   7.3332   7.3451   7.3779   7.4070   7.4283
  7.4556   7.4625   7.4960   7.5487   7.6442   7.6598   7.7137   7.7938
  7.8531   7.9133   7.9733   8.2638  24.3824  24.7201  24.7483  24.7934
 24.8455  24.9387  25.2247  50.6008  50.6239  50.6782  50.6901
 --------------------------------------------------------------
 
          Ground-State Mulliken Net Atomic Charges

     Atom                 Charge (a.u.)    Spin (a.u.)
  --------------------------------------------------------
      1 C                    -0.136133       0.030938
      2 C                    -0.024215      -0.021963
      3 C                    -0.477156       0.562908
      4 C                    -0.236597      -0.152657
      5 C                    -0.338806       0.591143
      6 C                    -0.050354      -0.062028
      7 C                    -0.379689       0.006779
      8 H                     0.316431      -0.002597
      9 H                     0.287375       0.005425
     10 H                     0.316258      -0.014130
     11 H                     0.299753       0.007620
     12 H                     0.323166      -0.013313
     13 H                     0.251443      -0.000223
     14 O                    -0.385428       0.002321
     15 H                     0.237268      -0.000288
     16 H                     0.330687      -0.000590
     17 O                    -0.416473       0.000466
     18 H                     0.338535       0.001644
     19 O                    -0.129920       0.029648
     20 O                    -0.126144       0.028896
  --------------------------------------------------------
  Sum of atomic charges =     0.000000
  Sum of spin   charges =     1.000000

 -----------------------------------------------------------------
                    Cartesian Multipole Moments
 -----------------------------------------------------------------
    Charge (ESU x 10^10)
                 0.0000
    Dipole Moment (Debye)
         X       0.4026      Y      -0.8302      Z      -3.4590
       Tot       3.5799
    Quadrupole Moments (Debye-Ang)
        XX     -73.2859     XY       5.9470     YY     -63.5384
        XZ      10.5145     YZ      -3.3203     ZZ     -58.2546
    Octopole Moments (Debye-Ang^2)
       XXX     224.2012    XXY       6.4714    XYY      49.4008
       YYY      50.0234    XXZ     -39.0701    XYZ      11.9654
       YYZ      -7.4726    XZZ      67.6797    YZZ       3.8080
       ZZZ     -62.0946
    Hexadecapole Moments (Debye-Ang^3)
      XXXX    -969.6386   XXXY     -92.7496   XXYY    -238.5594
      XYYY     -74.1265   YYYY    -635.0178   XXXZ     168.4186
      XXYZ      36.3985   XYYZ      42.8031   YYYZ      93.5612
      XXZZ    -275.5098   XYZZ     -32.7678   YYZZ    -208.6408
      XZZZ     157.1400   YZZZ      82.6502   ZZZZ    -583.6500
 -----------------------------------------------------------------
 Calculating analytic gradient of the SCF energy
 Gradient of CDS energy
            1           2           3           4           5           6
    1   0.0016458   0.0000613  -0.0000671  -0.0002074  -0.0002044   0.0000518
    2  -0.0013978   0.0002072  -0.0003798  -0.0002756   0.0001506   0.0000705
    3  -0.0010165   0.0002629   0.0002877  -0.0002258  -0.0002404   0.0001576
            7           8           9          10          11          12
    1   0.0001473  -0.0000407   0.0000582  -0.0000349  -0.0001039  -0.0000347
    2   0.0009856   0.0002077  -0.0000206  -0.0001657  -0.0001516   0.0000750
    3  -0.0003536   0.0001020   0.0002086   0.0000965  -0.0001004  -0.0001154
           13          14          15          16          17          18
    1  -0.0002553  -0.0001724   0.0001257   0.0001812  -0.0016332   0.0004249
    2  -0.0002387  -0.0001748  -0.0001258   0.0000005   0.0013419  -0.0001145
    3  -0.0000517   0.0002781   0.0002793  -0.0004928   0.0011072  -0.0001811
           19          20
    1   0.0000112   0.0000464
    2   0.0000889  -0.0000832
    3  -0.0000839   0.0000819
 Gradient of SCF Energy
            1           2           3           4           5           6
    1   0.0017042  -0.0068980   0.0045017   0.0038820   0.0033596  -0.0048742
    2  -0.0057810   0.0036629   0.0023670   0.0054640  -0.0038213   0.0040453
    3  -0.0052645  -0.0002031  -0.0058811   0.0077481   0.0059590   0.0033252
            7           8           9          10          11          12
    1   0.0063488   0.0030096   0.0020443  -0.0007126  -0.0031808  -0.0026236
    2  -0.0130836   0.0038635  -0.0018832  -0.0044299  -0.0046571   0.0027983
    3   0.0029200   0.0016587   0.0042175   0.0025581  -0.0034623  -0.0128342
           13          14          15          16          17          18
    1  -0.0067639   0.0080901   0.0018154  -0.0085002  -0.0005047   0.0016432
    2   0.0028602   0.0145110   0.0044402  -0.0102282  -0.0078917   0.0044960
    3  -0.0066020   0.0128421   0.0036514  -0.0127650   0.0054880  -0.0060732
           19          20
    1  -0.0009537  -0.0013872
    2   0.0017579   0.0015098
    3   0.0017777   0.0009396
 Max gradient component =       1.451E-02
 RMS gradient           =       5.780E-03
 Computing fast CPCM-SWIG gradient
 Updating gradient with PCM contributions...
 -- total gradient after adding PCM contribution --
---------------------------------------------------
  Atom         X              Y              Z     
---------------------------------------------------
   1       0.000003      -0.000004      -0.000049
   2       0.000037      -0.000006       0.000054
   3      -0.000016      -0.000015       0.000009
   4       0.000019       0.000022      -0.000001
   5      -0.000025      -0.000002       0.000020
   6       0.000058      -0.000030      -0.000059
   7       0.000025      -0.000014      -0.000036
   8      -0.000001       0.000005       0.000034
   9      -0.000007      -0.000004       0.000007
  10       0.000004      -0.000011       0.000004
  11       0.000007      -0.000017      -0.000005
  12       0.000013       0.000012      -0.000009
  13      -0.000017       0.000018      -0.000006
  14      -0.000003       0.000053       0.000085
  15      -0.000002       0.000023       0.000010
  16      -0.000007      -0.000031      -0.000067
  17       0.000005      -0.000023       0.000061
  18      -0.000046       0.000012      -0.000033
  19      -0.000038       0.000097      -0.000107
  20      -0.000009      -0.000085       0.000088
---------------------------------------------------
 Number of fixed atoms: 0
 Gradient time:  CPU 568.81 s  wall 81.21 s

STARTING FREEZING STRING ITERATION # 1
 The distance between the innermost nodes (Angstroms): 2.868
-Adding two new nodes
 The distance between the previous and current R_nodes (Angstroms): 0.1434
 The distance between the previous and current P_nodes (Angstroms): 0.1437
-Optimizing new reactant side node
 Using BFGS, step: 2 E_tol 0.0129
 max_steps 6, node_spacing 0.1434, sigma 0.7000
 ----------------------------------------------------------------
             Standard Nuclear Orientation (Angstroms)
    I     Atom           X                Y                Z
 ----------------------------------------------------------------
    1      C      -0.2177883998    -0.1445041350     0.6804980464
    2      C      -0.9000711193    -1.1029209692     1.6530291831
    3      C      -1.9026444911    -2.0340853161     1.0609531126
    4      C      -2.4059609783    -1.8095024457    -0.1529395326
    5      C      -2.0126237885    -0.6497657862    -0.9457795424
    6      C      -1.0318784622     0.1698807453    -0.5467456624
    7      C      -0.6097766567     1.3703252889    -1.3344376321
    8      H      -0.0103726120     0.7858247163     1.2182251636
    9      H      -0.1277046916    -1.6445636841     2.1961386584
   10      H      -2.2058387691    -2.8845202725     1.6558082594
   11      H      -3.1339845530    -2.4906760862    -0.5728414867
   12      H      -2.5426974174    -0.4500525202    -1.8685780542
   13      H      -1.2498986088     1.5078379528    -2.2060469017
   14      O       0.7679881904     1.2819899535    -1.7318476517
   15      H      -0.6753811358     2.2634108668    -0.7126845678
   16      H       0.8287522163     0.6205355859    -2.4306387187
   17      O       1.0188093522    -0.7657444828     0.3107850913
   18      H       1.4040386110    -0.2103456272    -0.3816602447
   19      O      -1.5263205727    -0.3212950658     2.7322834843
   20      O      -2.5037234403     0.4256670013     2.2799729489
 ----------------------------------------------------------------
 Nuclear Repulsion Energy =         643.62549910 hartrees
 There are       42 alpha and       41 beta electrons
 Discretize the solute cavity surface with Lebedev spheres
	Using 110 Lebedev grid points for each H atom
	Using 194 Lebedev grid points for other atoms
	Atomic van der Waals radii will be scaled by 1.20
 Remove points where switching function is < 1.0e-08
 Keep 1482 surface tesserae and discard 1642 interior tesserae
 Molecular Surface Area = 170.696 Angst**2
 Applying Cartesian multipole field
    Component          Value
    ---------          -----
     (2,0,0)        1.00000E-11
     (0,2,0)        2.00000E-11
     (0,0,2)       -3.00000E-11
 Nucleus-field energy     =    -0.0000000056 hartrees
 Requested basis set is 6-311++G(2df,2p)
 There are 142 shells and 464 basis functions
 A cutoff of  1.0D-12 yielded   9024 shell pairs
 There are     97017 function pairs (    121130 Cartesian)
 Smallest overlap matrix eigenvalue = 1.53E-06
 Guess from superposition of atomic densities
 Warning:  Energy on first SCF cycle will be non-variational
 SAD guess density has 83.000000 electrons

 -----------------------------------------------------------------------
  General SCF calculation program by
  Eric Jon Sundstrom, Paul Horn, Yuezhi Mao, Dmitri Zuev, Alec White,
  David Stuck, Shaama M.S., Shane Yost, Joonho Lee, David Small,
  Daniel Levine, Susi Lehtola, Hugh Burton, Evgeny Epifanovsky,
  Bang C. Huynh
 -----------------------------------------------------------------------
 Exchange:     0.1500 Hartree-Fock + 1.0000 wB97M-V + LR-HF
 Correlation:  1.0000 wB97M-V
 Using SG-2 standard quadrature grid
 Nonlocal Correlation:  VV10 with C = 0.0100 and b = 6.00 and scale = 1.00000
 Grid used for NLC:  SG-1 standard quadrature
 
 Citation of the SMD model:
 Marenich, A.V.; Cramer, C.J.; Truhlar, D.G.
 J. Phys. Chem. B 2009, 113, 6378-6396.
 iSolventCode=           1
 Solvent: water                                                           
 
 vradii
            1           2           3           4           5           6
    1   1.8500000   1.8500000   1.8500000   1.8500000   1.8500000   1.8500000
            7           8           9          10          11          12
    1   1.8500000   1.2000000   1.2000000   1.2000000   1.2000000   1.2000000
           13          14          15          16          17          18
    1   1.2000000   1.5200000   1.2000000   1.2000000   1.5200000   1.2000000
           19          20
    1   1.5200000   1.5200000
 -------------------------------------------------------
 OpenMP BLAS3 based DFT computing Module                
 Release: version 1.0, May 2013, Q-Chem Inc. Pittsburgh 
 -------------------------------------------------------
 A unrestricted SCF calculation will be
 performed using DIIS, GDM
 SCF converges when RMS gradient is below 1.0e-07
 ---------------------------------------
  Cycle       Energy         DIIS error
 ---------------------------------------
    1    -575.7433114039      1.16e-02  
    2    -572.7583660452      1.23e-03  Done DIIS. Switching to GDM
 ---------------------------------------
  Cycle       Energy        RMS Gradient
 ---------------------------------------
    1    -572.7583660452      9.14e-02   Descent step
    2    -572.8766539946      2.16e-02   Normal BFGS step
    3    -572.8937148544      2.57e-02   Normal BFGS step
    4    -572.8973803638      4.83e-03   Normal BFGS step
    5    -572.8984497337      3.57e-03   Normal BFGS step
    6    -572.8986672493      3.17e-03   Normal BFGS step
    7    -572.8987381983      1.68e-03   Normal BFGS step
    8    -572.8987618828      1.06e-03   Normal BFGS step
    9    -572.8987657079      8.29e-04   Normal BFGS step
   10    -572.8987674856      5.41e-04   Normal BFGS step
   11    -572.8987684713      3.58e-04   Normal BFGS step
   12    -572.8987695283      2.93e-04   Normal BFGS step
   13    -572.8987700471      2.14e-04   Normal BFGS step
   14    -572.8987701983      1.02e-04   Normal BFGS step
   15    -572.8987702293      2.80e-05   Normal BFGS step
   16    -572.8987702368      1.15e-05   Normal BFGS step
   17    -572.8987702381      8.43e-06   Normal BFGS step
   18    -572.8987702385      5.23e-06   Normal BFGS step
   19    -572.8987702387      3.92e-06   Normal BFGS step
   20    -572.8987702388      1.85e-06   Normal BFGS step
   21    -572.8987702388      5.75e-07   Normal BFGS step
   22    -572.8987702388      1.88e-07   Normal BFGS step
   23    -572.8987702388      1.35e-07   Normal BFGS step
   24    -572.8987702388      7.50e-08  Convergence criterion met
 ---------------------------------------
 SCF time:   CPU 3866.34s  wall 493.00s 
<S^2> =          0.754185420
(3)  G-ENP(liq) elect-nuc-pol free energy of system     -572.898770239 a.u.
(4)  G-CDS(liq) cavity-dispersion-solvent structure 
     free energy                                                2.9989 kcal/mol
(6)  G-S(liq) free energy of system                     -572.893991152 a.u.
 SCF   energy in the final basis set =     -572.8939911515
 Total energy in the final basis set =     -572.8939911515
 
 --------------------------------------------------------------
 
                    Orbital Energies (a.u.)
 --------------------------------------------------------------
 
 Alpha MOs
 -- Occupied --
-19.4631 -19.4173 -19.3433 -19.3412 -10.4127 -10.4067 -10.3888 -10.3541
-10.3541 -10.3501 -10.3497  -1.3389  -1.1685  -1.1533  -1.0240  -0.9672
 -0.8956  -0.8594  -0.8018  -0.7497  -0.7174  -0.6682  -0.6442  -0.6334
 -0.6182  -0.6088  -0.5894  -0.5784  -0.5530  -0.5448  -0.5364  -0.5129
 -0.5045  -0.4718  -0.4532  -0.4411  -0.4296  -0.4111  -0.4042  -0.3918
 -0.3808  -0.3272
 -- Virtual --
  0.0153   0.0264   0.0362   0.0394   0.0455   0.0551   0.0586   0.0743
  0.0789   0.0848   0.0967   0.0999   0.1141   0.1210   0.1309   0.1349
  0.1403   0.1440   0.1512   0.1549   0.1577   0.1614   0.1665   0.1721
  0.1799   0.1820   0.1848   0.1901   0.1939   0.1983   0.2036   0.2052
  0.2096   0.2147   0.2237   0.2319   0.2463   0.2549   0.2596   0.2664
  0.2721   0.2733   0.2793   0.2859   0.2949   0.3051   0.3120   0.3131
  0.3181   0.3305   0.3335   0.3396   0.3427   0.3488   0.3545   0.3672
  0.3718   0.3791   0.3849   0.3900   0.3925   0.3967   0.4048   0.4109
  0.4155   0.4189   0.4387   0.4438   0.4567   0.4589   0.4735   0.4769
  0.5057   0.5312   0.5485   0.5527   0.5794   0.5875   0.5930   0.6014
  0.6151   0.6174   0.6334   0.6470   0.6503   0.6613   0.6621   0.6729
  0.6840   0.6893   0.6956   0.6999   0.7145   0.7169   0.7215   0.7367
  0.7423   0.7554   0.7607   0.7697   0.7885   0.7977   0.8056   0.8114
  0.8308   0.8348   0.8405   0.8530   0.8578   0.8869   0.8932   0.9040
  0.9121   0.9347   0.9651   0.9718   0.9941   1.0088   1.0350   1.0506
  1.0571   1.0601   1.0890   1.1103   1.1140   1.1287   1.1409   1.1481
  1.1576   1.1682   1.1830   1.1863   1.1986   1.2049   1.2145   1.2257
  1.2312   1.2500   1.2522   1.2611   1.2668   1.2701   1.2817   1.2998
  1.3056   1.3187   1.3351   1.3370   1.3557   1.3629   1.3734   1.3944
  1.4065   1.4146   1.4261   1.4322   1.4328   1.4479   1.4561   1.4576
  1.4711   1.4957   1.5072   1.5139   1.5261   1.5389   1.5451   1.5701
  1.5721   1.5854   1.6134   1.6239   1.6310   1.6503   1.6577   1.6772
  1.6881   1.7041   1.7102   1.7244   1.7478   1.7749   1.7885   1.8107
  1.8437   1.8479   1.8645   1.9053   1.9394   1.9552   1.9618   2.0168
  2.0228   2.0555   2.0765   2.1118   2.1396   2.1600   2.1680   2.1986
  2.2410   2.2803   2.3263   2.3330   2.3497   2.3802   2.4295   2.4370
  2.4720   2.5754   2.6232   2.6435   2.6795   2.7058   2.7136   2.7245
  2.7622   2.8106   2.8223   2.8304   2.8383   2.8474   2.8777   2.8888
  2.8982   2.9118   2.9381   2.9555   2.9693   2.9719   2.9827   2.9924
  3.0058   3.0111   3.0405   3.0483   3.0759   3.0865   3.1176   3.1362
  3.1510   3.1784   3.1900   3.2097   3.2300   3.2326   3.2513   3.2752
  3.3003   3.3104   3.3327   3.3498   3.3737   3.3815   3.3996   3.4101
  3.4130   3.4289   3.4330   3.4631   3.4821   3.5026   3.5116   3.5207
  3.5358   3.5510   3.5740   3.5820   3.6074   3.6299   3.6463   3.6614
  3.6698   3.7019   3.7194   3.7324   3.7536   3.7706   3.7715   3.7816
  3.8029   3.8179   3.8313   3.8508   3.8635   3.8736   3.8819   3.8991
  3.9195   3.9318   3.9442   3.9677   3.9766   3.9980   4.0132   4.0226
  4.0369   4.0754   4.0982   4.1284   4.1469   4.1692   4.1852   4.2061
  4.2332   4.2388   4.2527   4.2825   4.3000   4.3257   4.3340   4.3359
  4.3429   4.3717   4.3851   4.4014   4.4155   4.4409   4.4525   4.4670
  4.4867   4.5078   4.5369   4.5602   4.5801   4.6038   4.6240   4.6411
  4.6588   4.7080   4.7128   4.7441   4.7548   4.7811   4.8087   4.8714
  4.8853   4.9009   4.9439   4.9703   5.0234   5.0388   5.0639   5.0881
  5.1086   5.1217   5.1717   5.2190   5.2302   5.2605   5.2700   5.2760
  5.2971   5.3094   5.3308   5.3439   5.3533   5.3935   5.4018   5.4061
  5.4436   5.4643   5.5020   5.5389   5.5394   5.5765   5.6063   5.6644
  5.6700   5.6872   5.6906   5.7247   5.7451   5.7669   5.7961   5.8549
  5.8800   5.9034   5.9539   6.0093   6.0284   6.0932   6.2955   6.4428
  6.4505   6.5698   6.5911   6.6540   6.8865   6.9182   6.9834   7.1037
  7.1147   7.1362   7.2109   7.2551   7.2915   7.3093   7.3534   7.3734
  7.3907   7.4026   7.4311   7.4443   7.6360   7.7004   7.7851   7.8162
  7.8695   8.0257   8.0729  24.3238  24.5941  24.7331  24.7887  24.8059
 25.1374  25.3660  50.4217  50.5513  50.6006  50.6406
 
 Beta MOs
 -- Occupied --
-19.4527 -19.3986 -19.3433 -19.3413 -10.4130 -10.4064 -10.3888 -10.3543
-10.3542 -10.3500 -10.3493  -1.3125  -1.1684  -1.1533  -1.0010  -0.9583
 -0.8939  -0.8521  -0.8013  -0.7452  -0.7149  -0.6611  -0.6403  -0.6207
 -0.6067  -0.5879  -0.5848  -0.5690  -0.5491  -0.5370  -0.5186  -0.5056
 -0.5038  -0.4622  -0.4495  -0.4394  -0.4289  -0.3958  -0.3928  -0.3827
 -0.3260
 -- Virtual --
 -0.0338   0.0168   0.0266   0.0362   0.0399   0.0456   0.0551   0.0586
  0.0746   0.0792   0.0850   0.0972   0.1004   0.1150   0.1219   0.1314
  0.1358   0.1409   0.1446   0.1516   0.1555   0.1581   0.1619   0.1667
  0.1725   0.1802   0.1827   0.1854   0.1913   0.1946   0.1986   0.2041
  0.2062   0.2104   0.2172   0.2263   0.2326   0.2471   0.2582   0.2630
  0.2671   0.2732   0.2746   0.2806   0.2871   0.2956   0.3071   0.3133
  0.3151   0.3200   0.3315   0.3337   0.3402   0.3439   0.3493   0.3550
  0.3675   0.3730   0.3803   0.3865   0.3912   0.3934   0.3971   0.4052
  0.4115   0.4175   0.4196   0.4394   0.4444   0.4571   0.4595   0.4747
  0.4786   0.5059   0.5316   0.5488   0.5532   0.5797   0.5879   0.5933
  0.6015   0.6152   0.6175   0.6336   0.6474   0.6520   0.6620   0.6626
  0.6730   0.6842   0.6897   0.6958   0.7000   0.7146   0.7172   0.7220
  0.7369   0.7425   0.7559   0.7610   0.7705   0.7891   0.7978   0.8063
  0.8115   0.8313   0.8354   0.8406   0.8531   0.8580   0.8870   0.8938
  0.9042   0.9122   0.9352   0.9656   0.9739   0.9951   1.0099   1.0385
  1.0515   1.0575   1.0621   1.0900   1.1112   1.1145   1.1325   1.1430
  1.1519   1.1588   1.1719   1.1845   1.1891   1.2047   1.2111   1.2271
  1.2319   1.2357   1.2536   1.2581   1.2615   1.2696   1.2721   1.2831
  1.3009   1.3067   1.3216   1.3381   1.3404   1.3570   1.3645   1.3749
  1.3953   1.4076   1.4152   1.4303   1.4331   1.4343   1.4488   1.4572
  1.4602   1.4732   1.4967   1.5084   1.5160   1.5275   1.5463   1.5473
  1.5717   1.5742   1.5860   1.6162   1.6256   1.6330   1.6519   1.6619
  1.6798   1.6908   1.7145   1.7194   1.7315   1.7540   1.7837   1.7904
  1.8165   1.8467   1.8508   1.8756   1.9074   1.9453   1.9584   1.9657
  2.0173   2.0236   2.0587   2.0788   2.1154   2.1419   2.1671   2.1714
  2.1999   2.2456   2.2839   2.3362   2.3452   2.3549   2.3823   2.4301
  2.4386   2.4736   2.5771   2.6235   2.6482   2.6797   2.7068   2.7147
  2.7255   2.7626   2.8113   2.8229   2.8303   2.8387   2.8477   2.8787
  2.8891   2.8983   2.9128   2.9384   2.9560   2.9697   2.9723   2.9831
  2.9928   3.0060   3.0115   3.0412   3.0487   3.0760   3.0868   3.1183
  3.1364   3.1513   3.1788   3.1902   3.2098   3.2302   3.2333   3.2516
  3.2756   3.3003   3.3107   3.3332   3.3501   3.3740   3.3816   3.3999
  3.4104   3.4131   3.4293   3.4334   3.4633   3.4822   3.5031   3.5120
  3.5211   3.5358   3.5516   3.5744   3.5822   3.6076   3.6307   3.6465
  3.6617   3.6702   3.7023   3.7194   3.7328   3.7539   3.7708   3.7718
  3.7819   3.8033   3.8183   3.8315   3.8508   3.8640   3.8743   3.8821
  3.8995   3.9197   3.9320   3.9444   3.9680   3.9769   3.9982   4.0137
  4.0227   4.0372   4.0755   4.0986   4.1291   4.1473   4.1693   4.1855
  4.2064   4.2336   4.2390   4.2530   4.2827   4.3002   4.3262   4.3352
  4.3364   4.3432   4.3721   4.3853   4.4017   4.4157   4.4416   4.4528
  4.4674   4.4873   4.5092   4.5378   4.5615   4.5806   4.6248   4.6334
  4.6424   4.6592   4.7111   4.7161   4.7472   4.7647   4.7846   4.8114
  4.8785   4.8910   4.9162   4.9468   4.9721   5.0292   5.0524   5.0769
  5.1428   5.1445   5.1722   5.2030   5.2380   5.2527   5.2710   5.2907
  5.3057   5.3094   5.3182   5.3340   5.3474   5.3561   5.3955   5.4078
  5.4250   5.4572   5.4679   5.5101   5.5408   5.5523   5.5782   5.6113
  5.6667   5.6723   5.6887   5.6921   5.7250   5.7519   5.7726   5.8009
  5.8716   5.8802   5.9046   5.9542   6.0098   6.0287   6.0943   6.2968
  6.4625   6.4906   6.5813   6.5917   6.6542   6.9691   6.9972   7.0475
  7.1044   7.1366   7.1541   7.2373   7.2844   7.3069   7.3121   7.3539
  7.3756   7.3962   7.4235   7.4409   7.4848   7.6365   7.7009   7.7857
  7.8260   7.8730   8.0375   8.0944  24.3238  24.5942  24.7328  24.7888
 24.8061  25.1375  25.3660  50.4340  50.5613  50.6007  50.6406
 --------------------------------------------------------------
 
          Ground-State Mulliken Net Atomic Charges

     Atom                 Charge (a.u.)    Spin (a.u.)
  --------------------------------------------------------
      1 C                    -0.615962       0.010921
      2 C                    -0.071146      -0.009395
      3 C                    -0.342413       0.017759
      4 C                    -0.194847      -0.010129
      5 C                    -0.905862       0.018621
      6 C                     0.871629      -0.009747
      7 C                    -0.353542      -0.005119
      8 H                     0.302616       0.000531
      9 H                     0.242080       0.000924
     10 H                     0.327859      -0.001198
     11 H                     0.295115       0.001089
     12 H                     0.282870       0.000035
     13 H                     0.235534       0.000037
     14 O                    -0.398203      -0.000337
     15 H                     0.222530       0.000087
     16 H                     0.329010       0.000061
     17 O                    -0.423847      -0.000667
     18 H                     0.334702       0.000249
     19 O                     0.067525       0.313411
     20 O                    -0.205648       0.672866
  --------------------------------------------------------
  Sum of atomic charges =     0.000000
  Sum of spin   charges =     1.000000

 -----------------------------------------------------------------
                    Cartesian Multipole Moments
 -----------------------------------------------------------------
    Charge (ESU x 10^10)
                 0.0000
    Dipole Moment (Debye)
         X      -0.4720      Y      -1.3838      Z      -4.0267
       Tot       4.2839
    Quadrupole Moments (Debye-Ang)
        XX     -69.8071     XY       4.9713     YY     -63.4721
        XZ       9.0836     YZ      -2.5367     ZZ     -62.9827
    Octopole Moments (Debye-Ang^2)
       XXX     205.9549    XXY       1.9661    XYY      44.5321
       YYY      51.0461    XXZ     -51.2598    XYZ      11.8799
       YYZ      -6.4740    XZZ      79.2448    YZZ       5.8826
       ZZZ     -97.9951
    Hexadecapole Moments (Debye-Ang^3)
      XXXX   -1041.1864   XXXY    -119.0147   XXYY    -240.5997
      XYYY    -141.1899   YYYY    -583.5694   XXXZ     245.7424
      XXYZ      45.1867   XYYZ      61.9766   YYYZ     129.6370
      XXZZ    -350.8436   XYZZ     -44.4638   YYZZ    -243.0653
      XZZZ     230.9039   YZZZ     116.4475   ZZZZ    -919.3993
 -----------------------------------------------------------------
 Calculating analytic gradient of the SCF energy
 Gradient of CDS energy
            1           2           3           4           5           6
    1   0.0001721   0.0000879  -0.0000578  -0.0003044   0.0000036   0.0001880
    2  -0.0000685   0.0001558  -0.0002923  -0.0003743   0.0002269  -0.0000682
    3   0.0000501   0.0001821   0.0002547  -0.0000741  -0.0003665   0.0002358
            7           8           9          10          11          12
    1  -0.0002925  -0.0000615   0.0001796  -0.0000553  -0.0001385  -0.0000564
    2   0.0009573   0.0001601  -0.0000655  -0.0001583  -0.0001295   0.0000872
    3  -0.0004208   0.0001093   0.0000980   0.0001128  -0.0000799  -0.0001681
           13          14          15          16          17          18
    1  -0.0000854  -0.0001647   0.0001540   0.0002678  -0.0002734   0.0004370
    2  -0.0002262  -0.0002133  -0.0000304  -0.0000303  -0.0000406  -0.0000243
    3  -0.0000837   0.0002163   0.0002983  -0.0004364   0.0000926  -0.0000288
           19          20
    1  -0.0000433   0.0000434
    2   0.0000835   0.0000507
    3  -0.0000400   0.0000484
 Gradient of SCF Energy
            1           2           3           4           5           6
    1   0.0049405  -0.0080157   0.0037686   0.0052414  -0.0065003   0.0032791
    2  -0.0055662   0.0105442   0.0013997   0.0065243  -0.0176516   0.0166576
    3  -0.0108282   0.0018394  -0.0024343   0.0026710   0.0055444   0.0120012
            7           8           9          10          11          12
    1   0.0128068   0.0008469   0.0014839  -0.0013497  -0.0053341  -0.0044021
    2  -0.0127994   0.0047575  -0.0023933  -0.0053558  -0.0048615   0.0018789
    3   0.0028947   0.0007131   0.0035947   0.0033613  -0.0036501  -0.0097289
           13          14          15          16          17          18
    1  -0.0052528  -0.0018846  -0.0019889   0.0001686   0.0006134   0.0015116
    2   0.0008413   0.0171501   0.0047623  -0.0125912  -0.0065217   0.0034265
    3  -0.0084480   0.0115509   0.0036924  -0.0107427   0.0049805  -0.0059030
           19          20
    1   0.0049276  -0.0048601
    2  -0.0033535   0.0031518
    3   0.0029883  -0.0040966
 Max gradient component =       1.765E-02
 RMS gradient           =       6.988E-03
 Computing fast CPCM-SWIG gradient
 Updating gradient with PCM contributions...
 -- total gradient after adding PCM contribution --
---------------------------------------------------
  Atom         X              Y              Z     
---------------------------------------------------
   1       0.002011      -0.001143      -0.000089
   2      -0.001085      -0.000593      -0.001843
   3       0.000797      -0.000208       0.002313
   4      -0.000088       0.002867      -0.002592
   5      -0.005257      -0.006961      -0.002046
   6       0.002265       0.005893       0.006316
   7       0.000551      -0.001018      -0.000751
   8      -0.000106       0.000444      -0.000601
   9      -0.000276       0.000196       0.000321
  10       0.000050      -0.000060       0.000013
  11       0.000092       0.000122      -0.000162
  12       0.000319      -0.000137      -0.000202
  13       0.000294       0.000413      -0.000177
  14      -0.000599       0.000104       0.000148
  15       0.000020      -0.000300       0.000079
  16      -0.000054       0.000124      -0.000069
  17       0.000175       0.000334       0.000213
  18       0.000022      -0.000000       0.000146
  19       0.005362      -0.003811       0.002183
  20      -0.004493       0.003735      -0.003202
---------------------------------------------------
 Number of fixed atoms: 0
 Gradient time:  CPU 500.74 s  wall 71.72 s
 ----------------------------------------------------------------
             Standard Nuclear Orientation (Angstroms)
    I     Atom           X                Y                Z
 ----------------------------------------------------------------
    1      C      -0.2246312454    -0.1406229480     0.6812316659
    2      C      -0.8962708197    -1.1006579835     1.6599993495
    3      C      -1.9050123325    -2.0337328710     1.0524740837
    4      C      -2.4048884269    -1.8203990784    -0.1438156434
    5      C      -1.9931650146    -0.6247657862    -0.9381830473
    6      C      -1.0406229623     0.1491730903    -0.5683980956
    7      C      -0.6120799014     1.3745757315    -1.3305730341
    8      H      -0.0084242016     0.7836702763     1.2208442173
    9      H      -0.1274254345    -1.6446304907     2.1965827108
   10      H      -2.2052919215    -2.8849188781     1.6554878404
   11      H      -3.1330728420    -2.4919126758    -0.5728927087
   12      H      -2.5430120597    -0.4499516440    -1.8679941292
   13      H      -1.2519125412     1.5078664069    -2.2036353800
   14      O       0.7693736055     1.2809721831    -1.7325806501
   15      H      -0.6743555795     2.2648615985    -0.7114376588
   16      H       0.8268193472     0.6197626179    -2.4309991154
   17      O       1.0177990929    -0.7681211568     0.3093804444
   18      H       1.4035565357    -0.2116245589    -0.3829271369
   19      O      -1.5472168797    -0.3063480765     2.7230448260
   20      O      -2.4872365093     0.4142335373     2.2875906866
 ----------------------------------------------------------------
 Nuclear Repulsion Energy =         645.01938248 hartrees
 There are       42 alpha and       41 beta electrons
 Discretize the solute cavity surface with Lebedev spheres
	Using 110 Lebedev grid points for each H atom
	Using 194 Lebedev grid points for other atoms
	Atomic van der Waals radii will be scaled by 1.20
 Remove points where switching function is < 1.0e-08
 Keep 1479 surface tesserae and discard 1645 interior tesserae
 Molecular Surface Area = 170.285 Angst**2
 Applying Cartesian multipole field
    Component          Value
    ---------          -----
     (2,0,0)        1.00000E-11
     (0,2,0)        2.00000E-11
     (0,0,2)       -3.00000E-11
 Nucleus-field energy     =    -0.0000000056 hartrees
 Requested basis set is 6-311++G(2df,2p)
 There are 142 shells and 464 basis functions
 A cutoff of  1.0D-12 yielded   9028 shell pairs
 There are     97046 function pairs (    121164 Cartesian)
 Smallest overlap matrix eigenvalue = 1.30E-06
 Guess from superposition of atomic densities
[...]
    1  -0.0000186   0.0000592
    2   0.0000835  -0.0000161
    3  -0.0000840   0.0001042
 Gradient of SCF Energy
            1           2           3           4           5           6
    1   0.0076099  -0.0130958   0.0073336   0.0049012   0.0060683  -0.0071930
    2  -0.0052327   0.0099845  -0.0003553   0.0064828  -0.0105702   0.0136410
    3  -0.0063915   0.0048168  -0.0069196   0.0086549   0.0053383   0.0041617
            7           8           9          10          11          12
    1   0.0094217   0.0030002   0.0018505  -0.0013449  -0.0055805  -0.0062805
    2  -0.0099607   0.0020575  -0.0019705  -0.0057056  -0.0062711   0.0025181
    3   0.0045788   0.0003416   0.0031258   0.0032015  -0.0042793  -0.0116998
           13          14          15          16          17          18
    1  -0.0059225   0.0002640  -0.0008288   0.0002525  -0.0049568   0.0060233
    2   0.0005523   0.0198206   0.0027113  -0.0154106  -0.0101984   0.0063107
    3  -0.0083149   0.0138400   0.0011599  -0.0128529   0.0091519  -0.0105708
           19          20
    1   0.0015024  -0.0030247
    2   0.0011534   0.0004430
    3   0.0032430  -0.0005854
 Max gradient component =       1.982E-02
 RMS gradient           =       7.276E-03
 Computing fast CPCM-SWIG gradient
 Updating gradient with PCM contributions...
 -- total gradient after adding PCM contribution --
---------------------------------------------------
  Atom         X              Y              Z     
---------------------------------------------------
   1       0.000048      -0.000011      -0.000004
   2       0.000004       0.000038       0.000012
   3       0.000010       0.000006       0.000027
   4       0.000035       0.000041      -0.000064
   5      -0.000084      -0.000094      -0.000014
   6       0.000017       0.000017       0.000101
   7      -0.000021       0.000042      -0.000000
   8      -0.000014       0.000014      -0.000004
   9      -0.000003      -0.000022       0.000013
  10       0.000015      -0.000025      -0.000013
  11       0.000028      -0.000018      -0.000020
  12       0.000030      -0.000007      -0.000012
  13       0.000002      -0.000006      -0.000006
  14      -0.000011       0.000040       0.000023
  15      -0.000042       0.000015       0.000033
  16       0.000024      -0.000018       0.000004
  17      -0.000045      -0.000011      -0.000019
  18       0.000018       0.000038       0.000046
  19       0.000023      -0.000106       0.000049
  20      -0.000034       0.000065      -0.000152
---------------------------------------------------
 Number of fixed atoms: 0
 Gradient time:  CPU 451.49 s  wall 64.50 s
 Geometry Optimization Parameters
   NAtoms,    NIC,     NZ,  NCons,   NDum,   NFix, NCnnct, MaxDiis
       20     141       0       0       0       0       0       0

 Cartesian Hessian Update
 Hessian updated using Powell/Murtagh-Sargent update
  Mixing factors:     0.998620 Powell                      0.001380 Murtagh-Sargent


** GEOMETRY OPTIMIZATION IN DELOCALIZED INTERNAL COORDINATES **
   Searching for a Transition State

   Optimization Cycle:  21

                       Coordinates (Angstroms)
     ATOM                X               Y               Z
      1  C        -0.0946018658   -0.2862875634    0.6584936930
      2  C        -0.9326906499   -1.0061475377    1.7100632223
      3  C        -1.8049912755   -2.0592312116    1.0991852543
      4  C        -2.2677558347   -1.9023689136   -0.1532427075
      5  C        -1.9730784569   -0.6987579639   -0.8846737787
      6  C        -1.0618262935    0.2009376215   -0.3951239502
      7  C        -0.7389229415    1.4858086963   -1.0928020472
      8  H         0.4026426038    0.5606858408    1.1328384958
      9  H        -0.3165609268   -1.3998000679    2.5146230562
     10  H        -2.0650997134   -2.9247158149    1.6922010420
     11  H        -2.9196955240   -2.6409021586   -0.5990721757
     12  H        -2.5357727604   -0.4668139355   -1.7797943829
     13  H        -1.4514898466    1.6798452780   -1.8951024852
     14  O         0.6011408131    1.4552179675   -1.5928950157
     15  H        -0.7759790141    2.3107298853   -0.3838444184
     16  H         0.6397831435    0.8067889401   -2.3052263705
     17  O         0.8605859997   -1.1965739121    0.1325468757
     18  H         1.3882957713   -0.7189683985   -0.5180206375
     19  O        -1.6841331169    0.0743227755    2.3022829550
     20  O        -2.3935963961    0.6843215779    1.2697162947
   Point Group: c1    Number of degrees of freedom:    54


   Energy is   -572.865444686

 Hessian updated using Powell/Murtagh-Sargent update
  Mixing factors:     0.997841 Powell                      0.002159 Murtagh-Sargent

 54 Hessian modes will be used to form the next step
  Hessian Eigenvalues:
    -0.407288    0.002521    0.012468    0.013172    0.015937    0.016289
     0.017996    0.021884    0.022501    0.023312    0.026802    0.045818
     0.052430    0.062769    0.067043    0.071377    0.074935    0.076365
     0.084246    0.105047    0.116456    0.129812    0.137406    0.158312
     0.158537    0.159296    0.159885    0.165236    0.188828    0.209991
     0.217499    0.221673    0.231924    0.270283    0.296849    0.303709
     0.323516    0.325102    0.339820    0.346533    0.347539    0.350873
     0.352602    0.353304    0.354826    0.378052    0.393602    0.409425
     0.429111    0.489075    0.536802    0.543204    0.552275    0.578019

 Transition state search - taking P-RFO step
 Searching for Lamda that Maximizes Along the Lowest mode
 Value Taken    Lamda =   0.00000019
 Searching for Lamda that Minimizes Along All other modes
 Value Taken    Lamda =  -0.00000041
 Step Taken.  Stepsize is  0.004103

                             Maximum     Tolerance    Cnvgd?
         Gradient           0.000190      0.000300     YES
         Displacement       0.001621      0.001200      NO
         Energy change     -0.000000      0.000001     YES

 Final energy is   -572.865444686409     


 ******************************
 **  OPTIMIZATION CONVERGED  **
 ******************************

                       Coordinates (Angstroms)
     ATOM                X               Y               Z
      1  C        -0.0946018658   -0.2862875634    0.6584936930
      2  C        -0.9326906499   -1.0061475377    1.7100632223
      3  C        -1.8049912755   -2.0592312116    1.0991852543
      4  C        -2.2677558347   -1.9023689136   -0.1532427075
      5  C        -1.9730784569   -0.6987579639   -0.8846737787
      6  C        -1.0618262935    0.2009376215   -0.3951239502
      7  C        -0.7389229415    1.4858086963   -1.0928020472
      8  H         0.4026426038    0.5606858408    1.1328384958
      9  H        -0.3165609268   -1.3998000679    2.5146230562
     10  H        -2.0650997134   -2.9247158149    1.6922010420
     11  H        -2.9196955240   -2.6409021586   -0.5990721757
     12  H        -2.5357727604   -0.4668139355   -1.7797943829
     13  H        -1.4514898466    1.6798452780   -1.8951024852
     14  O         0.6011408131    1.4552179675   -1.5928950157
     15  H        -0.7759790141    2.3107298853   -0.3838444184
     16  H         0.6397831435    0.8067889401   -2.3052263705
     17  O         0.8605859997   -1.1965739121    0.1325468757
     18  H         1.3882957713   -0.7189683985   -0.5180206375
     19  O        -1.6841331169    0.0743227755    2.3022829550
     20  O        -2.3935963961    0.6843215779    1.2697162947

Z-matrix Print:
$molecule
0 2
O 
O  1 1.393424
C  1 1.443193 2 106.784017
H  3 1.087150 1 105.217920 2 174.568220 0
C  3 1.497687 1 112.987609 2 -62.735502 0
H  5 1.080920 3 118.644990 1 -94.388062 0
C  5 1.344371 3 119.896163 1 84.322841 0
H  7 1.081305 5 120.794128 3 -178.374635 0
C  7 1.438925 5 120.043625 3 -2.669526 0
H  9 1.082434 7 119.546750 5 -165.011079 0
C  9 1.370946 7 120.234805 5 9.789155 0
C  11 1.497303 9 122.691003 7 -178.432493 0
H  12 1.088342 11 109.849628 9 131.449567 0
H  12 1.090453 11 110.768941 9 11.236751 0
O  12 1.430664 11 110.275082 9 -112.066255 0
H  15 0.964038 12 108.072098 11 68.160333 0
C  11 1.510967 9 117.572946 7 18.522783 0
H  17 1.090697 11 110.163128 9 -166.290171 0
O  17 1.420431 11 112.266831 9 69.952866 0
H  19 0.964273 17 107.482292 11 63.512308 0
$end

 
 --------------------------------------------------------------
 
                    Orbital Energies (a.u.)
 --------------------------------------------------------------
 
 Alpha MOs
 -- Occupied --
-19.4053 -19.3851 -19.3472 -19.3443 -10.4085 -10.4066 -10.3929 -10.3858
-10.3711 -10.3612 -10.3583  -1.2667  -1.1715  -1.1587  -1.0053  -0.9833
 -0.8995  -0.8603  -0.8081  -0.7491  -0.7155  -0.6669  -0.6507  -0.6229
 -0.5997  -0.5873  -0.5808  -0.5693  -0.5552  -0.5458  -0.5244  -0.5093
 -0.5008  -0.4691  -0.4520  -0.4501  -0.4377  -0.4100  -0.4042  -0.3903
 -0.3531  -0.3146
 -- Virtual --
  0.0081   0.0253   0.0358   0.0383   0.0446   0.0553   0.0579   0.0716
  0.0803   0.0842   0.0976   0.1057   0.1070   0.1226   0.1240   0.1350
  0.1381   0.1413   0.1464   0.1503   0.1576   0.1583   0.1632   0.1696
  0.1726   0.1766   0.1784   0.1886   0.1908   0.1972   0.1998   0.2057
  0.2139   0.2143   0.2201   0.2353   0.2399   0.2529   0.2628   0.2665
  0.2772   0.2792   0.2856   0.2959   0.3053   0.3082   0.3160   0.3222
  0.3249   0.3317   0.3390   0.3431   0.3474   0.3554   0.3597   0.3630
  0.3723   0.3778   0.3834   0.3902   0.3918   0.4014   0.4026   0.4124
  0.4181   0.4291   0.4320   0.4450   0.4507   0.4660   0.4717   0.4913
  0.5051   0.5277   0.5355   0.5412   0.5652   0.5837   0.5890   0.5979
  0.6093   0.6188   0.6275   0.6423   0.6425   0.6519   0.6663   0.6718
  0.6849   0.6956   0.7009   0.7078   0.7183   0.7216   0.7252   0.7356
  0.7382   0.7548   0.7700   0.7764   0.7841   0.7915   0.8133   0.8200
  0.8234   0.8425   0.8500   0.8596   0.8640   0.8765   0.8913   0.9060
  0.9292   0.9434   0.9688   0.9880   1.0049   1.0238   1.0457   1.0653
  1.0698   1.0899   1.0996   1.1133   1.1168   1.1337   1.1394   1.1610
  1.1694   1.1812   1.1926   1.1974   1.2084   1.2211   1.2257   1.2439
  1.2551   1.2618   1.2692   1.2778   1.2857   1.2900   1.2940   1.3050
  1.3114   1.3195   1.3291   1.3424   1.3567   1.3734   1.3843   1.3961
  1.4098   1.4195   1.4239   1.4268   1.4383   1.4541   1.4587   1.4732
  1.4830   1.5071   1.5151   1.5344   1.5481   1.5521   1.5626   1.5657
  1.5764   1.5982   1.6103   1.6238   1.6320   1.6569   1.6627   1.6646
  1.6998   1.7158   1.7315   1.7581   1.7669   1.7989   1.8243   1.8321
  1.8658   1.8847   1.9202   1.9286   1.9426   1.9780   1.9910   2.0040
  2.0247   2.0620   2.0941   2.1021   2.1349   2.1694   2.1896   2.2476
  2.2731   2.2816   2.3111   2.3264   2.3739   2.3958   2.4303   2.4469
  2.4756   2.6115   2.6303   2.6781   2.7113   2.7248   2.7285   2.7465
  2.7733   2.8006   2.8176   2.8228   2.8449   2.8570   2.8680   2.8825
  2.9036   2.9300   2.9404   2.9564   2.9602   2.9633   2.9712   2.9842
  3.0047   3.0186   3.0546   3.0783   3.0837   3.0945   3.1198   3.1380
  3.1635   3.1860   3.2003   3.2049   3.2337   3.2559   3.2676   3.2874
  3.3098   3.3287   3.3447   3.3571   3.3700   3.3894   3.3983   3.4165
  3.4266   3.4379   3.4584   3.4696   3.4868   3.5040   3.5226   3.5284
  3.5380   3.5625   3.5984   3.6113   3.6296   3.6472   3.6602   3.6750
  3.6860   3.7121   3.7230   3.7284   3.7455   3.7635   3.7712   3.8043
  3.8094   3.8163   3.8284   3.8418   3.8644   3.8698   3.8842   3.8955
  3.9158   3.9384   3.9484   3.9604   3.9821   3.9947   3.9980   4.0311
  4.0579   4.0879   4.0930   4.1374   4.1462   4.1604   4.1716   4.2160
  4.2193   4.2296   4.2427   4.2770   4.3060   4.3240   4.3356   4.3512
  4.3630   4.3786   4.3985   4.4173   4.4267   4.4387   4.4493   4.4794
  4.5058   4.5209   4.5506   4.5614   4.5974   4.6023   4.6366   4.6476
  4.6540   4.6830   4.7215   4.7278   4.7437   4.7751   4.8048   4.8535
  4.8806   4.8992   4.9188   4.9645   4.9866   5.0624   5.1012   5.1610
  5.1838   5.2216   5.2357   5.2507   5.2697   5.2858   5.2927   5.2988
  5.3131   5.3209   5.3373   5.3540   5.3840   5.3909   5.4136   5.4640
  5.4914   5.5002   5.5073   5.5322   5.5888   5.5966   5.6137   5.6650
  5.6826   5.6871   5.6976   5.7377   5.7464   5.7630   5.8093   5.8636
  5.8977   5.9174   5.9563   6.0277   6.0588   6.0846   6.1510   6.2043
  6.3189   6.5962   6.6019   6.6839   6.9849   7.0264   7.0589   7.1030
  7.1236   7.1685   7.2584   7.3025   7.3117   7.3219   7.3563   7.3908
  7.4206   7.4375   7.4686   7.4958   7.6546   7.7152   7.7842   7.8195
  7.8636   7.9612   8.1679  24.3877  24.6173  24.7538  24.7892  24.8344
 25.0819  25.2733  50.5193  50.5880  50.6069  50.6657
 
 Beta MOs
 -- Occupied --
-19.4029 -19.3701 -19.3474 -19.3444 -10.4085 -10.4061 -10.3929 -10.3862
-10.3660 -10.3599 -10.3578  -1.2528  -1.1714  -1.1588  -0.9894  -0.9734
 -0.8967  -0.8526  -0.8050  -0.7458  -0.7122  -0.6604  -0.6486  -0.6201
 -0.5951  -0.5821  -0.5734  -0.5631  -0.5537  -0.5446  -0.5178  -0.5031
 -0.4883  -0.4617  -0.4480  -0.4378  -0.4255  -0.4011  -0.3897  -0.3624
 -0.3282
 -- Virtual --
 -0.0597   0.0172   0.0258   0.0356   0.0388   0.0454   0.0553   0.0579
  0.0724   0.0803   0.0844   0.0980   0.1056   0.1101   0.1230   0.1284
  0.1366   0.1387   0.1420   0.1471   0.1525   0.1578   0.1582   0.1631
  0.1718   0.1731   0.1777   0.1794   0.1891   0.1924   0.1978   0.2020
  0.2080   0.2143   0.2167   0.2204   0.2358   0.2400   0.2533   0.2631
  0.2673   0.2780   0.2801   0.2871   0.2974   0.3060   0.3083   0.3176
  0.3241   0.3254   0.3327   0.3399   0.3443   0.3484   0.3560   0.3606
  0.3638   0.3735   0.3789   0.3843   0.3906   0.3930   0.4021   0.4029
  0.4126   0.4190   0.4295   0.4339   0.4461   0.4515   0.4667   0.4732
  0.4924   0.5057   0.5288   0.5361   0.5423   0.5669   0.5850   0.5905
  0.6015   0.6115   0.6199   0.6292   0.6437   0.6442   0.6550   0.6685
  0.6754   0.6861   0.6967   0.7025   0.7085   0.7196   0.7222   0.7266
  0.7366   0.7404   0.7566   0.7719   0.7793   0.7859   0.7953   0.8138
  0.8228   0.8248   0.8446   0.8533   0.8605   0.8662   0.8791   0.8933
  0.9076   0.9321   0.9440   0.9713   0.9889   1.0067   1.0248   1.0467
  1.0668   1.0705   1.0912   1.1011   1.1150   1.1177   1.1356   1.1406
  1.1625   1.1714   1.1823   1.1969   1.2005   1.2102   1.2229   1.2288
  1.2449   1.2569   1.2636   1.2707   1.2788   1.2872   1.2921   1.2980
  1.3064   1.3136   1.3228   1.3311   1.3470   1.3591   1.3762   1.3897
  1.3986   1.4120   1.4206   1.4269   1.4308   1.4406   1.4561   1.4616
  1.4748   1.4858   1.5093   1.5162   1.5386   1.5499   1.5547   1.5645
  1.5686   1.5784   1.5994   1.6122   1.6267   1.6340   1.6592   1.6645
  1.6662   1.7034   1.7191   1.7338   1.7595   1.7709   1.8021   1.8307
  1.8420   1.8696   1.8880   1.9240   1.9380   1.9468   1.9808   1.9961
  2.0093   2.0296   2.0636   2.1004   2.1054   2.1400   2.1716   2.1902
  2.2540   2.2765   2.2836   2.3156   2.3279   2.3766   2.3990   2.4310
  2.4514   2.4768   2.6147   2.6331   2.6812   2.7172   2.7278   2.7307
  2.7540   2.7791   2.8050   2.8241   2.8271   2.8489   2.8593   2.8737
  2.8866   2.9176   2.9386   2.9454   2.9615   2.9662   2.9738   2.9806
  2.9891   3.0109   3.0250   3.0566   3.0805   3.0891   3.0983   3.1228
  3.1399   3.1657   3.1924   3.2041   3.2101   3.2370   3.2601   3.2734
  3.2896   3.3123   3.3328   3.3506   3.3634   3.3748   3.3955   3.4041
  3.4182   3.4341   3.4402   3.4618   3.4766   3.4940   3.5071   3.5258
  3.5326   3.5426   3.5683   3.6069   3.6147   3.6328   3.6511   3.6711
  3.6783   3.6902   3.7159   3.7259   3.7325   3.7489   3.7685   3.7770
  3.8062   3.8122   3.8199   3.8334   3.8469   3.8673   3.8737   3.8872
  3.8998   3.9193   3.9405   3.9510   3.9636   3.9842   3.9986   4.0033
  4.0330   4.0625   4.0921   4.0960   4.1430   4.1481   4.1638   4.1745
  4.2177   4.2222   4.2338   4.2465   4.2806   4.3086   4.3251   4.3396
  4.3581   4.3657   4.3813   4.4004   4.4199   4.4302   4.4420   4.4540
  4.4822   4.5098   4.5263   4.5555   4.5661   4.5996   4.6093   4.6414
  4.6547   4.6618   4.6895   4.7254   4.7355   4.7490   4.7831   4.8080
  4.8613   4.8900   4.9061   4.9286   4.9724   4.9977   5.0804   5.1122
  5.1787   5.2021   5.2389   5.2570   5.2661   5.2828   5.2952   5.3053
  5.3064   5.3188   5.3311   5.3429   5.3592   5.3922   5.4079   5.4296
  5.4738   5.5026   5.5109   5.5179   5.5411   5.5906   5.6027   5.6180
  5.6693   5.6848   5.6908   5.7004   5.7437   5.7525   5.7659   5.8172
  5.8728   5.9016   5.9190   5.9577   6.0299   6.0639   6.0879   6.1596
  6.2159   6.3368   6.5984   6.6066   6.6862   6.9999   7.0489   7.1042
  7.1118   7.1272   7.2258   7.2893   7.3028   7.3139   7.3262   7.3567
  7.3931   7.4288   7.4399   7.4818   7.5239   7.6549   7.7164   7.7851
  7.8301   7.8636   7.9786   8.1754  24.3888  24.6187  24.7540  24.7892
 24.8348  25.0840  25.2752  50.5300  50.5881  50.6093  50.6656
 --------------------------------------------------------------
 
          Ground-State Mulliken Net Atomic Charges

     Atom                 Charge (a.u.)    Spin (a.u.)
  --------------------------------------------------------
      1 C                    -0.158491       0.039813
      2 C                    -0.326954      -0.005738
      3 C                    -0.149818       0.210947
      4 C                    -0.368204      -0.069700
      5 C                    -0.671852       0.372167
      6 C                     0.584799      -0.099394
      7 C                    -0.411109      -0.010520
      8 H                     0.328983      -0.000408
      9 H                     0.267453       0.002343
     10 H                     0.322937      -0.005893
     11 H                     0.296997       0.003371
     12 H                     0.302846      -0.006454
     13 H                     0.233746       0.000421
     14 O                    -0.392282      -0.003381
     15 H                     0.225118      -0.000959
     16 H                     0.325333      -0.000561
     17 O                    -0.400180      -0.000989
     18 H                     0.341989       0.001315
     19 O                    -0.087264       0.075598
     20 O                    -0.264046       0.498023
  --------------------------------------------------------
  Sum of atomic charges =     0.000000
  Sum of spin   charges =     1.000000

 -----------------------------------------------------------------
                    Cartesian Multipole Moments
 -----------------------------------------------------------------
    Charge (ESU x 10^10)
                 0.0000
    Dipole Moment (Debye)
         X       0.8455      Y      -2.7038      Z      -4.8341
       Tot       5.6031
    Quadrupole Moments (Debye-Ang)
        XX     -70.0649     XY       7.0891     YY     -65.3409
        XZ      10.7562     YZ      -3.6674     ZZ     -60.4927
    Octopole Moments (Debye-Ang^2)
       XXX     218.5469    XXY      -4.2190    XYY      43.2309
       YYY      41.8546    XXZ     -48.7478    XYZ      13.6906
       YYZ      -4.3371    XZZ      75.3085    YZZ       1.9398
       ZZZ     -72.1761
    Hexadecapole Moments (Debye-Ang^3)
      XXXX   -1011.8254   XXXY     -80.4277   XXYY    -244.0443
      XYYY     -88.5428   YYYY    -658.7718   XXXZ     203.3117
      XXYZ      37.6285   XYYZ      48.3912   YYYZ     112.8587
      XXZZ    -286.1346   XYZZ     -30.5165   YYZZ    -217.4496
      XZZZ     166.1078   YZZZ      90.0758   ZZZZ    -654.6918
 -----------------------------------------------------------------
 Total job time:  10982.98s(wall), 85592.76s(cpu) 
 Wed Feb 15 10:46:53 2023

        *************************************************************
        *                                                           *
        *  Thank you very much for using Q-Chem.  Have a nice day.  *
        *                                                           *
        *************************************************************


