
Running Job 1 of 2 Q_in.in
qchem Q_in.in_257697.0 /scratch/ari.fischer/qChem1497842.hpc-mn1/qchem257697/ 0
/usr/local/qchem-5.4.1/exe/qcprog.exe_s Q_in.in_257697.0 /scratch/ari.fischer/qChem1497842.hpc-mn1/qchem257697/
                  Welcome to Q-Chem
     A Quantum Leap Into The Future Of Chemistry


 Q-Chem 5.4, Q-Chem, Inc., Pleasanton, CA (2021)

 License issued to: Nanyang Technological University (site)

 E. Epifanovsky,  A. T. B. Gilbert,  Xintian Feng,  Joonho Lee,  Yuezhi Mao,  
 N. Mardirossian,  P. Pokhilko,  A. White,  M. Wormit,  M. P. Coons,  
 A. L. Dempwolff,  Zhengting Gan,  D. Hait,  P. R. Horn,  L. D. Jacobson,  
 I. Kaliman,  J. Kussmann,  A. W. Lange,  Ka Un Lao,  D. S. Levine,  Jie Liu,  
 S. C. McKenzie,  A. F. Morrison,  K. Nanda,  F. Plasser,  D. R. Rehn,  
 M. L. Vidal,  Zhi-Qiang You,  Ying Zhu,  B. Alam,  B. Albrecht,  
 A. Aldossary,  E. Alguire,  J. H. Andersen,  D. Barton,  K. Begam,  A. Behn,  
 Y. A. Bernard,  E. J. Berquist,  H. Burton,  A. Carreras,  K. Carter-Fenk,  
 R. Chakraborty,  A. D. Chien,  K. D. Closser,  V. Cofer-Shabica,  
 S. Dasgupta,  Jia Deng,  M. de Wergifosse,  M. Diedenhofen,  Hainam Do,  
 S. Ehlert,  Po-Tung Fang,  S. Fatehi,  Qingguo Feng,  T. Friedhoff,  
 J. Gayvert,  Qinghui Ge,  G. Gidofalvi,  M. Goldey,  J. Gomes,  
 C. Gonzalez-Espinoza,  S. Gulania,  A. Gunina,  M. W. D. Hanson-Heine,  
 P. H. P. Harbach,  A. W. Hauser,  M. F. Herbst,  M. Hernandez Vera,  
 M. Hodecker,  Z. C. Holden,  S. Houck,  Xunkun Huang,  Kerwin Hui,  
 B. C. Huynh,  M. Ivanov,  Hyunjun Ji,  Hanjie Jiang,  B. Kaduk,  S. Kaehler,  
 K. Khistyaev,  Jaehoon Kim,  P. Klunzinger,  Z. Koczor-Benda,  
 Joong Hoon Koh,  D. Kosenkov,  L. Koulias,  T. Kowalczyk,  C. M. Krauter,  
 K. Kue,  A. Kunitsa,  T. Kus,  A. Landau,  K. V. Lawler,  D. Lefrancois,  
 S. Lehtola,  Rain Li,  Yi-Pei Li,  Jiashu Liang,  M. Liebenthal,  
 Hung-Hsuan Lin,  You-Sheng Lin,  Fenglai Liu,  Kuan-Yu Liu,  
 M. Loipersberger,  A. Luenser,  A. Manjanath,  P. Manohar,  E. Mansoor,  
 S. F. Manzer,  Shan-Ping Mao,  A. V. Marenich,  T. Markovich,  S. Mason,  
 S. A. Maurer,  P. F. McLaughlin,  M. F. S. J. Menger,  J.-M. Mewes,  
 S. A. Mewes,  P. Morgante,  J. W. Mullinax,  K. J. Oosterbaan,  G. Paran,  
 Alexander C. Paul,  Suranjan K. Paul,  F. Pavosevic,  Zheng Pei,  S. Prager,  
 E. I. Proynov,  E. Ramos,  B. Rana,  A. E. Rask,  A. Rettig,  R. M. Richard,  
 F. Rob,  E. Rossomme,  T. Scheele,  M. Scheurer,  M. Schneider,  
 N. Sergueev,  S. M. Sharada,  W. Skomorowski,  D. W. Small,  C. J. Stein,  
 Yu-Chuan Su,  E. J. Sundstrom,  Zhen Tao,  J. Thirman,  T. Tsuchimochi,  
 N. M. Tubman,  S. P. Veccham,  O. Vydrov,  J. Wenzel,  J. Witte,  A. Yamada,  
 Kun Yao,  S. Yeganeh,  S. R. Yost,  A. Zech,  Igor Ying Zhang,  Xing Zhang,  
 Yu Zhang,  D. Zuev,  A. Aspuru-Guzik,  A. T. Bell,  N. A. Besley,  
 K. B. Bravaya,  B. R. Brooks,  D. Casanova,  Jeng-Da Chai,  S. Coriani,  
 C. J. Cramer,  A. E. DePrince, III,  R. A. DiStasio Jr.,  A. Dreuw,  
 B. D. Dunietz,  T. R. Furlani,  W. A. Goddard III,  S. Grimme,  
 S. Hammes-Schiffer,  T. Head-Gordon,  W. J. Hehre,  Chao-Ping Hsu,  
 T.-C. Jagau,  Yousung Jung,  A. Klamt,  Jing Kong,  D. S. Lambrecht,  
 WanZhen Liang,  N. J. Mayhall,  C. W. McCurdy,  J. B. Neaton,  
 C. Ochsenfeld,  J. A. Parkhill,  R. Peverati,  V. A. Rassolov,  Yihan Shao,  
 L. V. Slipchenko,  T. Stauch,  R. P. Steele,  J. E. Subotnik,  
 A. J. W. Thom,  A. Tkatchenko,  D. G. Truhlar,  T. Van Voorhis,  
 T. A. Wesolowski,  K. B. Whaley,  H. L. Woodcock III,  P. M. Zimmerman,  
 S. Faraji,  P. M. W. Gill,  M. Head-Gordon,  J. M. Herbert,  A. I. Krylov

 Additional authors for Version 5.4.1: 
 S. Kotaru,  Shaozhi Li,  Xiangyuan Li,  F. Matz,  A. Molle,  Haisheng Ren,  
 Yingli Su,  Hung-Yi Tsai,  C. Utku,  Fang Wang

 Contributors to earlier versions of Q-Chem not listed above: 
 R. D. Adamson,  B. Austin,  R. Baer,  J. Baker,  G. J. O. Beran,  
 K. Brandhorst,  S. T. Brown,  E. F. C. Byrd,  A. K. Chakraborty,  
 G. K. L. Chan,  Chun-Min Chang,  Yunqing Chen,  C.-L. Cheng,  
 Siu Hung Chien,  D. M. Chipman,  D. L. Crittenden,  H. Dachsel,  
 R. J. Doerksen,  A. D. Dutoi,  R. G. Edgar,  J. Fosso-Tande,  
 L. Fusti-Molnar,  D. Ghosh,  A. Ghysels,  A. Golubeva-Zadorozhnaya,  
 J. Gonthier,  M. S. Gordon,  S. R. Gwaltney,  G. Hawkins,  J. E. Herr,  
 A. Heyden,  S. Hirata,  E. G. Hohenstein,  G. Kedziora,  F. J. Keil,  
 C. Kelley,  Jihan Kim,  R. A. King,  R. Z. Khaliullin,  P. P. Korambath,  
 W. Kurlancheek,  A. Laurent,  A. M. Lee,  M. S. Lee,  S. V. Levchenko,  
 Ching Yeh Lin,  D. Liotard,  E. Livshits,  R. C. Lochan,  I. Lotan,  
 L. A. Martinez-Martinez,  P. E. Maslen,  N. Nair,  D. P. O'Neill,  
 D. Neuhauser,  E. Neuscamman,  C. M. Oana,  R. Olivares-Amaya,  R. Olson,  
 T. M. Perrine,  B. Peters,  P. A. Pieniazek,  A. Prociuk,  Y. M. Rhee,  
 J. Ritchie,  M. A. Rohrdanz,  E. Rosta,  N. J. Russ,  H. F. Schaefer III,  
 M. W. Schmidt,  N. E. Schultz,  S. Sharma,  N. Shenvi,  C. D. Sherrill,  
 A. C. Simmonett,  A. Sodt,  T. Stein,  D. Stuck,  K. S. Thanthiriwatte,  
 V. Vanovschi,  L. Vogt,  Tao Wang,  A. Warshel,  M. A. Watson,  
 C. F. Williams,  Q. Wu,  X. Xu,  Jun Yang,  W. Zhang,  Yan Zhao

 Please cite Q-Chem as follows:
 Y. Shao et al., Mol. Phys. 113, 184-215 (2015)
 DOI: 10.1080/00268976.2014.952696

 Q-Chem 5.4.1 for Intel X86 EM64T Linux

 Parts of Q-Chem use Armadillo 9.800.1 (Horizon Scraper).
 http://arma.sourceforge.net/

 Q-Chem begins on Tue Mar 21 14:20:57 2023  

 Host: 
0

     Scratch files written to /scratch/ari.fischer/qChem1497842.hpc-mn1/qchem257697//
 Aug1521 |scratch|qcdevops|jenkins|workspace|build_RNUM 8249   
 Processing $rem in /usr/local/qchem-5.4.1/config/preferences:
 Processing $rem in /home/ari.fischer/.qchemrc:
 Now reading second FSM geometry
 Symmetry turned off for PCM/SM12/SMD calculation

 Checking the input file for inconsistencies... 	...done.

--------------------------------------------------------------
User input:
--------------------------------------------------------------
$molecule
0 2
C   -0.1607428   -0.3047236    0.7398258
C   -1.1226033   -0.9968050    1.6966966
C   -1.9332405   -2.0418842    0.9980318
C   -2.3570681   -1.7793265   -0.2906973
C   -2.0165720   -0.5871983   -0.9019243
C   -1.2196544    0.4079355   -0.1126192
C   -0.6503839    1.5510569   -0.9354047
H    0.4286932    0.4399940    1.2784620
H   -0.6613334   -1.3418223    2.6176084
H   -2.1919819   -2.9555339    1.5118383
H   -2.9581663   -2.5061068   -0.8215107
H   -2.3380641   -0.3402128   -1.9047923
H   -1.4397402    2.0582357   -1.4915283
O    0.3557680    1.0548523   -1.8148316
H   -0.1700704    2.2643356   -0.2691283
H   -0.0735153    0.6194986   -2.5599322
O    0.6610670   -1.2067333    0.0392669
H    1.0242825   -0.7211348   -0.7139303
O   -1.9584316    0.1165951    2.0847047
O   -2.0551562    0.9899454    0.9111271
O    0.7060657   -3.9929129    1.7597505
O    1.2300056   -3.2526000    2.5407059
****
C   -0.0018404   -0.2111117    0.7850936
C   -0.8543848   -0.9918940    1.7683029
C   -1.5196684   -2.2109419    1.1227945
C   -2.0055640   -1.9339193   -0.2641669
C   -1.8515154   -0.7350846   -0.8087086
C   -1.1496037    0.3646172   -0.0495379
C   -0.7251521    1.5393708   -0.9154633
H    0.5037787    0.6071459    1.3020087
H   -0.3494812   -1.2575758    2.6940203
H   -2.3275249   -2.5552363    1.7667101
H   -2.5227453   -2.7333166   -0.7779471
H   -2.2461336   -0.5083250   -1.7919990
H   -1.5761696    1.9429402   -1.4647114
O    0.3079242    1.1226202   -1.8034603
H   -0.3097393    2.3170653   -0.2783354
H   -0.0908970    0.6657619   -2.5524873
O    0.9076946   -1.0285597    0.0903002
H    1.2026555   -0.5187484   -0.6774832
O   -1.8818547   -0.0585635    2.1034149
O   -1.9996977    0.8785908    0.9829491
O   -0.5706882   -3.3225895    1.0426109
O   -0.3880469   -3.8825907    2.2045711
$end

$rem
BASIS = 6-311++G(2df,2p)
GUI = 2
JOB_TYPE = FSM
FSM_MODE = 2
METHOD = wB97M-v
MAX_SCF_CYCLES = 120
FSM_NGRAD = 6
FSM_NNODE = 20
SCF_CONVERGENCE = 7
THRESH = 12
SCF_ALGORITHM = DIIS_GDM
UNRESTRICTED = 1
solvent_method = SMD
$end

--------------------------------------------------------------
 ----------------------------------------------------------------
             Standard Nuclear Orientation (Angstroms)
    I     Atom           X                Y                Z
 ----------------------------------------------------------------
    1      C      -0.1607428000    -0.3047236000     0.7398258000
    2      C      -1.1226033000    -0.9968050000     1.6966966000
    3      C      -1.9332405000    -2.0418842000     0.9980318000
    4      C      -2.3570681000    -1.7793265000    -0.2906973000
    5      C      -2.0165720000    -0.5871983000    -0.9019243000
    6      C      -1.2196544000     0.4079355000    -0.1126192000
    7      C      -0.6503839000     1.5510569000    -0.9354047000
    8      H       0.4286932000     0.4399940000     1.2784620000
    9      H      -0.6613334000    -1.3418223000     2.6176084000
   10      H      -2.1919819000    -2.9555339000     1.5118383000
   11      H      -2.9581663000    -2.5061068000    -0.8215107000
   12      H      -2.3380641000    -0.3402128000    -1.9047923000
   13      H      -1.4397402000     2.0582357000    -1.4915283000
   14      O       0.3557680000     1.0548523000    -1.8148316000
   15      H      -0.1700704000     2.2643356000    -0.2691283000
   16      H      -0.0735153000     0.6194986000    -2.5599322000
   17      O       0.6610670000    -1.2067333000     0.0392669000
   18      H       1.0242825000    -0.7211348000    -0.7139303000
   19      O      -1.9584316000     0.1165951000     2.0847047000
   20      O      -2.0551562000     0.9899454000     0.9111271000
   21      O       0.7060657000    -3.9929129000     1.7597505000
   22      O       1.2300056000    -3.2526000000     2.5407059000
 ----------------------------------------------------------------
 Nuclear Repulsion Energy =         865.18003206 hartrees
 There are       50 alpha and       49 beta electrons
 Requested basis set is 6-311++G(2df,2p)
 There are 158 shells and 532 basis functions

 Total QAlloc Memory Limit 288000 MB
 Mega-Array Size       188 MB
 MEM_STATIC part       192 MB
 beginning FSman 

*******************************************
*******************************************
******** Starting FSM Calculation *********
*******************************************
*******************************************
-FSM parameters:
 Maximum displacement of each coordinate during optimization (Angstrom)      0.05
 Maximum optimization steps for each new node                                6
 The scaling factor for optimization (hartrees/Angstrom^2)                   1.75
 The number of LST interpolations used for reparameterization                100
-Aligning product structure to maximum coincidence with the reactant structure
 Total R --> P Distance 2.645605
 New node interpolation distace (Angstroms): 0.13
-Performing force calculation on reactant structure in state:0
 ----------------------------------------------------------------
             Standard Nuclear Orientation (Angstroms)
    I     Atom           X                Y                Z
 ----------------------------------------------------------------
    1      C      -0.1607428000    -0.3047236000     0.7398258000
    2      C      -1.1226033000    -0.9968050000     1.6966966000
    3      C      -1.9332405000    -2.0418842000     0.9980318000
    4      C      -2.3570681000    -1.7793265000    -0.2906973000
    5      C      -2.0165720000    -0.5871983000    -0.9019243000
    6      C      -1.2196544000     0.4079355000    -0.1126192000
    7      C      -0.6503839000     1.5510569000    -0.9354047000
    8      H       0.4286932000     0.4399940000     1.2784620000
    9      H      -0.6613334000    -1.3418223000     2.6176084000
   10      H      -2.1919819000    -2.9555339000     1.5118383000
   11      H      -2.9581663000    -2.5061068000    -0.8215107000
   12      H      -2.3380641000    -0.3402128000    -1.9047923000
   13      H      -1.4397402000     2.0582357000    -1.4915283000
   14      O       0.3557680000     1.0548523000    -1.8148316000
   15      H      -0.1700704000     2.2643356000    -0.2691283000
   16      H      -0.0735153000     0.6194986000    -2.5599322000
   17      O       0.6610670000    -1.2067333000     0.0392669000
   18      H       1.0242825000    -0.7211348000    -0.7139303000
   19      O      -1.9584316000     0.1165951000     2.0847047000
   20      O      -2.0551562000     0.9899454000     0.9111271000
   21      O       0.7060657000    -3.9929129000     1.7597505000
   22      O       1.2300056000    -3.2526000000     2.5407059000
 ----------------------------------------------------------------
 Nuclear Repulsion Energy =         865.18003206 hartrees
 There are       50 alpha and       49 beta electrons
 
 Citation of the SMD model:
 Marenich, A.V.; Cramer, C.J.; Truhlar, D.G.
 J. Phys. Chem. B 2009, 113, 6378-6396.
 iSolventCode=           1
 Solvent: water                                                           
 
 vradii
            1           2           3           4           5           6
    1   1.8500000   1.8500000   1.8500000   1.8500000   1.8500000   1.8500000
            7           8           9          10          11          12
    1   1.8500000   1.2000000   1.2000000   1.2000000   1.2000000   1.2000000
           13          14          15          16          17          18
    1   1.2000000   1.5200000   1.2000000   1.2000000   1.5200000   1.2000000
           19          20          21          22
    1   1.5200000   1.5200000   1.5200000   1.5200000
 Changing PCM_VDW_RADII to SMD_RADIUS
 Discretize the solute cavity surface with Lebedev spheres
	Using 110 Lebedev grid points for each H atom
	Using 194 Lebedev grid points for other atoms
	Atomic van der Waals radii will be scaled by 1.20
 Remove points where switching function is < 1.0e-08
 Keep 1728 surface tesserae and discard 1784 interior tesserae
 Molecular Surface Area = 200.500 Angst**2
 Requested basis set is 6-311++G(2df,2p)
 There are 158 shells and 532 basis functions
 A cutoff of  1.0D-12 yielded  10763 shell pairs
 There are    121203 function pairs (    151405 Cartesian)
 Smallest overlap matrix eigenvalue = 1.53E-06

 Scale SEOQF with 1.000000e-01/1.000000e-01/1.000000e-01

 Standard Electronic Orientation quadrupole field applied
 Nucleus-field energy     =     0.0000000093 hartrees
 Guess from superposition of atomic densities
 Warning:  Energy on first SCF cycle will be non-variational
 SAD guess density has 99.000000 electrons

 -----------------------------------------------------------------------
  General SCF calculation program by
  Eric Jon Sundstrom, Paul Horn, Yuezhi Mao, Dmitri Zuev, Alec White,
  David Stuck, Shaama M.S., Shane Yost, Joonho Lee, David Small,
  Daniel Levine, Susi Lehtola, Hugh Burton, Evgeny Epifanovsky,
  Bang C. Huynh
 -----------------------------------------------------------------------
 Exchange:     0.1500 Hartree-Fock + 1.0000 wB97M-V + LR-HF
 Correlation:  1.0000 wB97M-V
 Using SG-2 standard quadrature grid
 Nonlocal Correlation:  VV10 with C = 0.0100 and b = 6.00 and scale = 1.00000
 Grid used for NLC:  SG-1 standard quadrature
 
 Citation of the SMD model:
 Marenich, A.V.; Cramer, C.J.; Truhlar, D.G.
 J. Phys. Chem. B 2009, 113, 6378-6396.
 iSolventCode=           1
 Solvent: water                                                           
 
 vradii
            1           2           3           4           5           6
    1   1.8500000   1.8500000   1.8500000   1.8500000   1.8500000   1.8500000
            7           8           9          10          11          12
    1   1.8500000   1.2000000   1.2000000   1.2000000   1.2000000   1.2000000
           13          14          15          16          17          18
    1   1.2000000   1.5200000   1.2000000   1.2000000   1.5200000   1.2000000
           19          20          21          22
    1   1.5200000   1.5200000   1.5200000   1.5200000
 using 16 threads for integral computing
 -------------------------------------------------------
 OpenMP Integral computing Module                
 Release: version 1.0, May 2013, Q-Chem Inc. Pittsburgh 
 -------------------------------------------------------
 -------------------------------------------------------
 OpenMP BLAS3 based DFT computing Module                
 Release: version 1.0, May 2013, Q-Chem Inc. Pittsburgh 
 -------------------------------------------------------
 A unrestricted SCF calculation will be
 performed using DIIS, GDM
 SCF converges when RMS gradient is below 1.0e-07
 ---------------------------------------
  Cycle       Energy         DIIS error
 ---------------------------------------
    1    -726.3901461338      1.08e-02  
    2    -723.0490026421      1.04e-03  Done DIIS. Switching to GDM
 ---------------------------------------
  Cycle       Energy        RMS Gradient
 ---------------------------------------
    1    -723.0490026421      4.59e-02   Descent step
    2    -723.1577975966      6.45e-02   Normal BFGS step
    3    -723.1783648668      3.23e-02   Normal BFGS step
    4    -723.1829805601      5.88e-02   Normal BFGS step
    5    -723.1869068555      3.46e-02   Normal BFGS step
    6    -723.1910265199      5.07e-02   Normal BFGS step
    7    -723.2011435818      1.01e-01   Dog-leg BFGS step
    8    -723.2360384784      8.05e-02   Dog-leg BFGS step
    9    -723.2404790237      7.42e-02   Normal BFGS step
   10    -723.2318544977      1.04e-01  Line search: overstep
   11    -723.2463330724      5.51e-02   Dog-leg BFGS step
   12    -723.2309801022      5.99e-02  Line search: overstep
   13    -723.2491459483      1.03e-02   Normal BFGS step
   14    -723.2488783246      1.33e-02  Line search: overstep
   15    -723.2503138608      3.81e-03   Normal BFGS step
   16    -723.2503994282      4.91e-03   Normal BFGS step
   17    -723.2504591549      1.02e-03   Normal BFGS step
   18    -723.2504668447      4.98e-04   Normal BFGS step
   19    -723.2504695222      2.91e-04   Normal BFGS step
   20    -723.2504698462      1.26e-04   Normal BFGS step
   21    -723.2504699762      5.92e-05   Normal BFGS step
   22    -723.2504700016      3.42e-05   Normal BFGS step
   23    -723.2504700140      1.52e-05   Normal BFGS step
   24    -723.2504700165      4.51e-06   Normal BFGS step
   25    -723.2504700170      4.83e-06   Normal BFGS step
   26    -723.2504700172      2.16e-06   Normal BFGS step
   27    -723.2504700172      1.17e-06   Normal BFGS step
   28    -723.2504700173      3.68e-07   Normal BFGS step
   29    -723.2504700173      1.61e-07   Normal BFGS step
   30    -723.2504700173      7.23e-08  Convergence criterion met
 ---------------------------------------
 SCF time:   CPU 7435.59s  wall 517.00s 
<S^2> =          1.785820524
(3)  G-ENP(liq) elect-nuc-pol free energy of system     -723.250470017 a.u.
(4)  G-CDS(liq) cavity-dispersion-solvent structure 
     free energy                                                2.8334 kcal/mol
(6)  G-S(liq) free energy of system                     -723.245954730 a.u.
 SCF   energy in the final basis set =     -723.2459547303
 Total energy in the final basis set =     -723.2459547303
 
 --------------------------------------------------------------
 
                    Orbital Energies (a.u.)
 --------------------------------------------------------------
 
 Alpha MOs
 -- Occupied --
-19.4883 -19.4879 -19.4020 -19.4014 -19.3480 -19.3446 -10.4132 -10.4069
-10.4045 -10.3936 -10.3531 -10.3472 -10.3466  -1.4403  -1.2681  -1.1738
 -1.1612  -1.0653  -0.9685  -0.9581  -0.8862  -0.8467  -0.8007  -0.7482
 -0.7051  -0.6805  -0.6765  -0.6758  -0.6642  -0.6548  -0.6289  -0.6067
 -0.5803  -0.5750  -0.5609  -0.5502  -0.5311  -0.5195  -0.5139  -0.4917
 -0.4761  -0.4589  -0.4478  -0.4321  -0.4085  -0.4076  -0.3955  -0.3898
 -0.3876  -0.3594
 -- Virtual --
 -0.0188   0.0253   0.0360   0.0363   0.0455   0.0547   0.0554   0.0729
  0.0783   0.0814   0.0869   0.0900   0.0986   0.1102   0.1263   0.1284
  0.1334   0.1348   0.1452   0.1455   0.1490   0.1526   0.1568   0.1609
  0.1686   0.1730   0.1776   0.1821   0.1870   0.1889   0.1975   0.1991
  0.2053   0.2102   0.2130   0.2181   0.2236   0.2273   0.2394   0.2507
  0.2566   0.2659   0.2704   0.2790   0.2839   0.2874   0.2943   0.2976
  0.3010   0.3045   0.3136   0.3188   0.3237   0.3311   0.3327   0.3405
  0.3461   0.3523   0.3541   0.3561   0.3625   0.3731   0.3750   0.3794
  0.3811   0.3893   0.3905   0.3945   0.4004   0.4055   0.4106   0.4179
  0.4289   0.4372   0.4480   0.4562   0.4591   0.4752   0.4811   0.4859
  0.5047   0.5069   0.5142   0.5191   0.5395   0.5568   0.5752   0.6014
  0.6049   0.6202   0.6273   0.6341   0.6378   0.6582   0.6597   0.6657
  0.6730   0.6760   0.6926   0.7005   0.7120   0.7165   0.7240   0.7375
  0.7410   0.7433   0.7485   0.7594   0.7756   0.7908   0.7999   0.8126
  0.8198   0.8332   0.8450   0.8599   0.8734   0.8831   0.8889   0.8942
  0.9051   0.9133   0.9409   0.9697   0.9714   1.0075   1.0244   1.0362
  1.0383   1.0491   1.0515   1.0612   1.0786   1.0880   1.0974   1.0988
  1.1071   1.1213   1.1316   1.1364   1.1427   1.1538   1.1649   1.1710
  1.1781   1.1859   1.1985   1.2008   1.2249   1.2269   1.2454   1.2555
  1.2582   1.2620   1.2764   1.2886   1.2979   1.3037   1.3135   1.3235
  1.3389   1.3408   1.3490   1.3590   1.3708   1.3803   1.3880   1.3890
  1.3998   1.4091   1.4202   1.4258   1.4302   1.4425   1.4521   1.4606
  1.4703   1.4808   1.4973   1.5023   1.5132   1.5236   1.5350   1.5452
  1.5588   1.5669   1.5756   1.5898   1.6043   1.6069   1.6269   1.6276
  1.6511   1.6551   1.6659   1.6733   1.6921   1.7165   1.7202   1.7457
  1.7508   1.7770   1.7867   1.8037   1.8133   1.8390   1.8664   1.8797
  1.8916   1.9000   1.9621   1.9685   2.0014   2.0148   2.0339   2.0529
  2.0839   2.0859   2.1345   2.1471   2.1749   2.1954   2.2215   2.2748
  2.2978   2.3264   2.3308   2.3475   2.3482   2.3724   2.3953   2.4152
  2.4273   2.4764   2.5181   2.5354   2.6128   2.6512   2.6896   2.7136
  2.7292   2.7410   2.7780   2.7850   2.8071   2.8261   2.8432   2.8534
  2.8715   2.8857   2.8916   2.8945   2.9281   2.9424   2.9625   2.9660
  2.9785   2.9920   3.0131   3.0268   3.0473   3.0505   3.0645   3.0927
  3.1155   3.1281   3.1611   3.1744   3.1920   3.2056   3.2324   3.2426
  3.2700   3.2780   3.3050   3.3195   3.3517   3.3582   3.3790   3.3930
  3.4033   3.4368   3.4477   3.4493   3.4608   3.4765   3.5028   3.5168
  3.5297   3.5591   3.5664   3.5883   3.6082   3.6140   3.6424   3.6464
  3.6610   3.6727   3.6929   3.6946   3.7238   3.7381   3.7585   3.7698
  3.7749   3.7942   3.8087   3.8297   3.8436   3.8456   3.8522   3.8699
  3.8967   3.9061   3.9131   3.9166   3.9434   3.9561   3.9740   3.9810
  3.9853   4.0130   4.0315   4.0519   4.0764   4.0902   4.1171   4.1230
  4.1489   4.1702   4.1866   4.2116   4.2585   4.2701   4.2809   4.2899
  4.3263   4.3391   4.3458   4.3675   4.3696   4.3955   4.4200   4.4257
  4.4376   4.4643   4.4973   4.5026   4.5069   4.5200   4.5483   4.5574
  4.5727   4.5743   4.5831   4.5842   4.5999   4.6154   4.6424   4.6526
  4.6703   4.6854   4.6951   4.7098   4.7474   4.7592   4.7908   4.7959
  4.8379   4.8828   4.8951   4.8994   4.9146   4.9818   4.9842   5.0026
  5.0309   5.0694   5.1018   5.1267   5.1528   5.1542   5.1592   5.1715
  5.1760   5.2037   5.2586   5.2620   5.2808   5.3041   5.3163   5.3227
  5.3431   5.3472   5.3509   5.3722   5.4020   5.4118   5.4313   5.4540
  5.4802   5.5088   5.5325   5.5443   5.5738   5.6095   5.6222   5.6366
  5.6471   5.6783   5.6967   5.7018   5.7408   5.7553   5.7561   5.7655
  5.7774   5.7978   5.8055   5.8789   5.9170   5.9577   5.9941   6.0378
  6.0526   6.0724   6.1059   6.1556   6.2645   6.5879   6.6015   6.6639
  6.6888   6.7209   6.7594   6.7666   6.8029   6.8142   6.8259   6.8394
  6.8905   6.9781   6.9914   7.0482   7.1124   7.1390   7.2967   7.3112
  7.3350   7.3455   7.3539   7.3722   7.3807   7.4102   7.4320   7.4588
  7.4700   7.4972   7.5550   7.6480   7.6613   7.7166   7.7964   7.8610
  7.9216   7.9762   8.1130   8.1175   8.2705  24.3845  24.7217  24.7496
 24.7948  24.8466  24.9429  25.2265  50.4261  50.5455  50.6051  50.6248
 50.6803  50.6942
 
 Beta MOs
 -- Occupied --
-19.4581 -19.4575 -19.4034 -19.4027 -19.3481 -19.3446 -10.4126 -10.4064
-10.4051 -10.3936 -10.3555 -10.3548 -10.3499  -1.3842  -1.2706  -1.1741
 -1.1614  -1.0684  -0.9754  -0.8888  -0.8714  -0.8557  -0.8088  -0.7506
 -0.7104  -0.6820  -0.6584  -0.6330  -0.6187  -0.6082  -0.5868  -0.5802
 -0.5709  -0.5702  -0.5641  -0.5533  -0.5336  -0.5214  -0.5168  -0.4933
 -0.4803  -0.4609  -0.4525  -0.4349  -0.4224  -0.3955  -0.3906  -0.3658
 -0.2850
 -- Virtual --
 -0.0108  -0.0106   0.0257   0.0363   0.0366   0.0456   0.0550   0.0555
  0.0715   0.0737   0.0814   0.0863   0.0887   0.0929   0.1083   0.1266
  0.1295   0.1339   0.1351   0.1449   0.1456   0.1494   0.1536   0.1570
  0.1612   0.1688   0.1737   0.1778   0.1809   0.1832   0.1897   0.1995
  0.2004   0.2059   0.2111   0.2136   0.2182   0.2242   0.2277   0.2417
  0.2522   0.2540   0.2657   0.2715   0.2821   0.2853   0.2886   0.2942
  0.2975   0.2995   0.3048   0.3129   0.3192   0.3264   0.3304   0.3339
  0.3432   0.3470   0.3535   0.3536   0.3554   0.3641   0.3700   0.3739
  0.3800   0.3804   0.3888   0.3897   0.3962   0.4016   0.4052   0.4143
  0.4277   0.4314   0.4396   0.4476   0.4566   0.4615   0.4757   0.4801
  0.4871   0.5021   0.5054   0.5133   0.5178   0.5375   0.5556   0.5741
  0.5973   0.6043   0.6159   0.6265   0.6296   0.6359   0.6567   0.6591
  0.6652   0.6737   0.6742   0.6826   0.6978   0.7095   0.7131   0.7231
  0.7347   0.7397   0.7421   0.7461   0.7559   0.7712   0.7854   0.7954
  0.8087   0.8156   0.8302   0.8424   0.8580   0.8714   0.8783   0.8857
  0.8908   0.9014   0.9108   0.9386   0.9686   0.9699   1.0093   1.0243
  1.0362   1.0439   1.0501   1.0612   1.0709   1.0837   1.0901   1.0997
  1.1034   1.1158   1.1296   1.1406   1.1456   1.1552   1.1613   1.1671
  1.1741   1.1886   1.1928   1.1988   1.2029   1.2251   1.2271   1.2465
  1.2581   1.2605   1.2690   1.2763   1.2926   1.2994   1.3038   1.3124
  1.3233   1.3399   1.3410   1.3484   1.3614   1.3709   1.3813   1.3858
  1.3910   1.4088   1.4145   1.4253   1.4408   1.4465   1.4508   1.4534
  1.4605   1.4679   1.4891   1.4961   1.5055   1.5144   1.5280   1.5430
  1.5471   1.5622   1.5662   1.5741   1.5892   1.6050   1.6156   1.6256
  1.6324   1.6538   1.6603   1.6667   1.6726   1.6909   1.7173   1.7222
  1.7588   1.7809   1.7949   1.7987   1.8081   1.8151   1.8428   1.8709
  1.8777   1.8902   1.8987   1.9583   1.9660   1.9956   2.0112   2.0303
  2.0501   2.0820   2.0844   2.1294   2.1452   2.1734   2.1942   2.2186
  2.2728   2.2992   2.3260   2.3461   2.3622   2.3801   2.3941   2.3976
  2.4177   2.4279   2.4749   2.5161   2.5326   2.6279   2.6496   2.6827
  2.7057   2.7263   2.7366   2.7734   2.7776   2.7951   2.8177   2.8317
  2.8474   2.8672   2.8698   2.8796   2.8839   2.9184   2.9344   2.9506
  2.9538   2.9569   2.9733   3.0028   3.0098   3.0290   3.0397   3.0512
  3.0842   3.1030   3.1231   3.1431   3.1653   3.1841   3.1925   3.2239
  3.2360   3.2645   3.2699   3.2968   3.3106   3.3409   3.3496   3.3701
  3.3778   3.3952   3.4246   3.4382   3.4395   3.4546   3.4644   3.4989
  3.5110   3.5216   3.5457   3.5586   3.5752   3.5989   3.6037   3.6328
  3.6415   3.6486   3.6688   3.6780   3.6838   3.7124   3.7356   3.7471
  3.7605   3.7720   3.7856   3.7973   3.8173   3.8299   3.8369   3.8455
  3.8632   3.8895   3.9004   3.9061   3.9129   3.9354   3.9515   3.9691
  3.9757   3.9781   4.0070   4.0203   4.0428   4.0698   4.0814   4.1099
  4.1185   4.1414   4.1639   4.1807   4.2062   4.2546   4.2647   4.2759
  4.2867   4.3157   4.3321   4.3372   4.3573   4.3631   4.3853   4.4161
  4.4203   4.4339   4.4581   4.4907   4.4946   4.4971   4.5156   4.5451
  4.5745   4.5887   4.6011   4.6101   4.6227   4.6253   4.6316   4.6354
  4.6482   4.6599   4.6734   4.6803   4.7037   4.7439   4.7502   4.7855
  4.7893   4.8306   4.8762   4.9359   4.9722   4.9793   4.9841   4.9957
  5.0595   5.0810   5.1188   5.1467   5.1595   5.1792   5.1841   5.2029
  5.2358   5.2388   5.2430   5.2530   5.2609   5.2780   5.3027   5.3151
  5.3215   5.3388   5.3488   5.3727   5.3941   5.4025   5.4093   5.4271
  5.4505   5.4767   5.5058   5.5284   5.5432   5.5640   5.6054   5.6101
  5.6291   5.6417   5.6765   5.6892   5.6999   5.7397   5.7596   5.7753
  5.7945   5.8002   5.8167   5.8184   5.8771   5.9110   5.9552   5.9910
  6.0340   6.0488   6.0580   6.1013   6.1414   6.2624   6.5949   6.6026
  6.6634   6.7574   6.7598   6.8248   6.8456   6.9027   6.9072   6.9337
  6.9383   6.9687   7.0451   7.0577   7.0707   7.1121   7.1389   7.2962
  7.3090   7.3337   7.3446   7.3799   7.4040   7.4082   7.4228   7.4324
  7.4571   7.4690   7.4942   7.5529   7.6448   7.6597   7.7165   7.7960
  7.8604   7.9191   7.9736   8.1456   8.1692   8.2691  24.3816  24.7214
 24.7459  24.7938  24.8463  24.9403  25.2235  50.4500  50.5694  50.6042
 50.6245  50.6802  50.6932
 --------------------------------------------------------------
 
          Ground-State Mulliken Net Atomic Charges

     Atom                 Charge (a.u.)    Spin (a.u.)
  --------------------------------------------------------
      1 C                    -0.263522      -0.033233
      2 C                     0.391150       0.055954
      3 C                    -0.746915      -0.562506
      4 C                    -0.173932       0.136733
      5 C                    -0.341663      -0.577181
      6 C                    -0.126501       0.045479
      7 C                    -0.429513      -0.008019
      8 H                     0.324164       0.002921
      9 H                     0.285896      -0.007087
     10 H                     0.321589       0.013090
     11 H                     0.302528      -0.008019
     12 H                     0.326038       0.013804
     13 H                     0.250180       0.000253
     14 O                    -0.380952      -0.002273
     15 H                     0.241609       0.000171
     16 H                     0.329733       0.000369
     17 O                    -0.410375      -0.004716
     18 H                     0.329109      -0.002268
     19 O                    -0.148472      -0.028940
     20 O                    -0.115993      -0.028358
     21 O                     0.033688       0.996276
     22 O                     0.002153       0.997550
  --------------------------------------------------------
  Sum of atomic charges =     0.000000
  Sum of spin   charges =     1.000000

 -----------------------------------------------------------------
                    Cartesian Multipole Moments
 -----------------------------------------------------------------
    Charge (ESU x 10^10)
                 0.0000
    Dipole Moment (Debye)
         X       0.2896      Y      -0.7935      Z      -3.4783
       Tot       3.5794
    Quadrupole Moments (Debye-Ang)
        XX     -82.4879     XY       6.1422     YY     -74.5459
        XZ      10.6428     YZ      -4.4694     ZZ     -68.7335
    Octopole Moments (Debye-Ang^2)
       XXX     208.7147    XXY      36.8993    XYY      46.7800
       YYY     157.7469    XXZ     -58.5913    XYZ      13.5359
       YYZ     -26.3090    XZZ      61.1105    YZZ      38.4920
       ZZZ    -123.5342
    Hexadecapole Moments (Debye-Ang^3)
      XXXX   -1120.7707   XXXY      21.0807   XXYY    -392.0790
      XYYY      21.8707   YYYY   -1461.2074   XXXZ     104.9075
      XXYZ     109.4507   XYYZ      20.8383   YYYZ     312.5696
      XXZZ    -348.3912   XYZZ       3.6036   YYZZ    -386.9713
      XZZZ      87.8849   YZZZ     307.7850   ZZZZ    -878.0090
 -----------------------------------------------------------------
 Calculating analytic gradient of the SCF energy
 Gradient of CDS energy
            1           2           3           4           5           6
    1   0.0012471  -0.0000060  -0.0001424  -0.0002147  -0.0001952   0.0000604
    2  -0.0012257   0.0002038  -0.0002235  -0.0002627   0.0001714   0.0000611
    3  -0.0008899   0.0002379   0.0002601  -0.0001815  -0.0002342   0.0001598
            7           8           9          10          11          12
    1   0.0002167  -0.0000233   0.0000876   0.0000152  -0.0001163  -0.0000303
    2   0.0009804   0.0002072  -0.0000735  -0.0001756  -0.0001406   0.0000799
    3  -0.0003255   0.0001085   0.0001115   0.0000919  -0.0001027  -0.0001126
           13          14          15          16          17          18
    1  -0.0002731  -0.0001825   0.0001194   0.0001731  -0.0012837   0.0004140
    2  -0.0002171  -0.0001781  -0.0001429   0.0000108   0.0011235  -0.0001413
    3  -0.0000549   0.0002737   0.0002738  -0.0004983   0.0010438  -0.0001871
           19          20          21          22
    1   0.0000169   0.0000412   0.0000608   0.0000150
    2   0.0000897  -0.0000881  -0.0000202  -0.0000383
    3  -0.0000814   0.0000786   0.0000307  -0.0000021
 Gradient of SCF Energy
            1           2           3           4           5           6
    1   0.0008092  -0.0070481   0.0050809   0.0040081   0.0037988  -0.0049730
    2  -0.0061665   0.0057197   0.0015097   0.0057393  -0.0040958   0.0037081
    3  -0.0048960  -0.0014648  -0.0060915   0.0080911   0.0056293   0.0039776
            7           8           9          10          11          12
    1   0.0050893   0.0033534   0.0021597  -0.0008883  -0.0035486  -0.0025041
    2  -0.0133482   0.0036319  -0.0025754  -0.0047398  -0.0042768   0.0033546
    3   0.0026375   0.0017064   0.0045137   0.0026238  -0.0035294  -0.0127896
           13          14          15          16          17          18
    1  -0.0065984   0.0096028   0.0021977  -0.0094568  -0.0009660   0.0017207
    2   0.0035176   0.0136406   0.0041749  -0.0092607  -0.0073583   0.0040900
    3  -0.0063905   0.0131455   0.0037100  -0.0129513   0.0047163  -0.0059153
           19          20          21          22
    1  -0.0005025  -0.0014173  -0.0010048   0.0010871
    2   0.0014683   0.0016397  -0.0019356   0.0015628
    3   0.0019221   0.0008682  -0.0014833   0.0019700
 Max gradient component =       1.364E-02
 RMS gradient           =       5.578E-03
 Computing fast CPCM-SWIG gradient
 Updating gradient with PCM contributions...
 -- total gradient after adding PCM contribution --
---------------------------------------------------
  Atom         X              Y              Z     
---------------------------------------------------
   1       0.000004      -0.000022       0.000049
   2       0.000040       0.000129       0.000001
   3      -0.000292       0.000252      -0.000220
   4      -0.000061      -0.000170       0.000384
   5       0.000051       0.000238      -0.000115
   6      -0.000057      -0.000046      -0.000042
   7      -0.000018       0.000019       0.000035
   8      -0.000003       0.000017      -0.000018
   9      -0.000006       0.000020       0.000013
  10       0.000103      -0.000073      -0.000065
  11       0.000006      -0.000006      -0.000012
  12       0.000015       0.000000      -0.000004
  13       0.000004      -0.000005      -0.000002
  14       0.000022      -0.000013      -0.000014
  15      -0.000010       0.000008       0.000007
  16       0.000002       0.000023      -0.000000
  17      -0.000021      -0.000001       0.000038
  18       0.000012       0.000023       0.000026
  19      -0.000005      -0.000071      -0.000049
  20      -0.000018       0.000056      -0.000039
  21       0.000422      -0.000521       0.000077
  22      -0.000191       0.000143      -0.000050
---------------------------------------------------
 Number of fixed atoms: 0
 Gradient time:  CPU 701.43 s  wall 57.78 s
-Performing force calculation on product structure in state0
 ----------------------------------------------------------------
             Standard Nuclear Orientation (Angstroms)
    I     Atom           X                Y                Z
 ----------------------------------------------------------------
    1      C       0.0159629071    -0.1654161818     0.7598290633
    2      C      -0.7903634954    -0.9606934248     1.7700395964
    3      C      -1.4147829197    -2.2177425410     1.1574312000
    4      C      -1.9309609320    -1.9873251723    -0.2271142402
    5      C      -1.8332351612    -0.7940126237    -0.7962505220
    6      C      -1.1657917202     0.3474776025    -0.0683195144
    7      C      -0.8014591597     1.5213925295    -0.9623091729
    8      H       0.4952755012     0.6823388811     1.2537604200
    9      H      -0.2621444850    -1.1879292306     2.6929782370
   10      H      -2.1989022777    -2.5817256354     1.8196027772
   11      H      -2.4225442979    -2.8166428873    -0.7180934211
   12      H      -2.2505049781    -0.6023396362    -1.7776529963
   13      H      -1.6757570885     1.8797402679    -1.5063335762
   14      O       0.2350391019     1.1294248160    -1.8575739613
   15      H      -0.4089367519     2.3273216108    -0.3461006320
   16      H      -0.1554662934     0.6425175367    -2.5919077683
   17      O       0.9479688874    -0.9589154714     0.0670543902
   18      H       1.2112219217    -0.4525899817    -0.7144398080
   19      O      -1.8499473920    -0.0631171261     2.1028143314
   20      O      -2.0213772485     0.8467185660     0.9668567700
   21      O      -0.4228125592    -3.2916878589     1.0840181603
   22      O      -0.2013239589    -3.8213393393     2.2534294670
 ----------------------------------------------------------------
 Nuclear Repulsion Energy =         904.05421757 hartrees
 There are       50 alpha and       49 beta electrons
 Discretize the solute cavity surface with Lebedev spheres
	Using 110 Lebedev grid points for each H atom
	Using 194 Lebedev grid points for other atoms
	Atomic van der Waals radii will be scaled by 1.20
 Remove points where switching function is < 1.0e-08
 Keep 1625 surface tesserae and discard 1887 interior tesserae
 Molecular Surface Area = 180.430 Angst**2
 Applying Cartesian multipole field
    Component          Value
    ---------          -----
     (2,0,0)        1.00000E-11
     (0,2,0)        2.00000E-11
     (0,0,2)       -3.00000E-11
 Nucleus-field energy     =     0.0000000094 hartrees
 Requested basis set is 6-311++G(2df,2p)
 There are 158 shells and 532 basis functions
 A cutoff of  1.0D-12 yielded  11012 shell pairs
 There are    125029 function pairs (    156639 Cartesian)
 Smallest overlap matrix eigenvalue = 1.80E-06
 Guess from superposition of atomic densities
 Warning:  Energy on first SCF cycle will be non-variational
 SAD guess density has 99.000000 electrons

 -----------------------------------------------------------------------
  General SCF calculation program by
  Eric Jon Sundstrom, Paul Horn, Yuezhi Mao, Dmitri Zuev, Alec White,
  David Stuck, Shaama M.S., Shane Yost, Joonho Lee, David Small,
  Daniel Levine, Susi Lehtola, Hugh Burton, Evgeny Epifanovsky,
  Bang C. Huynh
 -----------------------------------------------------------------------
 Exchange:     0.1500 Hartree-Fock + 1.0000 wB97M-V + LR-HF
 Correlation:  1.0000 wB97M-V
 Using SG-2 standard quadrature grid
 Nonlocal Correlation:  VV10 with C = 0.0100 and b = 6.00 and scale = 1.00000
 Grid used for NLC:  SG-1 standard quadrature
 
 Citation of the SMD model:
 Marenich, A.V.; Cramer, C.J.; Truhlar, D.G.
 J. Phys. Chem. B 2009, 113, 6378-6396.
 iSolventCode=           1
 Solvent: water                                                           
 
 vradii
            1           2           3           4           5           6
    1   1.8500000   1.8500000   1.8500000   1.8500000   1.8500000   1.8500000
            7           8           9          10          11          12
    1   1.8500000   1.2000000   1.2000000   1.2000000   1.2000000   1.2000000
           13          14          15          16          17          18
    1   1.2000000   1.5200000   1.2000000   1.2000000   1.5200000   1.2000000
           19          20          21          22
    1   1.5200000   1.5200000   1.5200000   1.5200000
 -------------------------------------------------------
 OpenMP BLAS3 based DFT computing Module                
 Release: version 1.0, May 2013, Q-Chem Inc. Pittsburgh 
 -------------------------------------------------------
 A unrestricted SCF calculation will be
 performed using DIIS, GDM
 SCF converges when RMS gradient is below 1.0e-07
 ---------------------------------------
  Cycle       Energy         DIIS error
 ---------------------------------------
    1    -726.6623448313      1.09e-02  
    2    -723.1268416146      1.14e-03  Done DIIS. Switching to GDM
 ---------------------------------------
  Cycle       Energy        RMS Gradient
 ---------------------------------------
    1    -723.1268416146      1.04e-01   Descent step
    2    -723.2580097600      4.03e-02   Normal BFGS step
    3    -723.2815703769      2.30e-02   Normal BFGS step
    4    -723.2854075718      8.37e-03   Normal BFGS step
    5    -723.2869751280      4.59e-03   Normal BFGS step
    6    -723.2872516346      3.47e-03   Normal BFGS step
    7    -723.2873445784      1.86e-03   Normal BFGS step
    8    -723.2873758200      1.24e-03   Normal BFGS step
    9    -723.2873830491      9.04e-04   Normal BFGS step
   10    -723.2873873363      6.04e-04   Normal BFGS step
   11    -723.2873901457      5.59e-04   Normal BFGS step
   12    -723.2873932053      3.26e-04   Normal BFGS step
   13    -723.2873940040      1.04e-04   Normal BFGS step
   14    -723.2873942221      2.39e-05   Normal BFGS step
   15    -723.2873942465      1.32e-05   Normal BFGS step
   16    -723.2873942502      4.46e-06   Normal BFGS step
   17    -723.2873942509      2.16e-06   Normal BFGS step
   18    -723.2873942510      9.33e-07   Normal BFGS step
   19    -723.2873942510      5.09e-07   Normal BFGS step
   20    -723.2873942511      3.39e-07   Normal BFGS step
   21    -723.2873942511      1.88e-07   Normal BFGS step
   22    -723.2873942510      8.57e-08  Convergence criterion met
 ---------------------------------------
 SCF time:   CPU 5589.60s  wall 391.00s 
<S^2> =          0.753997049
(3)  G-ENP(liq) elect-nuc-pol free energy of system     -723.287394251 a.u.
(4)  G-CDS(liq) cavity-dispersion-solvent structure 
     free energy                                                2.6238 kcal/mol
(6)  G-S(liq) free energy of system                     -723.283213023 a.u.
 SCF   energy in the final basis set =     -723.2832130231
 Total energy in the final basis set =     -723.2832130231
 
 --------------------------------------------------------------
 
                    Orbital Energies (a.u.)
 --------------------------------------------------------------
 
 Alpha MOs
 -- Occupied --
-19.4673 -19.4187 -19.4107 -19.4085 -19.3496 -19.3477 -10.4183 -10.4176
-10.4162 -10.4098 -10.3963 -10.3594 -10.3568  -1.3468  -1.2801  -1.1772
 -1.1638  -1.0797  -1.0314  -0.9603  -0.8917  -0.8541  -0.8145  -0.7557
 -0.7259  -0.6967  -0.6740  -0.6484  -0.6481  -0.6278  -0.6123  -0.6015
 -0.5844  -0.5749  -0.5613  -0.5454  -0.5337  -0.5254  -0.5191  -0.5005
 -0.4872  -0.4610  -0.4567  -0.4336  -0.4153  -0.4120  -0.3975  -0.3859
 -0.3738  -0.3634
 -- Virtual --
  0.0250   0.0353   0.0362   0.0410   0.0505   0.0548   0.0573   0.0678
  0.0732   0.0851   0.0868   0.0901   0.1058   0.1216   0.1222   0.1292
  0.1301   0.1341   0.1431   0.1466   0.1518   0.1544   0.1607   0.1643
  0.1700   0.1708   0.1740   0.1844   0.1880   0.1956   0.1978   0.2009
  0.2095   0.2111   0.2142   0.2211   0.2239   0.2328   0.2431   0.2472
  0.2609   0.2654   0.2740   0.2783   0.2860   0.2878   0.2929   0.3048
  0.3088   0.3112   0.3154   0.3188   0.3268   0.3380   0.3386   0.3436
  0.3462   0.3553   0.3603   0.3623   0.3684   0.3732   0.3764   0.3834
  0.3888   0.3941   0.3954   0.3986   0.4061   0.4156   0.4220   0.4282
  0.4327   0.4378   0.4489   0.4529   0.4625   0.4745   0.4771   0.4877
  0.4980   0.5118   0.5213   0.5288   0.5483   0.5570   0.5700   0.5931
  0.6045   0.6105   0.6190   0.6253   0.6417   0.6515   0.6593   0.6661
  0.6729   0.6797   0.6881   0.6936   0.7002   0.7150   0.7188   0.7279
  0.7299   0.7424   0.7517   0.7576   0.7698   0.7767   0.7847   0.8012
  0.8134   0.8192   0.8469   0.8632   0.8634   0.8830   0.8942   0.8990
  0.9119   0.9418   0.9618   0.9643   0.9867   1.0029   1.0275   1.0396
  1.0468   1.0550   1.0723   1.0812   1.0982   1.1118   1.1225   1.1286
  1.1379   1.1454   1.1591   1.1635   1.1731   1.1808   1.1914   1.1967
  1.2029   1.2153   1.2210   1.2273   1.2360   1.2425   1.2555   1.2584
  1.2670   1.2736   1.2886   1.2954   1.3070   1.3092   1.3253   1.3298
  1.3356   1.3566   1.3617   1.3676   1.3710   1.3823   1.3949   1.4033
  1.4159   1.4316   1.4377   1.4478   1.4591   1.4692   1.4865   1.4885
  1.4981   1.5043   1.5111   1.5200   1.5407   1.5559   1.5676   1.5775
  1.5880   1.5932   1.6038   1.6223   1.6337   1.6447   1.6505   1.6553
  1.6763   1.6880   1.6949   1.7104   1.7326   1.7455   1.7607   1.7701
  1.7987   1.8099   1.8139   1.8473   1.8747   1.8912   1.8983   1.9234
  1.9471   1.9760   1.9947   2.0172   2.0279   2.0395   2.0466   2.0878
  2.0971   2.1315   2.1699   2.1783   2.1911   2.2253   2.2547   2.2669
  2.2915   2.3221   2.3258   2.3491   2.3723   2.3953   2.4122   2.4316
  2.4721   2.4828   2.5083   2.5438   2.6594   2.6792   2.6982   2.7068
  2.7375   2.7485   2.7708   2.8003   2.8063   2.8314   2.8452   2.8560
  2.8808   2.8894   2.8979   2.9127   2.9321   2.9488   2.9563   2.9861
  2.9908   3.0087   3.0334   3.0366   3.0597   3.0698   3.1095   3.1166
  3.1429   3.1500   3.1661   3.2027   3.2116   3.2290   3.2473   3.2683
  3.2749   3.3159   3.3270   3.3434   3.3532   3.3750   3.3932   3.4147
  3.4281   3.4607   3.4659   3.4720   3.4946   3.4973   3.5278   3.5362
  3.5760   3.5768   3.5895   3.5946   3.6200   3.6448   3.6505   3.6605
  3.6689   3.6818   3.6985   3.7211   3.7254   3.7517   3.7638   3.7683
  3.7902   3.7992   3.8113   3.8278   3.8488   3.8634   3.8742   3.8876
  3.8923   3.9050   3.9134   3.9288   3.9446   3.9587   3.9625   3.9808
  4.0020   4.0106   4.0144   4.0492   4.0522   4.0963   4.1112   4.1189
  4.1481   4.1712   4.1858   4.2147   4.2201   4.2540   4.2747   4.2948
  4.3080   4.3115   4.3394   4.3525   4.3757   4.3935   4.4055   4.4154
  4.4177   4.4340   4.4528   4.4849   4.4916   4.5078   4.5238   4.5336
  4.5738   4.5790   4.6016   4.6125   4.6342   4.6446   4.6667   4.6898
  4.6993   4.7240   4.7404   4.7535   4.7634   4.7915   4.8208   4.8378
  4.8798   4.9142   4.9353   4.9895   4.9959   5.0510   5.0658   5.0904
  5.0983   5.1076   5.1195   5.1361   5.1889   5.2314   5.2452   5.2628
  5.2766   5.3004   5.3006   5.3141   5.3187   5.3267   5.3410   5.3568
  5.3825   5.3998   5.4153   5.4422   5.4453   5.4542   5.4753   5.5013
  5.5156   5.5329   5.5339   5.5646   5.5957   5.6151   5.6193   5.6426
  5.6593   5.6786   5.7013   5.7313   5.7479   5.7667   5.7757   5.7870
  5.8153   5.8274   5.8383   5.9078   5.9414   5.9801   6.0066   6.0341
  6.0496   6.0865   6.1322   6.2772   6.4683   6.4774   6.6036   6.6196
  6.6615   6.6868   6.7552   6.7675   6.8455   6.8980   6.9894   7.0431
  7.1099   7.1145   7.1469   7.2249   7.2757   7.2959   7.3110   7.3337
  7.3546   7.3776   7.4118   7.4176   7.4347   7.4471   7.4563   7.4802
  7.5101   7.5570   7.6522   7.6633   7.7211   7.7947   7.8203   7.8593
  7.9165   7.9799   8.0333   8.1108   8.2691  24.3960  24.6928  24.7466
 24.7855  24.8554  24.8990  25.2623  50.4357  50.5520  50.6075  50.6230
 50.6860  50.6934
 
 Beta MOs
 -- Occupied --
-19.4568 -19.4107 -19.4085 -19.4001 -19.3496 -19.3476 -10.4187 -10.4176
-10.4159 -10.4098 -10.3963 -10.3593 -10.3568  -1.3206  -1.2800  -1.1771
 -1.1637  -1.0793  -1.0103  -0.9491  -0.8903  -0.8497  -0.8102  -0.7547
 -0.7233  -0.6942  -0.6703  -0.6464  -0.6325  -0.6119  -0.6067  -0.5888
 -0.5786  -0.5612  -0.5522  -0.5407  -0.5330  -0.5180  -0.5123  -0.4987
 -0.4789  -0.4604  -0.4533  -0.4326  -0.4016  -0.3945  -0.3908  -0.3771
 -0.3619
 -- Virtual --
 -0.0336   0.0251   0.0355   0.0364   0.0413   0.0514   0.0552   0.0576
  0.0683   0.0735   0.0852   0.0869   0.0902   0.1067   0.1222   0.1228
  0.1294   0.1307   0.1345   0.1434   0.1475   0.1521   0.1548   0.1615
  0.1650   0.1703   0.1715   0.1741   0.1845   0.1883   0.1963   0.1984
  0.2020   0.2097   0.2116   0.2166   0.2222   0.2249   0.2337   0.2440
  0.2531   0.2627   0.2671   0.2744   0.2795   0.2864   0.2908   0.2944
  0.3062   0.3103   0.3123   0.3164   0.3200   0.3281   0.3382   0.3393
  0.3456   0.3472   0.3556   0.3607   0.3637   0.3696   0.3742   0.3773
  0.3839   0.3893   0.3951   0.3956   0.3988   0.4065   0.4173   0.4234
  0.4285   0.4336   0.4389   0.4495   0.4536   0.4633   0.4748   0.4776
  0.4880   0.4989   0.5123   0.5215   0.5296   0.5486   0.5577   0.5702
  0.5932   0.6054   0.6109   0.6195   0.6259   0.6422   0.6516   0.6595
  0.6663   0.6731   0.6803   0.6886   0.6938   0.7004   0.7152   0.7191
  0.7280   0.7301   0.7426   0.7527   0.7578   0.7701   0.7768   0.7852
  0.8014   0.8141   0.8197   0.8471   0.8634   0.8643   0.8832   0.8946
  0.9009   0.9120   0.9419   0.9623   0.9650   0.9878   1.0050   1.0281
  1.0403   1.0470   1.0557   1.0727   1.0818   1.0988   1.1132   1.1259
  1.1291   1.1399   1.1467   1.1617   1.1654   1.1768   1.1905   1.1982
  1.2013   1.2095   1.2184   1.2267   1.2324   1.2409   1.2486   1.2592
  1.2631   1.2695   1.2753   1.2908   1.2966   1.3088   1.3107   1.3266
  1.3301   1.3371   1.3585   1.3636   1.3689   1.3717   1.3826   1.3964
  1.4038   1.4180   1.4325   1.4388   1.4481   1.4599   1.4707   1.4871
  1.4896   1.4995   1.5061   1.5118   1.5258   1.5414   1.5583   1.5711
  1.5813   1.5884   1.5938   1.6070   1.6258   1.6369   1.6480   1.6562
  1.6611   1.6892   1.6959   1.6980   1.7155   1.7409   1.7506   1.7656
  1.7721   1.7999   1.8114   1.8153   1.8505   1.8774   1.8926   1.8990
  1.9309   1.9484   1.9775   1.9955   2.0186   2.0309   2.0444   2.0474
  2.0912   2.0982   2.1321   2.1755   2.1790   2.1918   2.2275   2.2634
  2.2711   2.2979   2.3249   2.3288   2.3574   2.3789   2.3965   2.4167
  2.4325   2.4740   2.4841   2.5086   2.5442   2.6603   2.6839   2.6993
  2.7089   2.7390   2.7490   2.7717   2.8009   2.8065   2.8318   2.8459
  2.8562   2.8810   2.8895   2.8981   2.9129   2.9325   2.9492   2.9565
  2.9862   2.9918   3.0092   3.0337   3.0369   3.0603   3.0701   3.1098
  3.1172   3.1433   3.1500   3.1666   3.2031   3.2118   3.2291   3.2475
  3.2686   3.2752   3.3162   3.3271   3.3436   3.3537   3.3751   3.3933
  3.4150   3.4284   3.4610   3.4661   3.4721   3.4949   3.4979   3.5281
  3.5368   3.5762   3.5770   3.5903   3.5947   3.6202   3.6450   3.6507
  3.6606   3.6694   3.6823   3.6989   3.7213   3.7254   3.7519   3.7641
  3.7686   3.7904   3.7997   3.8115   3.8279   3.8492   3.8636   3.8745
  3.8877   3.8928   3.9051   3.9136   3.9291   3.9449   3.9589   3.9629
  3.9810   4.0023   4.0111   4.0148   4.0496   4.0524   4.0964   4.1114
  4.1192   4.1482   4.1715   4.1865   4.2154   4.2205   4.2543   4.2753
  4.2951   4.3083   4.3124   4.3400   4.3529   4.3761   4.3941   4.4057
  4.4158   4.4182   4.4345   4.4534   4.4853   4.4932   4.5083   4.5250
  4.5352   4.5742   4.5811   4.6045   4.6275   4.6351   4.6552   4.6682
  4.6933   4.7002   4.7253   4.7438   4.7573   4.7718   4.7944   4.8223
  4.8399   4.8859   4.9254   4.9502   4.9929   4.9988   5.0619   5.0701
  5.1171   5.1317   5.1448   5.1545   5.1933   5.2164   5.2356   5.2724
  5.2875   5.2978   5.3016   5.3032   5.3148   5.3219   5.3378   5.3436
  5.3580   5.3982   5.4027   5.4160   5.4440   5.4484   5.4610   5.4891
  5.5058   5.5183   5.5341   5.5354   5.5764   5.5972   5.6158   5.6222
  5.6441   5.6632   5.6790   5.7015   5.7341   5.7486   5.7737   5.7781
  5.7922   5.8208   5.8325   5.8454   5.9086   5.9462   5.9803   6.0070
  6.0342   6.0497   6.0866   6.1326   6.2774   6.4852   6.5225   6.6109
  6.6241   6.6637   6.6874   6.7561   6.7679   6.9281   6.9763   7.0404
  7.0532   7.1145   7.1457   7.1521   7.2539   7.2917   7.3105   7.3260
  7.3355   7.3550   7.3790   7.4141   7.4310   7.4475   7.4539   7.4708
  7.5020   7.5125   7.5577   7.6527   7.6637   7.7214   7.7947   7.8338
  7.8596   7.9167   7.9801   8.0468   8.1302   8.2691  24.3960  24.6928
 24.7465  24.7855  24.8554  24.8991  25.2623  50.4485  50.5610  50.6080
 50.6230  50.6860  50.6935
 --------------------------------------------------------------
 
          Ground-State Mulliken Net Atomic Charges

     Atom                 Charge (a.u.)    Spin (a.u.)
  --------------------------------------------------------
      1 C                    -0.185868       0.002565
      2 C                    -0.159131       0.017058
      3 C                    -0.508370      -0.017778
      4 C                    -0.092835       0.016314
      5 C                    -0.475234      -0.006965
      6 C                     0.239585      -0.001919
      7 C                    -0.395040      -0.000324
      8 H                     0.327222       0.000468
      9 H                     0.292227      -0.001022
     10 H                     0.311962       0.004796
     11 H                     0.314537      -0.000874
     12 H                     0.315833       0.000016
     13 H                     0.253224       0.000006
     14 O                    -0.376011       0.000058
     15 H                     0.244497      -0.000012
     16 H                     0.327807       0.000048
     17 O                    -0.404159       0.002949
     18 H                     0.337493       0.000406
     19 O                    -0.108769       0.002163
     20 O                    -0.130346      -0.000455
     21 O                     0.088387       0.315499
     22 O                    -0.217012       0.667003
  --------------------------------------------------------
  Sum of atomic charges =     0.000000
  Sum of spin   charges =     1.000000

 -----------------------------------------------------------------
                    Cartesian Multipole Moments
 -----------------------------------------------------------------
    Charge (ESU x 10^10)
                 0.0000
    Dipole Moment (Debye)
         X      -1.8149      Y       2.5925      Z      -4.8832
       Tot       5.8190
    Quadrupole Moments (Debye-Ang)
        XX     -78.1565     XY       8.5641     YY     -88.7505
        XZ       9.0262     YZ       5.2917     ZZ     -72.3967
    Octopole Moments (Debye-Ang^2)
       XXX     202.6498    XXY      40.4264    XYY      38.9470
       YYY     232.5703    XXZ     -52.1718    XYZ      13.9613
       YYZ     -62.5741    XZZ      62.9967    YZZ      64.4656
       ZZZ    -129.5575
    Hexadecapole Moments (Debye-Ang^3)
      XXXX    -854.4134   XXXY     -94.1132   XXYY    -347.5329
      XYYY     -72.5558   YYYY   -1762.6817   XXXZ     148.1911
      XXYZ      92.5240   XYYZ      38.3120   YYYZ     461.8197
      XXZZ    -285.7712   XYZZ     -39.2864   YYZZ    -479.3260
      XZZZ     160.8725   YZZZ     346.9635   ZZZZ    -837.4194
 -----------------------------------------------------------------
 Calculating analytic gradient of the SCF energy
 Gradient of CDS energy
            1           2           3           4           5           6
    1   0.0016754  -0.0000480   0.0000932  -0.0001375  -0.0002210   0.0000520
    2  -0.0012840   0.0000873  -0.0001520  -0.0002476   0.0000932   0.0000731
    3  -0.0010636   0.0001760   0.0001141  -0.0001463  -0.0001586   0.0001542
            7           8           9          10          11          12
    1   0.0000630  -0.0000478   0.0000649  -0.0001111  -0.0000753  -0.0000523
    2   0.0009933   0.0002061  -0.0000912  -0.0000540  -0.0001837   0.0000748
    3  -0.0003613   0.0000957   0.0001632   0.0001751  -0.0000757  -0.0001143
           13          14          15          16          17          18
    1  -0.0002361  -0.0001642   0.0001449   0.0001869  -0.0016855   0.0003956
    2  -0.0002650  -0.0000961  -0.0001118  -0.0000699   0.0011547  -0.0000938
    3  -0.0000425   0.0002961   0.0002759  -0.0004721   0.0011863  -0.0002434
           19          20          21          22
    1  -0.0000250   0.0000522   0.0000588   0.0000167
    2   0.0000518  -0.0000834   0.0000276  -0.0000294
    3  -0.0000839   0.0000785   0.0000679  -0.0000213
 Gradient of SCF Energy
            1           2           3           4           5           6
    1   0.0004609  -0.0077116   0.0126328   0.0042008   0.0021995  -0.0029759
    2  -0.0065007   0.0052511  -0.0042650   0.0026184   0.0057010  -0.0004103
    3  -0.0050535  -0.0012040  -0.0040815   0.0104716   0.0063246   0.0015615
            7           8           9          10          11          12
    1   0.0112334   0.0038331   0.0024690  -0.0050374  -0.0049622  -0.0055980
    2  -0.0169356   0.0064433  -0.0001225  -0.0021150  -0.0070464   0.0031137
    3   0.0024720   0.0028139   0.0043686   0.0023998  -0.0046499  -0.0157834
           13          14          15          16          17          18
    1  -0.0100943   0.0081276   0.0023594  -0.0095966   0.0007085   0.0009702
    2   0.0032636   0.0165094   0.0069340  -0.0116335  -0.0091830   0.0056344
    3  -0.0078170   0.0149526   0.0054257  -0.0142794   0.0070422  -0.0074345
           19          20          21          22
    1  -0.0022807  -0.0012978   0.0005016  -0.0001424
    2   0.0022313   0.0006511   0.0004488  -0.0005882
    3   0.0013843   0.0013189  -0.0004014   0.0001688
 Max gradient component =       1.694E-02
 RMS gradient           =       6.735E-03
 Computing fast CPCM-SWIG gradient
 Updating gradient with PCM contributions...
 -- total gradient after adding PCM contribution --
---------------------------------------------------
  Atom         X              Y              Z     
---------------------------------------------------
   1      -0.000021       0.000081      -0.000115
   2       0.000043      -0.000074       0.000082
   3       0.000026       0.000028      -0.000103
   4       0.000001       0.000026      -0.000070
   5      -0.000059       0.000012       0.000057
   6      -0.000086      -0.000066       0.000058
   7       0.000008       0.000000      -0.000043
   8       0.000006      -0.000004       0.000035
   9       0.000002      -0.000029       0.000015
  10      -0.000028      -0.000024       0.000022
  11       0.000009      -0.000011      -0.000011
  12       0.000031       0.000025      -0.000009
  13      -0.000006      -0.000004       0.000002
  14       0.000034      -0.000053       0.000046
  15      -0.000003      -0.000006      -0.000012
  16      -0.000002      -0.000043      -0.000048
  17       0.000060       0.000036       0.000077
  18       0.000032       0.000062      -0.000017
  19       0.000012       0.000187       0.000011
  20      -0.000045      -0.000063      -0.000040
  21      -0.000044      -0.000055       0.000043
  22       0.000029      -0.000026       0.000021
---------------------------------------------------
 Number of fixed atoms: 0
 Gradient time:  CPU 748.89 s  wall 60.00 s

STARTING FREEZING STRING ITERATION # 1
 The distance between the innermost nodes (Angstroms): 2.646
-Adding two new nodes
 The distance between the previous and current R_nodes (Angstroms): 0.1294
 The distance between the previous and current P_nodes (Angstroms): 0.1367
-Optimizing new reactant side node
 Using BFGS, step: 2 E_tol 0.0373
 max_steps 6, node_spacing 0.1323, sigma 0.7000
 ----------------------------------------------------------------
             Standard Nuclear Orientation (Angstroms)
    I     Atom           X                Y                Z
 ----------------------------------------------------------------
    1      C      -0.1513563582    -0.2972784390     0.7409420144
    2      C      -1.1060796203    -0.9942638500     1.7004539038
    3      C      -1.9065857877    -2.0486798386     1.0037111398
    4      C      -2.3365637478    -1.7903575249    -0.2886117643
    5      C      -2.0078631570    -0.5972342142    -0.8972104337
    6      C      -1.2174020270     0.4054516266    -0.1103316896
    7      C      -0.6578621958     1.5502577626    -0.9370828077
    8      H       0.4329444795     0.4529447279     1.2774617642
    9      H      -0.6436797614    -1.3315116841     2.6235141703
   10      H      -2.1949834151    -2.9435169887     1.5334037335
   11      H      -2.9322082325    -2.5229852709    -0.8172588697
   12      H      -2.3343191873    -0.3529869341    -1.8992027566
   13      H      -1.4520401263     2.0503419111    -1.4927674409
   14      O       0.3499555827     1.0591618631    -1.8173473419
   15      H      -0.1816614432     2.2686466469    -0.2733263259
   16      H      -0.0774928079     0.6208898577    -2.5617857775
   17      O       0.6758337181    -1.1940643994     0.0403638448
   18      H       1.0346182028    -0.7073436525    -0.7141917711
   19      O      -1.9548536464     0.1090288763     2.0855386643
   20      O      -2.0542067457     0.9837477223     0.9135671103
   21      O       0.6431369769    -3.9731001676     1.7105857987
   22      O       1.1730702674    -3.2837615817     2.5400631893
 ----------------------------------------------------------------
 Nuclear Repulsion Energy =         866.56160487 hartrees
 There are       50 alpha and       49 beta electrons
 Discretize the solute cavity surface with Lebedev spheres
	Using 110 Lebedev grid points for each H atom
	Using 194 Lebedev grid points for other atoms
	Atomic van der Waals radii will be scaled by 1.20
 Remove points where switching function is < 1.0e-08
 Keep 1718 surface tesserae and discard 1794 interior tesserae
 Molecular Surface Area = 199.527 Angst**2
 Applying Cartesian multipole field
    Component          Value
    ---------          -----
     (2,0,0)        1.00000E-11
     (0,2,0)        2.00000E-11
     (0,0,2)       -3.00000E-11
 Nucleus-field energy     =     0.0000000094 hartrees
 Requested basis set is 6-311++G(2df,2p)
 There are 158 shells and 532 basis functions
 A cutoff of  1.0D-12 yielded  10775 shell pairs
 There are    121357 function pairs (    151609 Cartesian)
 Smallest overlap matrix eigenvalue = 1.53E-06
 Guess from superposition of atomic densities
 Warning:  Energy on first SCF cycle will be non-variational
 SAD guess density has 99.000000 electrons

 -----------------------------------------------------------------------
  General SCF calculation program by
  Eric Jon Sundstrom, Paul Horn, Yuezhi Mao, Dmitri Zuev, Alec White,
  David Stuck, Shaama M.S., Shane Yost, Joonho Lee, David Small,
  Daniel Levine, Susi Lehtola, Hugh Burton, Evgeny Epifanovsky,
  Bang C. Huynh
 -----------------------------------------------------------------------
 Exchange:     0.1500 Hartree-Fock + 1.0000 wB97M-V + LR-HF
 Correlation:  1.0000 wB97M-V
 Using SG-2 standard quadrature grid
 Nonlocal Correlation:  VV10 with C = 0.0100 and b = 6.00 and scale = 1.00000
 Grid used for NLC:  SG-1 standard quadrature
 
 Citation of the SMD model:
 Marenich, A.V.; Cramer, C.J.; Truhlar, D.G.
 J. Phys. Chem. B 2009, 113, 6378-6396.
 iSolventCode=           1
 Solvent: water                                                           
 
 vradii
            1           2           3           4           5           6
    1   1.8500000   1.8500000   1.8500000   1.8500000   1.8500000   1.8500000
            7           8           9          10          11          12
    1   1.8500000   1.2000000   1.2000000   1.2000000   1.2000000   1.2000000
           13          14          15          16          17          18
    1   1.2000000   1.5200000   1.2000000   1.2000000   1.5200000   1.2000000
           19          20          21          22
    1   1.5200000   1.5200000   1.5200000   1.5200000
 -------------------------------------------------------
 OpenMP BLAS3 based DFT computing Module                
 Release: version 1.0, May 2013, Q-Chem Inc. Pittsburgh 
 -------------------------------------------------------
 A unrestricted SCF calculation will be
 performed using DIIS, GDM
 SCF converges when RMS gradient is below 1.0e-07
 ---------------------------------------
  Cycle       Energy         DIIS error
 ---------------------------------------
    1    -726.3816756672      1.08e-02  
    2    -723.0525163573      1.04e-03  Done DIIS. Switching to GDM
 ---------------------------------------
  Cycle       Energy        RMS Gradient
 ---------------------------------------
    1    -723.0525163573      4.00e-02   Descent step
    2    -723.1614208304      6.30e-02   Normal BFGS step
    3    -723.1816856956      3.21e-02   Normal BFGS step
    4    -723.1859928183      5.63e-02   Normal BFGS step
    5    -723.1895356691      3.31e-02   Normal BFGS step
    6    -723.1936295233      5.10e-02   Normal BFGS step
    7    -723.2024047453      9.49e-02   Dog-leg BFGS step
    8    -723.2353709413      8.53e-02   Dog-leg BFGS step
    9    -723.2416868452      5.19e-02   Normal BFGS step
   10    -723.2467459390      3.18e-02   Normal BFGS step
   11    -723.2415688483      4.89e-02  Line search: overstep
   12    -723.2486204602      9.32e-03   Normal BFGS step
   13    -723.2474531582      1.05e-02  Line search: overstep
   14    -723.2502365622      3.94e-03   Normal BFGS step
   15    -723.2503272487      6.01e-03   Normal BFGS step
   16    -723.2503914716      2.03e-03   Normal BFGS step
   17    -723.2504049119      5.78e-04   Normal BFGS step
   18    -723.2504087873      3.16e-04   Normal BFGS step
   19    -723.2504094437      2.06e-04   Normal BFGS step
   20    -723.2504096426      8.74e-05   Normal BFGS step
   21    -723.2504096853      5.37e-05   Normal BFGS step
   22    -723.2504097026      2.53e-05   Normal BFGS step
   23    -723.2504097071      1.09e-05   Normal BFGS step
   24    -723.2504097080      3.81e-06   Normal BFGS step
   25    -723.2504097082      3.03e-06   Normal BFGS step
   26    -723.2504097083      1.61e-06   Normal BFGS step
   27    -723.2504097083      7.35e-07   Normal BFGS step
   28    -723.2504097083      3.59e-07   Normal BFGS step
   29    -723.2504097083      1.03e-07   Normal BFGS step
   30    -723.2504097081      5.64e-08  Convergence criterion met
 ---------------------------------------
 SCF time:   CPU 7384.86s  wall 514.00s 
<S^2> =          1.784578195
(3)  G-ENP(liq) elect-nuc-pol free energy of system     -723.250409708 a.u.
(4)  G-CDS(liq) cavity-dispersion-solvent structure 
     free energy                                                2.8222 kcal/mol
(6)  G-S(liq) free energy of system                     -723.245912307 a.u.
 SCF   energy in the final basis set =     -723.2459123068
 Total energy in the final basis set =     -723.2459123068
 
 --------------------------------------------------------------
 
                    Orbital Energies (a.u.)
 --------------------------------------------------------------
 
 Alpha MOs
 -- Occupied --
-19.4889 -19.4882 -19.4021 -19.4015 -19.3480 -19.3446 -10.4131 -10.4068
-10.4044 -10.3936 -10.3531 -10.3468 -10.3468  -1.4363  -1.2684  -1.1739
 -1.1612  -1.0656  -0.9684  -0.9595  -0.8861  -0.8468  -0.8006  -0.7481
 -0.7053  -0.6806  -0.6749  -0.6742  -0.6633  -0.6546  -0.6288  -0.6069
 -0.5807  -0.5749  -0.5608  -0.5500  -0.5307  -0.5199  -0.5138  -0.4921
 -0.4762  -0.4587  -0.4477  -0.4320  -0.4102  -0.4091  -0.3958  -0.3895
 -0.3872  -0.3594
 -- Virtual --
 -0.0183   0.0253   0.0360   0.0363   0.0455   0.0547   0.0554   0.0729
  0.0782   0.0811   0.0872   0.0900   0.0988   0.1107   0.1263   0.1283
  0.1330   0.1348   0.1452   0.1456   0.1491   0.1527   0.1566   0.1607
  0.1687   0.1730   0.1772   0.1825   0.1871   0.1889   0.1978   0.1988
  0.2057   0.2104   0.2127   0.2179   0.2239   0.2275   0.2403   0.2512
  0.2569   0.2670   0.2706   0.2796   0.2850   0.2877   0.2950   0.2994
  0.3009   0.3052   0.3137   0.3201   0.3220   0.3308   0.3333   0.3391
  0.3462   0.3520   0.3545   0.3564   0.3629   0.3730   0.3745   0.3791
  0.3814   0.3900   0.3907   0.3953   0.4011   0.4052   0.4099   0.4179
  0.4294   0.4370   0.4471   0.4570   0.4613   0.4755   0.4808   0.4862
  0.5051   0.5077   0.5137   0.5190   0.5398   0.5567   0.5752   0.6020
  0.6046   0.6203   0.6277   0.6353   0.6380   0.6580   0.6597   0.6674
  0.6727   0.6762   0.6928   0.7012   0.7126   0.7171   0.7238   0.7371
  0.7407   0.7431   0.7483   0.7595   0.7761   0.7908   0.7998   0.8128
  0.8175   0.8337   0.8446   0.8611   0.8733   0.8855   0.8880   0.8942
  0.9092   0.9141   0.9423   0.9689   0.9711   1.0070   1.0233   1.0357
  1.0386   1.0509   1.0555   1.0623   1.0776   1.0885   1.0957   1.0985
  1.1078   1.1179   1.1301   1.1403   1.1422   1.1536   1.1648   1.1716
  1.1776   1.1874   1.1990   1.2011   1.2249   1.2271   1.2481   1.2588
  1.2595   1.2640   1.2771   1.2893   1.2974   1.3035   1.3130   1.3246
  1.3401   1.3409   1.3493   1.3622   1.3712   1.3780   1.3866   1.3887
  1.3995   1.4102   1.4208   1.4266   1.4319   1.4432   1.4531   1.4589
  1.4693   1.4814   1.4975   1.5041   1.5144   1.5275   1.5364   1.5450
  1.5605   1.5686   1.5759   1.5907   1.6079   1.6096   1.6262   1.6272
  1.6509   1.6546   1.6654   1.6744   1.6920   1.7203   1.7218   1.7450
  1.7509   1.7774   1.7896   1.8048   1.8170   1.8433   1.8687   1.8812
  1.8917   1.9003   1.9621   1.9689   2.0010   2.0140   2.0332   2.0535
  2.0829   2.0866   2.1359   2.1466   2.1754   2.1957   2.2221   2.2749
  2.2959   2.3260   2.3278   2.3429   2.3472   2.3734   2.3956   2.4164
  2.4285   2.4770   2.5179   2.5365   2.6162   2.6517   2.6906   2.7145
  2.7306   2.7407   2.7785   2.7854   2.8095   2.8277   2.8434   2.8536
  2.8724   2.8889   2.8928   2.8968   2.9281   2.9428   2.9627   2.9669
  2.9797   2.9935   3.0137   3.0282   3.0483   3.0510   3.0677   3.0937
  3.1159   3.1291   3.1634   3.1729   3.1922   3.2074   3.2339   3.2436
  3.2703   3.2795   3.3032   3.3196   3.3504   3.3598   3.3809   3.3944
  3.4020   3.4392   3.4465   3.4513   3.4602   3.4792   3.5021   3.5186
  3.5305   3.5583   3.5658   3.5911   3.6096   3.6138   3.6415   3.6456
  3.6620   3.6722   3.6909   3.6947   3.7217   3.7386   3.7575   3.7706
  3.7769   3.7939   3.8071   3.8344   3.8426   3.8471   3.8520   3.8708
  3.8970   3.9063   3.9137   3.9158   3.9454   3.9534   3.9744   3.9834
  3.9867   4.0123   4.0344   4.0507   4.0752   4.0920   4.1159   4.1260
  4.1498   4.1688   4.1905   4.2103   4.2576   4.2712   4.2800   4.2916
  4.3317   4.3405   4.3448   4.3671   4.3737   4.3943   4.4192   4.4259
  4.4375   4.4643   4.4980   4.5013   4.5058   4.5206   4.5479   4.5543
  4.5750   4.5756   4.5828   4.5863   4.6018   4.6147   4.6435   4.6542
  4.6694   4.6866   4.6921   4.7113   4.7488   4.7593   4.7904   4.7941
  4.8374   4.8829   4.8994   4.9034   4.9203   4.9811   4.9861   5.0017
  5.0358   5.0707   5.1031   5.1199   5.1506   5.1522   5.1577   5.1716
  5.1773   5.2026   5.2594   5.2628   5.2806   5.3044   5.3157   5.3224
  5.3369   5.3438   5.3511   5.3717   5.4029   5.4122   5.4327   5.4543
  5.4814   5.5099   5.5325   5.5438   5.5754   5.6106   5.6237   5.6370
  5.6481   5.6792   5.6949   5.7011   5.7413   5.7443   5.7455   5.7648
  5.7774   5.7977   5.8048   5.8798   5.9187   5.9586   5.9949   6.0380
  6.0533   6.0711   6.1063   6.1551   6.2654   6.5913   6.6033   6.6650
  6.6901   6.7265   6.7606   6.7677   6.8027   6.8087   6.8115   6.8344
  6.9065   6.9723   6.9891   7.0478   7.1127   7.1395   7.2967   7.3113
  7.3349   7.3446   7.3507   7.3703   7.3809   7.4108   7.4321   7.4588
  7.4707   7.4983   7.5554   7.6488   7.6615   7.7175   7.7964   7.8614
  7.9222   7.9771   8.0980   8.1091   8.2705  24.3852  24.7217  24.7516
 24.7952  24.8477  24.9437  25.2252  50.4270  50.5296  50.6051  50.6249
 50.6811  50.6941
 
 Beta MOs
 -- Occupied --
-19.4587 -19.4579 -19.4035 -19.4027 -19.3481 -19.3446 -10.4126 -10.4063
-10.4050 -10.3936 -10.3551 -10.3550 -10.3500  -1.3801  -1.2710  -1.1742
 -1.1614  -1.0687  -0.9753  -0.8888  -0.8728  -0.8557  -0.8087  -0.7505
 -0.7105  -0.6823  -0.6584  -0.6331  -0.6180  -0.6083  -0.5872  -0.5798
 -0.5692  -0.5689  -0.5639  -0.5529  -0.5331  -0.5217  -0.5166  -0.4937
 -0.4804  -0.4607  -0.4523  -0.4348  -0.4222  -0.3953  -0.3905  -0.3660
 -0.2848
 -- Virtual --
 -0.0124  -0.0122   0.0257   0.0363   0.0366   0.0456   0.0550   0.0555
  0.0715   0.0736   0.0812   0.0865   0.0887   0.0929   0.1089   0.1266
  0.1294   0.1334   0.1349   0.1451   0.1455   0.1496   0.1537   0.1568
  0.1610   0.1688   0.1738   0.1775   0.1808   0.1838   0.1897   0.1996
  0.2003   0.2064   0.2112   0.2132   0.2179   0.2244   0.2279   0.2427
  0.2526   0.2543   0.2671   0.2714   0.2827   0.2864   0.2890   0.2948
  0.2988   0.3003   0.3054   0.3132   0.3205   0.3264   0.3302   0.3342
  0.3438   0.3461   0.3528   0.3540   0.3556   0.3650   0.3692   0.3741
  0.3803   0.3809   0.3892   0.3900   0.3968   0.4019   0.4051   0.4142
  0.4278   0.4309   0.4385   0.4467   0.4570   0.4633   0.4758   0.4797
  0.4873   0.5023   0.5066   0.5126   0.5177   0.5380   0.5555   0.5741
  0.5979   0.6040   0.6161   0.6272   0.6301   0.6368   0.6566   0.6589
  0.6668   0.6738   0.6747   0.6838   0.6977   0.7103   0.7134   0.7228
  0.7342   0.7392   0.7420   0.7460   0.7564   0.7716   0.7854   0.7956
  0.8087   0.8135   0.8308   0.8422   0.8590   0.8716   0.8815   0.8838
  0.8908   0.9053   0.9117   0.9397   0.9682   0.9692   1.0082   1.0235
  1.0364   1.0432   1.0520   1.0639   1.0732   1.0831   1.0897   1.0978
  1.1052   1.1155   1.1259   1.1404   1.1474   1.1531   1.1614   1.1685
  1.1737   1.1897   1.1945   1.2001   1.2017   1.2254   1.2269   1.2493
  1.2587   1.2620   1.2745   1.2777   1.2935   1.2994   1.3030   1.3119
  1.3246   1.3405   1.3415   1.3488   1.3644   1.3713   1.3795   1.3856
  1.3902   1.4095   1.4144   1.4270   1.4412   1.4451   1.4511   1.4519
  1.4596   1.4672   1.4903   1.4961   1.5072   1.5158   1.5301   1.5429
  1.5483   1.5647   1.5686   1.5753   1.5900   1.6077   1.6179   1.6247
  1.6326   1.6526   1.6595   1.6675   1.6743   1.6914   1.7188   1.7265
  1.7595   1.7818   1.7932   1.7981   1.8116   1.8185   1.8462   1.8711
  1.8821   1.8904   1.8993   1.9583   1.9666   1.9950   2.0109   2.0297
  2.0508   2.0803   2.0859   2.1309   2.1448   2.1741   2.1946   2.2193
  2.2729   2.2984   2.3268   2.3454   2.3572   2.3752   2.3945   2.4008
  2.4168   2.4283   2.4755   2.5158   2.5339   2.6313   2.6500   2.6838
  2.7063   2.7277   2.7364   2.7745   2.7780   2.7971   2.8197   2.8308
  2.8472   2.8692   2.8761   2.8804   2.8857   2.9189   2.9342   2.9506
  2.9546   2.9600   2.9730   3.0018   3.0116   3.0304   3.0406   3.0541
  3.0852   3.1039   3.1235   3.1448   3.1642   3.1839   3.1950   3.2252
  3.2368   3.2652   3.2710   3.2942   3.3107   3.3408   3.3511   3.3720
  3.3790   3.3945   3.4270   3.4375   3.4406   3.4539   3.4675   3.4991
  3.5132   3.5202   3.5447   3.5596   3.5771   3.5998   3.6039   3.6308
  3.6417   3.6492   3.6680   3.6780   3.6834   3.7098   3.7360   3.7463
  3.7617   3.7726   3.7860   3.7952   3.8217   3.8293   3.8384   3.8460
  3.8644   3.8897   3.9006   3.9077   3.9109   3.9370   3.9492   3.9692
  3.9782   3.9796   4.0066   4.0235   4.0419   4.0684   4.0838   4.1091
  4.1207   4.1419   4.1624   4.1845   4.2052   4.2541   4.2659   4.2751
  4.2885   4.3208   4.3334   4.3365   4.3588   4.3648   4.3840   4.4154
  4.4205   4.4338   4.4578   4.4914   4.4939   4.4960   4.5162   4.5457
  4.5740   4.5892   4.6018   4.6065   4.6230   4.6279   4.6328   4.6372
  4.6499   4.6567   4.6750   4.6790   4.7049   4.7448   4.7502   4.7851
  4.7878   4.8301   4.8759   4.9413   4.9719   4.9830   4.9877   4.9955
  5.0607   5.0828   5.1243   5.1463   5.1595   5.1702   5.1832   5.2037
  5.2354   5.2381   5.2424   5.2541   5.2621   5.2780   5.3030   5.3145
  5.3218   5.3380   5.3491   5.3720   5.3847   5.4035   5.4098   5.4285
  5.4508   5.4778   5.5071   5.5285   5.5427   5.5658   5.6063   5.6112
  5.6296   5.6429   5.6768   5.6871   5.7000   5.7405   5.7592   5.7753
  5.7928   5.8001   5.8055   5.8086   5.8780   5.9129   5.9561   5.9917
  6.0343   6.0493   6.0566   6.1017   6.1411   6.2634   6.5972   6.6055
  6.6646   6.7580   6.7607   6.8271   6.8505   6.8866   6.8914   6.9367
  6.9465   6.9786   7.0446   7.0521   7.0685   7.1123   7.1393   7.2962
  7.3092   7.3340   7.3447   7.3801   7.4017   7.4082   7.4217   7.4312
  7.4571   7.4699   7.4955   7.5533   7.6456   7.6598   7.7174   7.7960
  7.8608   7.9197   7.9745   8.1295   8.1614   8.2690  24.3823  24.7213
 24.7479  24.7942  24.8475  24.9410  25.2222  50.4509  50.5534  50.6042
 50.6245  50.6810  50.6931
 --------------------------------------------------------------
 
          Ground-State Mulliken Net Atomic Charges

     Atom                 Charge (a.u.)    Spin (a.u.)
  --------------------------------------------------------
      1 C                    -0.267825      -0.031648
      2 C                     0.375059       0.054230
      3 C                    -0.718965      -0.568594
      4 C                    -0.208346       0.134006
      5 C                    -0.324765      -0.564550
      6 C                    -0.122606       0.043187
      7 C                    -0.432484      -0.008212
      8 H                     0.323646       0.002857
      9 H                     0.285849      -0.006935
     10 H                     0.330670       0.013534
     11 H                     0.300470      -0.008210
     12 H                     0.326232       0.013770
     13 H                     0.250030       0.000236
     14 O                    -0.381164      -0.002273
     15 H                     0.241525       0.000165
     16 H                     0.329874       0.000418
     17 O                    -0.410116      -0.004674
     18 H                     0.329094      -0.002287
     19 O                    -0.146726      -0.029816
     20 O                    -0.116987      -0.028061
     21 O                     0.034044       0.996393
     22 O                     0.003491       0.996464
  --------------------------------------------------------
  Sum of atomic charges =    -0.000000
  Sum of spin   charges =     1.000000

 -----------------------------------------------------------------
                    Cartesian Multipole Moments
 -----------------------------------------------------------------
    Charge (ESU x 10^10)
                 0.0000
    Dipole Moment (Debye)
         X       0.2521      Y      -0.7652      Z      -3.4593
       Tot       3.5519
    Quadrupole Moments (Debye-Ang)
        XX     -82.4116     XY       6.1853     YY     -74.5707
        XZ      10.5424     YZ      -4.3789     ZZ     -68.7296
    Octopole Moments (Debye-Ang^2)
       XXX     208.6523    XXY      37.2192    XYY      46.5867
       YYY     158.1845    XXZ     -58.2368    XYZ      13.6795
       YYZ     -26.2818    XZZ      61.0865    YZZ      38.8026
       ZZZ    -123.1021
    Hexadecapole Moments (Debye-Ang^3)
      XXXX   -1103.5509   XXXY      15.9958   XXYY    -389.7790
      XYYY      16.9152   YYYY   -1463.0307   XXXZ     107.3499
      XXYZ     108.5546   XYYZ      21.3774   YYYZ     311.7406
      XXZZ    -344.5915   XYZZ       2.4383   YYZZ    -387.6889
      XZZZ      91.3171   YZZZ     307.1639   ZZZZ    -874.4019
 -----------------------------------------------------------------
 Calculating analytic gradient of the SCF energy
 Gradient of CDS energy
            1           2           3           4           5           6
    1   0.0012793  -0.0000120  -0.0001321  -0.0002115  -0.0001964   0.0000592
    2  -0.0012428   0.0001971  -0.0002137  -0.0002637   0.0001688   0.0000619
    3  -0.0009051   0.0002324   0.0002587  -0.0001807  -0.0002306   0.0001589
[...]
   8      -0.000001       0.000012      -0.000002
   9      -0.000003       0.000013       0.000002
  10       0.000028      -0.000004      -0.000006
  11       0.000012      -0.000004       0.000002
  12       0.000001      -0.000010      -0.000001
  13      -0.000003      -0.000006      -0.000005
  14      -0.000004      -0.000001      -0.000000
  15      -0.000005      -0.000005      -0.000003
  16       0.000008      -0.000013       0.000010
  17       0.000021       0.000012      -0.000029
  18       0.000027      -0.000006       0.000001
  19      -0.000024      -0.000001       0.000001
  20      -0.000002       0.000014       0.000004
  21      -0.000023      -0.000016       0.000144
  22       0.000003      -0.000009      -0.000114
---------------------------------------------------
 Number of fixed atoms: 0
 Gradient time:  CPU 714.79 s  wall 57.39 s
 Geometry Optimization Parameters
   NAtoms,    NIC,     NZ,  NCons,   NDum,   NFix, NCnnct, MaxDiis
       22     176       0       0       0       0       0       0

 Cartesian Hessian Update
 Hessian updated using Powell/Murtagh-Sargent update
  Mixing factors:     0.999964 Powell                      0.000036 Murtagh-Sargent


** GEOMETRY OPTIMIZATION IN DELOCALIZED INTERNAL COORDINATES **
   Searching for a Transition State

   Optimization Cycle:  27

                       Coordinates (Angstroms)
     ATOM                X               Y               Z
      1  C        -0.0568356492   -0.1801173299    0.7839561656
      2  C        -0.9336704908   -0.9288542812    1.7786576951
      3  C        -1.6592052976   -2.0810597334    1.1557228011
      4  C        -2.1053357374   -1.9179068089   -0.1807021767
      5  C        -1.8627520303   -0.7573216707   -0.8328734045
      6  C        -1.1860001578    0.3675646524   -0.0926538726
      7  C        -0.7506077486    1.5244436730   -0.9765877714
      8  H         0.4366724422    0.6503542526    1.2931750506
      9  H        -0.4356447956   -1.1836102491    2.7105129536
     10  H        -2.1272375654   -2.8030467055    1.8063544442
     11  H        -2.6582729886   -2.7158575081   -0.6579934610
     12  H        -2.1993408579   -0.5902815838   -1.8483187585
     13  H        -1.5928206027    1.9105668195   -1.5516844845
     14  O         0.3031476718    1.0981623067   -1.8359580131
     15  H        -0.3532527975    2.3189143809   -0.3487471884
     16  H        -0.0771529609    0.6097360498   -2.5745451856
     17  O         0.8697055113   -0.9990204351    0.1147548499
     18  H         1.1839282639   -0.4887909012   -0.6449141874
     19  O        -1.8920052880    0.0955374897    2.1149862072
     20  O        -2.0818973491    0.8980881610    0.9022111722
     21  O        -0.0324700635   -3.5309342104    1.0688758163
     22  O         0.3020323573   -3.8931640246    2.1882178170
   Point Group: c1    Number of degrees of freedom:    60


   Energy is   -723.236669437

 Hessian updated using Powell/Murtagh-Sargent update
  Mixing factors:     0.997789 Powell                      0.002211 Murtagh-Sargent

 60 Hessian modes will be used to form the next step
  Hessian Eigenvalues:
    -0.085180    0.000327    0.006520    0.012213    0.012456    0.014474
     0.015086    0.015184    0.019879    0.021547    0.027160    0.038688
     0.043922    0.045328    0.051984    0.054779    0.057417    0.060446
     0.072140    0.072871    0.082784    0.088691    0.098615    0.104900
     0.110084    0.113731    0.119884    0.135594    0.137339    0.154361
     0.157937    0.159670    0.160336    0.160708    0.189162    0.214521
     0.221703    0.251030    0.270045    0.296020    0.303791    0.328436
     0.334977    0.346456    0.346924    0.349994    0.350598    0.353687
     0.360007    0.365222    0.366464    0.375822    0.395910    0.398653
     0.418492    0.442820    0.522856    0.541157    0.544401    0.868958

 Transition state search - taking P-RFO step
 Searching for Lamda that Maximizes Along the Lowest mode
 Value Taken    Lamda =   0.00000000
 Searching for Lamda that Minimizes Along All other modes
 Value Taken    Lamda =  -0.00000105
 Step Taken.  Stepsize is  0.049420

                             Maximum     Tolerance    Cnvgd?
         Gradient           0.000144      0.000300     YES
         Displacement       0.022480      0.001200      NO
         Energy change     -0.000000      0.000001     YES

 Final energy is   -723.236669436606     


 ******************************
 **  OPTIMIZATION CONVERGED  **
 ******************************

                       Coordinates (Angstroms)
     ATOM                X               Y               Z
      1  C        -0.0568356492   -0.1801173299    0.7839561656
      2  C        -0.9336704908   -0.9288542812    1.7786576951
      3  C        -1.6592052976   -2.0810597334    1.1557228011
      4  C        -2.1053357374   -1.9179068089   -0.1807021767
      5  C        -1.8627520303   -0.7573216707   -0.8328734045
      6  C        -1.1860001578    0.3675646524   -0.0926538726
      7  C        -0.7506077486    1.5244436730   -0.9765877714
      8  H         0.4366724422    0.6503542526    1.2931750506
      9  H        -0.4356447956   -1.1836102491    2.7105129536
     10  H        -2.1272375654   -2.8030467055    1.8063544442
     11  H        -2.6582729886   -2.7158575081   -0.6579934610
     12  H        -2.1993408579   -0.5902815838   -1.8483187585
     13  H        -1.5928206027    1.9105668195   -1.5516844845
     14  O         0.3031476718    1.0981623067   -1.8359580131
     15  H        -0.3532527975    2.3189143809   -0.3487471884
     16  H        -0.0771529609    0.6097360498   -2.5745451856
     17  O         0.8697055113   -0.9990204351    0.1147548499
     18  H         1.1839282639   -0.4887909012   -0.6449141874
     19  O        -1.8920052880    0.0955374897    2.1149862072
     20  O        -2.0818973491    0.8980881610    0.9022111722
     21  O        -0.0324700635   -3.5309342104    1.0688758163
     22  O         0.3020323573   -3.8931640246    2.1882178170

Z-matrix Print:
$molecule
0 2
O 
C  1 1.440085
O  1 1.466619 2 106.805690
C  3 1.442533 1 106.368420 2 -2.718555 0
H  4 1.086869 3 105.721882 1 152.633304 0
C  4 1.497340 3 108.756118 1 -85.182909 0
H  6 1.078722 4 118.315971 3 -82.688004 0
C  6 1.418338 4 117.122643 3 75.040036 0
H  8 1.081791 6 119.448969 4 -178.267443 0
C  8 1.353193 6 119.761197 4 0.202307 0
H  10 1.082739 8 121.909830 6 -179.137854 0
C  2 1.519630 1 107.435419 3 -147.920722 0
H  12 1.087777 2 108.962326 1 53.404068 0
H  12 1.090481 2 110.796095 1 -66.687095 0
O  12 1.425003 2 109.567844 1 170.455402 0
H  15 0.963691 12 108.783593 2 79.605709 0
C  4 1.522786 3 100.699994 1 33.411374 0
H  17 1.092033 4 109.241075 3 63.791348 0
O  17 1.406027 4 113.826740 3 -170.818859 0
H  19 0.967557 17 106.293904 4 164.429896 0
O  6 2.180813 4 99.596985 3 -171.484578 0
O  21 1.223123 6 111.373475 4 67.855012 0
$end

 
 --------------------------------------------------------------
 
                    Orbital Energies (a.u.)
 --------------------------------------------------------------
 
 Alpha MOs
 -- Occupied --
-19.4751 -19.4466 -19.4072 -19.4054 -19.3490 -19.3454 -10.4164 -10.4125
-10.4075 -10.3951 -10.3720 -10.3573 -10.3562  -1.3956  -1.2733  -1.1755
 -1.1624  -1.0713  -0.9773  -0.9431  -0.8912  -0.8526  -0.8080  -0.7519
 -0.7126  -0.6861  -0.6651  -0.6472  -0.6441  -0.6375  -0.6250  -0.6090
 -0.5875  -0.5775  -0.5645  -0.5514  -0.5323  -0.5240  -0.5182  -0.4952
 -0.4840  -0.4620  -0.4507  -0.4342  -0.4105  -0.3996  -0.3922  -0.3877
 -0.3715  -0.3618
 -- Virtual --
 -0.0120   0.0253   0.0352   0.0363   0.0456   0.0547   0.0553   0.0703
  0.0772   0.0789   0.0865   0.0896   0.0998   0.1120   0.1246   0.1276
  0.1307   0.1344   0.1428   0.1456   0.1485   0.1513   0.1564   0.1611
  0.1684   0.1732   0.1748   0.1827   0.1862   0.1880   0.1984   0.2002
  0.2073   0.2114   0.2136   0.2179   0.2258   0.2292   0.2479   0.2530
  0.2600   0.2618   0.2716   0.2755   0.2901   0.2927   0.2974   0.3029
  0.3055   0.3124   0.3153   0.3238   0.3273   0.3298   0.3358   0.3447
  0.3476   0.3527   0.3612   0.3640   0.3673   0.3734   0.3780   0.3804
  0.3820   0.3855   0.3941   0.4044   0.4049   0.4128   0.4208   0.4265
  0.4348   0.4387   0.4515   0.4546   0.4691   0.4759   0.4824   0.4901
  0.5029   0.5044   0.5136   0.5293   0.5391   0.5603   0.5716   0.5995
  0.6116   0.6181   0.6217   0.6351   0.6375   0.6590   0.6603   0.6643
  0.6764   0.6772   0.6877   0.7017   0.7038   0.7133   0.7257   0.7308
  0.7411   0.7447   0.7474   0.7508   0.7813   0.7853   0.7940   0.8070
  0.8117   0.8296   0.8410   0.8606   0.8746   0.8842   0.8935   0.9004
  0.9209   0.9384   0.9501   0.9527   0.9731   0.9926   1.0156   1.0366
  1.0444   1.0580   1.0643   1.0738   1.0877   1.1019   1.1052   1.1206
  1.1231   1.1309   1.1464   1.1505   1.1563   1.1654   1.1769   1.1856
  1.1903   1.1970   1.2155   1.2315   1.2363   1.2402   1.2567   1.2596
  1.2716   1.2823   1.2862   1.2994   1.3028   1.3084   1.3163   1.3266
  1.3367   1.3537   1.3539   1.3605   1.3765   1.3826   1.3877   1.3997
  1.4118   1.4193   1.4241   1.4465   1.4518   1.4538   1.4706   1.4818
  1.4867   1.5018   1.5144   1.5220   1.5374   1.5436   1.5471   1.5721
  1.5774   1.5859   1.5945   1.6103   1.6161   1.6222   1.6308   1.6346
  1.6637   1.6688   1.6793   1.7066   1.7115   1.7186   1.7388   1.7522
  1.7641   1.7892   1.8069   1.8168   1.8377   1.8691   1.8898   1.8964
  1.9153   1.9472   1.9727   1.9874   2.0093   2.0400   2.0499   2.0535
  2.0849   2.1181   2.1430   2.1501   2.1774   2.1975   2.2212   2.2762
  2.2996   2.3205   2.3273   2.3409   2.3546   2.3700   2.4076   2.4207
  2.4578   2.4863   2.5125   2.5520   2.6398   2.6678   2.7031   2.7284
  2.7373   2.7416   2.7768   2.7872   2.8157   2.8201   2.8421   2.8487
  2.8823   2.8867   2.8927   2.9004   2.9254   2.9459   2.9588   2.9816
  2.9912   3.0064   3.0278   3.0324   3.0657   3.0769   3.0901   3.1024
  3.1294   3.1435   3.1516   3.1892   3.1961   3.2262   3.2434   3.2621
  3.2760   3.2888   3.2919   3.3165   3.3426   3.3515   3.3898   3.3969
  3.4079   3.4411   3.4439   3.4579   3.4765   3.4855   3.4957   3.5192
  3.5257   3.5552   3.5700   3.5998   3.6077   3.6200   3.6308   3.6516
  3.6650   3.6657   3.6807   3.7003   3.7194   3.7415   3.7462   3.7681
  3.7726   3.7861   3.8067   3.8170   3.8205   3.8514   3.8711   3.8719
  3.8927   3.9016   3.9159   3.9185   3.9453   3.9551   3.9695   3.9832
  3.9992   4.0148   4.0339   4.0402   4.0578   4.1100   4.1139   4.1308
  4.1462   4.1619   4.1976   4.2164   4.2471   4.2684   4.2919   4.3041
  4.3261   4.3313   4.3574   4.3664   4.3886   4.4063   4.4093   4.4254
  4.4295   4.4535   4.4858   4.4969   4.5082   4.5165   4.5417   4.5753
  4.5872   4.5883   4.6001   4.6078   4.6197   4.6323   4.6489   4.6545
  4.6830   4.6970   4.7119   4.7379   4.7534   4.7651   4.7755   4.7907
  4.8311   4.8839   4.9601   4.9758   4.9885   4.9964   5.0015   5.0452
  5.0650   5.0884   5.1428   5.1567   5.1604   5.1759   5.1948   5.2127
  5.2197   5.2533   5.2710   5.2848   5.2946   5.3053   5.3138   5.3245
  5.3382   5.3416   5.3525   5.3667   5.4000   5.4137   5.4383   5.4583
  5.4875   5.5094   5.5285   5.5395   5.5808   5.6071   5.6173   5.6306
  5.6567   5.6778   5.6828   5.7019   5.7294   5.7397   5.7460   5.7668
  5.7759   5.7843   5.8055   5.8744   5.9162   5.9512   5.9902   6.0348
  6.0407   6.0551   6.0930   6.1294   6.2593   6.6034   6.6109   6.6704
  6.7518   6.7536   6.7661   6.7816   6.7936   6.8024   6.9183   6.9567
  7.0083   7.0130   7.0450   7.1161   7.1407   7.1463   7.2928   7.3081
  7.3336   7.3493   7.3688   7.3837   7.4154   7.4342   7.4378   7.4623
  7.4718   7.4961   7.5545   7.6497   7.6637   7.7172   7.7942   7.8681
  7.9166   7.9764   8.1020   8.1423   8.2666  24.3808  24.7011  24.7528
 24.7916  24.8490  24.9368  25.2391  50.4898  50.5254  50.6017  50.6240
 50.6853  50.6941
 
 Beta MOs
 -- Occupied --
-19.4478 -19.4218 -19.4087 -19.4062 -19.3491 -19.3453 -10.4160 -10.4121
-10.4078 -10.3952 -10.3798 -10.3615 -10.3545  -1.3465  -1.2754  -1.1756
 -1.1625  -1.0738  -0.9814  -0.8954  -0.8751  -0.8548  -0.8126  -0.7535
 -0.7157  -0.6863  -0.6627  -0.6376  -0.6114  -0.6051  -0.5934  -0.5790
 -0.5717  -0.5642  -0.5508  -0.5468  -0.5312  -0.5246  -0.5188  -0.4963
 -0.4871  -0.4635  -0.4531  -0.4359  -0.4156  -0.3972  -0.3917  -0.3698
 -0.2815
 -- Virtual --
 -0.0216  -0.0051   0.0254   0.0356   0.0366   0.0453   0.0547   0.0559
  0.0691   0.0771   0.0783   0.0860   0.0894   0.0954   0.1104   0.1252
  0.1280   0.1312   0.1346   0.1425   0.1459   0.1491   0.1519   0.1573
  0.1608   0.1683   0.1734   0.1754   0.1812   0.1845   0.1886   0.1995
  0.2011   0.2079   0.2121   0.2148   0.2176   0.2265   0.2301   0.2485
  0.2523   0.2572   0.2642   0.2722   0.2751   0.2898   0.2926   0.2986
  0.3043   0.3057   0.3123   0.3156   0.3227   0.3289   0.3337   0.3400
  0.3465   0.3479   0.3525   0.3606   0.3631   0.3700   0.3738   0.3797
  0.3799   0.3824   0.3846   0.3941   0.4036   0.4056   0.4146   0.4256
  0.4322   0.4340   0.4381   0.4517   0.4549   0.4704   0.4773   0.4816
  0.4886   0.5008   0.5037   0.5136   0.5296   0.5374   0.5586   0.5715
  0.5982   0.6088   0.6167   0.6193   0.6344   0.6356   0.6578   0.6590
  0.6647   0.6762   0.6773   0.6870   0.6989   0.7022   0.7111   0.7230
  0.7301   0.7392   0.7428   0.7461   0.7491   0.7748   0.7820   0.7915
  0.8056   0.8082   0.8274   0.8391   0.8602   0.8725   0.8825   0.8926
  0.8987   0.9210   0.9377   0.9442   0.9515   0.9720   0.9943   1.0169
  1.0377   1.0448   1.0574   1.0661   1.0743   1.0901   1.1033   1.1092
  1.1223   1.1294   1.1394   1.1517   1.1523   1.1573   1.1785   1.1835
  1.1903   1.1939   1.2007   1.2228   1.2328   1.2361   1.2429   1.2576
  1.2684   1.2721   1.2866   1.2879   1.3012   1.3052   1.3116   1.3227
  1.3304   1.3387   1.3541   1.3561   1.3631   1.3774   1.3826   1.3879
  1.4009   1.4114   1.4192   1.4259   1.4455   1.4514   1.4559   1.4697
  1.4832   1.4867   1.5030   1.5186   1.5251   1.5382   1.5433   1.5506
  1.5720   1.5791   1.5903   1.5940   1.6175   1.6191   1.6265   1.6389
  1.6452   1.6689   1.6727   1.6820   1.7105   1.7172   1.7217   1.7465
  1.7618   1.7698   1.7910   1.8060   1.8232   1.8470   1.8695   1.8899
  1.8967   1.9209   1.9482   1.9723   1.9847   2.0092   2.0387   2.0495
  2.0561   2.0842   2.1225   2.1419   2.1487   2.1763   2.1967   2.2193
  2.2750   2.3022   2.3219   2.3427   2.3534   2.3769   2.3796   2.4130
  2.4200   2.4608   2.4876   2.5111   2.5513   2.6410   2.6713   2.7055
  2.7238   2.7342   2.7383   2.7726   2.7825   2.8056   2.8148   2.8306
  2.8443   2.8770   2.8818   2.8864   2.8961   2.9214   2.9341   2.9504
  2.9718   2.9835   2.9959   3.0168   3.0275   3.0515   3.0649   3.0801
  3.0970   3.1214   3.1362   3.1384   3.1819   3.1880   3.2173   3.2392
  3.2549   3.2714   3.2770   3.2840   3.3103   3.3362   3.3446   3.3824
  3.3913   3.4017   3.4350   3.4414   3.4481   3.4686   3.4755   3.4923
  3.5133   3.5210   3.5431   3.5679   3.5935   3.5983   3.6133   3.6198
  3.6471   3.6581   3.6611   3.6719   3.6876   3.7054   3.7346   3.7410
  3.7607   3.7701   3.7770   3.7997   3.8109   3.8158   3.8421   3.8634
  3.8678   3.8901   3.8969   3.9090   3.9162   3.9426   3.9489   3.9641
  3.9798   3.9943   4.0104   4.0286   4.0357   4.0504   4.1037   4.1099
  4.1278   4.1398   4.1572   4.1923   4.2112   4.2447   4.2656   4.2885
  4.3022   4.3183   4.3246   4.3544   4.3620   4.3813   4.3997   4.4054
  4.4177   4.4237   4.4485   4.4802   4.4934   4.5006   4.5147   4.5408
  4.5720   4.5870   4.5946   4.6007   4.6146   4.6348   4.6367   4.6760
  4.6808   4.6871   4.6945   4.7127   4.7458   4.7517   4.7640   4.7729
  4.7858   4.8265   4.8779   4.9593   4.9845   5.0272   5.0386   5.0476
  5.0654   5.1237   5.1346   5.1503   5.1598   5.1704   5.2332   5.2388
  5.2576   5.2638   5.2768   5.2818   5.2990   5.3050   5.3133   5.3228
  5.3415   5.3460   5.3506   5.3637   5.3917   5.4010   5.4128   5.4355
  5.4566   5.4851   5.5080   5.5251   5.5386   5.5738   5.5968   5.6137
  5.6295   5.6526   5.6688   5.6811   5.7016   5.7396   5.7604   5.7730
  5.7780   5.7863   5.7965   5.8047   5.8720   5.9113   5.9488   5.9864
  6.0262   6.0372   6.0501   6.0904   6.1233   6.2582   6.6035   6.6104
  6.6694   6.7533   6.7618   6.8323   6.8445   6.8867   6.9074   7.0269
  7.0405   7.0538   7.0670   7.0881   7.1178   7.1463   7.2191   7.2926
  7.3063   7.3327   7.3484   7.3818   7.4081   7.4289   7.4341   7.4604
  7.4690   7.4833   7.4952   7.5532   7.6478   7.6625   7.7175   7.7939
  7.8677   7.9151   7.9743   8.1300   8.1829   8.2657  24.3787  24.6996
 24.7504  24.7909  24.8489  24.9349  25.2372  50.5094  50.5464  50.6010
 50.6238  50.6854  50.6935
 --------------------------------------------------------------
 
          Ground-State Mulliken Net Atomic Charges

     Atom                 Charge (a.u.)    Spin (a.u.)
  --------------------------------------------------------
      1 C                    -0.204300      -0.015181
      2 C                    -0.125383      -0.004849
      3 C                    -0.345639      -0.490612
      4 C                    -0.390815       0.133149
      5 C                    -0.278902      -0.358212
      6 C                     0.063027       0.045754
      7 C                    -0.412535      -0.005003
      8 H                     0.326943       0.001048
      9 H                     0.288128      -0.006497
     10 H                     0.377916       0.021620
     11 H                     0.301142      -0.007022
     12 H                     0.326275       0.008634
     13 H                     0.251825       0.000103
     14 O                    -0.382986      -0.001815
     15 H                     0.239873       0.000210
     16 H                     0.330081       0.000132
     17 O                    -0.409276       0.001049
     18 H                     0.339932      -0.001154
     19 O                    -0.122806      -0.030771
     20 O                    -0.117046      -0.017203
     21 O                     0.033451       0.889261
     22 O                    -0.088905       0.837359
  --------------------------------------------------------
  Sum of atomic charges =     0.000000
  Sum of spin   charges =     1.000000

 -----------------------------------------------------------------
                    Cartesian Multipole Moments
 -----------------------------------------------------------------
    Charge (ESU x 10^10)
                 0.0000
    Dipole Moment (Debye)
         X      -1.3064      Y       1.1533      Z      -4.3449
       Tot       4.6814
    Quadrupole Moments (Debye-Ang)
        XX     -80.1479     XY       9.3071     YY     -82.9170
        XZ       8.6397     YZ       1.4087     ZZ     -70.3831
    Octopole Moments (Debye-Ang^2)
       XXX     207.1249    XXY      38.5411    XYY      37.0169
       YYY     201.4825    XXZ     -53.5404    XYZ      17.5051
       YYZ     -46.8064    XZZ      60.3094    YZZ      53.4727
       ZZZ    -122.7734
    Hexadecapole Moments (Debye-Ang^3)
      XXXX    -936.2702   XXXY     -47.0757   XXYY    -368.8689
      XYYY     -15.3264   YYYY   -1673.8232   XXXZ     144.6015
      XXYZ      92.8399   XYYZ      21.8454   YYYZ     385.5986
      XXZZ    -300.4590   XYZZ     -12.6033   YYZZ    -444.6186
      XZZZ     140.0223   YZZZ     313.6035   ZZZZ    -809.5804
 -----------------------------------------------------------------
 Total job time:  12635.13s(wall), 178660.92s(cpu) 
 Wed Mar 22 03:07:41 2023

        *************************************************************
        *                                                           *
        *  Thank you very much for using Q-Chem.  Have a nice day.  *
        *                                                           *
        *************************************************************


