
Running Job 1 of 1 Q_in.in
qchem Q_in.in_3926029.0 /scratch/ari.fischer/qChem2159181.hpc-mn1/qchem3926029/ 0
/usr/local/qchem-5.4.1/exe/qcprog.exe_s Q_in.in_3926029.0 /scratch/ari.fischer/qChem2159181.hpc-mn1/qchem3926029/
                  Welcome to Q-Chem
     A Quantum Leap Into The Future Of Chemistry


 Q-Chem 5.4, Q-Chem, Inc., Pleasanton, CA (2021)

 License issued to: Nanyang Technological University (site)

 E. Epifanovsky,  A. T. B. Gilbert,  Xintian Feng,  Joonho Lee,  Yuezhi Mao,  
 N. Mardirossian,  P. Pokhilko,  A. White,  M. Wormit,  M. P. Coons,  
 A. L. Dempwolff,  Zhengting Gan,  D. Hait,  P. R. Horn,  L. D. Jacobson,  
 I. Kaliman,  J. Kussmann,  A. W. Lange,  Ka Un Lao,  D. S. Levine,  Jie Liu,  
 S. C. McKenzie,  A. F. Morrison,  K. Nanda,  F. Plasser,  D. R. Rehn,  
 M. L. Vidal,  Zhi-Qiang You,  Ying Zhu,  B. Alam,  B. Albrecht,  
 A. Aldossary,  E. Alguire,  J. H. Andersen,  D. Barton,  K. Begam,  A. Behn,  
 Y. A. Bernard,  E. J. Berquist,  H. Burton,  A. Carreras,  K. Carter-Fenk,  
 Romit Chakraborty,  A. D. Chien,  K. D. Closser,  V. Cofer-Shabica,  
 S. Dasgupta,  Jia Deng,  M. de Wergifosse,  M. Diedenhofen,  Hainam Do,  
 S. Ehlert,  Po-Tung Fang,  S. Fatehi,  Qingguo Feng,  T. Friedhoff,  
 J. Gayvert,  Qinghui Ge,  G. Gidofalvi,  M. Goldey,  J. Gomes,  
 C. Gonzalez-Espinoza,  S. Gulania,  A. Gunina,  M. W. D. Hanson-Heine,  
 P. H. P. Harbach,  A. W. Hauser,  M. F. Herbst,  M. Hernandez Vera,  
 M. Hodecker,  Z. C. Holden,  S. Houck,  Xunkun Huang,  Kerwin Hui,  
 B. C. Huynh,  M. Ivanov,  Hyunjun Ji,  Hanjie Jiang,  B. Kaduk,  S. Kaehler,  
 K. Khistyaev,  Jaehoon Kim,  P. Klunzinger,  Z. Koczor-Benda,  
 Joong Hoon Koh,  D. Kosenkov,  L. Koulias,  T. Kowalczyk,  C. M. Krauter,  
 K. Kue,  A. Kunitsa,  T. Kus,  A. Landau,  K. V. Lawler,  D. Lefrancois,  
 S. Lehtola,  Rain Li,  Yi-Pei Li,  Jiashu Liang,  M. Liebenthal,  
 Hung-Hsuan Lin,  You-Sheng Lin,  Fenglai Liu,  Kuan-Yu Liu,  
 M. Loipersberger,  A. Luenser,  A. Manjanath,  P. Manohar,  E. Mansoor,  
 S. F. Manzer,  Shan-Ping Mao,  A. V. Marenich,  T. Markovich,  S. Mason,  
 S. A. Maurer,  P. F. McLaughlin,  M. F. S. J. Menger,  J.-M. Mewes,  
 S. A. Mewes,  P. Morgante,  J. W. Mullinax,  K. J. Oosterbaan,  G. Paran,  
 Alexander C. Paul,  Suranjan K. Paul,  F. Pavosevic,  Zheng Pei,  S. Prager,  
 E. I. Proynov,  E. Ramos,  B. Rana,  A. E. Rask,  A. Rettig,  R. M. Richard,  
 F. Rob,  E. Rossomme,  T. Scheele,  M. Scheurer,  M. Schneider,  
 N. Sergueev,  S. M. Sharada,  W. Skomorowski,  D. W. Small,  C. J. Stein,  
 Yu-Chuan Su,  E. J. Sundstrom,  Zhen Tao,  J. Thirman,  T. Tsuchimochi,  
 N. M. Tubman,  S. P. Veccham,  O. Vydrov,  J. Wenzel,  J. Witte,  A. Yamada,  
 Kun Yao,  S. Yeganeh,  S. R. Yost,  A. Zech,  Igor Ying Zhang,  Xing Zhang,  
 Yu Zhang,  D. Zuev,  A. Aspuru-Guzik,  A. T. Bell,  N. A. Besley,  
 K. B. Bravaya,  B. R. Brooks,  D. Casanova,  Jeng-Da Chai,  S. Coriani,  
 C. J. Cramer,  A. E. DePrince, III,  R. A. DiStasio Jr.,  A. Dreuw,  
 B. D. Dunietz,  T. R. Furlani,  W. A. Goddard III,  S. Grimme,  
 S. Hammes-Schiffer,  T. Head-Gordon,  W. J. Hehre,  Chao-Ping Hsu,  
 T.-C. Jagau,  Yousung Jung,  A. Klamt,  Jing Kong,  D. S. Lambrecht,  
 WanZhen Liang,  N. J. Mayhall,  C. W. McCurdy,  J. B. Neaton,  T. Neudecker,  
 C. Ochsenfeld,  J. A. Parkhill,  R. Peverati,  V. A. Rassolov,  Yihan Shao,  
 L. V. Slipchenko,  R. P. Steele,  J. E. Subotnik,  A. J. W. Thom,  
 A. Tkatchenko,  D. G. Truhlar,  T. Van Voorhis,  T. A. Wesolowski,  
 K. B. Whaley,  H. L. Woodcock III,  P. M. Zimmerman,  S. Faraji,  
 P. M. W. Gill,  M. Head-Gordon,  J. M. Herbert,  A. I. Krylov

 Additional authors since Version 5.4.0: 
 Chandrima Chakravarty,  L. Cunha,  R. Kang,  Yongbin Kim,  S. Kotaru,  
 Shaozhi Li,  Xiangyuan Li,  F. Matz,  A. Molle,  V. Parravicini,  
 Haisheng Ren,  Hengyuan Shen,  Yingli Su,  Hung-Yi Tsai,  C. Utku,  
 Fang Wang,  Jeff Yang,  F. Zeller

 Contributors to earlier versions of Q-Chem not listed above: 
 R. D. Adamson,  B. Austin,  R. Baer,  J. Baker,  G. J. O. Beran,  
 K. Brandhorst,  S. T. Brown,  E. F. C. Byrd,  Arup K. Chakraborty,  
 G. K. L. Chan,  Chun-Min Chang,  Yunqing Chen,  C.-L. Cheng,  
 Siu Hung Chien,  D. M. Chipman,  D. L. Crittenden,  H. Dachsel,  
 R. J. Doerksen,  A. D. Dutoi,  R. G. Edgar,  J. Fosso-Tande,  
 L. Fusti-Molnar,  D. Ghosh,  A. Ghysels,  A. Golubeva-Zadorozhnaya,  
 J. Gonthier,  M. S. Gordon,  S. R. Gwaltney,  G. Hawkins,  J. E. Herr,  
 A. Heyden,  S. Hirata,  E. G. Hohenstein,  G. Kedziora,  F. J. Keil,  
 C. Kelley,  Jihan Kim,  R. A. King,  R. Z. Khaliullin,  P. P. Korambath,  
 W. Kurlancheek,  A. Laurent,  A. M. Lee,  M. S. Lee,  S. V. Levchenko,  
 Ching Yeh Lin,  D. Liotard,  E. Livshits,  R. C. Lochan,  I. Lotan,  
 L. A. Martinez-Martinez,  P. E. Maslen,  N. Nair,  D. P. O'Neill,  
 D. Neuhauser,  E. Neuscamman,  C. M. Oana,  R. Olivares-Amaya,  R. Olson,  
 T. M. Perrine,  B. Peters,  P. A. Pieniazek,  A. Prociuk,  Y. M. Rhee,  
 J. Ritchie,  M. A. Rohrdanz,  E. Rosta,  N. J. Russ,  H. F. Schaefer III,  
 M. W. Schmidt,  N. E. Schultz,  S. Sharma,  N. Shenvi,  C. D. Sherrill,  
 A. C. Simmonett,  A. Sodt,  T. Stein,  D. Stuck,  K. S. Thanthiriwatte,  
 V. Vanovschi,  L. Vogt,  Tao Wang,  A. Warshel,  M. A. Watson,  
 C. F. Williams,  Q. Wu,  X. Xu,  Jun Yang,  W. Zhang,  Yan Zhao

   Please cite Q-Chem as follows:
  "Software for the frontiers of quantum chemistry:
   An overview of developments in the Q-Chem 5 package"
   J. Chem. Phys. 155, 084801 (2021)
   https://doi.org/10.1063/5.0055522 (open access)

 Q-Chem 5.4.2 for Intel X86 EM64T Linux

 Parts of Q-Chem use Armadillo 9.900.5 (Nocturnal Misbehaviour).
 http://arma.sourceforge.net/

 Q-Chem begins on Thu Jun  6 15:45:40 2024  

 Host: 
0

     Scratch files written to /scratch/ari.fischer/qChem2159181.hpc-mn1/qchem3926029//
 Dec1321 |scratch|qcdevops|jenkins|workspace|build_RNUM 8249   
 Processing $rem in /usr/local/qchem-5.4.1/config/preferences:
 Processing $rem in /home/ari.fischer/.qchemrc:
 Symmetry turned off for PCM/SM12/SMD calculation


!!********************************************.
!!******************Warning*******************.
!!Desired Analytical derivatives not available.
!!Finite difference job might take a long time.
!!********************************************.
!!********************************************.


 2-order derivative to be evaluated numerically with 1-order analytical derivatives

 Checking the input file for inconsistencies... 	...done.

--------------------------------------------------------------
User input:
--------------------------------------------------------------
$molecule
0 1
C         5.3002344054   -0.0494932619    0.1168029281
O         4.9783805414   -0.7937221182    1.0148099504
H         5.8302869929    0.8909525859    0.3162394265
H         5.0745200604   -0.2875316058   -0.9309837050
$end

$rem
BASIS = 6-311++G(2df,2p)
GUI = 2
JOB_TYPE = Frequency
METHOD = wB97M-V
SOLVENT_METHOD = SMD
SCF_ALGORITHM = DIIS_GDM
MAX_SCF_CYCLES = 400
SCF_CONVERGENCE = 7
THRESH = 12
$end
--------------------------------------------------------------
 ----------------------------------------------------------------
             Standard Nuclear Orientation (Angstroms)
    I     Atom           X                Y                Z
 ----------------------------------------------------------------
    1      C       5.3002344054    -0.0494932619     0.1168029281
    2      O       4.9783805414    -0.7937221182     1.0148099504
    3      H       5.8302869929     0.8909525859     0.3162394265
    4      H       5.0745200604    -0.2875316058    -0.9309837050
 ----------------------------------------------------------------
 Nuclear Repulsion Energy =          31.26628978 hartrees
 There are        8 alpha and        8 beta electrons
 Requested basis set is 6-311++G(2df,2p)
 There are 28 shells and 88 basis functions

 Total QAlloc Memory Limit 288000 MB
 Mega-Array Size       188 MB
 MEM_STATIC part       192 MB
 
 Citation of the SMD model:
 Marenich, A.V.; Cramer, C.J.; Truhlar, D.G.
 J. Phys. Chem. B 2009, 113, 6378-6396.
 iSolventCode=           1
 Solvent: water                                                           
 
 vradii
            1           2           3           4
    1   1.8500000   1.5200000   1.2000000   1.2000000
 Changing PCM_VDW_RADII to SMD_RADIUS
 Discretize the solute cavity surface with Lebedev spheres
	Using 110 Lebedev grid points for each H atom
	Using 194 Lebedev grid points for other atoms
	Atomic van der Waals radii will be scaled by 1.20
 Remove points where switching function is < 1.0e-08
 Keep 393 surface tesserae and discard 215 interior tesserae
 Molecular Surface Area = 53.311 Angst**2

                       Distance Matrix (Angstroms)
             C (  1)   O (  2)   H (  3)
   O (  2)  1.209910
   H (  3)  1.097802  2.012927
   H (  4)  1.097937  2.012855  1.874986
 
 A cutoff of  1.0D-12 yielded    406 shell pairs
 There are      4058 function pairs (      5061 Cartesian)
 Smallest overlap matrix eigenvalue = 1.08E-03
 Guess from superposition of atomic densities
 Warning:  Energy on first SCF cycle will be non-variational
 SAD guess density has 16.000000 electrons

 -----------------------------------------------------------------------
  General SCF calculation program by
  Eric Jon Sundstrom, Paul Horn, Yuezhi Mao, Dmitri Zuev, Alec White,
  David Stuck, Shaama M.S., Shane Yost, Joonho Lee, David Small,
  Daniel Levine, Susi Lehtola, Hugh Burton, Evgeny Epifanovsky,
  Bang C. Huynh
 -----------------------------------------------------------------------
 Exchange:     0.1500 Hartree-Fock + 1.0000 wB97M-V + LR-HF
 Correlation:  1.0000 wB97M-V
 Using SG-2 standard quadrature grid
 Nonlocal Correlation:  VV10 with C = 0.0100 and b = 6.00 and scale = 1.00000
 Grid used for NLC:  SG-1 standard quadrature
 using 16 threads for integral computing
 -------------------------------------------------------
 OpenMP Integral computing Module                
 Release: version 1.0, May 2013, Q-Chem Inc. Pittsburgh 
 -------------------------------------------------------
 
 Citation of the SMD model:
 Marenich, A.V.; Cramer, C.J.; Truhlar, D.G.
 J. Phys. Chem. B 2009, 113, 6378-6396.
 iSolventCode=           1
 Solvent: water                                                           
 
 vradii
            1           2           3           4
    1   1.8500000   1.5200000   1.2000000   1.2000000
 -------------------------------------------------------
 OpenMP BLAS3 based DFT computing Module                
 Release: version 1.0, May 2013, Q-Chem Inc. Pittsburgh 
 -------------------------------------------------------
 A restricted SCF calculation will be
 performed using DIIS, GDM
 SCF converges when RMS gradient is below 1.0e-07
 ---------------------------------------
  Cycle       Energy         DIIS error
 ---------------------------------------
    1    -114.6566367466      5.03e-02  
    2    -114.4550245942      8.27e-03  Done DIIS. Switching to GDM
 ---------------------------------------
  Cycle       Energy        RMS Gradient
 ---------------------------------------
    1    -114.4550245942      1.74e-01   Descent step
    2    -114.4275434641      1.94e-01  Line search: overstep
    3    -114.5057625164      2.32e-02   Normal BFGS step
    4    -114.5087941835      2.60e-03   Normal BFGS step
    5    -114.5089250652      1.42e-03   Normal BFGS step
    6    -114.5089325487      3.14e-04   Normal BFGS step
    7    -114.5089335313      7.04e-05   Normal BFGS step
    8    -114.5089335588      9.40e-06   Normal BFGS step
    9    -114.5089335600      2.48e-06   Normal BFGS step
   10    -114.5089335600      6.05e-07   Normal BFGS step
   11    -114.5089335600      3.20e-07   Normal BFGS step
   12    -114.5089335600      1.48e-07   Normal BFGS step
   13    -114.5089335600      5.18e-08  Convergence criterion met
 ---------------------------------------
 SCF time:   CPU 61.46s  wall 4.00s 
(3)  G-ENP(liq) elect-nuc-pol free energy of system     -114.508933560 a.u.
(4)  G-CDS(liq) cavity-dispersion-solvent structure 
     free energy                                                4.0954 kcal/mol
(6)  G-S(liq) free energy of system                     -114.502407159 a.u.
 SCF   energy in the final basis set =     -114.5024071593
 Total energy in the final basis set =     -114.5024071593
 
 --------------------------------------------------------------
 
                    Orbital Energies (a.u.)
 --------------------------------------------------------------
 
 Alpha MOs
 -- Occupied --
-19.3522 -10.4363  -1.1938  -0.7458  -0.6036  -0.5705  -0.5112  -0.3779
 -- Virtual --
  0.0345   0.0359   0.0588   0.0729   0.1077   0.1374   0.1529   0.2140
  0.2251   0.2628   0.2755   0.3248   0.3267   0.4369   0.5392   0.5613
  0.6083   0.6250   0.6448   0.6669   0.8129   0.8487   0.9351   0.9760
  1.0298   1.0803   1.0822   1.1445   1.1678   1.1818   1.3063   1.4213
  1.4949   1.5233   1.6376   1.7728   1.9047   2.0066   2.2529   2.4790
  2.4984   2.5851   2.7842   2.9361   2.9752   3.0568   3.0987   3.1354
  3.1791   3.2817   3.3239   3.3361   3.5783   3.6013   3.7716   3.8415
  4.0766   4.1450   4.1677   4.1724   4.6019   4.9787   5.1387   5.1616
  5.1799   5.3013   5.5015   5.5180   5.5191   5.9129   6.3140   6.5953
  6.9202   6.9505   7.0509   7.2729   7.4462   7.6797  24.8723  50.6595
 --------------------------------------------------------------
 
          Ground-State Mulliken Net Atomic Charges

     Atom                 Charge (a.u.)
  ----------------------------------------
      1 C                     0.065599
      2 O                    -0.358946
      3 H                     0.146751
      4 H                     0.146596
  ----------------------------------------
  Sum of atomic charges =     0.000000

 -----------------------------------------------------------------
                    Cartesian Multipole Moments
 -----------------------------------------------------------------
    Charge (ESU x 10^10)
                -0.0000
    Dipole Moment (Debye)
         X       0.9209      Y       2.1283      Z      -2.5672
       Tot       3.4595
    Quadrupole Moments (Debye-Ang)
        XX      -2.2845     XY      10.6420     YY     -13.4492
        XZ     -12.6040     YZ       2.3827     ZZ     -14.5333
    Octopole Moments (Debye-Ang^2)
       XXX    -108.7140    XXY      58.0152    XYY     -68.3691
       YYY      15.8122    XXZ     -67.7461    XYZ      11.9229
       YYZ      -7.6809    XZZ     -74.7192    YZZ       6.4934
       ZZZ     -22.5865
    Hexadecapole Moments (Debye-Ang^3)
      XXXX   -1387.6348   XXXY     336.4108   XXYY    -356.2224
      XYYY      77.1315   YYYY     -39.6976   XXXZ    -392.2704
      XXYZ      64.2184   XYYZ     -38.0845   YYYZ      14.9713
      XXZZ    -395.4491   XYZZ      31.9648   YYZZ     -16.5723
      XZZZ    -113.8386   YZZZ      15.8268   ZZZZ     -57.5355
 -----------------------------------------------------------------
 Calculating analytic gradient of the SCF energy
 Gradient of CDS energy
            1           2           3           4
    1  -0.0003398   0.0003570  -0.0000298   0.0000126
    2  -0.0007860   0.0008256  -0.0000529   0.0000133
    3   0.0009488  -0.0009962  -0.0000112   0.0000586
 Gradient of SCF Energy
            1           2           3           4
    1  -0.0024698  -0.0010722   0.0043695  -0.0008274
    2  -0.0056263  -0.0025280   0.0081649  -0.0000105
    3   0.0068235   0.0030185  -0.0005995  -0.0092425
 Max gradient component =       9.243E-03
 RMS gradient           =       4.771E-03
 Computing fast CPCM-SWIG gradient
 Updating gradient with PCM contributions...
 -- total gradient after adding PCM contribution --
---------------------------------------------------
  Atom         X              Y              Z     
---------------------------------------------------
   1       0.000080       0.000197      -0.000242
   2      -0.000012      -0.000089       0.000070
   3      -0.000160      -0.000195      -0.000061
   4       0.000091       0.000087       0.000232
---------------------------------------------------
 Number of fixed atoms: 0
 Gradient time:  CPU 12.33 s  wall 1.84 s
 ######################################################
 ######################################################
 # Starting finite difference calculation for IDERIV  #
 Finite diff step size:  1.88973e-03 a.u.
 ----------------------------------------------------------------
             Standard Nuclear Orientation (Angstroms)
    I     Atom           X                Y                Z
 ----------------------------------------------------------------
    1      C       5.3012344054    -0.0494932619     0.1168029281
    2      O       4.9783805414    -0.7937221182     1.0148099504
    3      H       5.8302869929     0.8909525859     0.3162394265
    4      H       5.0745200604    -0.2875316058    -0.9309837050
 ----------------------------------------------------------------
 Nuclear Repulsion Energy =          31.26239755 hartrees
 There are        8 alpha and        8 beta electrons
 Discretize the solute cavity surface with Lebedev spheres
	Using 110 Lebedev grid points for each H atom
	Using 194 Lebedev grid points for other atoms
	Atomic van der Waals radii will be scaled by 1.20
 Remove points where switching function is < 1.0e-08
 Keep 393 surface tesserae and discard 215 interior tesserae
 Molecular Surface Area = 53.312 Angst**2

                       Distance Matrix (Angstroms)
             C (  1)   O (  2)   H (  3)
   O (  2)  1.210177
   H (  3)  1.097319  2.012927
   H (  4)  1.098143  2.012855  1.874986
 
 Requested basis set is 6-311++G(2df,2p)
 There are 28 shells and 88 basis functions
 A cutoff of  1.0D-12 yielded    406 shell pairs
 There are      4058 function pairs (      5061 Cartesian)
 Smallest overlap matrix eigenvalue = 1.09E-03
 Guess MOs from SCF MO coefficient file

 -----------------------------------------------------------------------
  General SCF calculation program by
  Eric Jon Sundstrom, Paul Horn, Yuezhi Mao, Dmitri Zuev, Alec White,
  David Stuck, Shaama M.S., Shane Yost, Joonho Lee, David Small,
  Daniel Levine, Susi Lehtola, Hugh Burton, Evgeny Epifanovsky,
  Bang C. Huynh
 -----------------------------------------------------------------------
 Exchange:     0.1500 Hartree-Fock + 1.0000 wB97M-V + LR-HF
 Correlation:  1.0000 wB97M-V
 Using SG-2 standard quadrature grid
 Nonlocal Correlation:  VV10 with C = 0.0100 and b = 6.00 and scale = 1.00000
 Grid used for NLC:  SG-1 standard quadrature
 
 Citation of the SMD model:
 Marenich, A.V.; Cramer, C.J.; Truhlar, D.G.
 J. Phys. Chem. B 2009, 113, 6378-6396.
 iSolventCode=           1
 Solvent: water                                                           
 
 vradii
            1           2           3           4
    1   1.8500000   1.5200000   1.2000000   1.2000000
 -------------------------------------------------------
 OpenMP BLAS3 based DFT computing Module                
 Release: version 1.0, May 2013, Q-Chem Inc. Pittsburgh 
 -------------------------------------------------------
 A restricted SCF calculation will be
 performed using Roothaan-Hall, DIIS, GDM
 SCF converges when RMS gradient is below 1.0e-07
 ---------------------------------------
  Cycle       Energy         DIIS error
 ---------------------------------------
    1    -114.4952987564      1.26e-03  Roothaan Step
 ---------------------------------------
  Cycle       Energy         DIIS error
 ---------------------------------------
    1    -114.5043160120      1.92e-03  
    2    -114.5046119797      2.61e-03  Done DIIS. Switching to GDM
 ---------------------------------------
  Cycle       Energy        RMS Gradient
 ---------------------------------------
    1    -114.5046119797      3.96e-02   Normal BFGS step
    2    -114.5019994593      5.89e-02  Line search: overstep
    3    -114.5087782054      3.45e-03   Normal BFGS step
    4    -114.5089164359      1.76e-03   Normal BFGS step
    5    -114.5089313957      6.20e-04   Normal BFGS step
    6    -114.5089321479      9.14e-05   Normal BFGS step
    7    -114.5089322160      2.13e-05   Normal BFGS step
    8    -114.5089322210      4.71e-06   Normal BFGS step
    9    -114.5089322213      8.83e-07   Normal BFGS step
   10    -114.5089322213      2.29e-07   Normal BFGS step
   11    -114.5089322213      4.26e-08  Convergence criterion met
 ---------------------------------------
 SCF time:   CPU 53.21s  wall 4.00s 
(3)  G-ENP(liq) elect-nuc-pol free energy of system     -114.508932221 a.u.
(4)  G-CDS(liq) cavity-dispersion-solvent structure 
     free energy                                                4.0950 kcal/mol
(6)  G-S(liq) free energy of system                     -114.502406464 a.u.
 SCF   energy in the final basis set =     -114.5024064641
 Total energy in the final basis set =     -114.5024064641
 
 --------------------------------------------------------------
 
                    Orbital Energies (a.u.)
 --------------------------------------------------------------
 
 Alpha MOs
 -- Occupied --
-19.3522 -10.4363  -1.1937  -0.7458  -0.6036  -0.5705  -0.5111  -0.3780
 -- Virtual --
  0.0345   0.0359   0.0588   0.0729   0.1077   0.1374   0.1529   0.2140
  0.2251   0.2628   0.2755   0.3247   0.3268   0.4368   0.5392   0.5613
  0.6083   0.6250   0.6448   0.6668   0.8127   0.8487   0.9351   0.9760
  1.0299   1.0803   1.0823   1.1445   1.1678   1.1819   1.3063   1.4213
  1.4949   1.5233   1.6374   1.7727   1.9046   2.0064   2.2528   2.4789
  2.4982   2.5851   2.7842   2.9360   2.9752   3.0568   3.0987   3.1354
  3.1790   3.2818   3.3239   3.3362   3.5782   3.6009   3.7719   3.8416
  4.0766   4.1452   4.1671   4.1725   4.6022   4.9791   5.1388   5.1616
  5.1799   5.3012   5.5013   5.5179   5.5192   5.9122   6.3131   6.5943
  6.9202   6.9504   7.0504   7.2729   7.4462   7.6795  24.8722  50.6591
 --------------------------------------------------------------
 
          Ground-State Mulliken Net Atomic Charges

     Atom                 Charge (a.u.)
  ----------------------------------------
      1 C                     0.065635
      2 O                    -0.359171
      3 H                     0.146967
      4 H                     0.146569
  ----------------------------------------
  Sum of atomic charges =     0.000000

 -----------------------------------------------------------------
                    Cartesian Multipole Moments
 -----------------------------------------------------------------
    Charge (ESU x 10^10)
                 0.0000
    Dipole Moment (Debye)
         X       0.9229      Y       2.1301      Z      -2.5676
       Tot       3.4614
    Quadrupole Moments (Debye-Ang)
        XX      -2.2635     XY      10.6522     YY     -13.4481
        XZ     -12.6048     YZ       2.3835     ZZ     -14.5350
    Octopole Moments (Debye-Ang^2)
       XXX    -108.5615    XXY      58.0724    XYY     -68.3679
       YYY      15.8183    XXZ     -67.7462    XYZ      11.9273
       YYZ      -7.6806    XZZ     -74.7332    YZZ       6.4952
       ZZZ     -22.5889
    Hexadecapole Moments (Debye-Ang^3)
      XXXX   -1386.7495   XXXY     336.7385   XXYY    -356.2388
      XYYY      77.1663   YYYY     -39.6929   XXXZ    -392.2529
      XXYZ      64.2429   XYYZ     -38.0840   YYYZ      14.9733
      XXZZ    -395.5524   XYZZ      31.9757   YYZZ     -16.5726
      XZZZ    -113.8519   YZZZ      15.8297   ZZZZ     -57.5454
 -----------------------------------------------------------------
 Calculating analytic gradient of the SCF energy
 Gradient of CDS energy
            1           2           3           4
    1  -0.0003412   0.0003591  -0.0000305   0.0000125
    2  -0.0007869   0.0008279  -0.0000541   0.0000132
    3   0.0009525  -0.0009990  -0.0000115   0.0000580
 Gradient of SCF Energy
            1           2           3           4
    1  -0.0018700  -0.0012902   0.0041467  -0.0009865
    2  -0.0051965  -0.0027658   0.0080069  -0.0000446
    3   0.0067488   0.0032554  -0.0006596  -0.0093446
 Max gradient component =       9.345E-03
 RMS gradient           =       4.708E-03
 Computing fast CPCM-SWIG gradient
 Updating gradient with PCM contributions...
 -- total gradient after adding PCM contribution --
---------------------------------------------------
  Atom         X              Y              Z     
---------------------------------------------------
   1       0.000656       0.000647      -0.000313
   2      -0.000227      -0.000326       0.000308
   3      -0.000376      -0.000372      -0.000123
   4      -0.000052       0.000051       0.000128
---------------------------------------------------
 Number of fixed atoms: 0
 Gradient time:  CPU 9.88 s  wall 0.64 s
 ----------------------------------------------------------------
             Standard Nuclear Orientation (Angstroms)
    I     Atom           X                Y                Z
 ----------------------------------------------------------------
    1      C       5.2992344054    -0.0494932619     0.1168029281
    2      O       4.9783805414    -0.7937221182     1.0148099504
    3      H       5.8302869929     0.8909525859     0.3162394265
    4      H       5.0745200604    -0.2875316058    -0.9309837050
 ----------------------------------------------------------------
 Nuclear Repulsion Energy =          31.27016790 hartrees
 There are        8 alpha and        8 beta electrons
 Discretize the solute cavity surface with Lebedev spheres
	Using 110 Lebedev grid points for each H atom
	Using 194 Lebedev grid points for other atoms
	Atomic van der Waals radii will be scaled by 1.20
 Remove points where switching function is < 1.0e-08
 Keep 393 surface tesserae and discard 215 interior tesserae
 Molecular Surface Area = 53.310 Angst**2

                       Distance Matrix (Angstroms)
             C (  1)   O (  2)   H (  3)
   O (  2)  1.209645
   H (  3)  1.098285  2.012927
   H (  4)  1.097732  2.012855  1.874986
 
 Requested basis set is 6-311++G(2df,2p)
 There are 28 shells and 88 basis functions
 A cutoff of  1.0D-12 yielded    406 shell pairs
 There are      4058 function pairs (      5061 Cartesian)
 Smallest overlap matrix eigenvalue = 1.08E-03
 Guess MOs from SCF MO coefficient file

 -----------------------------------------------------------------------
  General SCF calculation program by
  Eric Jon Sundstrom, Paul Horn, Yuezhi Mao, Dmitri Zuev, Alec White,
  David Stuck, Shaama M.S., Shane Yost, Joonho Lee, David Small,
  Daniel Levine, Susi Lehtola, Hugh Burton, Evgeny Epifanovsky,
  Bang C. Huynh
 -----------------------------------------------------------------------
 Exchange:     0.1500 Hartree-Fock + 1.0000 wB97M-V + LR-HF
 Correlation:  1.0000 wB97M-V
 Using SG-2 standard quadrature grid
 Nonlocal Correlation:  VV10 with C = 0.0100 and b = 6.00 and scale = 1.00000
 Grid used for NLC:  SG-1 standard quadrature
 
 Citation of the SMD model:
 Marenich, A.V.; Cramer, C.J.; Truhlar, D.G.
 J. Phys. Chem. B 2009, 113, 6378-6396.
 iSolventCode=           1
 Solvent: water                                                           
 
 vradii
            1           2           3           4
    1   1.8500000   1.5200000   1.2000000   1.2000000
 -------------------------------------------------------
 OpenMP BLAS3 based DFT computing Module                
 Release: version 1.0, May 2013, Q-Chem Inc. Pittsburgh 
 -------------------------------------------------------
 A restricted SCF calculation will be
 performed using Roothaan-Hall, DIIS, GDM
 SCF converges when RMS gradient is below 1.0e-07
 ---------------------------------------
  Cycle       Energy         DIIS error
 ---------------------------------------
    1    -114.4952996394      1.27e-03  Roothaan Step
 ---------------------------------------
  Cycle       Energy         DIIS error
 ---------------------------------------
    1    -114.5043468439      1.91e-03  
    2    -114.5046553151      2.60e-03  Done DIIS. Switching to GDM
 ---------------------------------------
  Cycle       Energy        RMS Gradient
 ---------------------------------------
    1    -114.5046553151      3.94e-02   Normal BFGS step
    2    -114.5020766877      5.86e-02  Line search: overstep
    3    -114.5087812220      3.43e-03   Normal BFGS step
    4    -114.5089181432      1.76e-03   Normal BFGS step
    5    -114.5089329910      6.16e-04   Normal BFGS step
    6    -114.5089337354      9.21e-05   Normal BFGS step
    7    -114.5089338043      2.08e-05   Normal BFGS step
    8    -114.5089338091      4.62e-06   Normal BFGS step
    9    -114.5089338094      8.76e-07   Normal BFGS step
   10    -114.5089338094      2.26e-07   Normal BFGS step
   11    -114.5089338094      4.17e-08  Convergence criterion met
 ---------------------------------------
 SCF time:   CPU 54.58s  wall 4.00s 
(3)  G-ENP(liq) elect-nuc-pol free energy of system     -114.508933809 a.u.
(4)  G-CDS(liq) cavity-dispersion-solvent structure 
     free energy                                                4.0958 kcal/mol
(6)  G-S(liq) free energy of system                     -114.502406768 a.u.
 SCF   energy in the final basis set =     -114.5024067678
 Total energy in the final basis set =     -114.5024067678
 
 --------------------------------------------------------------
 
                    Orbital Energies (a.u.)
 --------------------------------------------------------------
 
 Alpha MOs
 -- Occupied --
-19.3522 -10.4363  -1.1939  -0.7457  -0.6036  -0.5706  -0.5113  -0.3779
 -- Virtual --
  0.0345   0.0360   0.0588   0.0729   0.1077   0.1374   0.1529   0.2140
  0.2251   0.2628   0.2755   0.3248   0.3267   0.4370   0.5392   0.5613
  0.6083   0.6250   0.6448   0.6670   0.8131   0.8487   0.9350   0.9761
  1.0298   1.0803   1.0821   1.1445   1.1678   1.1818   1.3063   1.4214
  1.4949   1.5233   1.6377   1.7728   1.9048   2.0068   2.2529   2.4791
  2.4985   2.5851   2.7842   2.9362   2.9752   3.0568   3.0987   3.1353
  3.1791   3.2816   3.3238   3.3362   3.5785   3.6017   3.7713   3.8414
  4.0766   4.1448   4.1682   4.1723   4.6016   4.9783   5.1387   5.1616
  5.1800   5.3015   5.5017   5.5172   5.5200   5.9135   6.3149   6.5962
  6.9202   6.9506   7.0514   7.2729   7.4462   7.6798  24.8724  50.6599
 --------------------------------------------------------------
 
          Ground-State Mulliken Net Atomic Charges

     Atom                 Charge (a.u.)
  ----------------------------------------
      1 C                     0.065563
      2 O                    -0.358721
      3 H                     0.146535
      4 H                     0.146622
  ----------------------------------------
  Sum of atomic charges =     0.000000

 -----------------------------------------------------------------
                    Cartesian Multipole Moments
 -----------------------------------------------------------------
    Charge (ESU x 10^10)
                -0.0000
    Dipole Moment (Debye)
         X       0.9189      Y       2.1265      Z      -2.5669
       Tot       3.4576
    Quadrupole Moments (Debye-Ang)
        XX      -2.3056     XY      10.6319     YY     -13.4503
        XZ     -12.6031     YZ       2.3819     ZZ     -14.5317
    Octopole Moments (Debye-Ang^2)
       XXX    -108.8666    XXY      57.9578    XYY     -68.3703
       YYY      15.8062    XXZ     -67.7459    XYZ      11.9184
       YYZ      -7.6811    XZZ     -74.7051    YZZ       6.4916
       ZZZ     -22.5841
    Hexadecapole Moments (Debye-Ang^3)
      XXXX   -1388.5207   XXXY     336.0824   XXYY    -356.2064
      XYYY      77.0966   YYYY     -39.7023   XXXZ    -392.2877
      XXYZ      64.1938   XYYZ     -38.0850   YYYZ      14.9692
      XXZZ    -395.3459   XYZZ      31.9540   YYZZ     -16.5720
      XZZZ    -113.8253   YZZZ      15.8240   ZZZZ     -57.5256
 -----------------------------------------------------------------
 Calculating analytic gradient of the SCF energy
 Gradient of CDS energy
            1           2           3           4
    1  -0.0003384   0.0003549  -0.0000292   0.0000127
    2  -0.0007850   0.0008233  -0.0000517   0.0000134
    3   0.0009452  -0.0009934  -0.0000110   0.0000591
 Gradient of SCF Energy
            1           2           3           4
    1  -0.0030690  -0.0008547   0.0045922  -0.0006685
    2  -0.0060553  -0.0022903   0.0083220   0.0000236
    3   0.0068985   0.0027817  -0.0005396  -0.0091406
 Max gradient component =       9.141E-03
 RMS gradient           =       4.848E-03
 Computing fast CPCM-SWIG gradient
 Updating gradient with PCM contributions...
 -- total gradient after adding PCM contribution --
---------------------------------------------------
  Atom         X              Y              Z     
---------------------------------------------------
   1      -0.000494      -0.000251      -0.000170
   2       0.000203       0.000147      -0.000169
   3       0.000056      -0.000019       0.000001
   4       0.000235       0.000123       0.000337
---------------------------------------------------
 Number of fixed atoms: 0
 Gradient time:  CPU 9.58 s  wall 0.62 s
 ----------------------------------------------------------------
             Standard Nuclear Orientation (Angstroms)
    I     Atom           X                Y                Z
 ----------------------------------------------------------------
    1      C       5.3002344054    -0.0484932619     0.1168029281
    2      O       4.9783805414    -0.7937221182     1.0148099504
    3      H       5.8302869929     0.8909525859     0.3162394265
    4      H       5.0745200604    -0.2875316058    -0.9309837050
 ----------------------------------------------------------------
 Nuclear Repulsion Energy =          31.25730397 hartrees
 There are        8 alpha and        8 beta electrons
 Discretize the solute cavity surface with Lebedev spheres
	Using 110 Lebedev grid points for each H atom
	Using 194 Lebedev grid points for other atoms
	Atomic van der Waals radii will be scaled by 1.20
 Remove points where switching function is < 1.0e-08
 Keep 393 surface tesserae and discard 215 interior tesserae
 Molecular Surface Area = 53.314 Angst**2

                       Distance Matrix (Angstroms)
             C (  1)   O (  2)   H (  3)
   O (  2)  1.210526
   H (  3)  1.096945  2.012927
   H (  4)  1.098154  2.012855  1.874986
 
 Requested basis set is 6-311++G(2df,2p)
 There are 28 shells and 88 basis functions
 A cutoff of  1.0D-12 yielded    406 shell pairs
 There are      4058 function pairs (      5061 Cartesian)
 Smallest overlap matrix eigenvalue = 1.09E-03
 Guess MOs from SCF MO coefficient file

 -----------------------------------------------------------------------
  General SCF calculation program by
  Eric Jon Sundstrom, Paul Horn, Yuezhi Mao, Dmitri Zuev, Alec White,
  David Stuck, Shaama M.S., Shane Yost, Joonho Lee, David Small,
  Daniel Levine, Susi Lehtola, Hugh Burton, Evgeny Epifanovsky,
  Bang C. Huynh
 -----------------------------------------------------------------------
 Exchange:     0.1500 Hartree-Fock + 1.0000 wB97M-V + LR-HF
 Correlation:  1.0000 wB97M-V
 Using SG-2 standard quadrature grid
 Nonlocal Correlation:  VV10 with C = 0.0100 and b = 6.00 and scale = 1.00000
 Grid used for NLC:  SG-1 standard quadrature
 
 Citation of the SMD model:
 Marenich, A.V.; Cramer, C.J.; Truhlar, D.G.
 J. Phys. Chem. B 2009, 113, 6378-6396.
 iSolventCode=           1
 Solvent: water                                                           
 
 vradii
            1           2           3           4
    1   1.8500000   1.5200000   1.2000000   1.2000000
 -------------------------------------------------------
 OpenMP BLAS3 based DFT computing Module                
 Release: version 1.0, May 2013, Q-Chem Inc. Pittsburgh 
 -------------------------------------------------------
 A restricted SCF calculation will be
 performed using Roothaan-Hall, DIIS, GDM
 SCF converges when RMS gradient is below 1.0e-07
 ---------------------------------------
  Cycle       Energy         DIIS error
 ---------------------------------------
    1    -114.4952984479      1.26e-03  Roothaan Step
 ---------------------------------------
  Cycle       Energy         DIIS error
 ---------------------------------------
    1    -114.5042929845      1.92e-03  
    2    -114.5045799546      2.62e-03  Done DIIS. Switching to GDM
 ---------------------------------------
  Cycle       Energy        RMS Gradient
 ---------------------------------------
    1    -114.5045799546      3.98e-02   Normal BFGS step
    2    -114.5019431854      5.92e-02  Line search: overstep
    3    -114.5087754936      3.47e-03   Normal BFGS step
    4    -114.5089146735      1.77e-03   Normal BFGS step
    5    -114.5089297159      6.23e-04   Normal BFGS step
    6    -114.5089304735      9.08e-05   Normal BFGS step
    7    -114.5089305410      2.18e-05   Normal BFGS step
    8    -114.5089305462      4.78e-06   Normal BFGS step
    9    -114.5089305464      8.87e-07   Normal BFGS step
   10    -114.5089305464      2.32e-07   Normal BFGS step
   11    -114.5089305464      4.33e-08  Convergence criterion met
 ---------------------------------------
 SCF time:   CPU 54.08s  wall 3.00s 
(3)  G-ENP(liq) elect-nuc-pol free energy of system     -114.508930546 a.u.
(4)  G-CDS(liq) cavity-dispersion-solvent structure 
     free energy                                                4.0944 kcal/mol
(6)  G-S(liq) free energy of system                     -114.502405635 a.u.
 SCF   energy in the final basis set =     -114.5024056350
 Total energy in the final basis set =     -114.5024056350
 
 --------------------------------------------------------------
 
                    Orbital Energies (a.u.)
 --------------------------------------------------------------
 
 Alpha MOs
 -- Occupied --
-19.3522 -10.4363  -1.1935  -0.7459  -0.6036  -0.5704  -0.5110  -0.3780
 -- Virtual --
  0.0345   0.0358   0.0588   0.0729   0.1077   0.1374   0.1529   0.2140
  0.2251   0.2628   0.2755   0.3247   0.3268   0.4367   0.5391   0.5614
  0.6083   0.6250   0.6449   0.6667   0.8125   0.8486   0.9352   0.9759
  1.0299   1.0803   1.0824   1.1446   1.1677   1.1820   1.3063   1.4212
  1.4950   1.5234   1.6373   1.7726   1.9045   2.0062   2.2526   2.4787
  2.4980   2.5851   2.7842   2.9359   2.9753   3.0568   3.0987   3.1355
  3.1790   3.2819   3.3240   3.3361   3.5780   3.6005   3.7723   3.8418
  4.0767   4.1455   4.1664   4.1727   4.6026   4.9796   5.1389   5.1615
  5.1798   5.3011   5.5011   5.5178   5.5192   5.9115   6.3119   6.5930
  6.9201   6.9502   7.0498   7.2729   7.4461   7.6793  24.8720  50.6586
 --------------------------------------------------------------
 
          Ground-State Mulliken Net Atomic Charges

     Atom                 Charge (a.u.)
  ----------------------------------------
      1 C                     0.065674
      2 O                    -0.359464
      3 H                     0.147162
      4 H                     0.146627
  ----------------------------------------
  Sum of atomic charges =     0.000000

 -----------------------------------------------------------------
                    Cartesian Multipole Moments
 -----------------------------------------------------------------
    Charge (ESU x 10^10)
                 0.0000
    Dipole Moment (Debye)
         X       0.9227      Y       2.1329      Z      -2.5687
       Tot       3.4639
    Quadrupole Moments (Debye-Ang)
        XX      -2.2653     XY      10.6683     YY     -13.4485
        XZ     -12.6107     YZ       2.3853     ZZ     -14.5361
    Octopole Moments (Debye-Ang^2)
       XXX    -108.5571    XXY      58.1614    XYY     -68.3639
       YYY      15.8068    XXZ     -67.7783    XYZ      11.9367
       YYZ      -7.6817    XZZ     -74.7325    YZZ       6.4906
       ZZZ     -22.5938
    Hexadecapole Moments (Debye-Ang^3)
      XXXX   -1386.4567   XXXY     337.2223   XXYY    -356.1840
      XYYY      77.1060   YYYY     -39.6897   XXXZ    -392.4257
      XXYZ      64.2946   XYYZ     -38.0886   YYYZ      14.9735
      XXZZ    -395.5150   XYZZ      31.9518   YYZZ     -16.5718
      XZZZ    -113.8748   YZZZ      15.8317   ZZZZ     -57.5527
 -----------------------------------------------------------------
 Calculating analytic gradient of the SCF energy
 Gradient of CDS energy
            1           2           3           4
    1  -0.0003408   0.0003594  -0.0000310   0.0000125
    2  -0.0007903   0.0008321  -0.0000550   0.0000132
    3   0.0009564  -0.0010026  -0.0000117   0.0000580
 Gradient of SCF Energy
            1           2           3           4
    1  -0.0020402  -0.0013094   0.0042122  -0.0008625
    2  -0.0044086  -0.0031707   0.0077632  -0.0001839
    3   0.0064962   0.0035824  -0.0007038  -0.0093748
 Max gradient component =       9.375E-03
 RMS gradient           =       4.633E-03
 Computing fast CPCM-SWIG gradient
 Updating gradient with PCM contributions...
 -- total gradient after adding PCM contribution --
---------------------------------------------------
  Atom         X              Y              Z     
---------------------------------------------------
   1       0.000530       0.001416      -0.000571
   2      -0.000248      -0.000729       0.000636
   3      -0.000338      -0.000616      -0.000168
   4       0.000056      -0.000071       0.000103
---------------------------------------------------
 Number of fixed atoms: 0
 Gradient time:  CPU 9.45 s  wall 0.61 s
 ----------------------------------------------------------------
             Standard Nuclear Orientation (Angstroms)
    I     Atom           X                Y                Z
 ----------------------------------------------------------------
    1      C       5.3002344054    -0.0504932619     0.1168029281
    2      O       4.9783805414    -0.7937221182     1.0148099504
    3      H       5.8302869929     0.8909525859     0.3162394265
    4      H       5.0745200604    -0.2875316058    -0.9309837050
 ----------------------------------------------------------------
 Nuclear Repulsion Energy =          31.27527835 hartrees
 There are        8 alpha and        8 beta electrons
 Discretize the solute cavity surface with Lebedev spheres
	Using 110 Lebedev grid points for each H atom
	Using 194 Lebedev grid points for other atoms
	Atomic van der Waals radii will be scaled by 1.20
 Remove points where switching function is < 1.0e-08
 Keep 393 surface tesserae and discard 215 interior tesserae
 Molecular Surface Area = 53.309 Angst**2

                       Distance Matrix (Angstroms)
             C (  1)   O (  2)   H (  3)
   O (  2)  1.209296
   H (  3)  1.098659  2.012927
   H (  4)  1.097721  2.012855  1.874986
 
 Requested basis set is 6-311++G(2df,2p)
 There are 28 shells and 88 basis functions
 A cutoff of  1.0D-12 yielded    406 shell pairs
 There are      4058 function pairs (      5061 Cartesian)
 Smallest overlap matrix eigenvalue = 1.08E-03
 Guess MOs from SCF MO coefficient file

 -----------------------------------------------------------------------
  General SCF calculation program by
  Eric Jon Sundstrom, Paul Horn, Yuezhi Mao, Dmitri Zuev, Alec White,
  David Stuck, Shaama M.S., Shane Yost, Joonho Lee, David Small,
  Daniel Levine, Susi Lehtola, Hugh Burton, Evgeny Epifanovsky,
  Bang C. Huynh
 -----------------------------------------------------------------------
 Exchange:     0.1500 Hartree-Fock + 1.0000 wB97M-V + LR-HF
 Correlation:  1.0000 wB97M-V
 Using SG-2 standard quadrature grid
 Nonlocal Correlation:  VV10 with C = 0.0100 and b = 6.00 and scale = 1.00000
 Grid used for NLC:  SG-1 standard quadrature
 
 Citation of the SMD model:
 Marenich, A.V.; Cramer, C.J.; Truhlar, D.G.
 J. Phys. Chem. B 2009, 113, 6378-6396.
 iSolventCode=           1
 Solvent: water                                                           
 
 vradii
            1           2           3           4
    1   1.8500000   1.5200000   1.2000000   1.2000000
 -------------------------------------------------------
 OpenMP BLAS3 based DFT computing Module                
 Release: version 1.0, May 2013, Q-Chem Inc. Pittsburgh 
 -------------------------------------------------------
 A restricted SCF calculation will be
 performed using Roothaan-Hall, DIIS, GDM
 SCF converges when RMS gradient is below 1.0e-07
 ---------------------------------------
  Cycle       Energy         DIIS error
 ---------------------------------------
    1    -114.4952942040      1.27e-03  Roothaan Step
 ---------------------------------------
  Cycle       Energy         DIIS error
 ---------------------------------------
    1    -114.5043700290      1.90e-03  
    2    -114.5046881304      2.59e-03  Done DIIS. Switching to GDM
 ---------------------------------------
  Cycle       Energy        RMS Gradient
 ---------------------------------------
    1    -114.5046881304      3.92e-02   Normal BFGS step
    2    -114.5021349056      5.83e-02  Line search: overstep
    3    -114.5087827719      3.42e-03   Normal BFGS step
    4    -114.5089186914      1.76e-03   Normal BFGS step
    5    -114.5089334503      6.13e-04   Normal BFGS step
    6    -114.5089341894      9.28e-05   Normal BFGS step
    7    -114.5089342590      2.03e-05   Normal BFGS step
    8    -114.5089342638      4.63e-06   Normal BFGS step
    9    -114.5089342640      8.69e-07   Normal BFGS step
   10    -114.5089342640      2.23e-07   Normal BFGS step
   11    -114.5089342640      4.09e-08  Convergence criterion met
 ---------------------------------------
 SCF time:   CPU 53.67s  wall 4.00s 
(3)  G-ENP(liq) elect-nuc-pol free energy of system     -114.508934264 a.u.
(4)  G-CDS(liq) cavity-dispersion-solvent structure 
     free energy                                                4.0963 kcal/mol
(6)  G-S(liq) free energy of system                     -114.502406382 a.u.
 SCF   energy in the final basis set =     -114.5024063820
 Total energy in the final basis set =     -114.5024063820
 
 --------------------------------------------------------------
 
                    Orbital Energies (a.u.)
 --------------------------------------------------------------
 
 Alpha MOs
 -- Occupied --
-19.3522 -10.4362  -1.1941  -0.7456  -0.6035  -0.5707  -0.5114  -0.3778
 -- Virtual --
  0.0345   0.0360   0.0589   0.0729   0.1078   0.1373   0.1529   0.2140
  0.2250   0.2628   0.2755   0.3248   0.3267   0.4371   0.5392   0.5612
  0.6083   0.6250   0.6448   0.6671   0.8133   0.8487   0.9350   0.9762
  1.0298   1.0803   1.0820   1.1444   1.1679   1.1817   1.3063   1.4214
  1.4948   1.5232   1.6378   1.7729   1.9050   2.0070   2.2531   2.4793
  2.4988   2.5851   2.7842   2.9363   2.9751   3.0568   3.0987   3.1352
  3.1792   3.2814   3.3237   3.3361   3.5786   3.6021   3.7709   3.8412
  4.0765   4.1444   4.1690   4.1722   4.6012   4.9778   5.1386   5.1616
  5.1800   5.3016   5.5020   5.5172   5.5200   5.9143   6.3162   6.5976
  6.9203   6.9507   7.0520   7.2729   7.4462   7.6800  24.8725  50.6605
 --------------------------------------------------------------
 
          Ground-State Mulliken Net Atomic Charges

     Atom                 Charge (a.u.)
  ----------------------------------------
      1 C                     0.065523
      2 O                    -0.358427
      3 H                     0.146339
      4 H                     0.146565
  ----------------------------------------
  Sum of atomic charges =     0.000000

 -----------------------------------------------------------------
                    Cartesian Multipole Moments
 -----------------------------------------------------------------
    Charge (ESU x 10^10)
                -0.0000
    Dipole Moment (Debye)
         X       0.9191      Y       2.1236      Z      -2.5658
       Tot       3.4551
    Quadrupole Moments (Debye-Ang)
        XX      -2.3038     XY      10.6157     YY     -13.4498
        XZ     -12.5972     YZ       2.3802     ZZ     -14.5305
    Octopole Moments (Debye-Ang^2)
       XXX    -108.8717    XXY      57.8684    XYY     -68.3743
       YYY      15.8176    XXZ     -67.7138    XYZ      11.9090
       YYZ      -7.6800    XZZ     -74.7057    YZZ       6.4962
       ZZZ     -22.5792
    Hexadecapole Moments (Debye-Ang^3)
      XXXX   -1388.8194   XXXY     335.5965   XXYY    -356.2610
      XYYY      77.1567   YYYY     -39.7055   XXXZ    -392.1153
      XXYZ      64.1419   XYYZ     -38.0804   YYYZ      14.9690
      XXZZ    -395.3831   XYZZ      31.9778   YYZZ     -16.5729
      XZZZ    -113.8024   YZZZ      15.8220   ZZZZ     -57.5182
 -----------------------------------------------------------------
 Calculating analytic gradient of the SCF energy
 Gradient of CDS energy
            1           2           3           4
    1  -0.0003389   0.0003547  -0.0000286   0.0000127
    2  -0.0007817   0.0008191  -0.0000508   0.0000134
    3   0.0009413  -0.0009897  -0.0000108   0.0000592
 Gradient of SCF Energy
            1           2           3           4
    1  -0.0028987  -0.0008340   0.0045250  -0.0007923
    2  -0.0068424  -0.0018842   0.0085641   0.0001626
    3   0.0071543   0.0024520  -0.0004958  -0.0091105
 Max gradient component =       9.110E-03
 RMS gradient           =       4.953E-03
 Computing fast CPCM-SWIG gradient
 Updating gradient with PCM contributions...
 -- total gradient after adding PCM contribution --
---------------------------------------------------
  Atom         X              Y              Z     
---------------------------------------------------
   1      -0.000369      -0.001020       0.000091
   2       0.000225       0.000551      -0.000499
   3       0.000016       0.000224       0.000047
   4       0.000127       0.000245       0.000361
---------------------------------------------------
 Number of fixed atoms: 0
 Gradient time:  CPU 9.45 s  wall 0.61 s
 ----------------------------------------------------------------
             Standard Nuclear Orientation (Angstroms)
    I     Atom           X                Y                Z
 ----------------------------------------------------------------
    1      C       5.3002344054    -0.0494932619     0.1178029281
    2      O       4.9783805414    -0.7937221182     1.0148099504
    3      H       5.8302869929     0.8909525859     0.3162394265
    4      H       5.0745200604    -0.2875316058    -0.9309837050
 ----------------------------------------------------------------
 Nuclear Repulsion Energy =          31.27713890 hartrees
 There are        8 alpha and        8 beta electrons
 Discretize the solute cavity surface with Lebedev spheres
	Using 110 Lebedev grid points for each H atom
	Using 194 Lebedev grid points for other atoms
	Atomic van der Waals radii will be scaled by 1.20
 Remove points where switching function is < 1.0e-08
 Keep 393 surface tesserae and discard 215 interior tesserae
 Molecular Surface Area = 53.309 Angst**2

                       Distance Matrix (Angstroms)
             C (  1)   O (  2)   H (  3)
   O (  2)  1.209168
   H (  3)  1.097621  2.012927
   H (  4)  1.098892  2.012855  1.874986
 
 Requested basis set is 6-311++G(2df,2p)
 There are 28 shells and 88 basis functions
 A cutoff of  1.0D-12 yielded    406 shell pairs
 There are      4058 function pairs (      5061 Cartesian)
 Smallest overlap matrix eigenvalue = 1.08E-03
 Guess MOs from SCF MO coefficient file

 -----------------------------------------------------------------------
  General SCF calculation program by
  Eric Jon Sundstrom, Paul Horn, Yuezhi Mao, Dmitri Zuev, Alec White,
  David Stuck, Shaama M.S., Shane Yost, Joonho Lee, David Small,
  Daniel Levine, Susi Lehtola, Hugh Burton, Evgeny Epifanovsky,
  Bang C. Huynh
 -----------------------------------------------------------------------
 Exchange:     0.1500 Hartree-Fock + 1.0000 wB97M-V + LR-HF
 Correlation:  1.0000 wB97M-V
 Using SG-2 standard quadrature grid
 Nonlocal Correlation:  VV10 with C = 0.0100 and b = 6.00 and scale = 1.00000
 Grid used for NLC:  SG-1 standard quadrature
 
 Citation of the SMD model:
 Marenich, A.V.; Cramer, C.J.; Truhlar, D.G.
 J. Phys. Chem. B 2009, 113, 6378-6396.
 iSolventCode=           1
 Solvent: water                                                           
 
 vradii
            1           2           3           4
    1   1.8500000   1.5200000   1.2000000   1.2000000
 -------------------------------------------------------
 OpenMP BLAS3 based DFT computing Module                
 Release: version 1.0, May 2013, Q-Chem Inc. Pittsburgh 
 -------------------------------------------------------
 A restricted SCF calculation will be
 performed using Roothaan-Hall, DIIS, GDM
 SCF converges when RMS gradient is below 1.0e-07
 ---------------------------------------
  Cycle       Energy         DIIS error
 ---------------------------------------
    1    -114.4953384484      1.26e-03  Roothaan Step
 ---------------------------------------
  Cycle       Energy         DIIS error
 ---------------------------------------
    1    -114.5043509074      1.91e-03  
    2    -114.5046602276      2.60e-03  Done DIIS. Switching to GDM
 ---------------------------------------
  Cycle       Energy        RMS Gradient
 ---------------------------------------
    1    -114.5046602276      3.93e-02   Normal BFGS step
    2    -114.5020900457      5.85e-02  Line search: overstep
    3    -114.5087820453      3.42e-03   Normal BFGS step
    4    -114.5089187202      1.76e-03   Normal BFGS step
    5    -114.5089335631      6.14e-04   Normal BFGS step
    6    -114.5089343026      9.14e-05   Normal BFGS step
    7    -114.5089343705      2.09e-05   Normal BFGS step
    8    -114.5089343753      4.63e-06   Normal BFGS step
    9    -114.5089343756      8.76e-07   Normal BFGS step
   10    -114.5089343756      2.27e-07   Normal BFGS step
   11    -114.5089343756      4.19e-08  Convergence criterion met
 ---------------------------------------
 SCF time:   CPU 54.33s  wall 3.00s 
(3)  G-ENP(liq) elect-nuc-pol free energy of system     -114.508934376 a.u.
(4)  G-CDS(liq) cavity-dispersion-solvent structure 
     free energy                                                4.0965 kcal/mol
(6)  G-S(liq) free energy of system                     -114.502406188 a.u.
 SCF   energy in the final basis set =     -114.5024061877
 Total energy in the final basis set =     -114.5024061877
 
 --------------------------------------------------------------
 
                    Orbital Energies (a.u.)
 --------------------------------------------------------------
 
 Alpha MOs
 -- Occupied --
-19.3522 -10.4362  -1.1942  -0.7456  -0.6035  -0.5707  -0.5115  -0.3778
 -- Virtual --
  0.0345   0.0361   0.0589   0.0729   0.1078   0.1373   0.1529   0.2140
  0.2250   0.2628   0.2755   0.3248   0.3267   0.4372   0.5392   0.5612
  0.6083   0.6250   0.6448   0.6671   0.8134   0.8487   0.9350   0.9762
  1.0298   1.0803   1.0819   1.1444   1.1679   1.1816   1.3063   1.4215
  1.4948   1.5232   1.6379   1.7729   1.9050   2.0071   2.2531   2.4793
  2.4989   2.5851   2.7842   2.9364   2.9751   3.0568   3.0987   3.1352
  3.1793   3.2814   3.3237   3.3361   3.5787   3.6023   3.7708   3.8412
  4.0765   4.1442   4.1692   4.1722   4.6011   4.9776   5.1386   5.1616
  5.1801   5.3017   5.5021   5.5170   5.5202   5.9145   6.3166   6.5980
  6.9203   6.9507   7.0522   7.2729   7.4463   7.6801  24.8726  50.6607
 --------------------------------------------------------------
 
          Ground-State Mulliken Net Atomic Charges

     Atom                 Charge (a.u.)
  ----------------------------------------
      1 C                     0.065504
      2 O                    -0.358320
      3 H                     0.146688
      4 H                     0.146128
  ----------------------------------------
  Sum of atomic charges =     0.000000

 -----------------------------------------------------------------
                    Cartesian Multipole Moments
 -----------------------------------------------------------------
    Charge (ESU x 10^10)
                 0.0000
    Dipole Moment (Debye)
         X       0.9206      Y       2.1269      Z      -2.5613
       Tot       3.4542
    Quadrupole Moments (Debye-Ang)
        XX      -2.2866     XY      10.6346     YY     -13.4469
        XZ     -12.5745     YZ       2.3798     ZZ     -14.5337
    Octopole Moments (Debye-Ang^2)
       XXX    -108.7212    XXY      57.9749    XYY     -68.3587
       YYY      15.8058    XXZ     -67.5995    XYZ      11.9068
       YYZ      -7.6822    XZZ     -74.7210    YZZ       6.4927
       ZZZ     -22.5881
    Hexadecapole Moments (Debye-Ang^3)
      XXXX   -1387.6203   XXXY     336.1828   XXYY    -356.1731
      XYYY      77.0993   YYYY     -39.6854   XXXZ    -391.5513
      XXYZ      64.1280   XYYZ     -38.0935   YYYZ      14.9638
      XXZZ    -395.4593   XYZZ      31.9607   YYZZ     -16.5734
      XZZZ    -113.8500   YZZZ      15.8229   ZZZZ     -57.5466
 -----------------------------------------------------------------
 Calculating analytic gradient of the SCF energy
 Gradient of CDS energy
            1           2           3           4
    1  -0.0003362   0.0003542  -0.0000301   0.0000120
    2  -0.0007785   0.0008191  -0.0000534   0.0000127
    3   0.0009426  -0.0009873  -0.0000113   0.0000559
 Gradient of SCF Energy
            1           2           3           4
    1  -0.0025460  -0.0008346   0.0043037  -0.0009230
    2  -0.0059579  -0.0019610   0.0080502  -0.0001312
    3   0.0083234   0.0021419  -0.0007666  -0.0096987
 Max gradient component =       9.699E-03
 RMS gradient           =       4.994E-03
 Computing fast CPCM-SWIG gradient
 Updating gradient with PCM contributions...
 -- total gradient after adding PCM contribution --
---------------------------------------------------
  Atom         X              Y              Z     
---------------------------------------------------
   1       0.000008      -0.000136       0.001270
   2       0.000227       0.000480      -0.000803
   3      -0.000223      -0.000304      -0.000213
   4      -0.000012      -0.000040      -0.000254
---------------------------------------------------
 Number of fixed atoms: 0
 Gradient time:  CPU 9.47 s  wall 0.61 s
 ----------------------------------------------------------------
             Standard Nuclear Orientation (Angstroms)
    I     Atom           X                Y                Z
 ----------------------------------------------------------------
    1      C       5.3002344054    -0.0494932619     0.1158029281
    2      O       4.9783805414    -0.7937221182     1.0148099504
    3      H       5.8302869929     0.8909525859     0.3162394265
    4      H       5.0745200604    -0.2875316058    -0.9309837050
 ----------------------------------------------------------------
 Nuclear Repulsion Energy =          31.25545201 hartrees
 There are        8 alpha and        8 beta electrons
 Discretize the solute cavity surface with Lebedev spheres
	Using 110 Lebedev grid points for each H atom
	Using 194 Lebedev grid points for other atoms
	Atomic van der Waals radii will be scaled by 1.20
 Remove points where switching function is < 1.0e-08
 Keep 393 surface tesserae and discard 215 interior tesserae
 Molecular Surface Area = 53.313 Angst**2

                       Distance Matrix (Angstroms)
             C (  1)   O (  2)   H (  3)
   O (  2)  1.210653
   H (  3)  1.097984  2.012927
   H (  4)  1.096983  2.012855  1.874986
 
 Requested basis set is 6-311++G(2df,2p)
 There are 28 shells and 88 basis functions
 A cutoff of  1.0D-12 yielded    406 shell pairs
 There are      4058 function pairs (      5061 Cartesian)
 Smallest overlap matrix eigenvalue = 1.09E-03
 Guess MOs from SCF MO coefficient file

 -----------------------------------------------------------------------
  General SCF calculation program by
  Eric Jon Sundstrom, Paul Horn, Yuezhi Mao, Dmitri Zuev, Alec White,
  David Stuck, Shaama M.S., Shane Yost, Joonho Lee, David Small,
  Daniel Levine, Susi Lehtola, Hugh Burton, Evgeny Epifanovsky,
  Bang C. Huynh
 -----------------------------------------------------------------------
 Exchange:     0.1500 Hartree-Fock + 1.0000 wB97M-V + LR-HF
 Correlation:  1.0000 wB97M-V
 Using SG-2 standard quadrature grid
 Nonlocal Correlation:  VV10 with C = 0.0100 and b = 6.00 and scale = 1.00000
 Grid used for NLC:  SG-1 standard quadrature
 
 Citation of the SMD model:
 Marenich, A.V.; Cramer, C.J.; Truhlar, D.G.
 J. Phys. Chem. B 2009, 113, 6378-6396.
 iSolventCode=           1
 Solvent: water                                                           
 
 vradii
            1           2           3           4
    1   1.8500000   1.5200000   1.2000000   1.2000000
 -------------------------------------------------------
 OpenMP BLAS3 based DFT computing Module                
 Release: version 1.0, May 2013, Q-Chem Inc. Pittsburgh 
 -------------------------------------------------------
 A restricted SCF calculation will be
 performed using Roothaan-Hall, DIIS, GDM
 SCF converges when RMS gradient is below 1.0e-07
 ---------------------------------------
  Cycle       Energy         DIIS error
 ---------------------------------------
    1    -114.4953093450      1.26e-03  Roothaan Step
 ---------------------------------------
  Cycle       Energy         DIIS error
 ---------------------------------------
    1    -114.5042766561      1.93e-03  
    2    -114.5045568703      2.63e-03  Done DIIS. Switching to GDM
 ---------------------------------------
  Cycle       Energy        RMS Gradient
 ---------------------------------------
    1    -114.5045568703      3.99e-02   Normal BFGS step
    2    -114.5019037133      5.94e-02  Line search: overstep
    3    -114.5087740913      3.49e-03   Normal BFGS step
    4    -114.5089139384      1.77e-03   Normal BFGS step
    5    -114.5089290437      6.25e-04   Normal BFGS step
    6    -114.5089298041      9.01e-05   Normal BFGS step
    7    -114.5089298708      2.22e-05   Normal BFGS step
    8    -114.5089298760      4.84e-06   Normal BFGS step
    9    -114.5089298762      8.89e-07   Normal BFGS step
   10    -114.5089298762      2.34e-07   Normal BFGS step
   11    -114.5089298762      4.38e-08  Convergence criterion met
 ---------------------------------------
 SCF time:   CPU 54.27s  wall 3.00s 
(3)  G-ENP(liq) elect-nuc-pol free energy of system     -114.508929876 a.u.
(4)  G-CDS(liq) cavity-dispersion-solvent structure 
     free energy                                                4.0942 kcal/mol
(6)  G-S(liq) free energy of system                     -114.502405274 a.u.
 SCF   energy in the final basis set =     -114.5024052744
 Total energy in the final basis set =     -114.5024052744
 
 --------------------------------------------------------------
 
                    Orbital Energies (a.u.)
 --------------------------------------------------------------
 
 Alpha MOs
 -- Occupied --
-19.3522 -10.4363  -1.1934  -0.7459  -0.6036  -0.5704  -0.5110  -0.3780
 -- Virtual --
  0.0345   0.0358   0.0588   0.0729   0.1077   0.1374   0.1529   0.2140
  0.2251   0.2628   0.2755   0.3247   0.3268   0.4367   0.5391   0.5614
  0.6083   0.6249   0.6449   0.6667   0.8124   0.8486   0.9352   0.9759
  1.0299   1.0803   1.0825   1.1446   1.1677   1.1820   1.3063   1.4212
  1.4950   1.5234   1.6372   1.7726   1.9044   2.0061   2.2526   2.4787
  2.4979   2.5851   2.7842   2.9359   2.9753   3.0568   3.0987   3.1356
  3.1789   3.2820   3.3241   3.3361   3.5780   3.6003   3.7725   3.8418
  4.0767   4.1457   4.1661   4.1726   4.6027   4.9798   5.1389   5.1615
  5.1798   5.3010   5.5010   5.5180   5.5190   5.9112   6.3114   6.5925
  6.9201   6.9502   7.0496   7.2729   7.4461   7.6792  24.8720  50.6584
 --------------------------------------------------------------
 
          Ground-State Mulliken Net Atomic Charges

     Atom                 Charge (a.u.)
  ----------------------------------------
      1 C                     0.065694
      2 O                    -0.359571
      3 H                     0.146816
      4 H                     0.147062
  ----------------------------------------
  Sum of atomic charges =     0.000000

 -----------------------------------------------------------------
                    Cartesian Multipole Moments
 -----------------------------------------------------------------
    Charge (ESU x 10^10)
                -0.0000
    Dipole Moment (Debye)
         X       0.9212      Y       2.1297      Z      -2.5731
       Tot       3.4648
    Quadrupole Moments (Debye-Ang)
        XX      -2.2823     XY      10.6495     YY     -13.4514
        XZ     -12.6333     YZ       2.3856     ZZ     -14.5329
    Octopole Moments (Debye-Ang^2)
       XXX    -108.7066    XXY      58.0555    XYY     -68.3794
       YYY      15.8186    XXZ     -67.8920    XYZ      11.9389
       YYZ      -7.6796    XZZ     -74.7173    YZZ       6.4941
       ZZZ     -22.5848
    Hexadecapole Moments (Debye-Ang^3)
      XXXX   -1387.6480   XXXY     336.6391   XXYY    -356.2716
      XYYY      77.1636   YYYY     -39.7098   XXXZ    -392.9865
      XXYZ      64.3086   XYYZ     -38.0754   YYYZ      14.9787
      XXZZ    -395.4389   XYZZ      31.9689   YYZZ     -16.5713
      XZZZ    -113.8268   YZZZ      15.8308   ZZZZ     -57.5245
 -----------------------------------------------------------------
 Calculating analytic gradient of the SCF energy
 Gradient of CDS energy
            1           2           3           4
    1  -0.0003435   0.0003598  -0.0000296   0.0000132
    2  -0.0007935   0.0008321  -0.0000525   0.0000139
    3   0.0009551  -0.0010051  -0.0000112   0.0000612
 Gradient of SCF Energy
            1           2           3           4
    1  -0.0023962  -0.0013083   0.0044354  -0.0007309
    2  -0.0052993  -0.0030916   0.0082798   0.0001111
    3   0.0053228   0.0038922  -0.0004321  -0.0087828
 Max gradient component =       8.783E-03
 RMS gradient           =       4.607E-03
 Computing fast CPCM-SWIG gradient
 Updating gradient with PCM contributions...
 -- total gradient after adding PCM contribution --
---------------------------------------------------
  Atom         X              Y              Z     
---------------------------------------------------
   1       0.000150       0.000526      -0.001753
   2      -0.000249      -0.000655       0.000940
   3      -0.000097      -0.000086       0.000092
   4       0.000196       0.000215       0.000722
---------------------------------------------------
 Number of fixed atoms: 0
 Gradient time:  CPU 9.52 s  wall 0.61 s
 ----------------------------------------------------------------
             Standard Nuclear Orientation (Angstroms)
    I     Atom           X                Y                Z
 ----------------------------------------------------------------
    1      C       5.3002344054    -0.0494932619     0.1168029281
    2      O       4.9793805414    -0.7937221182     1.0148099504
    3      H       5.8302869929     0.8909525859     0.3162394265
    4      H       5.0745200604    -0.2875316058    -0.9309837050
 ----------------------------------------------------------------
 Nuclear Repulsion Energy =          31.27139158 hartrees
 There are        8 alpha and        8 beta electrons
 Discretize the solute cavity surface with Lebedev spheres
	Using 110 Lebedev grid points for each H atom
	Using 194 Lebedev grid points for other atoms
	Atomic van der Waals radii will be scaled by 1.20
 Remove points where switching function is < 1.0e-08
 Keep 393 surface tesserae and discard 215 interior tesserae
 Molecular Surface Area = 53.308 Angst**2

                       Distance Matrix (Angstroms)
             C (  1)   O (  2)   H (  3)
   O (  2)  1.209645
   H (  3)  1.097802  2.012504
   H (  4)  1.097937  2.012807  1.874986
 
 Requested basis set is 6-311++G(2df,2p)
 There are 28 shells and 88 basis functions
 A cutoff of  1.0D-12 yielded    406 shell pairs
 There are      4058 function pairs (      5061 Cartesian)
 Smallest overlap matrix eigenvalue = 1.08E-03
 Guess MOs from SCF MO coefficient file

 -----------------------------------------------------------------------
  General SCF calculation program by
  Eric Jon Sundstrom, Paul Horn, Yuezhi Mao, Dmitri Zuev, Alec White,
  David Stuck, Shaama M.S., Shane Yost, Joonho Lee, David Small,
  Daniel Levine, Susi Lehtola, Hugh Burton, Evgeny Epifanovsky,
  Bang C. Huynh
 -----------------------------------------------------------------------
 Exchange:     0.1500 Hartree-Fock + 1.0000 wB97M-V + LR-HF
 Correlation:  1.0000 wB97M-V
 Using SG-2 standard quadrature grid
 Nonlocal Correlation:  VV10 with C = 0.0100 and b = 6.00 and scale = 1.00000
 Grid used for NLC:  SG-1 standard quadrature
 
 Citation of the SMD model:
 Marenich, A.V.; Cramer, C.J.; Truhlar, D.G.
 J. Phys. Chem. B 2009, 113, 6378-6396.
 iSolventCode=           1
 Solvent: water                                                           
 
 vradii
            1           2           3           4
    1   1.8500000   1.5200000   1.2000000   1.2000000
 -------------------------------------------------------
 OpenMP BLAS3 based DFT computing Module                
 Release: version 1.0, May 2013, Q-Chem Inc. Pittsburgh 
 -------------------------------------------------------
 A restricted SCF calculation will be
 performed using Roothaan-Hall, DIIS, GDM
 SCF converges when RMS gradient is below 1.0e-07
 ---------------------------------------
  Cycle       Energy         DIIS error
 ---------------------------------------
    1    -114.4952852203      1.27e-03  Roothaan Step
 ---------------------------------------
  Cycle       Energy         DIIS error
 ---------------------------------------
    1    -114.5043531754      1.91e-03  
    2    -114.5046647871      2.60e-03  Done DIIS. Switching to GDM
 ---------------------------------------
  Cycle       Energy        RMS Gradient
 ---------------------------------------
    1    -114.5046647871      3.94e-02   Normal BFGS step
    2    -114.5020925466      5.85e-02  Line search: overstep
    3    -114.5087818311      3.43e-03   Normal BFGS step
    4    -114.5089184670      1.76e-03   Normal BFGS step
    5    -114.5089332838      6.16e-04   Normal BFGS step
    6    -114.5089340289      9.29e-05   Normal BFGS step
    7    -114.5089340989      2.03e-05   Normal BFGS step
    8    -114.5089341037      4.63e-06   Normal BFGS step
    9    -114.5089341039      8.73e-07   Normal BFGS step
   10    -114.5089341039      2.24e-07   Normal BFGS step
   11    -114.5089341039      4.11e-08  Convergence criterion met
 ---------------------------------------
 SCF time:   CPU 54.57s  wall 4.00s 
(3)  G-ENP(liq) elect-nuc-pol free energy of system     -114.508934104 a.u.
(4)  G-CDS(liq) cavity-dispersion-solvent structure 
     free energy                                                4.0958 kcal/mol
(6)  G-S(liq) free energy of system                     -114.502407030 a.u.
 SCF   energy in the final basis set =     -114.5024070305
 Total energy in the final basis set =     -114.5024070305
 
 --------------------------------------------------------------
 
                    Orbital Energies (a.u.)
 --------------------------------------------------------------
 
 Alpha MOs
 -- Occupied --
-19.3522 -10.4362  -1.1939  -0.7457  -0.6036  -0.5706  -0.5113  -0.3779
 -- Virtual --
  0.0345   0.0360   0.0588   0.0729   0.1077   0.1374   0.1529   0.2140
  0.2251   0.2628   0.2756   0.3248   0.3267   0.4370   0.5392   0.5614
  0.6083   0.6250   0.6448   0.6670   0.8131   0.8487   0.9351   0.9760
  1.0298   1.0803   1.0822   1.1445   1.1678   1.1819   1.3064   1.4214
  1.4949   1.5233   1.6376   1.7729   1.9049   2.0068   2.2531   2.4791
  2.4985   2.5851   2.7842   2.9362   2.9752   3.0567   3.0987   3.1353
  3.1791   3.2816   3.3241   3.3361   3.5784   3.6017   3.7716   3.8416
  4.0766   4.1450   4.1683   4.1725   4.6020   4.9787   5.1387   5.1616
  5.1800   5.3015   5.5018   5.5180   5.5196   5.9135   6.3149   6.5962
  6.9203   6.9506   7.0514   7.2729   7.4463   7.6798  24.8728  50.6600
 --------------------------------------------------------------
 
          Ground-State Mulliken Net Atomic Charges

     Atom                 Charge (a.u.)
  ----------------------------------------
      1 C                     0.065546
      2 O                    -0.358758
      3 H                     0.146656
      4 H                     0.146555
  ----------------------------------------
  Sum of atomic charges =     0.000000

 -----------------------------------------------------------------
                    Cartesian Multipole Moments
 -----------------------------------------------------------------
    Charge (ESU x 10^10)
                -0.0000
    Dipole Moment (Debye)
         X       0.9182      Y       2.1273      Z      -2.5665
       Tot       3.4577
    Quadrupole Moments (Debye-Ang)
        XX      -2.3111     XY      10.6387     YY     -13.4496
        XZ     -12.6031     YZ       2.3826     ZZ     -14.5322
    Octopole Moments (Debye-Ang^2)
       XXX    -108.9264    XXY      58.0038    XYY     -68.3794
       YYY      15.8097    XXZ     -67.7550    XYZ      11.9239
       YYZ      -7.6808    XZZ     -74.7224    YZZ       6.4930
       ZZZ     -22.5832
    Hexadecapole Moments (Debye-Ang^3)
      XXXX   -1389.2533   XXXY     336.3859   XXYY    -356.3142
      XYYY      77.1328   YYYY     -39.6992   XXXZ    -392.3955
      XXYZ      64.2322   XYYZ     -38.0916   YYYZ      14.9709
      XXZZ    -395.5069   XYZZ      31.9692   YYZZ     -16.5723
      XZZZ    -113.8437   YZZZ      15.8255   ZZZZ     -57.5298
 -----------------------------------------------------------------
 Calculating analytic gradient of the SCF energy
 Gradient of CDS energy
            1           2           3           4
    1  -0.0003377   0.0003549  -0.0000298   0.0000126
    2  -0.0007837   0.0008233  -0.0000529   0.0000133
    3   0.0009460  -0.0009934  -0.0000112   0.0000586
 Gradient of SCF Energy
            1           2           3           4
    1  -0.0026857  -0.0009100   0.0043839  -0.0007881
    2  -0.0058525  -0.0022516   0.0081142  -0.0000100
    3   0.0070556   0.0027423  -0.0005621  -0.0092358
 Max gradient component =       9.236E-03
 RMS gradient           =       4.795E-03
 Computing fast CPCM-SWIG gradient
 Updating gradient with PCM contributions...
 -- total gradient after adding PCM contribution --
---------------------------------------------------
  Atom         X              Y              Z     
---------------------------------------------------
   1      -0.000135      -0.000039      -0.000003
   2       0.000148       0.000188      -0.000208
   3      -0.000142      -0.000237      -0.000025
   4       0.000129       0.000088       0.000237
---------------------------------------------------
 Number of fixed atoms: 0
 Gradient time:  CPU 9.59 s  wall 0.62 s
 ----------------------------------------------------------------
             Standard Nuclear Orientation (Angstroms)
    I     Atom           X                Y                Z
 ----------------------------------------------------------------
    1      C       5.3002344054    -0.0494932619     0.1168029281
    2      O       4.9773805414    -0.7937221182     1.0148099504
    3      H       5.8302869929     0.8909525859     0.3162394265
    4      H       5.0745200604    -0.2875316058    -0.9309837050
 ----------------------------------------------------------------
 Nuclear Repulsion Energy =          31.26117593 hartrees
 There are        8 alpha and        8 beta electrons
 Discretize the solute cavity surface with Lebedev spheres
	Using 110 Lebedev grid points for each H atom
	Using 194 Lebedev grid points for other atoms
	Atomic van der Waals radii will be scaled by 1.20
 Remove points where switching function is < 1.0e-08
 Keep 393 surface tesserae and discard 215 interior tesserae
 Molecular Surface Area = 53.314 Angst**2

                       Distance Matrix (Angstroms)
             C (  1)   O (  2)   H (  3)
   O (  2)  1.210177
   H (  3)  1.097802  2.013350
   H (  4)  1.097937  2.012903  1.874986
 
 Requested basis set is 6-311++G(2df,2p)
 There are 28 shells and 88 basis functions
 A cutoff of  1.0D-12 yielded    406 shell pairs
 There are      4058 function pairs (      5061 Cartesian)
 Smallest overlap matrix eigenvalue = 1.09E-03
 Guess MOs from SCF MO coefficient file

 -----------------------------------------------------------------------
  General SCF calculation program by
  Eric Jon Sundstrom, Paul Horn, Yuezhi Mao, Dmitri Zuev, Alec White,
  David Stuck, Shaama M.S., Shane Yost, Joonho Lee, David Small,
  Daniel Levine, Susi Lehtola, Hugh Burton, Evgeny Epifanovsky,
  Bang C. Huynh
 -----------------------------------------------------------------------
 Exchange:     0.1500 Hartree-Fock + 1.0000 wB97M-V + LR-HF
 Correlation:  1.0000 wB97M-V
 Using SG-2 standard quadrature grid
 Nonlocal Correlation:  VV10 with C = 0.0100 and b = 6.00 and scale = 1.00000
 Grid used for NLC:  SG-1 standard quadrature
 
 Citation of the SMD model:
 Marenich, A.V.; Cramer, C.J.; Truhlar, D.G.
 J. Phys. Chem. B 2009, 113, 6378-6396.
 iSolventCode=           1
 Solvent: water                                                           
 
 vradii
            1           2           3           4
    1   1.8500000   1.5200000   1.2000000   1.2000000
 -------------------------------------------------------
 OpenMP BLAS3 based DFT computing Module                
 Release: version 1.0, May 2013, Q-Chem Inc. Pittsburgh 
 -------------------------------------------------------
 A restricted SCF calculation will be
 performed using Roothaan-Hall, DIIS, GDM
 SCF converges when RMS gradient is below 1.0e-07
 ---------------------------------------
  Cycle       Energy         DIIS error
 ---------------------------------------
    1    -114.4953044578      1.26e-03  Roothaan Step
 ---------------------------------------
  Cycle       Energy         DIIS error
 ---------------------------------------
    1    -114.5043183024      1.91e-03  
    2    -114.5046143925      2.61e-03  Done DIIS. Switching to GDM
 ---------------------------------------
  Cycle       Energy        RMS Gradient
 ---------------------------------------
    1    -114.5046143925      3.96e-02   Normal BFGS step
    2    -114.5020028122      5.89e-02  Line search: overstep
    3    -114.5087786963      3.45e-03   Normal BFGS step
    4    -114.5089169232      1.76e-03   Normal BFGS step
    5    -114.5089318874      6.20e-04   Normal BFGS step
    6    -114.5089326374      9.06e-05   Normal BFGS step
    7    -114.5089327044      2.17e-05   Normal BFGS step
    8    -114.5089327095      4.74e-06   Normal BFGS step
    9    -114.5089327097      8.81e-07   Normal BFGS step
   10    -114.5089327097      2.30e-07   Normal BFGS step
   11    -114.5089327097      4.29e-08  Convergence criterion met
 ---------------------------------------
 SCF time:   CPU 53.71s  wall 3.00s 
(3)  G-ENP(liq) elect-nuc-pol free energy of system     -114.508932710 a.u.
(4)  G-CDS(liq) cavity-dispersion-solvent structure 
     free energy                                                4.0950 kcal/mol
(6)  G-S(liq) free energy of system                     -114.502406986 a.u.
 SCF   energy in the final basis set =     -114.5024069857
 Total energy in the final basis set =     -114.5024069857
 
 --------------------------------------------------------------
 
                    Orbital Energies (a.u.)
 --------------------------------------------------------------
 
 Alpha MOs
 -- Occupied --
-19.3522 -10.4363  -1.1937  -0.7458  -0.6035  -0.5705  -0.5112  -0.3780
 -- Virtual --
  0.0345   0.0359   0.0588   0.0729   0.1077   0.1374   0.1529   0.2140
  0.2251   0.2628   0.2755   0.3247   0.3267   0.4368   0.5391   0.5613
[...]
  General SCF calculation program by
  Eric Jon Sundstrom, Paul Horn, Yuezhi Mao, Dmitri Zuev, Alec White,
  David Stuck, Shaama M.S., Shane Yost, Joonho Lee, David Small,
  Daniel Levine, Susi Lehtola, Hugh Burton, Evgeny Epifanovsky,
  Bang C. Huynh
 -----------------------------------------------------------------------
 Exchange:     0.1500 Hartree-Fock + 1.0000 wB97M-V + LR-HF
 Correlation:  1.0000 wB97M-V
 Using SG-2 standard quadrature grid
 Nonlocal Correlation:  VV10 with C = 0.0100 and b = 6.00 and scale = 1.00000
 Grid used for NLC:  SG-1 standard quadrature
 
 Citation of the SMD model:
 Marenich, A.V.; Cramer, C.J.; Truhlar, D.G.
 J. Phys. Chem. B 2009, 113, 6378-6396.
 iSolventCode=           1
 Solvent: water                                                           
 
 vradii
            1           2           3           4
    1   1.8500000   1.5200000   1.2000000   1.2000000
 -------------------------------------------------------
 OpenMP BLAS3 based DFT computing Module                
 Release: version 1.0, May 2013, Q-Chem Inc. Pittsburgh 
 -------------------------------------------------------
 A restricted SCF calculation will be
 performed using Roothaan-Hall, DIIS, GDM
 SCF converges when RMS gradient is below 1.0e-07
 ---------------------------------------
  Cycle       Energy         DIIS error
 ---------------------------------------
    1    -114.4953004065      1.26e-03  Roothaan Step
 ---------------------------------------
  Cycle       Energy         DIIS error
 ---------------------------------------
    1    -114.5043484930      1.91e-03  
    2    -114.5046546251      2.60e-03  Done DIIS. Switching to GDM
 ---------------------------------------
  Cycle       Energy        RMS Gradient
 ---------------------------------------
    1    -114.5046546251      3.94e-02   Normal BFGS step
    2    -114.5020716807      5.86e-02  Line search: overstep
    3    -114.5087806107      3.44e-03   Normal BFGS step
    4    -114.5089176837      1.76e-03   Normal BFGS step
    5    -114.5089325442      6.16e-04   Normal BFGS step
    6    -114.5089332852      9.01e-05   Normal BFGS step
    7    -114.5089333512      2.17e-05   Normal BFGS step
    8    -114.5089333563      4.70e-06   Normal BFGS step
    9    -114.5089333565      8.71e-07   Normal BFGS step
   10    -114.5089333565      2.29e-07   Normal BFGS step
   11    -114.5089333565      4.89e-08  Convergence criterion met
 ---------------------------------------
 SCF time:   CPU 56.76s  wall 4.00s 
(3)  G-ENP(liq) elect-nuc-pol free energy of system     -114.508933356 a.u.
(4)  G-CDS(liq) cavity-dispersion-solvent structure 
     free energy                                                4.0953 kcal/mol
(6)  G-S(liq) free energy of system                     -114.502407064 a.u.
 SCF   energy in the final basis set =     -114.5024070640
 Total energy in the final basis set =     -114.5024070640
 
 --------------------------------------------------------------
 
                    Orbital Energies (a.u.)
 --------------------------------------------------------------
 
 Alpha MOs
 -- Occupied --
-19.3522 -10.4364  -1.1938  -0.7457  -0.6035  -0.5705  -0.5112  -0.3779
 -- Virtual --
  0.0345   0.0359   0.0588   0.0729   0.1077   0.1374   0.1529   0.2139
  0.2250   0.2628   0.2755   0.3247   0.3267   0.4369   0.5390   0.5612
  0.6083   0.6249   0.6447   0.6669   0.8129   0.8486   0.9350   0.9759
  1.0298   1.0803   1.0821   1.1445   1.1678   1.1816   1.3061   1.4213
  1.4946   1.5229   1.6375   1.7726   1.9047   2.0066   2.2527   2.4791
  2.4986   2.5852   2.7841   2.9362   2.9751   3.0567   3.0986   3.1352
  3.1792   3.2817   3.3233   3.3362   3.5786   3.6013   3.7706   3.8406
  4.0761   4.1443   4.1674   4.1716   4.6008   4.9777   5.1385   5.1615
  5.1799   5.3011   5.5014   5.5163   5.5190   5.9124   6.3140   6.5948
  6.9202   6.9504   7.0506   7.2729   7.4461   7.6797  24.8711  50.6594
 --------------------------------------------------------------
 
          Ground-State Mulliken Net Atomic Charges

     Atom                 Charge (a.u.)
  ----------------------------------------
      1 C                     0.065606
      2 O                    -0.358845
      3 H                     0.146796
      4 H                     0.146443
  ----------------------------------------
  Sum of atomic charges =     0.000000

 -----------------------------------------------------------------
                    Cartesian Multipole Moments
 -----------------------------------------------------------------
    Charge (ESU x 10^10)
                -0.0000
    Dipole Moment (Debye)
         X       0.9211      Y       2.1283      Z      -2.5664
       Tot       3.4590
    Quadrupole Moments (Debye-Ang)
        XX      -2.2837     XY      10.6426     YY     -13.4496
        XZ     -12.5997     YZ       2.3822     ZZ     -14.5327
    Octopole Moments (Debye-Ang^2)
       XXX    -108.7143    XXY      58.0202    XYY     -68.3713
       YYY      15.8127    XXZ     -67.7217    XYZ      11.9202
       YYZ      -7.6785    XZZ     -74.7161    YZZ       6.4927
       ZZZ     -22.5817
    Hexadecapole Moments (Debye-Ang^3)
      XXXX   -1387.6785   XXXY     336.4487   XXYY    -356.2338
      XYYY      77.1345   YYYY     -39.6970   XXXZ    -392.1237
      XXYZ      64.2037   XYYZ     -38.0723   YYYZ      14.9688
      XXZZ    -395.4366   XYZZ      31.9615   YYZZ     -16.5742
      XZZZ    -113.8139   YZZZ      15.8247   ZZZZ     -57.5430
 -----------------------------------------------------------------
 Calculating analytic gradient of the SCF energy
 Gradient of CDS energy
            1           2           3           4
    1  -0.0003392   0.0003570  -0.0000298   0.0000120
    2  -0.0007854   0.0008256  -0.0000529   0.0000127
    3   0.0009514  -0.0009962  -0.0000112   0.0000559
 Gradient of SCF Energy
            1           2           3           4
    1  -0.0023699  -0.0010757   0.0043737  -0.0009282
    2  -0.0055031  -0.0025526   0.0081648  -0.0001091
    3   0.0073101   0.0030904  -0.0005954  -0.0098051
 Max gradient component =       9.805E-03
 RMS gradient           =       4.914E-03
 Computing fast CPCM-SWIG gradient
 Updating gradient with PCM contributions...
 -- total gradient after adding PCM contribution --
---------------------------------------------------
  Atom         X              Y              Z     
---------------------------------------------------
   1       0.000185       0.000326       0.000245
   2      -0.000016      -0.000116       0.000145
   3      -0.000156      -0.000196      -0.000057
   4      -0.000012      -0.000014      -0.000333
---------------------------------------------------
 Number of fixed atoms: 0
 Gradient time:  CPU 9.82 s  wall 0.63 s
Dipole drv :
gprntSymmMtrx error report: 
 Final Hessian.
            1           2           3           4           5           6
    1   0.3043206   0.2376741  -0.0378014  -0.1139764  -0.1252213   0.1261054
    2   0.2376741   0.6445084  -0.1751319  -0.1251497  -0.3387374   0.3003565
    3  -0.0378014  -0.1751319   0.7998890   0.1260821   0.3004088  -0.4613056
    4  -0.1139764  -0.1251497   0.1260821   0.0846905   0.1467358  -0.1472843
    5  -0.1252213  -0.3387374   0.3004088   0.1467358   0.3480849  -0.3510465
    6   0.1261054   0.3003565  -0.4613056  -0.1472843  -0.3510465   0.4914608
    7  -0.1145105  -0.0935894  -0.0333176   0.0092730  -0.0202598   0.0083147
    8  -0.0935935  -0.2221705  -0.0578251  -0.0221350  -0.0240671   0.0170239
    9  -0.0328427  -0.0568963  -0.0804773   0.0189684   0.0365517   0.0097403
   10  -0.0758338  -0.0189349  -0.0549632   0.0200130  -0.0012547   0.0128644
   11  -0.0188595  -0.0836010  -0.0674516   0.0005490   0.0147196   0.0336660
   12  -0.0554606  -0.0683267  -0.2581083   0.0022334   0.0140850  -0.0398943
            7           8           9          10          11          12
    1  -0.1145105  -0.0935935  -0.0328427  -0.0758338  -0.0188595  -0.0554606
    2  -0.0935894  -0.2221705  -0.0568963  -0.0189349  -0.0836010  -0.0683267
    3  -0.0333176  -0.0578251  -0.0804773  -0.0549632  -0.0674516  -0.2581083
    4   0.0092730  -0.0221350   0.0189684   0.0200130   0.0005490   0.0022334
    5  -0.0202598  -0.0240671   0.0365517  -0.0012547   0.0147196   0.0140850
    6   0.0083147   0.0170239   0.0097403   0.0128644   0.0336660  -0.0398943
    7   0.0913005   0.1259114   0.0268536   0.0139370  -0.0120621  -0.0018511
    8   0.1259114   0.2443879   0.0404069  -0.0101830   0.0018499   0.0003937
    9   0.0268536   0.0404069   0.0726384  -0.0129793  -0.0200623  -0.0019012
   10   0.0139370  -0.0101830  -0.0129793   0.0418839   0.0303726   0.0550782
   11  -0.0120621   0.0018499  -0.0200623   0.0303726   0.0670316   0.0538478
   12  -0.0018511   0.0003937  -0.0019012   0.0550782   0.0538478   0.2999046
 ----------------------------------------------------------------
             Standard Nuclear Orientation (Angstroms)
    I     Atom           X                Y                Z
 ----------------------------------------------------------------
    1      C       5.3002344054    -0.0494932619     0.1168029281
    2      O       4.9783805414    -0.7937221182     1.0148099504
    3      H       5.8302869929     0.8909525859     0.3162394265
    4      H       5.0745200604    -0.2875316058    -0.9309837050
 ----------------------------------------------------------------
 Nuclear Repulsion Energy =          31.26628978 hartrees
 There are        8 alpha and        8 beta electrons
 old dipole drv.
            1           2           3           4           5           6
    1   0.4192011   0.3806071  -0.0696007  -0.5685158  -0.1976458   0.1515025
    2   0.3796332   0.9706081  -0.2989109  -0.1978658  -0.9030692   0.3812798
    3  -0.0707170  -0.2998978   1.2222859   0.1517858   0.3809495  -1.0786644
            7           8           9          10          11          12
    1   0.0525928  -0.1313198  -0.0483775   0.0967208  -0.0516420  -0.0335282
    2  -0.1368992  -0.1138821  -0.0719058  -0.0448697   0.0463413  -0.0104728
    3  -0.0082871   0.0018018   0.0304395  -0.0727792  -0.0828485  -0.1740454
 New transposed dipole drv.
            1           2           3
    1   0.4192011   0.3796332  -0.0707170
    2   0.3806071   0.9706081  -0.2998978
    3  -0.0696007  -0.2989109   1.2222859
    4  -0.5685158  -0.1978658   0.1517858
    5  -0.1976458  -0.9030692   0.3809495
    6   0.1515025   0.3812798  -1.0786644
    7   0.0525928  -0.1368992  -0.0082871
    8  -0.1313198  -0.1138821   0.0018018
    9  -0.0483775  -0.0719058   0.0304395
   10   0.0967208  -0.0448697  -0.0727792
   11  -0.0516420   0.0463413  -0.0828485
   12  -0.0335282  -0.0104728  -0.1740454
FINAL TENSOR RESULT:
Order 2, Length 12
    Atom      X          Y          Z
     1 Order 1, Length 12
    Atom      X          Y          Z
     1    3.043206478174528e-01   2.376741297056421e-01  -3.780142166105666e-02
     2   -1.139764319880907e-01  -1.252213203336622e-01   1.261054087424947e-01
     3   -1.145104624804823e-01  -9.359346998961526e-02  -3.284270674037779e-02
     4   -7.583382465001332e-02  -1.885945419180573e-02  -5.546056577012770e-02

Order 1, Length 12
    Atom      X          Y          Z
     1    2.376741297056421e-01   6.445084339627407e-01  -1.751318542391965e-01
     2   -1.251497425055058e-01  -3.387373538228702e-01   3.003565104727633e-01
     3   -9.358941688874267e-02  -2.221704517558546e-01  -5.689630299602676e-02
     4   -1.893487936348992e-02  -8.360096536918862e-02  -6.832666877135435e-02

Order 1, Length 12
    Atom      X          Y          Z
     1   -3.780142166105666e-02  -1.751318542391965e-01   7.998889717630008e-01
     2    1.260821391905032e-01   3.004088212201360e-01  -4.613055775578740e-01
     3   -3.331761626173518e-02  -5.782507838085871e-02  -8.047725191515988e-02
     4   -5.496319674169663e-02  -6.745162769555701e-02  -2.581083483148235e-01


     2 Order 1, Length 12
    Atom      X          Y          Z
     1   -1.139764319880907e-01  -1.251497425055058e-01   1.260821391905032e-01
     2    8.469048839548984e-02   1.467357736181519e-01  -1.472843327278848e-01
     3    9.273003449329645e-03  -2.213499416455342e-02   1.896837617930417e-02
     4    2.001295012836146e-02   5.489921862961184e-04   2.233397816340806e-03

Order 1, Length 12
    Atom      X          Y          Z
     1   -1.252213203336622e-01  -3.387373538228702e-01   3.004088212201360e-01
     2    1.467357736181519e-01   3.480849478989803e-01  -3.510464630626553e-01
     3   -2.025979387700556e-02  -2.406711530178909e-02   3.655167360881525e-02
     4   -1.254746782053765e-03   1.471957087794495e-02   1.408496324958985e-02

Order 1, Length 12
    Atom      X          Y          Z
     1    1.261054087424947e-01   3.003565104727633e-01  -4.613055775578740e-01
     2   -1.472843327278848e-01  -3.510464630626553e-01   4.914607956605516e-01
     3    8.314669798073906e-03   1.702394973889261e-02   9.740331596811886e-03
     4    1.286435252609765e-02   3.366597515584215e-02  -3.989430570261033e-02


     3 Order 1, Length 12
    Atom      X          Y          Z
     1   -1.145104624804823e-01  -9.358941688874267e-02  -3.331761626173518e-02
     2    9.273003449329645e-03  -2.025979387700556e-02   8.314669798073906e-03
     3    9.130053672191334e-02   1.259114305306568e-01   2.685362346257837e-02
     4    1.393698216042719e-02  -1.206213150780854e-02  -1.851067809046052e-03

Order 1, Length 12
    Atom      X          Y          Z
     1   -9.359346998961526e-02  -2.221704517558546e-01  -5.782507838085871e-02
     2   -2.213499416455342e-02  -2.406711530178909e-02   1.702394973889261e-02
     3    1.259114305306568e-01   2.443879447521839e-01   4.040693470771552e-02
     4   -1.018298009431191e-02   1.849870280265265e-03   3.937127456173882e-04

Order 1, Length 12
    Atom      X          Y          Z
     1   -3.284270674037779e-02  -5.689630299602676e-02  -8.047725191515988e-02
     2    1.896837617930417e-02   3.655167360881525e-02   9.740331596811886e-03
     3    2.685362346257837e-02   4.040693470771552e-02   7.263842247895543e-02
     4   -1.297929370604864e-02  -2.006231977659463e-02  -1.901225308854667e-03


     4 Order 1, Length 12
    Atom      X          Y          Z
     1   -7.583382465001332e-02  -1.893487936348992e-02  -5.496319674169663e-02
     2    2.001295012836146e-02  -1.254746782053765e-03   1.286435252609765e-02
     3    1.393698216042719e-02  -1.018298009431191e-02  -1.297929370604864e-02
     4    4.188389382277824e-02   3.037260365834860e-02   5.507823370583530e-02

Order 1, Length 12
    Atom      X          Y          Z
     1   -1.885945419180573e-02  -8.360096536918862e-02  -6.745162769555701e-02
     2    5.489921862961184e-04   1.471957087794495e-02   3.366597515584215e-02
     3   -1.206213150780854e-02   1.849870280265265e-03  -2.006231977659463e-02
     4    3.037260365834860e-02   6.703156355928741e-02   5.384777403153265e-02

Order 1, Length 12
    Atom      X          Y          Z
     1   -5.546056577012770e-02  -6.832666877135435e-02  -2.581083483148235e-01
     2    2.233397816340806e-03   1.408496324958985e-02  -3.989430570261033e-02
     3   -1.851067809046052e-03   3.937127456173882e-04  -1.901225308854667e-03
     4    5.507823370583530e-02   5.384777403153265e-02   2.999045644817120e-01




 # Finishing finite difference calculation for IDERIV #
 ######################################################
 ######################################################
 Requested basis set is 6-311++G(2df,2p)
 There are 28 shells and 88 basis functions
 **********************************************************************
 **                                                                  **
 **                       VIBRATIONAL ANALYSIS                       **
 **                       --------------------                       **
 **                                                                  **
 **        VIBRATIONAL FREQUENCIES (CM**-1) AND NORMAL MODES         **
 **     FORCE CONSTANTS (mDYN/ANGSTROM) AND REDUCED MASSES (AMU)     **
 **                  INFRARED INTENSITIES (KM/MOL)                   **
 **                                                                  **
 **********************************************************************
 

 Mode:                 1                      2                      3
 Frequency:      1223.17                1256.25                1512.17
 Force Cnst:      1.1981                 1.2397                 1.5023
 Red. Mass:       1.3591                 1.3333                 1.1151
 IR Active:          YES                    YES                    YES
 IR Intens:       10.405                 20.058                 37.611
 Raman Active:       YES                    YES                    YES
               X      Y      Z        X      Y      Z        X      Y      Z
 C         -0.150  0.082  0.014   -0.059 -0.091 -0.097   -0.002 -0.005  0.007
 O          0.036 -0.020 -0.003    0.032  0.049  0.052    0.022  0.052 -0.063
 H          0.609 -0.331 -0.058   -0.073 -0.248  0.651   -0.023 -0.159  0.684
 H          0.608 -0.333 -0.055    0.273  0.553 -0.321   -0.304 -0.597  0.227
 TransDip   0.091 -0.048 -0.008   -0.058 -0.091 -0.095   -0.053 -0.121  0.146

 Mode:                 4                      5                      6
 Frequency:      1772.09                2981.64                3069.82
 Force Cnst:     12.8553                 5.4772                 6.2284
 Red. Mass:       6.9480                 1.0457                 1.1218
 IR Active:          YES                    YES                    YES
 IR Intens:      239.810                 74.077                 77.900
 Raman Active:       YES                    YES                    YES
               X      Y      Z        X      Y      Z        X      Y      Z
 C         -0.152 -0.350  0.422    0.016  0.036 -0.043   -0.041 -0.064 -0.068
 O          0.106  0.245 -0.296    0.000  0.000 -0.000    0.000  0.000  0.000
 H         -0.122 -0.146 -0.471   -0.342 -0.603 -0.148    0.338  0.599  0.130
 H          0.245  0.426  0.132    0.153  0.169  0.665    0.148  0.157  0.673
 TransDip  -0.132 -0.305  0.368    0.074  0.170 -0.204   -0.114 -0.177 -0.189

 STANDARD THERMODYNAMIC QUANTITIES AT   298.15 K  AND     1.00 ATM

   This Molecule has  0 Imaginary Frequencies
   Zero point vibrational energy:       16.891 kcal/mol

   Atom    1 Element C  Has Mass   12.00000
   Atom    2 Element O  Has Mass   15.99491
   Atom    3 Element H  Has Mass    1.00783
   Atom    4 Element H  Has Mass    1.00783
   Molecular Mass:    30.010570 amu
   Principal axes and moments of inertia in amu*Bohr^2:
                             1           2           3
    Eigenvalues --        6.32632    46.54610    52.87242
          X              -0.26605     0.40305     0.87565
          Y              -0.61508     0.62846    -0.47615
          Z               0.74222     0.66528    -0.08070
   Rotational Symmetry Number is   1
   The Molecule is an Asymmetric Top
   Translational Enthalpy:        0.889 kcal/mol
   Rotational Enthalpy:           0.889 kcal/mol
   Vibrational Enthalpy:         16.912 kcal/mol
   gas constant (RT):             0.592 kcal/mol
   Translational Entropy:        36.130  cal/mol.K
   Rotational Entropy:           17.394  cal/mol.K
   Vibrational Entropy:           0.085  cal/mol.K

   Total Enthalpy:               19.282 kcal/mol
   Total Entropy:                53.609  cal/mol.K
 Total job time:  115.57s(wall), 1735.72s(cpu) 
 Thu Jun  6 15:47:36 2024

        *************************************************************
        *                                                           *
        *  Thank you very much for using Q-Chem.  Have a nice day.  *
        *                                                           *
        *************************************************************


