
Running Job 1 of 1 Q_in.in
qchem Q_in.in_223907.0 /scratch/ari.fischer/qChem2187297.hpc-mn1/qchem223907/ 0
/usr/local/qchem-5.4.1/exe/qcprog.exe_s Q_in.in_223907.0 /scratch/ari.fischer/qChem2187297.hpc-mn1/qchem223907/
                  Welcome to Q-Chem
     A Quantum Leap Into The Future Of Chemistry


 Q-Chem 5.4, Q-Chem, Inc., Pleasanton, CA (2021)

 License issued to: Nanyang Technological University (site)

 E. Epifanovsky,  A. T. B. Gilbert,  Xintian Feng,  Joonho Lee,  Yuezhi Mao,  
 N. Mardirossian,  P. Pokhilko,  A. White,  M. Wormit,  M. P. Coons,  
 A. L. Dempwolff,  Zhengting Gan,  D. Hait,  P. R. Horn,  L. D. Jacobson,  
 I. Kaliman,  J. Kussmann,  A. W. Lange,  Ka Un Lao,  D. S. Levine,  Jie Liu,  
 S. C. McKenzie,  A. F. Morrison,  K. Nanda,  F. Plasser,  D. R. Rehn,  
 M. L. Vidal,  Zhi-Qiang You,  Ying Zhu,  B. Alam,  B. Albrecht,  
 A. Aldossary,  E. Alguire,  J. H. Andersen,  D. Barton,  K. Begam,  A. Behn,  
 Y. A. Bernard,  E. J. Berquist,  H. Burton,  A. Carreras,  K. Carter-Fenk,  
 R. Chakraborty,  A. D. Chien,  K. D. Closser,  V. Cofer-Shabica,  
 S. Dasgupta,  Jia Deng,  M. de Wergifosse,  M. Diedenhofen,  Hainam Do,  
 S. Ehlert,  Po-Tung Fang,  S. Fatehi,  Qingguo Feng,  T. Friedhoff,  
 J. Gayvert,  Qinghui Ge,  G. Gidofalvi,  M. Goldey,  J. Gomes,  
 C. Gonzalez-Espinoza,  S. Gulania,  A. Gunina,  M. W. D. Hanson-Heine,  
 P. H. P. Harbach,  A. W. Hauser,  M. F. Herbst,  M. Hernandez Vera,  
 M. Hodecker,  Z. C. Holden,  S. Houck,  Xunkun Huang,  Kerwin Hui,  
 B. C. Huynh,  M. Ivanov,  Hyunjun Ji,  Hanjie Jiang,  B. Kaduk,  S. Kaehler,  
 K. Khistyaev,  Jaehoon Kim,  P. Klunzinger,  Z. Koczor-Benda,  
 Joong Hoon Koh,  D. Kosenkov,  L. Koulias,  T. Kowalczyk,  C. M. Krauter,  
 K. Kue,  A. Kunitsa,  T. Kus,  A. Landau,  K. V. Lawler,  D. Lefrancois,  
 S. Lehtola,  Rain Li,  Yi-Pei Li,  Jiashu Liang,  M. Liebenthal,  
 Hung-Hsuan Lin,  You-Sheng Lin,  Fenglai Liu,  Kuan-Yu Liu,  
 M. Loipersberger,  A. Luenser,  A. Manjanath,  P. Manohar,  E. Mansoor,  
 S. F. Manzer,  Shan-Ping Mao,  A. V. Marenich,  T. Markovich,  S. Mason,  
 S. A. Maurer,  P. F. McLaughlin,  M. F. S. J. Menger,  J.-M. Mewes,  
 S. A. Mewes,  P. Morgante,  J. W. Mullinax,  K. J. Oosterbaan,  G. Paran,  
 Alexander C. Paul,  Suranjan K. Paul,  F. Pavosevic,  Zheng Pei,  S. Prager,  
 E. I. Proynov,  E. Ramos,  B. Rana,  A. E. Rask,  A. Rettig,  R. M. Richard,  
 F. Rob,  E. Rossomme,  T. Scheele,  M. Scheurer,  M. Schneider,  
 N. Sergueev,  S. M. Sharada,  W. Skomorowski,  D. W. Small,  C. J. Stein,  
 Yu-Chuan Su,  E. J. Sundstrom,  Zhen Tao,  J. Thirman,  T. Tsuchimochi,  
 N. M. Tubman,  S. P. Veccham,  O. Vydrov,  J. Wenzel,  J. Witte,  A. Yamada,  
 Kun Yao,  S. Yeganeh,  S. R. Yost,  A. Zech,  Igor Ying Zhang,  Xing Zhang,  
 Yu Zhang,  D. Zuev,  A. Aspuru-Guzik,  A. T. Bell,  N. A. Besley,  
 K. B. Bravaya,  B. R. Brooks,  D. Casanova,  Jeng-Da Chai,  S. Coriani,  
 C. J. Cramer,  A. E. DePrince, III,  R. A. DiStasio Jr.,  A. Dreuw,  
 B. D. Dunietz,  T. R. Furlani,  W. A. Goddard III,  S. Grimme,  
 S. Hammes-Schiffer,  T. Head-Gordon,  W. J. Hehre,  Chao-Ping Hsu,  
 T.-C. Jagau,  Yousung Jung,  A. Klamt,  Jing Kong,  D. S. Lambrecht,  
 WanZhen Liang,  N. J. Mayhall,  C. W. McCurdy,  J. B. Neaton,  
 C. Ochsenfeld,  J. A. Parkhill,  R. Peverati,  V. A. Rassolov,  Yihan Shao,  
 L. V. Slipchenko,  T. Stauch,  R. P. Steele,  J. E. Subotnik,  
 A. J. W. Thom,  A. Tkatchenko,  D. G. Truhlar,  T. Van Voorhis,  
 T. A. Wesolowski,  K. B. Whaley,  H. L. Woodcock III,  P. M. Zimmerman,  
 S. Faraji,  P. M. W. Gill,  M. Head-Gordon,  J. M. Herbert,  A. I. Krylov

 Additional authors for Version 5.4.1: 
 S. Kotaru,  Shaozhi Li,  Xiangyuan Li,  F. Matz,  A. Molle,  Haisheng Ren,  
 Yingli Su,  Hung-Yi Tsai,  C. Utku,  Fang Wang

 Contributors to earlier versions of Q-Chem not listed above: 
 R. D. Adamson,  B. Austin,  R. Baer,  J. Baker,  G. J. O. Beran,  
 K. Brandhorst,  S. T. Brown,  E. F. C. Byrd,  A. K. Chakraborty,  
 G. K. L. Chan,  Chun-Min Chang,  Yunqing Chen,  C.-L. Cheng,  
 Siu Hung Chien,  D. M. Chipman,  D. L. Crittenden,  H. Dachsel,  
 R. J. Doerksen,  A. D. Dutoi,  R. G. Edgar,  J. Fosso-Tande,  
 L. Fusti-Molnar,  D. Ghosh,  A. Ghysels,  A. Golubeva-Zadorozhnaya,  
 J. Gonthier,  M. S. Gordon,  S. R. Gwaltney,  G. Hawkins,  J. E. Herr,  
 A. Heyden,  S. Hirata,  E. G. Hohenstein,  G. Kedziora,  F. J. Keil,  
 C. Kelley,  Jihan Kim,  R. A. King,  R. Z. Khaliullin,  P. P. Korambath,  
 W. Kurlancheek,  A. Laurent,  A. M. Lee,  M. S. Lee,  S. V. Levchenko,  
 Ching Yeh Lin,  D. Liotard,  E. Livshits,  R. C. Lochan,  I. Lotan,  
 L. A. Martinez-Martinez,  P. E. Maslen,  N. Nair,  D. P. O'Neill,  
 D. Neuhauser,  E. Neuscamman,  C. M. Oana,  R. Olivares-Amaya,  R. Olson,  
 T. M. Perrine,  B. Peters,  P. A. Pieniazek,  A. Prociuk,  Y. M. Rhee,  
 J. Ritchie,  M. A. Rohrdanz,  E. Rosta,  N. J. Russ,  H. F. Schaefer III,  
 M. W. Schmidt,  N. E. Schultz,  S. Sharma,  N. Shenvi,  C. D. Sherrill,  
 A. C. Simmonett,  A. Sodt,  T. Stein,  D. Stuck,  K. S. Thanthiriwatte,  
 V. Vanovschi,  L. Vogt,  Tao Wang,  A. Warshel,  M. A. Watson,  
 C. F. Williams,  Q. Wu,  X. Xu,  Jun Yang,  W. Zhang,  Yan Zhao

 Please cite Q-Chem as follows:
 Y. Shao et al., Mol. Phys. 113, 184-215 (2015)
 DOI: 10.1080/00268976.2014.952696

 Q-Chem 5.4.1 for Intel X86 EM64T Linux

 Parts of Q-Chem use Armadillo 9.800.1 (Horizon Scraper).
 http://arma.sourceforge.net/

 Q-Chem begins on Tue Jun 25 21:17:18 2024  

 Host: 
0

     Scratch files written to /scratch/ari.fischer/qChem2187297.hpc-mn1/qchem223907//
 Aug1521 |scratch|qcdevops|jenkins|workspace|build_RNUM 8249   
 Processing $rem in /usr/local/qchem-5.4.1/config/preferences:
 Processing $rem in /home/ari.fischer/.qchemrc:
 Symmetry turned off for PCM/SM12/SMD calculation


!!********************************************.
!!******************Warning*******************.
!!Desired Analytical derivatives not available.
!!Finite difference job might take a long time.
!!********************************************.
!!********************************************.


 2-order derivative to be evaluated numerically with 1-order analytical derivatives

 Checking the input file for inconsistencies... 	...done.

--------------------------------------------------------------
User input:
--------------------------------------------------------------
$molecule
0 1
C         2.2867888836   -0.2689100452   -1.0553124086
O         2.4283557895   -1.4466784570   -1.2764297375
C         2.5398893323    0.2922720639    0.3514951789
O         2.1362154940   -0.3371581728    1.3027665679
C         3.2995555436    1.5804806938    0.4478405416
C         4.7180081424    1.3669934628   -0.0707196150
O         4.5641546148    1.0046335528   -1.4477228412
O         5.5955187324    0.0964867232   -1.8233996319
C         5.5725255836    2.6222789187    0.0533253514
O         5.7432390541    2.8476814022    1.4322368038
O         6.8050433082    2.4841727311   -0.6105323774
H         1.9500149247    0.4405604585   -1.8221124136
H         3.3175029835    1.9148637660    1.4808610489
H         2.8052496829    2.3340890525   -0.1706793061
H         5.2061653168    0.5446633053    0.4563834879
H         5.1566626281   -0.7621502599   -1.7132605220
H         5.0762691398    3.4683275902   -0.4237181558
H         6.1071594545    3.7324456259    1.5513118710
H         7.2376889910    1.6811334882   -0.2926207424
$end

$rem
BASIS = 6-311++G(2df,2p)
GUI = 2
JOB_TYPE = Frequency
METHOD = wB97M-V
SOLVENT_METHOD = SMD
SCF_ALGORITHM = DIIS_GDM
MAX_SCF_CYCLES = 400
SCF_CONVERGENCE = 7
THRESH = 12
$end
--------------------------------------------------------------
 ----------------------------------------------------------------
             Standard Nuclear Orientation (Angstroms)
    I     Atom           X                Y                Z
 ----------------------------------------------------------------
    1      C       2.2867888836    -0.2689100452    -1.0553124086
    2      O       2.4283557895    -1.4466784570    -1.2764297375
    3      C       2.5398893323     0.2922720639     0.3514951789
    4      O       2.1362154940    -0.3371581728     1.3027665679
    5      C       3.2995555436     1.5804806938     0.4478405416
    6      C       4.7180081424     1.3669934628    -0.0707196150
    7      O       4.5641546148     1.0046335528    -1.4477228412
    8      O       5.5955187324     0.0964867232    -1.8233996319
    9      C       5.5725255836     2.6222789187     0.0533253514
   10      O       5.7432390541     2.8476814022     1.4322368038
   11      O       6.8050433082     2.4841727311    -0.6105323774
   12      H       1.9500149247     0.4405604585    -1.8221124136
   13      H       3.3175029835     1.9148637660     1.4808610489
   14      H       2.8052496829     2.3340890525    -0.1706793061
   15      H       5.2061653168     0.5446633053     0.4563834879
   16      H       5.1566626281    -0.7621502599    -1.7132605220
   17      H       5.0762691398     3.4683275902    -0.4237181558
   18      H       6.1071594545     3.7324456259     1.5513118710
   19      H       7.2376889910     1.6811334882    -0.2926207424
 ----------------------------------------------------------------
 Nuclear Repulsion Energy =         664.45514799 hartrees
 There are       43 alpha and       43 beta electrons
 Requested basis set is 6-311++G(2df,2p)
 There are 136 shells and 454 basis functions

 Total QAlloc Memory Limit 288000 MB
 Mega-Array Size       188 MB
 MEM_STATIC part       192 MB
 
 Citation of the SMD model:
 Marenich, A.V.; Cramer, C.J.; Truhlar, D.G.
 J. Phys. Chem. B 2009, 113, 6378-6396.
 iSolventCode=           1
 Solvent: water                                                           
 
 vradii
            1           2           3           4           5           6
    1   1.8500000   1.5200000   1.8500000   1.5200000   1.8500000   1.8500000
            7           8           9          10          11          12
    1   1.5200000   1.5200000   1.8500000   1.5200000   1.5200000   1.2000000
           13          14          15          16          17          18
    1   1.2000000   1.2000000   1.2000000   1.2000000   1.2000000   1.2000000
           19
    1   1.2000000
 Changing PCM_VDW_RADII to SMD_RADIUS
 Discretize the solute cavity surface with Lebedev spheres
	Using 110 Lebedev grid points for each H atom
	Using 194 Lebedev grid points for other atoms
	Atomic van der Waals radii will be scaled by 1.20
 Remove points where switching function is < 1.0e-08
 Keep 1529 surface tesserae and discard 1485 interior tesserae
 Molecular Surface Area = 174.533 Angst**2
 A cutoff of  1.0D-12 yielded   8058 shell pairs
 There are     88628 function pairs (    110371 Cartesian)
 Smallest overlap matrix eigenvalue = 6.99E-06
 Guess from superposition of atomic densities
 Warning:  Energy on first SCF cycle will be non-variational
 SAD guess density has 86.000000 electrons

 -----------------------------------------------------------------------
  General SCF calculation program by
  Eric Jon Sundstrom, Paul Horn, Yuezhi Mao, Dmitri Zuev, Alec White,
  David Stuck, Shaama M.S., Shane Yost, Joonho Lee, David Small,
  Daniel Levine, Susi Lehtola, Hugh Burton, Evgeny Epifanovsky,
  Bang C. Huynh
 -----------------------------------------------------------------------
 Exchange:     0.1500 Hartree-Fock + 1.0000 wB97M-V + LR-HF
 Correlation:  1.0000 wB97M-V
 Using SG-2 standard quadrature grid
 Nonlocal Correlation:  VV10 with C = 0.0100 and b = 6.00 and scale = 1.00000
 Grid used for NLC:  SG-1 standard quadrature
 using 16 threads for integral computing
 -------------------------------------------------------
 OpenMP Integral computing Module                
 Release: version 1.0, May 2013, Q-Chem Inc. Pittsburgh 
 -------------------------------------------------------
 
 Citation of the SMD model:
 Marenich, A.V.; Cramer, C.J.; Truhlar, D.G.
 J. Phys. Chem. B 2009, 113, 6378-6396.
 iSolventCode=           1
 Solvent: water                                                           
 
 vradii
            1           2           3           4           5           6
    1   1.8500000   1.5200000   1.8500000   1.5200000   1.8500000   1.8500000
            7           8           9          10          11          12
    1   1.5200000   1.5200000   1.8500000   1.5200000   1.5200000   1.2000000
           13          14          15          16          17          18
    1   1.2000000   1.2000000   1.2000000   1.2000000   1.2000000   1.2000000
           19
    1   1.2000000
 -------------------------------------------------------
 OpenMP BLAS3 based DFT computing Module                
 Release: version 1.0, May 2013, Q-Chem Inc. Pittsburgh 
 -------------------------------------------------------
 A restricted SCF calculation will be
 performed using DIIS, GDM
 SCF converges when RMS gradient is below 1.0e-07
 ---------------------------------------
  Cycle       Energy         DIIS error
 ---------------------------------------
    1    -648.8592835954      2.35e-02  
    2    -646.4039196658      3.29e-03  Done DIIS. Switching to GDM
 ---------------------------------------
  Cycle       Energy        RMS Gradient
 ---------------------------------------
    1    -646.4039196658      1.27e-01   Descent step
    2    -646.6054403943      2.47e-02   Normal BFGS step
    3    -646.6248840531      1.12e-02   Normal BFGS step
    4    -646.6274028403      3.45e-03   Normal BFGS step
    5    -646.6281812692      6.19e-04   Normal BFGS step
    6    -646.6282176798      3.04e-04   Normal BFGS step
    7    -646.6282254851      1.42e-04   Normal BFGS step
    8    -646.6282260745      8.00e-05   Normal BFGS step
    9    -646.6282262765      2.98e-05   Normal BFGS step
   10    -646.6282263146      2.19e-05   Normal BFGS step
   11    -646.6282263190      1.53e-05   Normal BFGS step
   12    -646.6282263198      5.93e-06   Normal BFGS step
   13    -646.6282263202      1.96e-06   Normal BFGS step
   14    -646.6282263202      1.00e-06   Normal BFGS step
   15    -646.6282263202      4.10e-07   Normal BFGS step
   16    -646.6282263202      1.27e-07   Normal BFGS step
   17    -646.6282263203      5.81e-08  Convergence criterion met
 ---------------------------------------
 SCF time:   CPU 2148.88s  wall 150.00s 
(3)  G-ENP(liq) elect-nuc-pol free energy of system     -646.628226320 a.u.
(4)  G-CDS(liq) cavity-dispersion-solvent structure 
     free energy                                                5.4053 kcal/mol
(6)  G-S(liq) free energy of system                     -646.619612494 a.u.
 SCF   energy in the final basis set =     -646.6196124944
 Total energy in the final basis set =     -646.6196124944
 
 --------------------------------------------------------------
 
                    Orbital Energies (a.u.)
 --------------------------------------------------------------
 
 Alpha MOs
 -- Occupied --
-19.4109 -19.3998 -19.3617 -19.3595 -19.3481 -19.3466 -10.4596 -10.4531
-10.4485 -10.4133 -10.3587  -1.2772  -1.2205  -1.2041  -1.1948  -1.1370
 -1.0608  -0.9196  -0.8478  -0.7873  -0.7393  -0.6874  -0.6741  -0.6485
 -0.6396  -0.6131  -0.5973  -0.5846  -0.5770  -0.5680  -0.5561  -0.5383
 -0.5224  -0.5134  -0.5010  -0.4667  -0.4581  -0.4384  -0.4336  -0.4200
 -0.4091  -0.3914  -0.3606
 -- Virtual --
 -0.0012   0.0277   0.0361   0.0381   0.0480   0.0637   0.0649   0.0686
  0.0771   0.0812   0.0969   0.1017   0.1118   0.1193   0.1240   0.1300
  0.1335   0.1400   0.1497   0.1531   0.1604   0.1663   0.1720   0.1722
  0.1759   0.1828   0.1898   0.1936   0.2030   0.2224   0.2263   0.2332
  0.2406   0.2542   0.2600   0.2686   0.2753   0.2786   0.2886   0.2976
  0.3012   0.3070   0.3154   0.3211   0.3273   0.3297   0.3379   0.3404
  0.3452   0.3525   0.3590   0.3654   0.3672   0.3721   0.3782   0.3842
  0.3883   0.3906   0.3953   0.4072   0.4113   0.4156   0.4339   0.4372
  0.4429   0.4542   0.4590   0.4682   0.4839   0.4947   0.5126   0.5470
  0.5657   0.5790   0.5855   0.6164   0.6205   0.6266   0.6486   0.6534
  0.6612   0.6689   0.6767   0.6822   0.6928   0.7024   0.7081   0.7172
  0.7222   0.7344   0.7428   0.7525   0.7679   0.7789   0.7896   0.7983
  0.8121   0.8331   0.8644   0.8836   0.8893   0.8962   0.9192   0.9468
  0.9535   0.9794   0.9936   1.0037   1.0161   1.0258   1.0453   1.0631
  1.0825   1.0946   1.1034   1.1181   1.1257   1.1466   1.1514   1.1579
  1.1721   1.1747   1.1843   1.1983   1.2041   1.2080   1.2094   1.2270
  1.2317   1.2357   1.2479   1.2583   1.2608   1.2707   1.2931   1.2997
  1.3073   1.3257   1.3475   1.3572   1.3664   1.3741   1.3885   1.3951
  1.4088   1.4328   1.4497   1.4624   1.4778   1.4947   1.5014   1.5187
  1.5299   1.5374   1.5574   1.5657   1.5838   1.5873   1.6095   1.6263
  1.6290   1.6415   1.6722   1.6875   1.7045   1.7199   1.7265   1.7466
  1.7754   1.7868   1.8100   1.8329   1.8538   1.8542   1.8927   1.9071
  1.9177   1.9295   1.9695   2.0024   2.0278   2.0497   2.0733   2.0895
  2.1300   2.1467   2.1858   2.2165   2.2348   2.2954   2.3338   2.3406
  2.3538   2.3878   2.4059   2.4092   2.4475   2.4560   2.4842   2.5379
  2.5556   2.5918   2.6525   2.6952   2.7093   2.7492   2.7699   2.8002
  2.8131   2.8338   2.8516   2.8691   2.8872   2.9103   2.9301   2.9531
  2.9550   2.9996   3.0207   3.0275   3.0628   3.0729   3.0940   3.1076
  3.1171   3.1552   3.1645   3.2014   3.2097   3.2321   3.2716   3.2925
  3.3193   3.3338   3.3702   3.3993   3.4146   3.4238   3.4310   3.4544
  3.4744   3.4843   3.5080   3.5298   3.5468   3.5644   3.6039   3.6084
  3.6203   3.6385   3.6590   3.6728   3.6787   3.6881   3.7332   3.7493
  3.7538   3.7781   3.7927   3.7966   3.8340   3.8456   3.8617   3.8645
  3.8956   3.9115   3.9202   3.9317   3.9583   3.9755   3.9943   4.0312
  4.0497   4.0698   4.0770   4.1069   4.1317   4.1640   4.1893   4.2171
  4.2282   4.2445   4.2658   4.2781   4.3039   4.3259   4.3415   4.3611
  4.3865   4.4048   4.4254   4.4510   4.5157   4.5256   4.5617   4.5762
  4.6009   4.6151   4.6608   4.6879   4.7262   4.7614   4.7903   4.7996
  4.8185   4.9045   4.9847   5.0111   5.0678   5.1270   5.1533   5.1622
  5.1786   5.1920   5.2026   5.2237   5.2403   5.2615   5.2655   5.2801
  5.2950   5.3127   5.3260   5.3512   5.3549   5.3798   5.4016   5.4068
  5.4453   5.4630   5.4843   5.4968   5.5086   5.5227   5.5274   5.5498
  5.5689   5.5863   5.6002   5.6133   5.6175   5.6329   5.6462   5.6722
  5.6913   5.7054   5.7736   5.7885   5.8139   5.8438   5.9012   5.9323
  6.0280   6.0990   6.1193   6.1478   6.2596   6.3607   6.4078   6.5364
  6.5667   6.6408   6.7596   6.8675   6.8957   6.9386   6.9681   6.9907
  6.9978   7.0197   7.0538   7.0743   7.1161   7.1494   7.1848   7.2198
  7.2601   7.2705   7.2940   7.3175   7.3257   7.3443   7.3730   7.3830
  7.4042   7.4373   7.4758   7.5118   7.5434   7.5750   7.6266   7.6594
  7.6959   7.7380   7.7767   7.8049   7.8556   7.8924   7.9792   8.1829
 24.6142  24.7721  24.8396  24.9078  25.0295  50.5070  50.5750  50.6203
 50.6335  50.7049  50.7418
 --------------------------------------------------------------
 
          Ground-State Mulliken Net Atomic Charges

     Atom                 Charge (a.u.)
  ----------------------------------------
      1 C                    -0.112328
      2 O                    -0.334837
      3 C                     0.499684
      4 O                    -0.417533
      5 C                    -0.480783
      6 C                    -0.030538
      7 O                    -0.023361
      8 O                    -0.356376
      9 C                    -0.296482
     10 O                    -0.413879
     11 O                    -0.452356
     12 H                     0.259911
     13 H                     0.220248
     14 H                     0.272972
     15 H                     0.335454
     16 H                     0.348747
     17 H                     0.295384
     18 H                     0.341822
     19 H                     0.344253
  ----------------------------------------
  Sum of atomic charges =     0.000000

 -----------------------------------------------------------------
                    Cartesian Multipole Moments
 -----------------------------------------------------------------
    Charge (ESU x 10^10)
                 0.0000
    Dipole Moment (Debye)
         X       0.4491      Y       4.5519      Z       0.3960
       Tot       4.5911
    Quadrupole Moments (Debye-Ang)
        XX     -63.4065     XY       6.4626     YY     -57.1183
        XZ      12.2236     YZ       5.6027     ZZ     -75.3071
    Octopole Moments (Debye-Ang^2)
       XXX    -821.0441    XXY     -79.6994    XYY    -229.1466
       YYY    -125.0435    XXZ     111.6424    XYZ      45.8729
       YYZ      40.0033    XZZ    -320.0441    YZZ     -66.4721
       ZZZ      49.6113
    Hexadecapole Moments (Debye-Ang^3)
      XXXX   -7994.8157   XXXY   -1379.8527   XXYY   -1310.7136
      XYYY    -800.6758   YYYY    -891.0004   XXXZ     882.5349
      XXYZ     298.6658   XYYZ     226.3381   YYYZ      18.2905
      XXZZ   -1659.0659   XYZZ    -409.6709   YYZZ    -278.1633
      XZZZ     264.0922   YZZZ     -55.1816   ZZZZ    -569.6543
 -----------------------------------------------------------------
 Calculating analytic gradient of the SCF energy
 Gradient of CDS energy
            1           2           3           4           5           6
    1  -0.0005591  -0.0002221  -0.0006334   0.0005251  -0.0000535   0.0000088
    2  -0.0019173   0.0012408  -0.0010150   0.0008580   0.0002531   0.0000843
    3  -0.0011204   0.0003071   0.0018830  -0.0010528   0.0001475  -0.0000879
            7           8           9          10          11          12
    1   0.0000491  -0.0001014   0.0024358  -0.0002597  -0.0023487   0.0002091
    2  -0.0000328   0.0003201   0.0004249  -0.0005717   0.0001223   0.0002799
    3   0.0000844   0.0000343   0.0007736  -0.0021852   0.0011468   0.0000022
           13          14          15          16          17          18
    1   0.0000920  -0.0000137   0.0000925   0.0003082  -0.0001408   0.0001225
    2   0.0000552   0.0000861  -0.0000720  -0.0003420   0.0000225   0.0003194
    3   0.0001326  -0.0002086   0.0000497  -0.0001795  -0.0001537   0.0003882
           19
    1   0.0004893
    2  -0.0001160
    3   0.0000387
 Gradient of SCF Energy
            1           2           3           4           5           6
    1   0.0055867  -0.0033153  -0.0011608  -0.0024380   0.0141647  -0.0127215
    2  -0.0040331  -0.0070502   0.0117508  -0.0071648  -0.0227969   0.0127203
    3   0.0054797   0.0014445  -0.0067931   0.0058644   0.0032179  -0.0107611
            7           8           9          10          11          12
    1   0.0026520   0.0066685   0.0089078  -0.0047268  -0.0021504  -0.0039460
    2   0.0020452   0.0147194  -0.0112054  -0.0145846   0.0088021   0.0091843
    3   0.0004481  -0.0052411   0.0077984   0.0007381  -0.0094242  -0.0071000
           13          14          15          16          17          18
    1  -0.0009116  -0.0068184   0.0065306  -0.0064132  -0.0073438   0.0041052
    2   0.0039061   0.0102763  -0.0097280  -0.0118348   0.0092751   0.0150081
    3   0.0078796  -0.0095819   0.0060226   0.0048703  -0.0025961   0.0012853
           19
    1   0.0033301
    2  -0.0092898
    3   0.0064486
 Max gradient component =       2.280E-02
 RMS gradient           =       8.314E-03
 Computing fast CPCM-SWIG gradient
 Updating gradient with PCM contributions...
 -- total gradient after adding PCM contribution --
---------------------------------------------------
  Atom         X              Y              Z     
---------------------------------------------------
   1       0.000016       0.000013      -0.000019
   2       0.000003      -0.000020       0.000005
   3      -0.000007      -0.000043       0.000057
   4       0.000019       0.000006      -0.000021
   5      -0.000045       0.000026      -0.000020
   6      -0.000001      -0.000009       0.000015
   7      -0.000000      -0.000017      -0.000012
   8       0.000006       0.000015       0.000005
   9       0.000005      -0.000008      -0.000017
  10      -0.000006       0.000005       0.000015
  11       0.000020       0.000031       0.000024
  12       0.000005      -0.000000      -0.000006
  13       0.000002       0.000012       0.000000
  14       0.000012      -0.000007      -0.000012
  15       0.000007       0.000003       0.000007
  16      -0.000006      -0.000011       0.000009
  17      -0.000001       0.000002      -0.000004
  18      -0.000015       0.000017      -0.000004
  19      -0.000014      -0.000014      -0.000023
---------------------------------------------------
 Number of fixed atoms: 0
 Gradient time:  CPU 418.63 s  wall 33.88 s
 ######################################################
 ######################################################
 # Starting finite difference calculation for IDERIV  #
 Finite diff step size:  1.88973e-03 a.u.
 ----------------------------------------------------------------
             Standard Nuclear Orientation (Angstroms)
    I     Atom           X                Y                Z
 ----------------------------------------------------------------
    1      C       2.2877888836    -0.2689100452    -1.0553124086
    2      O       2.4283557895    -1.4466784570    -1.2764297375
    3      C       2.5398893323     0.2922720639     0.3514951789
    4      O       2.1362154940    -0.3371581728     1.3027665679
    5      C       3.2995555436     1.5804806938     0.4478405416
    6      C       4.7180081424     1.3669934628    -0.0707196150
    7      O       4.5641546148     1.0046335528    -1.4477228412
    8      O       5.5955187324     0.0964867232    -1.8233996319
    9      C       5.5725255836     2.6222789187     0.0533253514
   10      O       5.7432390541     2.8476814022     1.4322368038
   11      O       6.8050433082     2.4841727311    -0.6105323774
   12      H       1.9500149247     0.4405604585    -1.8221124136
   13      H       3.3175029835     1.9148637660     1.4808610489
   14      H       2.8052496829     2.3340890525    -0.1706793061
   15      H       5.2061653168     0.5446633053     0.4563834879
   16      H       5.1566626281    -0.7621502599    -1.7132605220
   17      H       5.0762691398     3.4683275902    -0.4237181558
   18      H       6.1071594545     3.7324456259     1.5513118710
   19      H       7.2376889910     1.6811334882    -0.2926207424
 ----------------------------------------------------------------
 Nuclear Repulsion Energy =         664.46836996 hartrees
 There are       43 alpha and       43 beta electrons
 Discretize the solute cavity surface with Lebedev spheres
	Using 110 Lebedev grid points for each H atom
	Using 194 Lebedev grid points for other atoms
	Atomic van der Waals radii will be scaled by 1.20
 Remove points where switching function is < 1.0e-08
 Keep 1529 surface tesserae and discard 1485 interior tesserae
 Molecular Surface Area = 174.521 Angst**2
 Requested basis set is 6-311++G(2df,2p)
 There are 136 shells and 454 basis functions
 A cutoff of  1.0D-12 yielded   8058 shell pairs
 There are     88628 function pairs (    110371 Cartesian)
 Smallest overlap matrix eigenvalue = 6.99E-06
 Guess MOs from SCF MO coefficient file

 -----------------------------------------------------------------------
  General SCF calculation program by
  Eric Jon Sundstrom, Paul Horn, Yuezhi Mao, Dmitri Zuev, Alec White,
  David Stuck, Shaama M.S., Shane Yost, Joonho Lee, David Small,
  Daniel Levine, Susi Lehtola, Hugh Burton, Evgeny Epifanovsky,
  Bang C. Huynh
 -----------------------------------------------------------------------
 Exchange:     0.1500 Hartree-Fock + 1.0000 wB97M-V + LR-HF
 Correlation:  1.0000 wB97M-V
 Using SG-2 standard quadrature grid
 Nonlocal Correlation:  VV10 with C = 0.0100 and b = 6.00 and scale = 1.00000
 Grid used for NLC:  SG-1 standard quadrature
 
 Citation of the SMD model:
 Marenich, A.V.; Cramer, C.J.; Truhlar, D.G.
 J. Phys. Chem. B 2009, 113, 6378-6396.
 iSolventCode=           1
 Solvent: water                                                           
 
 vradii
            1           2           3           4           5           6
    1   1.8500000   1.5200000   1.8500000   1.5200000   1.8500000   1.8500000
            7           8           9          10          11          12
    1   1.5200000   1.5200000   1.8500000   1.5200000   1.5200000   1.2000000
           13          14          15          16          17          18
    1   1.2000000   1.2000000   1.2000000   1.2000000   1.2000000   1.2000000
           19
    1   1.2000000
 -------------------------------------------------------
 OpenMP BLAS3 based DFT computing Module                
 Release: version 1.0, May 2013, Q-Chem Inc. Pittsburgh 
 -------------------------------------------------------
 A restricted SCF calculation will be
 performed using Roothaan-Hall, DIIS, GDM
 SCF converges when RMS gradient is below 1.0e-07
 ---------------------------------------
  Cycle       Energy         DIIS error
 ---------------------------------------
    1    -646.5729142166      4.73e-04  Roothaan Step
 ---------------------------------------
  Cycle       Energy         DIIS error
 ---------------------------------------
    1    -646.6148826134      6.39e-04  
    2    -646.6177270301      7.73e-04  Done DIIS. Switching to GDM
 ---------------------------------------
  Cycle       Energy        RMS Gradient
 ---------------------------------------
    1    -646.6177270301      3.89e-02   Normal BFGS step
    2    -646.6100184178      6.01e-02  Line search: overstep
    3    -646.6277662877      1.82e-03   Normal BFGS step
    4    -646.6281698348      9.39e-04   Normal BFGS step
    5    -646.6282071683      1.37e-03   Normal BFGS step
    6    -646.6282242013      2.10e-04   Normal BFGS step
    7    -646.6282245674      6.33e-05   Normal BFGS step
    8    -646.6282248138      2.56e-05   Normal BFGS step
    9    -646.6282248302      1.56e-05   Normal BFGS step
   10    -646.6282248386      1.14e-05   Normal BFGS step
   11    -646.6282248394      7.21e-06   Normal BFGS step
   12    -646.6282248397      3.38e-06   Normal BFGS step
   13    -646.6282248398      9.43e-07   Normal BFGS step
   14    -646.6282248398      3.19e-07   Normal BFGS step
   15    -646.6282248398      1.54e-07   Normal BFGS step
   16    -646.6282248398      1.03e-07   Normal BFGS step
  GDM::WARNING energy changes are now smaller than effective accuracy.
  GDM::        calculation will continue, but THRESH should be increased
  GDM::        or SCF_CONVERGENCE decreased. 
  GDM::        effective_thresh = 5.35e-09
   17    -646.6282248398      3.51e-08  Convergence criterion met
 ---------------------------------------
 SCF time:   CPU 2319.99s  wall 164.00s 
(3)  G-ENP(liq) elect-nuc-pol free energy of system     -646.628224840 a.u.
(4)  G-CDS(liq) cavity-dispersion-solvent structure 
     free energy                                                5.4046 kcal/mol
(6)  G-S(liq) free energy of system                     -646.619612071 a.u.
 SCF   energy in the final basis set =     -646.6196120708
 Total energy in the final basis set =     -646.6196120708
 
 --------------------------------------------------------------
 
                    Orbital Energies (a.u.)
 --------------------------------------------------------------
 
 Alpha MOs
 -- Occupied --
-19.4109 -19.3998 -19.3617 -19.3595 -19.3481 -19.3466 -10.4596 -10.4531
-10.4485 -10.4133 -10.3586  -1.2773  -1.2205  -1.2041  -1.1948  -1.1370
 -1.0608  -0.9196  -0.8478  -0.7873  -0.7393  -0.6874  -0.6740  -0.6485
 -0.6396  -0.6131  -0.5974  -0.5846  -0.5770  -0.5680  -0.5561  -0.5383
 -0.5224  -0.5134  -0.5010  -0.4667  -0.4581  -0.4384  -0.4336  -0.4200
 -0.4091  -0.3914  -0.3606
 -- Virtual --
 -0.0012   0.0278   0.0361   0.0381   0.0480   0.0637   0.0649   0.0686
  0.0771   0.0812   0.0969   0.1017   0.1118   0.1193   0.1240   0.1300
  0.1335   0.1400   0.1497   0.1531   0.1604   0.1663   0.1720   0.1722
  0.1759   0.1828   0.1898   0.1936   0.2030   0.2224   0.2263   0.2332
  0.2406   0.2542   0.2600   0.2686   0.2753   0.2786   0.2886   0.2976
  0.3012   0.3070   0.3154   0.3211   0.3273   0.3297   0.3379   0.3404
  0.3452   0.3525   0.3590   0.3654   0.3672   0.3721   0.3782   0.3842
  0.3883   0.3906   0.3953   0.4072   0.4113   0.4156   0.4339   0.4372
  0.4428   0.4542   0.4590   0.4682   0.4839   0.4947   0.5126   0.5471
  0.5657   0.5790   0.5855   0.6164   0.6204   0.6265   0.6485   0.6534
  0.6612   0.6688   0.6767   0.6822   0.6928   0.7024   0.7081   0.7173
  0.7222   0.7344   0.7428   0.7525   0.7679   0.7788   0.7895   0.7984
  0.8121   0.8332   0.8645   0.8836   0.8893   0.8963   0.9191   0.9469
  0.9536   0.9794   0.9936   1.0037   1.0162   1.0258   1.0452   1.0631
  1.0825   1.0946   1.1034   1.1181   1.1258   1.1466   1.1513   1.1579
  1.1721   1.1747   1.1843   1.1984   1.2041   1.2080   1.2094   1.2269
  1.2317   1.2356   1.2479   1.2582   1.2608   1.2707   1.2931   1.2997
  1.3073   1.3256   1.3475   1.3572   1.3664   1.3742   1.3885   1.3951
  1.4087   1.4328   1.4497   1.4624   1.4778   1.4948   1.5013   1.5187
  1.5299   1.5374   1.5573   1.5658   1.5838   1.5874   1.6095   1.6263
  1.6290   1.6415   1.6722   1.6876   1.7044   1.7200   1.7265   1.7466
  1.7754   1.7867   1.8100   1.8330   1.8537   1.8543   1.8927   1.9071
  1.9177   1.9295   1.9695   2.0024   2.0278   2.0496   2.0733   2.0895
  2.1301   2.1465   2.1858   2.2165   2.2350   2.2954   2.3337   2.3407
  2.3538   2.3879   2.4059   2.4092   2.4476   2.4560   2.4842   2.5380
  2.5556   2.5920   2.6528   2.6951   2.7093   2.7492   2.7699   2.8002
  2.8130   2.8338   2.8517   2.8691   2.8875   2.9099   2.9301   2.9532
  2.9550   2.9997   3.0206   3.0276   3.0628   3.0729   3.0937   3.1076
  3.1171   3.1552   3.1647   3.2015   3.2100   3.2322   3.2717   3.2925
  3.3193   3.3338   3.3702   3.3995   3.4147   3.4236   3.4310   3.4544
  3.4744   3.4842   3.5080   3.5298   3.5469   3.5644   3.6039   3.6084
  3.6204   3.6384   3.6592   3.6729   3.6786   3.6883   3.7333   3.7493
  3.7539   3.7781   3.7927   3.7966   3.8341   3.8457   3.8617   3.8646
  3.8956   3.9113   3.9202   3.9317   3.9582   3.9755   3.9943   4.0312
  4.0498   4.0698   4.0771   4.1069   4.1316   4.1640   4.1893   4.2173
  4.2283   4.2445   4.2656   4.2781   4.3039   4.3259   4.3415   4.3612
  4.3864   4.4049   4.4254   4.4510   4.5158   4.5256   4.5617   4.5762
  4.6009   4.6151   4.6609   4.6879   4.7262   4.7612   4.7903   4.7997
  4.8185   4.9045   4.9846   5.0110   5.0678   5.1269   5.1533   5.1622
  5.1785   5.1920   5.2026   5.2237   5.2403   5.2615   5.2655   5.2801
  5.2950   5.3127   5.3260   5.3513   5.3549   5.3799   5.4016   5.4068
  5.4454   5.4631   5.4843   5.4968   5.5086   5.5225   5.5274   5.5499
  5.5688   5.5864   5.6002   5.6134   5.6175   5.6329   5.6463   5.6722
  5.6914   5.7054   5.7736   5.7885   5.8139   5.8439   5.9012   5.9321
  6.0280   6.0990   6.1193   6.1478   6.2596   6.3614   6.4077   6.5364
  6.5667   6.6408   6.7596   6.8675   6.8962   6.9386   6.9682   6.9907
  6.9979   7.0197   7.0538   7.0743   7.1161   7.1494   7.1849   7.2201
  7.2602   7.2705   7.2941   7.3175   7.3256   7.3443   7.3730   7.3830
  7.4042   7.4374   7.4758   7.5119   7.5434   7.5750   7.6266   7.6594
  7.6959   7.7380   7.7768   7.8049   7.8556   7.8924   7.9792   8.1829
 24.6141  24.7721  24.8396  24.9077  25.0297  50.5070  50.5750  50.6203
 50.6335  50.7050  50.7419
 --------------------------------------------------------------
 
          Ground-State Mulliken Net Atomic Charges

     Atom                 Charge (a.u.)
  ----------------------------------------
      1 C                    -0.112561
      2 O                    -0.334867
      3 C                     0.499759
      4 O                    -0.417549
      5 C                    -0.480729
      6 C                    -0.030321
      7 O                    -0.023210
      8 O                    -0.356428
      9 C                    -0.296539
     10 O                    -0.413877
     11 O                    -0.452367
     12 H                     0.259817
     13 H                     0.220232
     14 H                     0.272980
     15 H                     0.335451
     16 H                     0.348749
     17 H                     0.295386
     18 H                     0.341821
     19 H                     0.344254
  ----------------------------------------
  Sum of atomic charges =     0.000000

 -----------------------------------------------------------------
                    Cartesian Multipole Moments
 -----------------------------------------------------------------
    Charge (ESU x 10^10)
                 0.0000
    Dipole Moment (Debye)
         X       0.4515      Y       4.5513      Z       0.3965
       Tot       4.5908
    Quadrupole Moments (Debye-Ang)
        XX     -63.3923     XY       6.4616     YY     -57.1188
        XZ      12.2221     YZ       5.6028     ZZ     -75.3068
    Octopole Moments (Debye-Ang^2)
       XXX    -820.9853    XXY     -79.6980    XYY    -229.1509
       YYY    -125.0446    XXZ     111.6291    XYZ      45.8727
       YYZ      40.0027    XZZ    -320.0431    YZZ     -66.4748
       ZZZ      49.6142
    Hexadecapole Moments (Debye-Ang^3)
      XXXX   -7994.5583   XXXY   -1379.8145   XXYY   -1310.7201
      XYYY    -800.6662   YYYY    -891.0007   XXXZ     882.4748
      XXYZ     298.6628   XYYZ     226.3404   YYYZ      18.2908
      XXZZ   -1659.0521   XYZZ    -409.6745   YYZZ    -278.1627
      XZZZ     264.1089   YZZZ     -55.1783   ZZZZ    -569.6538
 -----------------------------------------------------------------
 Calculating analytic gradient of the SCF energy
 Gradient of CDS energy
            1           2           3           4           5           6
    1  -0.0005594  -0.0002208  -0.0006338   0.0005250  -0.0000535   0.0000088
    2  -0.0019164   0.0012396  -0.0010152   0.0008580   0.0002532   0.0000843
    3  -0.0011192   0.0003068   0.0018826  -0.0010530   0.0001475  -0.0000879
            7           8           9          10          11          12
    1   0.0000491  -0.0001014   0.0024358  -0.0002597  -0.0023487   0.0002086
    2  -0.0000328   0.0003201   0.0004249  -0.0005717   0.0001223   0.0002803
    3   0.0000844   0.0000343   0.0007736  -0.0021852   0.0011468   0.0000017
           13          14          15          16          17          18
    1   0.0000920  -0.0000138   0.0000925   0.0003083  -0.0001408   0.0001225
    2   0.0000552   0.0000861  -0.0000720  -0.0003420   0.0000225   0.0003194
    3   0.0001326  -0.0002086   0.0000497  -0.0001795  -0.0001537   0.0003882
           19
    1   0.0004893
    2  -0.0001160
    3   0.0000387
 Gradient of SCF Energy
            1           2           3           4           5           6
    1   0.0060232  -0.0034476  -0.0013617  -0.0024004   0.0141888  -0.0127211
    2  -0.0042181  -0.0068801   0.0117235  -0.0071676  -0.0228151   0.0127218
    3   0.0056203   0.0014644  -0.0068462   0.0059039   0.0031861  -0.0107723
            7           8           9          10          11          12
    1   0.0026509   0.0066693   0.0089067  -0.0047273  -0.0021499  -0.0041062
    2   0.0020537   0.0147217  -0.0112096  -0.0145839   0.0088049   0.0092533
    3   0.0004493  -0.0052404   0.0077984   0.0007387  -0.0094242  -0.0072120
           13          14          15          16          17          18
    1  -0.0009134  -0.0068196   0.0065322  -0.0064166  -0.0073438   0.0041058
    2   0.0038982   0.0102709  -0.0097302  -0.0118359   0.0092759   0.0150086
    3   0.0078809  -0.0095811   0.0060251   0.0048714  -0.0025967   0.0012857
           19
    1   0.0033307
    2  -0.0092919
    3   0.0064488
 Max gradient component =       2.282E-02
 RMS gradient           =       8.329E-03
 Computing fast CPCM-SWIG gradient
 Updating gradient with PCM contributions...
 -- total gradient after adding PCM contribution --
---------------------------------------------------
  Atom         X              Y              Z     
---------------------------------------------------
   1       0.000432      -0.000185       0.000122
   2      -0.000127       0.000153       0.000026
   3      -0.000208      -0.000071       0.000003
   4       0.000060       0.000002       0.000018
   5      -0.000017       0.000004      -0.000045
   6       0.000001      -0.000007       0.000007
   7       0.000000      -0.000011      -0.000011
   8       0.000005       0.000013       0.000007
   9       0.000004      -0.000010      -0.000017
  10      -0.000005       0.000006       0.000016
  11       0.000021       0.000031       0.000025
  12      -0.000141       0.000079      -0.000125
  13       0.000000       0.000006       0.000002
  14       0.000009      -0.000011      -0.000013
  15       0.000007       0.000003       0.000008
  16      -0.000011      -0.000009       0.000010
  17      -0.000001       0.000002      -0.000004
  18      -0.000015       0.000017      -0.000004
  19      -0.000014      -0.000013      -0.000023
---------------------------------------------------
 Number of fixed atoms: 0
 Gradient time:  CPU 373.81 s  wall 31.49 s
 ----------------------------------------------------------------
             Standard Nuclear Orientation (Angstroms)
    I     Atom           X                Y                Z
 ----------------------------------------------------------------
    1      C       2.2857888836    -0.2689100452    -1.0553124086
    2      O       2.4283557895    -1.4466784570    -1.2764297375
    3      C       2.5398893323     0.2922720639     0.3514951789
    4      O       2.1362154940    -0.3371581728     1.3027665679
    5      C       3.2995555436     1.5804806938     0.4478405416
    6      C       4.7180081424     1.3669934628    -0.0707196150
    7      O       4.5641546148     1.0046335528    -1.4477228412
    8      O       5.5955187324     0.0964867232    -1.8233996319
    9      C       5.5725255836     2.6222789187     0.0533253514
   10      O       5.7432390541     2.8476814022     1.4322368038
   11      O       6.8050433082     2.4841727311    -0.6105323774
   12      H       1.9500149247     0.4405604585    -1.8221124136
   13      H       3.3175029835     1.9148637660     1.4808610489
   14      H       2.8052496829     2.3340890525    -0.1706793061
   15      H       5.2061653168     0.5446633053     0.4563834879
   16      H       5.1566626281    -0.7621502599    -1.7132605220
   17      H       5.0762691398     3.4683275902    -0.4237181558
   18      H       6.1071594545     3.7324456259     1.5513118710
   19      H       7.2376889910     1.6811334882    -0.2926207424
 ----------------------------------------------------------------
 Nuclear Repulsion Energy =         664.44190706 hartrees
 There are       43 alpha and       43 beta electrons
 Discretize the solute cavity surface with Lebedev spheres
	Using 110 Lebedev grid points for each H atom
	Using 194 Lebedev grid points for other atoms
	Atomic van der Waals radii will be scaled by 1.20
 Remove points where switching function is < 1.0e-08
 Keep 1529 surface tesserae and discard 1485 interior tesserae
 Molecular Surface Area = 174.545 Angst**2
 Requested basis set is 6-311++G(2df,2p)
 There are 136 shells and 454 basis functions
 A cutoff of  1.0D-12 yielded   8057 shell pairs
 There are     88624 function pairs (    110367 Cartesian)
 Smallest overlap matrix eigenvalue = 6.99E-06
 Guess MOs from SCF MO coefficient file

 -----------------------------------------------------------------------
  General SCF calculation program by
  Eric Jon Sundstrom, Paul Horn, Yuezhi Mao, Dmitri Zuev, Alec White,
  David Stuck, Shaama M.S., Shane Yost, Joonho Lee, David Small,
  Daniel Levine, Susi Lehtola, Hugh Burton, Evgeny Epifanovsky,
  Bang C. Huynh
 -----------------------------------------------------------------------
 Exchange:     0.1500 Hartree-Fock + 1.0000 wB97M-V + LR-HF
 Correlation:  1.0000 wB97M-V
 Using SG-2 standard quadrature grid
 Nonlocal Correlation:  VV10 with C = 0.0100 and b = 6.00 and scale = 1.00000
 Grid used for NLC:  SG-1 standard quadrature
 
 Citation of the SMD model:
 Marenich, A.V.; Cramer, C.J.; Truhlar, D.G.
 J. Phys. Chem. B 2009, 113, 6378-6396.
 iSolventCode=           1
 Solvent: water                                                           
 
 vradii
            1           2           3           4           5           6
    1   1.8500000   1.5200000   1.8500000   1.5200000   1.8500000   1.8500000
            7           8           9          10          11          12
    1   1.5200000   1.5200000   1.8500000   1.5200000   1.5200000   1.2000000
           13          14          15          16          17          18
    1   1.2000000   1.2000000   1.2000000   1.2000000   1.2000000   1.2000000
           19
    1   1.2000000
 -------------------------------------------------------
 OpenMP BLAS3 based DFT computing Module                
 Release: version 1.0, May 2013, Q-Chem Inc. Pittsburgh 
 -------------------------------------------------------
 A restricted SCF calculation will be
 performed using Roothaan-Hall, DIIS, GDM
 SCF converges when RMS gradient is below 1.0e-07
 ---------------------------------------
  Cycle       Energy         DIIS error
 ---------------------------------------
    1    -646.5729199222      4.73e-04  Roothaan Step
 ---------------------------------------
  Cycle       Energy         DIIS error
 ---------------------------------------
    1    -646.6148686374      6.39e-04  
    2    -646.6177094128      7.74e-04  Done DIIS. Switching to GDM
 ---------------------------------------
  Cycle       Energy        RMS Gradient
 ---------------------------------------
    1    -646.6177094128      3.90e-02   Normal BFGS step
    2    -646.6099844388      6.02e-02  Line search: overstep
    3    -646.6277676906      1.82e-03   Normal BFGS step
    4    -646.6281719316      9.45e-04   Normal BFGS step
    5    -646.6282093070      1.37e-03   Normal BFGS step
    6    -646.6282263665      2.10e-04   Normal BFGS step
    7    -646.6282267372      6.32e-05   Normal BFGS step
    8    -646.6282269850      3.64e-05   Normal BFGS step
    9    -646.6282270026      2.25e-05   Normal BFGS step
   10    -646.6282270116      1.59e-05   Normal BFGS step
   11    -646.6282270126      9.32e-06   Normal BFGS step
   12    -646.6282270131      3.50e-06   Normal BFGS step
   13    -646.6282270131      6.57e-07   Normal BFGS step
   14    -646.6282270131      3.05e-07   Normal BFGS step
   15    -646.6282270131      1.46e-07   Normal BFGS step
   16    -646.6282270131      8.58e-08  Convergence criterion met
 ---------------------------------------
 SCF time:   CPU 2234.73s  wall 156.00s 
(3)  G-ENP(liq) elect-nuc-pol free energy of system     -646.628227013 a.u.
(4)  G-CDS(liq) cavity-dispersion-solvent structure 
     free energy                                                5.4059 kcal/mol
(6)  G-S(liq) free energy of system                     -646.619612131 a.u.
 SCF   energy in the final basis set =     -646.6196121309
 Total energy in the final basis set =     -646.6196121309
 
 --------------------------------------------------------------
 
                    Orbital Energies (a.u.)
 --------------------------------------------------------------
 
 Alpha MOs
 -- Occupied --
-19.4109 -19.3998 -19.3618 -19.3595 -19.3481 -19.3466 -10.4596 -10.4531
-10.4485 -10.4133 -10.3587  -1.2772  -1.2205  -1.2041  -1.1947  -1.1370
 -1.0608  -0.9196  -0.8478  -0.7873  -0.7393  -0.6874  -0.6741  -0.6485
 -0.6396  -0.6131  -0.5973  -0.5846  -0.5770  -0.5679  -0.5561  -0.5383
 -0.5224  -0.5134  -0.5010  -0.4667  -0.4581  -0.4384  -0.4336  -0.4200
 -0.4091  -0.3914  -0.3606
 -- Virtual --
 -0.0012   0.0277   0.0361   0.0381   0.0480   0.0637   0.0649   0.0686
  0.0771   0.0811   0.0968   0.1017   0.1118   0.1193   0.1240   0.1301
  0.1335   0.1400   0.1497   0.1531   0.1604   0.1663   0.1720   0.1722
  0.1759   0.1828   0.1898   0.1936   0.2031   0.2224   0.2263   0.2332
  0.2407   0.2542   0.2600   0.2686   0.2753   0.2786   0.2886   0.2976
  0.3012   0.3070   0.3154   0.3210   0.3273   0.3297   0.3379   0.3404
  0.3452   0.3525   0.3590   0.3654   0.3672   0.3720   0.3782   0.3842
  0.3883   0.3906   0.3953   0.4072   0.4113   0.4155   0.4339   0.4372
  0.4429   0.4541   0.4590   0.4682   0.4839   0.4947   0.5125   0.5469
  0.5657   0.5790   0.5855   0.6164   0.6205   0.6266   0.6486   0.6534
  0.6612   0.6689   0.6767   0.6822   0.6928   0.7024   0.7081   0.7172
  0.7222   0.7345   0.7427   0.7525   0.7679   0.7789   0.7896   0.7982
  0.8121   0.8330   0.8643   0.8837   0.8892   0.8962   0.9192   0.9468
  0.9535   0.9793   0.9936   1.0037   1.0161   1.0258   1.0453   1.0630
  1.0826   1.0945   1.1034   1.1181   1.1257   1.1465   1.1514   1.1579
  1.1720   1.1747   1.1843   1.1983   1.2041   1.2079   1.2095   1.2270
  1.2317   1.2357   1.2479   1.2583   1.2609   1.2707   1.2930   1.2997
  1.3073   1.3257   1.3475   1.3573   1.3664   1.3741   1.3886   1.3950
  1.4088   1.4328   1.4497   1.4624   1.4778   1.4946   1.5014   1.5187
  1.5300   1.5374   1.5574   1.5656   1.5838   1.5872   1.6095   1.6263
  1.6291   1.6415   1.6721   1.6874   1.7045   1.7198   1.7265   1.7466
  1.7754   1.7868   1.8099   1.8329   1.8538   1.8542   1.8927   1.9070
  1.9177   1.9294   1.9695   2.0024   2.0278   2.0497   2.0732   2.0894
  2.1299   2.1470   2.1858   2.2164   2.2345   2.2954   2.3338   2.3406
  2.3539   2.3876   2.4059   2.4092   2.4474   2.4559   2.4841   2.5379
  2.5555   2.5916   2.6522   2.6952   2.7093   2.7492   2.7699   2.8002
  2.8131   2.8338   2.8516   2.8691   2.8870   2.9107   2.9302   2.9531
  2.9550   2.9996   3.0207   3.0275   3.0628   3.0729   3.0943   3.1076
  3.1170   3.1552   3.1643   3.2013   3.2094   3.2320   3.2715   3.2925
  3.3193   3.3339   3.3703   3.3992   3.4146   3.4239   3.4311   3.4544
  3.4744   3.4843   3.5080   3.5299   3.5468   3.5643   3.6038   3.6085
  3.6203   3.6385   3.6587   3.6726   3.6788   3.6879   3.7332   3.7493
  3.7538   3.7780   3.7926   3.7966   3.8340   3.8455   3.8618   3.8645
  3.8956   3.9117   3.9201   3.9317   3.9584   3.9755   3.9942   4.0313
  4.0496   4.0697   4.0770   4.1068   4.1318   4.1640   4.1894   4.2169
  4.2281   4.2444   4.2659   4.2781   4.3039   4.3258   4.3415   4.3610
  4.3865   4.4047   4.4254   4.4510   4.5157   4.5256   4.5617   4.5761
  4.6009   4.6150   4.6607   4.6880   4.7262   4.7615   4.7903   4.7996
  4.8185   4.9045   4.9847   5.0111   5.0678   5.1272   5.1533   5.1622
  5.1786   5.1919   5.2026   5.2237   5.2403   5.2615   5.2655   5.2801
  5.2949   5.3127   5.3260   5.3512   5.3549   5.3798   5.4016   5.4068
  5.4452   5.4629   5.4844   5.4969   5.5086   5.5228   5.5274   5.5497
  5.5691   5.5863   5.6002   5.6133   5.6175   5.6329   5.6461   5.6722
  5.6912   5.7054   5.7736   5.7885   5.8139   5.8438   5.9012   5.9325
  6.0280   6.0990   6.1193   6.1478   6.2596   6.3599   6.4080   6.5364
  6.5668   6.6408   6.7595   6.8674   6.8952   6.9386   6.9681   6.9906
  6.9977   7.0197   7.0537   7.0743   7.1161   7.1494   7.1848   7.2195
  7.2601   7.2704   7.2940   7.3175   7.3257   7.3443   7.3730   7.3829
  7.4042   7.4372   7.4758   7.5117   7.5434   7.5750   7.6266   7.6594
  7.6959   7.7381   7.7766   7.8049   7.8556   7.8924   7.9792   8.1828
 24.6142  24.7721  24.8396  24.9078  25.0292  50.5069  50.5750  50.6203
 50.6335  50.7048  50.7416
 --------------------------------------------------------------
 
          Ground-State Mulliken Net Atomic Charges

     Atom                 Charge (a.u.)
  ----------------------------------------
      1 C                    -0.112096
      2 O                    -0.334807
      3 C                     0.499607
      4 O                    -0.417517
      5 C                    -0.480835
      6 C                    -0.030756
      7 O                    -0.023512
      8 O                    -0.356324
      9 C                    -0.296425
     10 O                    -0.413882
     11 O                    -0.452346
     12 H                     0.260005
     13 H                     0.220265
     14 H                     0.272964
     15 H                     0.335457
     16 H                     0.348745
     17 H                     0.295383
     18 H                     0.341823
     19 H                     0.344252
  ----------------------------------------
  Sum of atomic charges =     0.000000

 -----------------------------------------------------------------
                    Cartesian Multipole Moments
 -----------------------------------------------------------------
    Charge (ESU x 10^10)
                 0.0000
    Dipole Moment (Debye)
         X       0.4468      Y       4.5524      Z       0.3955
       Tot       4.5913
    Quadrupole Moments (Debye-Ang)
        XX     -63.4207     XY       6.4636     YY     -57.1177
        XZ      12.2251     YZ       5.6027     ZZ     -75.3074
    Octopole Moments (Debye-Ang^2)
       XXX    -821.1028    XXY     -79.7008    XYY    -229.1423
       YYY    -125.0424    XXZ     111.6556    XYZ      45.8730
       YYZ      40.0039    XZZ    -320.0450    YZZ     -66.4693
       ZZZ      49.6084
    Hexadecapole Moments (Debye-Ang^3)
      XXXX   -7995.0720   XXXY   -1379.8907   XXYY   -1310.7070
      XYYY    -800.6854   YYYY    -891.0001   XXXZ     882.5949
      XXYZ     298.6688   XYYZ     226.3359   YYYZ      18.2902
      XXZZ   -1659.0796   XYZZ    -409.6673   YYZZ    -278.1638
      XZZZ     264.0756   YZZZ     -55.1849   ZZZZ    -569.6548
 -----------------------------------------------------------------
 Calculating analytic gradient of the SCF energy
 Gradient of CDS energy
            1           2           3           4           5           6
    1  -0.0005588  -0.0002234  -0.0006329   0.0005252  -0.0000535   0.0000088
    2  -0.0019181   0.0012420  -0.0010149   0.0008580   0.0002531   0.0000843
    3  -0.0011217   0.0003075   0.0018834  -0.0010527   0.0001475  -0.0000879
            7           8           9          10          11          12
    1   0.0000491  -0.0001014   0.0024358  -0.0002597  -0.0023487   0.0002096
    2  -0.0000328   0.0003201   0.0004249  -0.0005717   0.0001223   0.0002795
    3   0.0000843   0.0000343   0.0007736  -0.0021852   0.0011468   0.0000027
           13          14          15          16          17          18
    1   0.0000920  -0.0000137   0.0000925   0.0003082  -0.0001408   0.0001225
    2   0.0000552   0.0000861  -0.0000720  -0.0003420   0.0000225   0.0003194
    3   0.0001326  -0.0002086   0.0000497  -0.0001796  -0.0001537   0.0003882
           19
    1   0.0004893
    2  -0.0001160
    3   0.0000387
 Gradient of SCF Energy
            1           2           3           4           5           6
    1   0.0051500  -0.0031827  -0.0009597  -0.0024756   0.0141406  -0.0127218
    2  -0.0038474  -0.0072210   0.0117782  -0.0071620  -0.0227788   0.0127189
    3   0.0053392   0.0014244  -0.0067400   0.0058249   0.0032496  -0.0107500
            7           8           9          10          11          12
    1   0.0026532   0.0066677   0.0089090  -0.0047264  -0.0021508  -0.0037859
    2   0.0020366   0.0147172  -0.0112013  -0.0145853   0.0087993   0.0091151
    3   0.0004468  -0.0052418   0.0077983   0.0007376  -0.0094241  -0.0069878
           13          14          15          16          17          18
    1  -0.0009099  -0.0068172   0.0065291  -0.0064098  -0.0073438   0.0041046
    2   0.0039141   0.0102818  -0.0097258  -0.0118337   0.0092742   0.0150077
    3   0.0078783  -0.0095826   0.0060200   0.0048693  -0.0025956   0.0012850
           19
    1   0.0033296
    2  -0.0092876
    3   0.0064483
 Max gradient component =       2.278E-02
 RMS gradient           =       8.301E-03
 Computing fast CPCM-SWIG gradient
 Updating gradient with PCM contributions...
 -- total gradient after adding PCM contribution --
---------------------------------------------------
  Atom         X              Y              Z     
---------------------------------------------------
   1      -0.000401       0.000213      -0.000160
   2       0.000133      -0.000194      -0.000016
   3       0.000194      -0.000016       0.000111
   4      -0.000022       0.000009      -0.000060
   5      -0.000074       0.000048       0.000005
   6      -0.000003      -0.000010       0.000022
   7      -0.000001      -0.000023      -0.000014
   8       0.000007       0.000017       0.000004
   9       0.000005      -0.000006      -0.000016
  10      -0.000006       0.000004       0.000014
  11       0.000018       0.000030       0.000024
  12       0.000152      -0.000079       0.000114
  13       0.000004       0.000018      -0.000001
  14       0.000014      -0.000003      -0.000011
  15       0.000008       0.000002       0.000007
  16       0.000000      -0.000014       0.000008
  17      -0.000001       0.000001      -0.000004
  18      -0.000015       0.000017      -0.000005
  19      -0.000014      -0.000014      -0.000023
---------------------------------------------------
 Number of fixed atoms: 0
 Gradient time:  CPU 415.38 s  wall 34.20 s
 ----------------------------------------------------------------
             Standard Nuclear Orientation (Angstroms)
    I     Atom           X                Y                Z
 ----------------------------------------------------------------
    1      C       2.2867888836    -0.2679100452    -1.0553124086
    2      O       2.4283557895    -1.4466784570    -1.2764297375
    3      C       2.5398893323     0.2922720639     0.3514951789
    4      O       2.1362154940    -0.3371581728     1.3027665679
    5      C       3.2995555436     1.5804806938     0.4478405416
    6      C       4.7180081424     1.3669934628    -0.0707196150
    7      O       4.5641546148     1.0046335528    -1.4477228412
    8      O       5.5955187324     0.0964867232    -1.8233996319
    9      C       5.5725255836     2.6222789187     0.0533253514
   10      O       5.7432390541     2.8476814022     1.4322368038
   11      O       6.8050433082     2.4841727311    -0.6105323774
   12      H       1.9500149247     0.4405604585    -1.8221124136
   13      H       3.3175029835     1.9148637660     1.4808610489
   14      H       2.8052496829     2.3340890525    -0.1706793061
   15      H       5.2061653168     0.5446633053     0.4563834879
   16      H       5.1566626281    -0.7621502599    -1.7132605220
   17      H       5.0762691398     3.4683275902    -0.4237181558
   18      H       6.1071594545     3.7324456259     1.5513118710
   19      H       7.2376889910     1.6811334882    -0.2926207424
 ----------------------------------------------------------------
 Nuclear Repulsion Energy =         664.45009467 hartrees
 There are       43 alpha and       43 beta electrons
 Discretize the solute cavity surface with Lebedev spheres
	Using 110 Lebedev grid points for each H atom
	Using 194 Lebedev grid points for other atoms
	Atomic van der Waals radii will be scaled by 1.20
 Remove points where switching function is < 1.0e-08
 Keep 1529 surface tesserae and discard 1485 interior tesserae
 Molecular Surface Area = 174.531 Angst**2
 Requested basis set is 6-311++G(2df,2p)
 There are 136 shells and 454 basis functions
 A cutoff of  1.0D-12 yielded   8058 shell pairs
 There are     88628 function pairs (    110371 Cartesian)
 Smallest overlap matrix eigenvalue = 6.99E-06
 Guess MOs from SCF MO coefficient file

 -----------------------------------------------------------------------
  General SCF calculation program by
  Eric Jon Sundstrom, Paul Horn, Yuezhi Mao, Dmitri Zuev, Alec White,
  David Stuck, Shaama M.S., Shane Yost, Joonho Lee, David Small,
  Daniel Levine, Susi Lehtola, Hugh Burton, Evgeny Epifanovsky,
  Bang C. Huynh
 -----------------------------------------------------------------------
 Exchange:     0.1500 Hartree-Fock + 1.0000 wB97M-V + LR-HF
 Correlation:  1.0000 wB97M-V
 Using SG-2 standard quadrature grid
 Nonlocal Correlation:  VV10 with C = 0.0100 and b = 6.00 and scale = 1.00000
 Grid used for NLC:  SG-1 standard quadrature
 
 Citation of the SMD model:
 Marenich, A.V.; Cramer, C.J.; Truhlar, D.G.
 J. Phys. Chem. B 2009, 113, 6378-6396.
 iSolventCode=           1
 Solvent: water                                                           
 
 vradii
            1           2           3           4           5           6
    1   1.8500000   1.5200000   1.8500000   1.5200000   1.8500000   1.8500000
            7           8           9          10          11          12
    1   1.5200000   1.5200000   1.8500000   1.5200000   1.5200000   1.2000000
           13          14          15          16          17          18
    1   1.2000000   1.2000000   1.2000000   1.2000000   1.2000000   1.2000000
           19
    1   1.2000000
 -------------------------------------------------------
 OpenMP BLAS3 based DFT computing Module                
 Release: version 1.0, May 2013, Q-Chem Inc. Pittsburgh 
 -------------------------------------------------------
 A restricted SCF calculation will be
 performed using Roothaan-Hall, DIIS, GDM
 SCF converges when RMS gradient is below 1.0e-07
 ---------------------------------------
  Cycle       Energy         DIIS error
 ---------------------------------------
    1    -646.5728916057      4.73e-04  Roothaan Step
 ---------------------------------------
  Cycle       Energy         DIIS error
 ---------------------------------------
    1    -646.6148379374      6.40e-04  
    2    -646.6176558445      7.76e-04  Done DIIS. Switching to GDM
 ---------------------------------------
  Cycle       Energy        RMS Gradient
 ---------------------------------------
    1    -646.6176558445      3.92e-02   Normal BFGS step
    2    -646.6098742253      6.05e-02  Line search: overstep
    3    -646.6277599730      1.84e-03   Normal BFGS step
    4    -646.6281658058      9.41e-04   Normal BFGS step
    5    -646.6282032100      1.38e-03   Normal BFGS step
    6    -646.6282203256      2.12e-04   Normal BFGS step
    7    -646.6282206924      6.34e-05   Normal BFGS step
    8    -646.6282209399      2.80e-05   Normal BFGS step
    9    -646.6282209564      1.71e-05   Normal BFGS step
   10    -646.6282209650      1.24e-05   Normal BFGS step
   11    -646.6282209658      7.74e-06   Normal BFGS step
   12    -646.6282209662      3.46e-06   Normal BFGS step
   13    -646.6282209663      8.87e-07   Normal BFGS step
   14    -646.6282209663      3.25e-07   Normal BFGS step
   15    -646.6282209663      1.56e-07   Normal BFGS step
   16    -646.6282209662      9.93e-08  Convergence criterion met
 ---------------------------------------
 SCF time:   CPU 2236.20s  wall 157.00s 
(3)  G-ENP(liq) elect-nuc-pol free energy of system     -646.628220966 a.u.
(4)  G-CDS(liq) cavity-dispersion-solvent structure 
     free energy                                                5.4030 kcal/mol
(6)  G-S(liq) free energy of system                     -646.619610774 a.u.
 SCF   energy in the final basis set =     -646.6196107742
 Total energy in the final basis set =     -646.6196107742
 
 --------------------------------------------------------------
 
                    Orbital Energies (a.u.)
 --------------------------------------------------------------
 
 Alpha MOs
 -- Occupied --
-19.4109 -19.3998 -19.3617 -19.3596 -19.3481 -19.3466 -10.4597 -10.4532
-10.4485 -10.4133 -10.3587  -1.2773  -1.2203  -1.2041  -1.1945  -1.1370
 -1.0608  -0.9196  -0.8479  -0.7874  -0.7393  -0.6874  -0.6742  -0.6485
 -0.6396  -0.6131  -0.5973  -0.5845  -0.5770  -0.5680  -0.5561  -0.5383
 -0.5223  -0.5134  -0.5009  -0.4667  -0.4581  -0.4383  -0.4335  -0.4200
 -0.4091  -0.3915  -0.3608
 -- Virtual --
 -0.0014   0.0277   0.0361   0.0381   0.0480   0.0637   0.0649   0.0686
  0.0771   0.0811   0.0968   0.1017   0.1118   0.1193   0.1240   0.1301
  0.1335   0.1400   0.1497   0.1531   0.1604   0.1663   0.1720   0.1722
  0.1759   0.1828   0.1898   0.1936   0.2030   0.2224   0.2263   0.2332
  0.2407   0.2542   0.2600   0.2686   0.2753   0.2786   0.2886   0.2976
  0.3012   0.3070   0.3154   0.3211   0.3273   0.3297   0.3379   0.3404
  0.3452   0.3525   0.3589   0.3654   0.3672   0.3721   0.3782   0.3842
  0.3883   0.3906   0.3953   0.4072   0.4113   0.4156   0.4339   0.4372
  0.4428   0.4542   0.4590   0.4681   0.4838   0.4947   0.5126   0.5469
  0.5657   0.5790   0.5855   0.6164   0.6204   0.6265   0.6486   0.6533
  0.6612   0.6688   0.6767   0.6822   0.6928   0.7024   0.7081   0.7172
  0.7222   0.7345   0.7427   0.7525   0.7679   0.7789   0.7894   0.7981
  0.8121   0.8330   0.8644   0.8836   0.8892   0.8962   0.9191   0.9468
  0.9535   0.9794   0.9936   1.0038   1.0161   1.0257   1.0453   1.0631
  1.0826   1.0946   1.1034   1.1181   1.1258   1.1466   1.1514   1.1579
  1.1721   1.1748   1.1843   1.1983   1.2041   1.2080   1.2095   1.2270
  1.2317   1.2357   1.2479   1.2583   1.2609   1.2707   1.2930   1.2997
  1.3073   1.3257   1.3475   1.3572   1.3664   1.3741   1.3885   1.3951
  1.4087   1.4328   1.4497   1.4624   1.4778   1.4947   1.5014   1.5187
  1.5299   1.5374   1.5574   1.5657   1.5838   1.5872   1.6095   1.6263
  1.6291   1.6416   1.6722   1.6874   1.7045   1.7199   1.7265   1.7466
  1.7752   1.7868   1.8099   1.8329   1.8537   1.8542   1.8927   1.9070
  1.9177   1.9295   1.9695   2.0023   2.0277   2.0497   2.0732   2.0894
  2.1298   2.1464   2.1858   2.2165   2.2348   2.2954   2.3337   2.3406
  2.3537   2.3876   2.4059   2.4092   2.4475   2.4560   2.4840   2.5377
  2.5555   2.5915   2.6524   2.6951   2.7093   2.7492   2.7699   2.8001
  2.8131   2.8338   2.8515   2.8691   2.8873   2.9100   2.9302   2.9530
  2.9550   2.9996   3.0207   3.0276   3.0630   3.0729   3.0939   3.1077
  3.1171   3.1553   3.1646   3.2015   3.2099   3.2322   3.2716   3.2925
  3.3194   3.3337   3.3704   3.3994   3.4147   3.4238   3.4310   3.4544
  3.4742   3.4842   3.5079   3.5299   3.5469   3.5641   3.6039   3.6084
  3.6201   3.6382   3.6591   3.6727   3.6787   3.6878   3.7331   3.7494
  3.7541   3.7782   3.7928   3.7966   3.8341   3.8457   3.8619   3.8646
  3.8956   3.9116   3.9202   3.9317   3.9585   3.9756   3.9943   4.0313
  4.0498   4.0698   4.0771   4.1070   4.1318   4.1640   4.1893   4.2167
  4.2283   4.2445   4.2662   4.2782   4.3040   4.3259   4.3416   4.3613
  4.3861   4.4045   4.4254   4.4511   4.5158   4.5257   4.5617   4.5762
  4.6009   4.6151   4.6611   4.6880   4.7264   4.7618   4.7903   4.7997
  4.8185   4.9045   4.9849   5.0112   5.0679   5.1273   5.1533   5.1622
  5.1786   5.1920   5.2026   5.2238   5.2401   5.2615   5.2655   5.2801
  5.2949   5.3126   5.3260   5.3510   5.3548   5.3799   5.4016   5.4069
  5.4453   5.4629   5.4843   5.4968   5.5085   5.5223   5.5274   5.5496
  5.5683   5.5864   5.6002   5.6133   5.6175   5.6329   5.6460   5.6721
  5.6913   5.7054   5.7735   5.7884   5.8138   5.8438   5.9009   5.9314
  6.0280   6.0990   6.1193   6.1478   6.2596   6.3578   6.4073   6.5364
  6.5651   6.6407   6.7595   6.8673   6.8948   6.9384   6.9681   6.9905
  6.9976   7.0197   7.0538   7.0743   7.1161   7.1490   7.1841   7.2191
  7.2600   7.2704   7.2940   7.3175   7.3256   7.3443   7.3730   7.3829
  7.4042   7.4372   7.4758   7.5116   7.5434   7.5750   7.6266   7.6594
  7.6958   7.7378   7.7766   7.8048   7.8556   7.8924   7.9791   8.1829
 24.6141  24.7721  24.8395  24.9071  25.0295  50.5069  50.5750  50.6203
 50.6335  50.7037  50.7416
 --------------------------------------------------------------
 
          Ground-State Mulliken Net Atomic Charges

     Atom                 Charge (a.u.)
  ----------------------------------------
      1 C                    -0.112362
      2 O                    -0.335511
      3 C                     0.499737
      4 O                    -0.417492
      5 C                    -0.480709
      6 C                    -0.030645
      7 O                    -0.023310
      8 O                    -0.356347
      9 C                    -0.296427
     10 O                    -0.413877
     11 O                    -0.452353
     12 H                     0.260371
     13 H                     0.220222
     14 H                     0.273020
     15 H                     0.335468
     16 H                     0.348750
     17 H                     0.295388
     18 H                     0.341825
     19 H                     0.344254
  ----------------------------------------
  Sum of atomic charges =     0.000000

 -----------------------------------------------------------------
                    Cartesian Multipole Moments
 -----------------------------------------------------------------
    Charge (ESU x 10^10)
                 0.0000
    Dipole Moment (Debye)
         X       0.4489      Y       4.5587      Z       0.3968
       Tot       4.5979
    Quadrupole Moments (Debye-Ang)
        XX     -63.4056     XY       6.4789     YY     -57.1234
        XZ      12.2260     YZ       5.5935     ZZ     -75.3040
    Octopole Moments (Debye-Ang^2)
       XXX    -821.0248    XXY     -79.6571    XYY    -229.1568
       YYY    -125.0380    XXZ     111.6473    XYZ      45.8515
       YYZ      40.0113    XZZ    -320.0395    YZZ     -66.4586
       ZZZ      49.6128
    Hexadecapole Moments (Debye-Ang^3)
      XXXX   -7994.6291   XXXY   -1379.7243   XXYY   -1310.7275
      XYYY    -800.6548   YYYY    -890.9956   XXXZ     882.5306
      XXYZ     298.6136   XYYZ     226.3572   YYYZ      18.2844
      XXZZ   -1659.0504   XYZZ    -409.6386   YYZZ    -278.1711
      XZZZ     264.1001   YZZZ     -55.2076   ZZZZ    -569.6328
 -----------------------------------------------------------------
 Calculating analytic gradient of the SCF energy
 Gradient of CDS energy
            1           2           3           4           5           6
    1  -0.0005583  -0.0002232  -0.0006332   0.0005250  -0.0000535   0.0000088
    2  -0.0019286   0.0012535  -0.0010155   0.0008579   0.0002531   0.0000843
    3  -0.0011228   0.0003094   0.0018826  -0.0010530   0.0001475  -0.0000879
            7           8           9          10          11          12
    1   0.0000491  -0.0001014   0.0024358  -0.0002597  -0.0023487   0.0002094
    2  -0.0000328   0.0003201   0.0004249  -0.0005717   0.0001223   0.0002794
    3   0.0000844   0.0000343   0.0007736  -0.0021852   0.0011468   0.0000027
           13          14          15          16          17          18
    1   0.0000920  -0.0000136   0.0000925   0.0003080  -0.0001408   0.0001225
    2   0.0000552   0.0000862  -0.0000720  -0.0003421   0.0000225   0.0003194
    3   0.0001326  -0.0002086   0.0000497  -0.0001795  -0.0001537   0.0003882
           19
    1   0.0004893
    2  -0.0001160
    3   0.0000387
 Gradient of SCF Energy
            1           2           3           4           5           6
    1   0.0053968  -0.0031717  -0.0011486  -0.0024472   0.0141452  -0.0127335
    2  -0.0022528  -0.0084200   0.0115778  -0.0071458  -0.0228152   0.0127219
    3   0.0055404   0.0012321  -0.0068271   0.0059203   0.0031773  -0.0107680
            7           8           9          10          11          12
    1   0.0026576   0.0066680   0.0089099  -0.0047267  -0.0021503  -0.0038826
    2   0.0020446   0.0147082  -0.0112125  -0.0145865   0.0088032   0.0089362
    3   0.0004508  -0.0052400   0.0078011   0.0007374  -0.0094239  -0.0069262
           13          14          15          16          17          18
    1  -0.0009171  -0.0068188   0.0065324  -0.0064028  -0.0073468   0.0041057
    2   0.0039054   0.0102867  -0.0097276  -0.0118225   0.0092790   0.0150106
    3   0.0078855  -0.0095880   0.0060241   0.0048681  -0.0025987   0.0012860
           19
    1   0.0033304
    2  -0.0092907
    3   0.0064488
 Max gradient component =       2.282E-02
 RMS gradient           =       8.311E-03
 Computing fast CPCM-SWIG gradient
 Updating gradient with PCM contributions...
 -- total gradient after adding PCM contribution --
---------------------------------------------------
  Atom         X              Y              Z     
---------------------------------------------------
   1      -0.000183       0.001806       0.000025
   2       0.000151      -0.001393      -0.000212
   3       0.000003      -0.000224       0.000009
   4       0.000007       0.000029       0.000041
   5      -0.000072       0.000025      -0.000058
   6      -0.000005      -0.000014       0.000009
   7       0.000002      -0.000015      -0.000010
   8       0.000011       0.000011       0.000005
   9       0.000003      -0.000009      -0.000016
  10      -0.000005       0.000006       0.000016
  11       0.000020       0.000031       0.000025
  12       0.000080      -0.000259       0.000193
  13      -0.000003       0.000010       0.000001
  14       0.000015      -0.000003      -0.000011
  15       0.000008       0.000002       0.000007
  16      -0.000003      -0.000009       0.000009
  17      -0.000001       0.000002      -0.000004
  18      -0.000015       0.000017      -0.000004
  19      -0.000014      -0.000013      -0.000023
---------------------------------------------------
 Number of fixed atoms: 0
 Gradient time:  CPU 405.57 s  wall 33.02 s
 ----------------------------------------------------------------
             Standard Nuclear Orientation (Angstroms)
    I     Atom           X                Y                Z
 ----------------------------------------------------------------
    1      C       2.2867888836    -0.2699100452    -1.0553124086
    2      O       2.4283557895    -1.4466784570    -1.2764297375
    3      C       2.5398893323     0.2922720639     0.3514951789
    4      O       2.1362154940    -0.3371581728     1.3027665679
    5      C       3.2995555436     1.5804806938     0.4478405416
    6      C       4.7180081424     1.3669934628    -0.0707196150
    7      O       4.5641546148     1.0046335528    -1.4477228412
    8      O       5.5955187324     0.0964867232    -1.8233996319
    9      C       5.5725255836     2.6222789187     0.0533253514
   10      O       5.7432390541     2.8476814022     1.4322368038
   11      O       6.8050433082     2.4841727311    -0.6105323774
   12      H       1.9500149247     0.4405604585    -1.8221124136
   13      H       3.3175029835     1.9148637660     1.4808610489
   14      H       2.8052496829     2.3340890525    -0.1706793061
   15      H       5.2061653168     0.5446633053     0.4563834879
   16      H       5.1566626281    -0.7621502599    -1.7132605220
   17      H       5.0762691398     3.4683275902    -0.4237181558
   18      H       6.1071594545     3.7324456259     1.5513118710
   19      H       7.2376889910     1.6811334882    -0.2926207424
 ----------------------------------------------------------------
 Nuclear Repulsion Energy =         664.46022326 hartrees
 There are       43 alpha and       43 beta electrons
 Discretize the solute cavity surface with Lebedev spheres
	Using 110 Lebedev grid points for each H atom
	Using 194 Lebedev grid points for other atoms
	Atomic van der Waals radii will be scaled by 1.20
 Remove points where switching function is < 1.0e-08
 Keep 1529 surface tesserae and discard 1485 interior tesserae
 Molecular Surface Area = 174.535 Angst**2
 Requested basis set is 6-311++G(2df,2p)
 There are 136 shells and 454 basis functions
 A cutoff of  1.0D-12 yielded   8057 shell pairs
 There are     88624 function pairs (    110367 Cartesian)
 Smallest overlap matrix eigenvalue = 6.99E-06
 Guess MOs from SCF MO coefficient file

 -----------------------------------------------------------------------
  General SCF calculation program by
  Eric Jon Sundstrom, Paul Horn, Yuezhi Mao, Dmitri Zuev, Alec White,
  David Stuck, Shaama M.S., Shane Yost, Joonho Lee, David Small,
  Daniel Levine, Susi Lehtola, Hugh Burton, Evgeny Epifanovsky,
  Bang C. Huynh
 -----------------------------------------------------------------------
 Exchange:     0.1500 Hartree-Fock + 1.0000 wB97M-V + LR-HF
 Correlation:  1.0000 wB97M-V
 Using SG-2 standard quadrature grid
 Nonlocal Correlation:  VV10 with C = 0.0100 and b = 6.00 and scale = 1.00000
 Grid used for NLC:  SG-1 standard quadrature
 
 Citation of the SMD model:
 Marenich, A.V.; Cramer, C.J.; Truhlar, D.G.
 J. Phys. Chem. B 2009, 113, 6378-6396.
 iSolventCode=           1
 Solvent: water                                                           
 
 vradii
            1           2           3           4           5           6
    1   1.8500000   1.5200000   1.8500000   1.5200000   1.8500000   1.8500000
            7           8           9          10          11          12
    1   1.5200000   1.5200000   1.8500000   1.5200000   1.5200000   1.2000000
           13          14          15          16          17          18
    1   1.2000000   1.2000000   1.2000000   1.2000000   1.2000000   1.2000000
           19
    1   1.2000000
 -------------------------------------------------------
 OpenMP BLAS3 based DFT computing Module                
 Release: version 1.0, May 2013, Q-Chem Inc. Pittsburgh 
 -------------------------------------------------------
 A restricted SCF calculation will be
 performed using Roothaan-Hall, DIIS, GDM
 SCF converges when RMS gradient is below 1.0e-07
 ---------------------------------------
  Cycle       Energy         DIIS error
 ---------------------------------------
    1    -646.5729097867      4.74e-04  Roothaan Step
 ---------------------------------------
  Cycle       Energy         DIIS error
 ---------------------------------------
    1    -646.6149394083      6.37e-04  
    2    -646.6178255192      7.69e-04  Done DIIS. Switching to GDM
 ---------------------------------------
  Cycle       Energy        RMS Gradient
 ---------------------------------------
    1    -646.6178255192      3.85e-02   Normal BFGS step
    2    -646.6102160960      5.95e-02  Line search: overstep
    3    -646.6277729368      1.79e-03   Normal BFGS step
    4    -646.6281734560      9.39e-04   Normal BFGS step
    5    -646.6282107059      1.36e-03   Normal BFGS step
    6    -646.6282276209      2.08e-04   Normal BFGS step
    7    -646.6282279872      6.27e-05   Normal BFGS step
    8    -646.6282282315      2.42e-05   Normal BFGS step
    9    -646.6282282477      1.47e-05   Normal BFGS step
   10    -646.6282282560      1.08e-05   Normal BFGS step
   11    -646.6282282568      6.89e-06   Normal BFGS step
   12    -646.6282282571      3.32e-06   Normal BFGS step
   13    -646.6282282571      9.78e-07   Normal BFGS step
   14    -646.6282282572      3.09e-07   Normal BFGS step
   15    -646.6282282572      1.52e-07   Normal BFGS step
   16    -646.6282282572      1.03e-07   Normal BFGS step
  GDM::WARNING energy changes are now smaller than effective accuracy.
  GDM::        calculation will continue, but THRESH should be increased
  GDM::        or SCF_CONVERGENCE decreased. 
  GDM::        effective_thresh = 5.11e-09
   17    -646.6282282572      3.63e-08  Convergence criterion met
 ---------------------------------------
 SCF time:   CPU 2313.67s  wall 162.00s 
(3)  G-ENP(liq) elect-nuc-pol free energy of system     -646.628228257 a.u.
(4)  G-CDS(liq) cavity-dispersion-solvent structure 
     free energy                                                5.4075 kcal/mol
(6)  G-S(liq) free energy of system                     -646.619610819 a.u.
 SCF   energy in the final basis set =     -646.6196108188
 Total energy in the final basis set =     -646.6196108188
 
 --------------------------------------------------------------
 
                    Orbital Energies (a.u.)
 --------------------------------------------------------------
 
 Alpha MOs
 -- Occupied --
[...]
 H         -0.103 -0.241 -0.055    0.097  0.277  0.089    0.322 -0.059 -0.109
 H          0.092  0.213 -0.084    0.431  0.183 -0.122   -0.221  0.294  0.481
 H         -0.058 -0.009  0.031    0.035 -0.003 -0.036    0.081 -0.028 -0.069
 H          0.120 -0.034  0.072   -0.001 -0.108  0.041    0.186  0.039 -0.009
 H         -0.022  0.052 -0.412   -0.015  0.039 -0.354   -0.021  0.003 -0.132
 H          0.263  0.083 -0.182    0.151  0.055 -0.115    0.272  0.079 -0.192
 TransDip   0.078  0.013 -0.109    0.123 -0.048 -0.217    0.028  0.045  0.174

 Mode:                28                     29                     30
 Frequency:      1159.55                1194.88                1221.93
 Force Cnst:      1.6211                 1.7518                 1.3665
 Red. Mass:       2.0464                 2.0825                 1.5533
 IR Active:          YES                    YES                    YES
 IR Intens:      147.427                134.918                 39.636
 Raman Active:       YES                    YES                    YES
               X      Y      Z        X      Y      Z        X      Y      Z
 C          0.012  0.001  0.005    0.003  0.001 -0.001    0.033  0.001  0.017
 O          0.000  0.013  0.019   -0.001 -0.003 -0.005   -0.005  0.003  0.008
 C         -0.029 -0.141 -0.103   -0.000  0.036  0.028   -0.089 -0.075 -0.091
 O         -0.000  0.012  0.022   -0.000 -0.006 -0.004    0.016  0.013  0.007
 C          0.028  0.039  0.080    0.010 -0.006 -0.032    0.069  0.024  0.057
 C         -0.146 -0.016 -0.092    0.031  0.035  0.044    0.025  0.080 -0.042
 O          0.036  0.006  0.071   -0.014  0.007 -0.031    0.012 -0.012  0.008
 O          0.003 -0.004 -0.014    0.003 -0.001  0.002   -0.006  0.003 -0.001
 C         -0.066 -0.002 -0.023   -0.134 -0.035 -0.079    0.026 -0.038 -0.050
 O          0.001  0.001  0.051    0.004 -0.017  0.145    0.020  0.019  0.034
 O          0.056  0.002 -0.030    0.135  0.007 -0.082   -0.016  0.008  0.003
 H         -0.016  0.156  0.164   -0.014 -0.046 -0.038   -0.073  0.100  0.160
 H          0.009  0.239  0.012   -0.022 -0.085 -0.006   -0.015  0.244 -0.013
 H          0.712  0.252 -0.206   -0.178 -0.053  0.060   -0.173 -0.162  0.009
 H          0.075  0.049 -0.202    0.126  0.199  0.213   -0.327 -0.099 -0.001
 H         -0.011  0.004  0.009   -0.010  0.006  0.001    0.004 -0.004 -0.011
 H          0.125  0.196  0.130   -0.427 -0.134  0.062   -0.371 -0.425 -0.333
 H         -0.008  0.050 -0.255   -0.004  0.090 -0.530    0.025 -0.042  0.451
 H         -0.013 -0.011  0.038   -0.396 -0.137  0.318   -0.174 -0.040  0.101
 TransDip  -0.208 -0.198 -0.262   -0.357 -0.029 -0.099   -0.114 -0.160 -0.045

 Mode:                31                     32                     33
 Frequency:      1244.96                1260.82                1291.78
 Force Cnst:      1.3255                 1.3070                 2.2787
 Red. Mass:       1.4515                 1.3954                 2.3177
 IR Active:          YES                    YES                    YES
 IR Intens:       59.560                  2.301                291.549
 Raman Active:       YES                    YES                    YES
               X      Y      Z        X      Y      Z        X      Y      Z
 C          0.014  0.001  0.006    0.002 -0.005  0.013   -0.009 -0.002 -0.001
 O         -0.002  0.000  0.003    0.002  0.001  0.007    0.001  0.001 -0.002
 C         -0.038 -0.025 -0.035   -0.043 -0.075 -0.074    0.022  0.014  0.020
 O          0.005  0.002  0.006    0.018  0.032 -0.015   -0.002  0.001 -0.006
 C          0.050  0.016  0.025   -0.082  0.017  0.033   -0.050 -0.029 -0.015
 C          0.042  0.003 -0.003    0.065 -0.046  0.054   -0.027  0.094  0.008
 O          0.003 -0.008 -0.005   -0.020  0.010 -0.032    0.010 -0.026  0.006
 O         -0.005  0.003  0.002    0.001  0.001  0.008   -0.006  0.002 -0.002
 C          0.066  0.030  0.109   -0.004  0.011  0.011   -0.098 -0.010  0.224
 O         -0.037 -0.020 -0.087   -0.006 -0.007 -0.009   -0.007  0.011 -0.127
 O          0.007  0.015 -0.026   -0.003 -0.006  0.004    0.113 -0.022 -0.051
 H         -0.033  0.036  0.061    0.019  0.131  0.136    0.021 -0.024 -0.036
 H         -0.124  0.053  0.017    0.710  0.413 -0.107    0.186  0.044 -0.041
 H         -0.135 -0.108  0.016   -0.283 -0.082  0.070    0.159  0.112 -0.009
 H         -0.449 -0.269  0.035    0.282  0.119  0.127    0.294  0.051 -0.368
 H          0.015 -0.009 -0.009   -0.003  0.004  0.004    0.034 -0.021 -0.018
 H         -0.016  0.188  0.485    0.071  0.091  0.083   -0.563 -0.312  0.169
 H         -0.016  0.011 -0.379   -0.007  0.009 -0.121    0.025 -0.079  0.366
 H         -0.371 -0.079  0.274    0.070  0.015 -0.045    0.054 -0.044 -0.013
 TransDip  -0.148  0.019  0.197    0.021 -0.043  0.006   -0.168  0.128  0.504

 Mode:                34                     35                     36
 Frequency:      1326.51                1346.07                1382.03
 Force Cnst:      1.9849                 1.4045                 1.6769
 Red. Mass:       1.9146                 1.3157                 1.4901
 IR Active:          YES                    YES                    YES
 IR Intens:       46.820                 14.135                 27.481
 Raman Active:       YES                    YES                    YES
               X      Y      Z        X      Y      Z        X      Y      Z
 C         -0.015 -0.002  0.003   -0.006 -0.001  0.002    0.002  0.001 -0.008
 O          0.001  0.003 -0.006    0.000  0.003 -0.002    0.001 -0.006  0.003
 C          0.044  0.029  0.040    0.026  0.009  0.010   -0.011 -0.002 -0.002
 O         -0.002  0.005 -0.014   -0.003  0.001 -0.000    0.000 -0.003  0.002
 C         -0.121 -0.082 -0.007   -0.077 -0.041  0.044    0.056  0.037 -0.019
 C         -0.013  0.093  0.052    0.066 -0.011 -0.096   -0.101 -0.055 -0.013
 O          0.013 -0.017  0.007   -0.022  0.013 -0.022   -0.000  0.011  0.003
 O         -0.008  0.001 -0.001    0.008  0.002  0.003    0.006 -0.001 -0.003
 C          0.167 -0.050 -0.061    0.017 -0.021  0.027    0.087 -0.109 -0.008
 O         -0.011 -0.009  0.023    0.000  0.011 -0.020   -0.004  0.036 -0.032
 O         -0.065  0.043  0.007   -0.004  0.000 -0.001   -0.019  0.037 -0.008
 H          0.037 -0.085 -0.097    0.017 -0.041 -0.045   -0.008  0.074  0.061
 H          0.401  0.041 -0.058    0.084 -0.044  0.040   -0.149 -0.047  0.010
 H          0.387  0.163 -0.104    0.400  0.078 -0.184   -0.187 -0.053  0.060
 H          0.033 -0.155 -0.380   -0.243  0.329  0.730    0.535  0.400  0.130
 H          0.050 -0.032 -0.027   -0.102  0.065  0.037   -0.039  0.024  0.019
 H         -0.026 -0.177 -0.078   -0.104 -0.070  0.070    0.070  0.038  0.303
 H         -0.016  0.020 -0.151    0.012 -0.017  0.132    0.017 -0.031  0.336
 H         -0.468 -0.068  0.301   -0.046 -0.011  0.033   -0.369 -0.058  0.256
 TransDip   0.187  0.065 -0.093    0.114  0.012  0.036   -0.072 -0.120  0.093

 Mode:                37                     38                     39
 Frequency:      1398.05                1437.62                1441.35
 Force Cnst:      1.5154                 1.3553                 1.6025
 Red. Mass:       1.3160                 1.1130                 1.3092
 IR Active:          YES                    YES                    YES
 IR Intens:       40.938                 41.625                 97.860
 Raman Active:       YES                    YES                    YES
               X      Y      Z        X      Y      Z        X      Y      Z
 C         -0.038  0.001 -0.099   -0.003 -0.002  0.001   -0.003 -0.000 -0.002
 O          0.022 -0.075  0.025   -0.000  0.004 -0.001    0.001 -0.002  0.000
 C          0.016  0.062  0.045    0.017  0.001  0.014    0.004  0.006  0.007
 O         -0.000 -0.005 -0.011    0.002  0.004 -0.007    0.000  0.000 -0.002
 C         -0.013 -0.030 -0.011    0.006 -0.088 -0.028   -0.012 -0.020 -0.004
 C          0.006  0.010 -0.001    0.004 -0.008 -0.006    0.015  0.021  0.013
 O         -0.000 -0.002 -0.000   -0.002 -0.007 -0.002    0.003  0.013  0.005
 O          0.001  0.000 -0.000    0.009  0.004 -0.003   -0.012 -0.005  0.004
 C          0.003  0.008  0.004    0.002  0.000  0.003    0.017 -0.022 -0.142
 O         -0.000 -0.004  0.002    0.000 -0.001 -0.000   -0.002  0.028  0.013
 O         -0.001 -0.001  0.000   -0.001  0.002 -0.001   -0.005 -0.032  0.035
 H          0.052  0.800  0.565    0.010 -0.039 -0.039    0.005  0.015  0.007
 H         -0.037 -0.037 -0.008   -0.287  0.563 -0.229    0.006  0.048 -0.026
 H          0.040  0.021  0.011    0.007  0.411  0.572    0.037  0.047  0.039
 H         -0.045 -0.015  0.005   -0.029  0.015  0.067   -0.099 -0.083 -0.056
 H         -0.014  0.009  0.004   -0.145  0.093  0.057    0.197 -0.126 -0.078
 H         -0.014 -0.029 -0.046    0.028 -0.000 -0.024   -0.442  0.189  0.723
 H         -0.003  0.003 -0.037   -0.001  0.001 -0.003    0.023 -0.009  0.184
 H          0.005  0.000 -0.005   -0.016 -0.003  0.009    0.268  0.048 -0.151
 TransDip   0.017  0.196 -0.056   -0.096  0.151  0.104    0.202 -0.070 -0.234

 Mode:                40                     41                     42
 Frequency:      1443.85                1478.12                1778.83
 Force Cnst:      1.3794                 2.3821                20.0256
 Red. Mass:       1.1230                 1.8505                10.7416
 IR Active:          YES                    YES                    YES
 IR Intens:       58.891                 80.289                229.021
 Raman Active:       YES                    YES                    YES
               X      Y      Z        X      Y      Z        X      Y      Z
 C         -0.005 -0.002 -0.000   -0.001  0.000 -0.002   -0.033  0.524  0.112
 O          0.001  0.002  0.000    0.000 -0.002 -0.000    0.038 -0.360 -0.065
 C          0.004  0.002  0.002    0.000  0.008  0.008   -0.163 -0.319  0.367
 O         -0.000 -0.000 -0.000    0.001  0.001 -0.003    0.107  0.179 -0.255
 C          0.000 -0.014 -0.003   -0.029 -0.016  0.000    0.009  0.040 -0.016
 C          0.005 -0.012 -0.023    0.098  0.072  0.030    0.009 -0.002 -0.013
 O         -0.003  0.056  0.007   -0.003 -0.010 -0.006    0.001  0.003  0.002
 O         -0.046 -0.020  0.017    0.001  0.001  0.001   -0.000 -0.000  0.001
 C         -0.010 -0.004  0.031   -0.163 -0.159 -0.027   -0.000  0.004  0.003
 O          0.002 -0.003 -0.004    0.017  0.043 -0.006   -0.000 -0.001 -0.001
 O          0.002  0.008 -0.009    0.034  0.030 -0.028   -0.002 -0.002  0.001
 H          0.007  0.003 -0.001   -0.000  0.012  0.008   -0.183 -0.054 -0.370
 H         -0.055  0.087 -0.034    0.080  0.000 -0.006   -0.078 -0.086  0.037
 H          0.008  0.067  0.088    0.034  0.006 -0.018    0.089  0.076 -0.017
 H          0.002  0.073  0.107   -0.222 -0.205 -0.115   -0.015  0.001  0.017
 H          0.762 -0.489 -0.296   -0.031  0.019  0.008    0.020 -0.015 -0.006
 H          0.118 -0.030 -0.149    0.635  0.363  0.109   -0.005 -0.002 -0.006
 H         -0.003 -0.000 -0.008    0.030 -0.034  0.451   -0.001 -0.000 -0.002
 H         -0.069 -0.012  0.042   -0.194 -0.033  0.143    0.007  0.003 -0.003
 TransDip   0.158 -0.188 -0.018   -0.225 -0.061  0.168   -0.214  0.132  0.414

 Mode:                43                     44                     45
 Frequency:      1789.47                3039.23                3066.51
 Force Cnst:     22.0203                 5.9243                 5.9221
 Red. Mass:      11.6715                 1.0886                 1.0689
 IR Active:          YES                    YES                    YES
 IR Intens:      424.127                 50.760                  1.480
 Raman Active:       YES                    YES                    YES
               X      Y      Z        X      Y      Z        X      Y      Z
 C         -0.051  0.484  0.165   -0.026  0.054 -0.061    0.002 -0.004  0.004
 O          0.040 -0.351 -0.078    0.000 -0.001  0.000   -0.000  0.000 -0.000
 C          0.185  0.266 -0.469    0.001  0.001  0.003    0.000  0.000  0.001
 O         -0.124 -0.192  0.308   -0.000  0.000 -0.001    0.000 -0.000 -0.000
 C         -0.022 -0.033  0.020    0.002 -0.005  0.001    0.032 -0.059  0.018
 C         -0.013 -0.003  0.010   -0.000  0.000 -0.000   -0.012  0.021 -0.012
 O          0.001  0.000 -0.001    0.000  0.000  0.000   -0.000  0.000 -0.000
 O          0.002 -0.000 -0.001    0.000  0.000  0.000    0.000 -0.000  0.000
 C         -0.001 -0.005 -0.002   -0.000  0.000  0.000    0.002 -0.005  0.002
 O          0.001  0.001  0.001   -0.000  0.000  0.000   -0.000  0.000  0.000
 O          0.003  0.002 -0.001   -0.000 -0.000  0.000    0.000  0.000 -0.000
 H         -0.004 -0.012 -0.289    0.300 -0.630  0.707   -0.020  0.042 -0.048
 H          0.100  0.159 -0.063   -0.001  0.004  0.022    0.009  0.083  0.285
 H         -0.067 -0.032  0.032   -0.030  0.048 -0.038   -0.394  0.617 -0.505
 H          0.028  0.006 -0.019    0.002 -0.003  0.002    0.144 -0.247  0.157
 H          0.004 -0.006 -0.000   -0.000 -0.001 -0.000    0.000 -0.002 -0.001
 H          0.009  0.003  0.006    0.000 -0.000  0.000   -0.028  0.051 -0.027
 H          0.002  0.001  0.005   -0.000 -0.000  0.000   -0.000 -0.000  0.001
 H         -0.009 -0.004  0.004   -0.000  0.000 -0.000    0.001 -0.001  0.000
 TransDip   0.207  0.584 -0.226   -0.058  0.179 -0.129    0.037 -0.010 -0.004

 Mode:                46                     47                     48
 Frequency:      3080.24                3095.96                3164.25
 Force Cnst:      6.0533                 6.1431                 6.4759
 Red. Mass:       1.0829                 1.0878                 1.0978
 IR Active:          YES                    YES                    YES
 IR Intens:        0.982                 59.790                  0.714
 Raman Active:       YES                    YES                    YES
               X      Y      Z        X      Y      Z        X      Y      Z
 C          0.001 -0.001  0.001    0.000 -0.000  0.000    0.000  0.000  0.000
 O         -0.000  0.000 -0.000   -0.000  0.000 -0.000   -0.000 -0.000  0.000
 C          0.000 -0.000  0.000    0.000  0.000 -0.000    0.001  0.001 -0.001
 O          0.000  0.000 -0.000    0.000  0.000 -0.000   -0.000 -0.000  0.001
 C          0.010 -0.020  0.002    0.002 -0.005 -0.001   -0.012 -0.007 -0.089
 C          0.031 -0.055  0.033    0.016 -0.026  0.017   -0.002  0.003 -0.003
 O          0.000 -0.000  0.001   -0.000 -0.000 -0.000   -0.000  0.000  0.000
 O         -0.000  0.000 -0.000   -0.000  0.000 -0.000   -0.000  0.000  0.000
 C         -0.015  0.028 -0.015    0.035 -0.061  0.033   -0.000  0.000 -0.001
 O         -0.000 -0.000 -0.000   -0.000  0.001 -0.000   -0.000 -0.000  0.000
 O         -0.000 -0.001  0.000   -0.000  0.001 -0.001    0.000  0.000  0.000
 H         -0.006  0.013 -0.014   -0.001  0.003 -0.003    0.000 -0.000  0.001
 H          0.006  0.042  0.136    0.002  0.015  0.048    0.014  0.294  0.898
 H         -0.137  0.206 -0.166   -0.035  0.049 -0.038    0.141 -0.220  0.171
 H         -0.376  0.639 -0.402   -0.180  0.315 -0.195    0.022 -0.033  0.021
 H         -0.001  0.005  0.002   -0.001  0.003  0.001   -0.000 -0.001 -0.000
 H          0.189 -0.324  0.178   -0.405  0.709 -0.385    0.002 -0.005  0.003
 H          0.001  0.001 -0.003   -0.004 -0.002  0.003   -0.001 -0.000  0.000
 H         -0.005  0.007 -0.004   -0.001 -0.014  0.009    0.000 -0.000  0.000
 TransDip   0.015  0.017  0.022    0.146 -0.137  0.145   -0.007 -0.001 -0.026

 Mode:                49                     50                     51
 Frequency:      3732.19                3795.93                3821.62
 Force Cnst:      8.7695                 9.0498                 9.1789
 Red. Mass:       1.0686                 1.0660                 1.0667
 IR Active:          YES                    YES                    YES
 IR Intens:      110.525                110.323                142.969
 Raman Active:       YES                    YES                    YES
               X      Y      Z        X      Y      Z        X      Y      Z
 C         -0.000  0.000  0.000    0.000  0.000  0.000   -0.000 -0.000 -0.000
 O          0.000 -0.000 -0.000   -0.000 -0.000 -0.000    0.000  0.000  0.000
 C          0.000  0.000 -0.000    0.000  0.000 -0.000   -0.000 -0.000  0.000
 O         -0.000 -0.000  0.000   -0.000 -0.000  0.000    0.000  0.000 -0.000
 C          0.000  0.000  0.000   -0.000 -0.000 -0.000    0.000  0.000  0.000
 C         -0.000  0.000 -0.001   -0.000  0.001 -0.000    0.000  0.000  0.000
 O         -0.000  0.001  0.001    0.000 -0.000  0.000    0.000  0.000  0.000
 O         -0.029 -0.056  0.007    0.000 -0.000 -0.000    0.000  0.000 -0.000
 C         -0.000 -0.000  0.000    0.001 -0.002  0.001   -0.000 -0.001  0.001
 O          0.000 -0.000  0.000   -0.001 -0.002 -0.000   -0.024 -0.057 -0.010
 O          0.000 -0.000  0.000    0.029 -0.051  0.019   -0.001  0.002 -0.000
 H         -0.000 -0.000  0.000   -0.000 -0.000 -0.000    0.000 -0.000  0.000
 H         -0.001 -0.000  0.000    0.000  0.000  0.000   -0.000  0.000  0.000
 H          0.000 -0.000 -0.000   -0.000 -0.000  0.000    0.000 -0.000  0.000
 H          0.002 -0.003  0.001    0.003 -0.001  0.001    0.000  0.001 -0.000
 H          0.462  0.877 -0.115   -0.000 -0.000 -0.000   -0.000 -0.001  0.000
 H          0.000  0.000  0.000   -0.008  0.013 -0.006    0.000  0.004  0.003
 H          0.000  0.001  0.000    0.012  0.028  0.004    0.374  0.915  0.135
 H         -0.000  0.000 -0.000   -0.457  0.827 -0.318    0.014 -0.026  0.009
 TransDip   0.089  0.324  0.024   -0.210  0.259 -0.044    0.134  0.332  0.135

 STANDARD THERMODYNAMIC QUANTITIES AT   298.15 K  AND     1.00 ATM

   This Molecule has  0 Imaginary Frequencies
   Zero point vibrational energy:       88.978 kcal/mol

   Atom    1 Element C  Has Mass   12.00000
   Atom    2 Element O  Has Mass   15.99491
   Atom    3 Element C  Has Mass   12.00000
   Atom    4 Element O  Has Mass   15.99491
   Atom    5 Element C  Has Mass   12.00000
   Atom    6 Element C  Has Mass   12.00000
   Atom    7 Element O  Has Mass   15.99491
   Atom    8 Element O  Has Mass   15.99491
   Atom    9 Element C  Has Mass   12.00000
   Atom   10 Element O  Has Mass   15.99491
   Atom   11 Element O  Has Mass   15.99491
   Atom   12 Element H  Has Mass    1.00783
   Atom   13 Element H  Has Mass    1.00783
   Atom   14 Element H  Has Mass    1.00783
   Atom   15 Element H  Has Mass    1.00783
   Atom   16 Element H  Has Mass    1.00783
   Atom   17 Element H  Has Mass    1.00783
   Atom   18 Element H  Has Mass    1.00783
   Atom   19 Element H  Has Mass    1.00783
   Molecular Mass:   164.032100 amu
   Principal axes and moments of inertia in amu*Bohr^2:
                             1           2           3
    Eigenvalues --     1016.53368  2466.51322  3231.21703
          X               0.76923    -0.38602    -0.50918
          Y               0.63277     0.34952     0.69097
          Z               0.08876     0.85371    -0.51312
   Rotational Symmetry Number is   1
   The Molecule is an Asymmetric Top
   Translational Enthalpy:        0.889 kcal/mol
   Rotational Enthalpy:           0.889 kcal/mol
   Vibrational Enthalpy:         94.909 kcal/mol
   gas constant (RT):             0.592 kcal/mol
   Translational Entropy:        41.193  cal/mol.K
   Rotational Entropy:           30.472  cal/mol.K
   Vibrational Entropy:          39.369  cal/mol.K

   Total Enthalpy:               97.279 kcal/mol
   Total Entropy:               111.034  cal/mol.K
 Total job time:  21688.35s(wall), 301426.09s(cpu) 
 Wed Jun 26 03:18:47 2024

        *************************************************************
        *                                                           *
        *  Thank you very much for using Q-Chem.  Have a nice day.  *
        *                                                           *
        *************************************************************


