
Running Job 1 of 1 Q_in.in
qchem Q_in.in_40768.0 /scratch/ari.fischer/qChem2185700.hpc-mn1/qchem40768/ 0
/usr/local/qchem-5.4.1/exe/qcprog.exe_s Q_in.in_40768.0 /scratch/ari.fischer/qChem2185700.hpc-mn1/qchem40768/
                  Welcome to Q-Chem
     A Quantum Leap Into The Future Of Chemistry


 Q-Chem 5.4, Q-Chem, Inc., Pleasanton, CA (2021)

 License issued to: Nanyang Technological University (site)

 E. Epifanovsky,  A. T. B. Gilbert,  Xintian Feng,  Joonho Lee,  Yuezhi Mao,  
 N. Mardirossian,  P. Pokhilko,  A. White,  M. Wormit,  M. P. Coons,  
 A. L. Dempwolff,  Zhengting Gan,  D. Hait,  P. R. Horn,  L. D. Jacobson,  
 I. Kaliman,  J. Kussmann,  A. W. Lange,  Ka Un Lao,  D. S. Levine,  Jie Liu,  
 S. C. McKenzie,  A. F. Morrison,  K. Nanda,  F. Plasser,  D. R. Rehn,  
 M. L. Vidal,  Zhi-Qiang You,  Ying Zhu,  B. Alam,  B. Albrecht,  
 A. Aldossary,  E. Alguire,  J. H. Andersen,  D. Barton,  K. Begam,  A. Behn,  
 Y. A. Bernard,  E. J. Berquist,  H. Burton,  A. Carreras,  K. Carter-Fenk,  
 R. Chakraborty,  A. D. Chien,  K. D. Closser,  V. Cofer-Shabica,  
 S. Dasgupta,  Jia Deng,  M. de Wergifosse,  M. Diedenhofen,  Hainam Do,  
 S. Ehlert,  Po-Tung Fang,  S. Fatehi,  Qingguo Feng,  T. Friedhoff,  
 J. Gayvert,  Qinghui Ge,  G. Gidofalvi,  M. Goldey,  J. Gomes,  
 C. Gonzalez-Espinoza,  S. Gulania,  A. Gunina,  M. W. D. Hanson-Heine,  
 P. H. P. Harbach,  A. W. Hauser,  M. F. Herbst,  M. Hernandez Vera,  
 M. Hodecker,  Z. C. Holden,  S. Houck,  Xunkun Huang,  Kerwin Hui,  
 B. C. Huynh,  M. Ivanov,  Hyunjun Ji,  Hanjie Jiang,  B. Kaduk,  S. Kaehler,  
 K. Khistyaev,  Jaehoon Kim,  P. Klunzinger,  Z. Koczor-Benda,  
 Joong Hoon Koh,  D. Kosenkov,  L. Koulias,  T. Kowalczyk,  C. M. Krauter,  
 K. Kue,  A. Kunitsa,  T. Kus,  A. Landau,  K. V. Lawler,  D. Lefrancois,  
 S. Lehtola,  Rain Li,  Yi-Pei Li,  Jiashu Liang,  M. Liebenthal,  
 Hung-Hsuan Lin,  You-Sheng Lin,  Fenglai Liu,  Kuan-Yu Liu,  
 M. Loipersberger,  A. Luenser,  A. Manjanath,  P. Manohar,  E. Mansoor,  
 S. F. Manzer,  Shan-Ping Mao,  A. V. Marenich,  T. Markovich,  S. Mason,  
 S. A. Maurer,  P. F. McLaughlin,  M. F. S. J. Menger,  J.-M. Mewes,  
 S. A. Mewes,  P. Morgante,  J. W. Mullinax,  K. J. Oosterbaan,  G. Paran,  
 Alexander C. Paul,  Suranjan K. Paul,  F. Pavosevic,  Zheng Pei,  S. Prager,  
 E. I. Proynov,  E. Ramos,  B. Rana,  A. E. Rask,  A. Rettig,  R. M. Richard,  
 F. Rob,  E. Rossomme,  T. Scheele,  M. Scheurer,  M. Schneider,  
 N. Sergueev,  S. M. Sharada,  W. Skomorowski,  D. W. Small,  C. J. Stein,  
 Yu-Chuan Su,  E. J. Sundstrom,  Zhen Tao,  J. Thirman,  T. Tsuchimochi,  
 N. M. Tubman,  S. P. Veccham,  O. Vydrov,  J. Wenzel,  J. Witte,  A. Yamada,  
 Kun Yao,  S. Yeganeh,  S. R. Yost,  A. Zech,  Igor Ying Zhang,  Xing Zhang,  
 Yu Zhang,  D. Zuev,  A. Aspuru-Guzik,  A. T. Bell,  N. A. Besley,  
 K. B. Bravaya,  B. R. Brooks,  D. Casanova,  Jeng-Da Chai,  S. Coriani,  
 C. J. Cramer,  A. E. DePrince, III,  R. A. DiStasio Jr.,  A. Dreuw,  
 B. D. Dunietz,  T. R. Furlani,  W. A. Goddard III,  S. Grimme,  
 S. Hammes-Schiffer,  T. Head-Gordon,  W. J. Hehre,  Chao-Ping Hsu,  
 T.-C. Jagau,  Yousung Jung,  A. Klamt,  Jing Kong,  D. S. Lambrecht,  
 WanZhen Liang,  N. J. Mayhall,  C. W. McCurdy,  J. B. Neaton,  
 C. Ochsenfeld,  J. A. Parkhill,  R. Peverati,  V. A. Rassolov,  Yihan Shao,  
 L. V. Slipchenko,  T. Stauch,  R. P. Steele,  J. E. Subotnik,  
 A. J. W. Thom,  A. Tkatchenko,  D. G. Truhlar,  T. Van Voorhis,  
 T. A. Wesolowski,  K. B. Whaley,  H. L. Woodcock III,  P. M. Zimmerman,  
 S. Faraji,  P. M. W. Gill,  M. Head-Gordon,  J. M. Herbert,  A. I. Krylov

 Additional authors for Version 5.4.1: 
 S. Kotaru,  Shaozhi Li,  Xiangyuan Li,  F. Matz,  A. Molle,  Haisheng Ren,  
 Yingli Su,  Hung-Yi Tsai,  C. Utku,  Fang Wang

 Contributors to earlier versions of Q-Chem not listed above: 
 R. D. Adamson,  B. Austin,  R. Baer,  J. Baker,  G. J. O. Beran,  
 K. Brandhorst,  S. T. Brown,  E. F. C. Byrd,  A. K. Chakraborty,  
 G. K. L. Chan,  Chun-Min Chang,  Yunqing Chen,  C.-L. Cheng,  
 Siu Hung Chien,  D. M. Chipman,  D. L. Crittenden,  H. Dachsel,  
 R. J. Doerksen,  A. D. Dutoi,  R. G. Edgar,  J. Fosso-Tande,  
 L. Fusti-Molnar,  D. Ghosh,  A. Ghysels,  A. Golubeva-Zadorozhnaya,  
 J. Gonthier,  M. S. Gordon,  S. R. Gwaltney,  G. Hawkins,  J. E. Herr,  
 A. Heyden,  S. Hirata,  E. G. Hohenstein,  G. Kedziora,  F. J. Keil,  
 C. Kelley,  Jihan Kim,  R. A. King,  R. Z. Khaliullin,  P. P. Korambath,  
 W. Kurlancheek,  A. Laurent,  A. M. Lee,  M. S. Lee,  S. V. Levchenko,  
 Ching Yeh Lin,  D. Liotard,  E. Livshits,  R. C. Lochan,  I. Lotan,  
 L. A. Martinez-Martinez,  P. E. Maslen,  N. Nair,  D. P. O'Neill,  
 D. Neuhauser,  E. Neuscamman,  C. M. Oana,  R. Olivares-Amaya,  R. Olson,  
 T. M. Perrine,  B. Peters,  P. A. Pieniazek,  A. Prociuk,  Y. M. Rhee,  
 J. Ritchie,  M. A. Rohrdanz,  E. Rosta,  N. J. Russ,  H. F. Schaefer III,  
 M. W. Schmidt,  N. E. Schultz,  S. Sharma,  N. Shenvi,  C. D. Sherrill,  
 A. C. Simmonett,  A. Sodt,  T. Stein,  D. Stuck,  K. S. Thanthiriwatte,  
 V. Vanovschi,  L. Vogt,  Tao Wang,  A. Warshel,  M. A. Watson,  
 C. F. Williams,  Q. Wu,  X. Xu,  Jun Yang,  W. Zhang,  Yan Zhao

 Please cite Q-Chem as follows:
 Y. Shao et al., Mol. Phys. 113, 184-215 (2015)
 DOI: 10.1080/00268976.2014.952696

 Q-Chem 5.4.1 for Intel X86 EM64T Linux

 Parts of Q-Chem use Armadillo 9.800.1 (Horizon Scraper).
 http://arma.sourceforge.net/

 Q-Chem begins on Mon Jun 24 14:11:11 2024  

 Host: 
0

     Scratch files written to /scratch/ari.fischer/qChem2185700.hpc-mn1/qchem40768//
 Aug1521 |scratch|qcdevops|jenkins|workspace|build_RNUM 8249   
 Processing $rem in /usr/local/qchem-5.4.1/config/preferences:
 Processing $rem in /home/ari.fischer/.qchemrc:
 Symmetry turned off for PCM/SM12/SMD calculation

 Checking the input file for inconsistencies... 	...done.

--------------------------------------------------------------
User input:
--------------------------------------------------------------
$molecule
0 1
C         2.2603454155   -0.2506522821   -1.0719215177
O         2.3161506162   -1.4413924916   -1.2987790099
C         2.5527996776    0.2681338074    0.3451342044
O         2.2214861235   -0.4215639394    1.2902209227
C         3.2915044544    1.5733267162    0.4632414047
C         4.7128022948    1.3714586534   -0.0649761664
O         4.5563233454    0.9981167064   -1.4422957780
O         5.6133472174    0.1017321562   -1.8058674600
C         5.5707341865    2.6285812128    0.0371476665
O         5.7108828250    2.8929134011    1.4132998174
O         6.8129083128    2.4639741015   -0.6038066697
H         1.9779751633    0.4890990715   -1.8380712938
H         3.3179668612    1.8849777799    1.5086006018
H         2.7883456139    2.3419108213   -0.1368426026
H         5.2077720906    0.5504488038    0.4666062382
H         5.1666854774   -0.7612838737   -1.6984054797
H         5.0845765030    3.4602861366   -0.4850401751
H         6.1420917782    3.7597814528    1.4960618668
H         7.2413096433    1.6863376660   -0.2045934697
$end

$rem
BASIS = 6-311++G(2df,2p)
GUI = 2
JOB_TYPE = Optimization
METHOD = wB97M-V
SCF_ALGORITHM = DIIS_GDM
MAX_SCF_CYCLES = 400
GEOM_OPT_MAX_CYCLES = 150
SCF_CONVERGENCE = 7
THRESH = 12
Solvent_method = SMD
$end
--------------------------------------------------------------
 ----------------------------------------------------------------
             Standard Nuclear Orientation (Angstroms)
    I     Atom           X                Y                Z
 ----------------------------------------------------------------
    1      C       2.2603454155    -0.2506522821    -1.0719215177
    2      O       2.3161506162    -1.4413924916    -1.2987790099
    3      C       2.5527996776     0.2681338074     0.3451342044
    4      O       2.2214861235    -0.4215639394     1.2902209227
    5      C       3.2915044544     1.5733267162     0.4632414047
    6      C       4.7128022948     1.3714586534    -0.0649761664
    7      O       4.5563233454     0.9981167064    -1.4422957780
    8      O       5.6133472174     0.1017321562    -1.8058674600
    9      C       5.5707341865     2.6285812128     0.0371476665
   10      O       5.7108828250     2.8929134011     1.4132998174
   11      O       6.8129083128     2.4639741015    -0.6038066697
   12      H       1.9779751633     0.4890990715    -1.8380712938
   13      H       3.3179668612     1.8849777799     1.5086006018
   14      H       2.7883456139     2.3419108213    -0.1368426026
   15      H       5.2077720906     0.5504488038     0.4666062382
   16      H       5.1666854774    -0.7612838737    -1.6984054797
   17      H       5.0845765030     3.4602861366    -0.4850401751
   18      H       6.1420917782     3.7597814528     1.4960618668
   19      H       7.2413096433     1.6863376660    -0.2045934697
 ----------------------------------------------------------------
 Nuclear Repulsion Energy =         663.05453391 hartrees
 There are       43 alpha and       43 beta electrons
 Requested basis set is 6-311++G(2df,2p)
 There are 136 shells and 454 basis functions

 Total QAlloc Memory Limit 288000 MB
 Mega-Array Size       188 MB
 MEM_STATIC part       192 MB
 
 Citation of the SMD model:
 Marenich, A.V.; Cramer, C.J.; Truhlar, D.G.
 J. Phys. Chem. B 2009, 113, 6378-6396.
 iSolventCode=           1
 Solvent: water                                                           
 
 vradii
            1           2           3           4           5           6
    1   1.8500000   1.5200000   1.8500000   1.5200000   1.8500000   1.8500000
            7           8           9          10          11          12
    1   1.5200000   1.5200000   1.8500000   1.5200000   1.5200000   1.2000000
           13          14          15          16          17          18
    1   1.2000000   1.2000000   1.2000000   1.2000000   1.2000000   1.2000000
           19
    1   1.2000000
 Changing PCM_VDW_RADII to SMD_RADIUS
 Discretize the solute cavity surface with Lebedev spheres
	Using 110 Lebedev grid points for each H atom
	Using 194 Lebedev grid points for other atoms
	Atomic van der Waals radii will be scaled by 1.20
 Remove points where switching function is < 1.0e-08
 Keep 1536 surface tesserae and discard 1478 interior tesserae
 Molecular Surface Area = 175.007 Angst**2
 A cutoff of  1.0D-12 yielded   8049 shell pairs
 There are     88472 function pairs (    110168 Cartesian)
 Smallest overlap matrix eigenvalue = 6.91E-06

 Scale SEOQF with 1.000000e-02/1.000000e-01/1.000000e-01

 Standard Electronic Orientation quadrupole field applied
 Nucleus-field energy     =     0.0000000125 hartrees
 Guess from superposition of atomic densities
 Warning:  Energy on first SCF cycle will be non-variational
 SAD guess density has 86.000000 electrons

 -----------------------------------------------------------------------
  General SCF calculation program by
  Eric Jon Sundstrom, Paul Horn, Yuezhi Mao, Dmitri Zuev, Alec White,
  David Stuck, Shaama M.S., Shane Yost, Joonho Lee, David Small,
  Daniel Levine, Susi Lehtola, Hugh Burton, Evgeny Epifanovsky,
  Bang C. Huynh
 -----------------------------------------------------------------------
 Exchange:     0.1500 Hartree-Fock + 1.0000 wB97M-V + LR-HF
 Correlation:  1.0000 wB97M-V
 Using SG-2 standard quadrature grid
 Nonlocal Correlation:  VV10 with C = 0.0100 and b = 6.00 and scale = 1.00000
 Grid used for NLC:  SG-1 standard quadrature
 
 Citation of the SMD model:
 Marenich, A.V.; Cramer, C.J.; Truhlar, D.G.
 J. Phys. Chem. B 2009, 113, 6378-6396.
 iSolventCode=           1
 Solvent: water                                                           
 
 vradii
            1           2           3           4           5           6
    1   1.8500000   1.5200000   1.8500000   1.5200000   1.8500000   1.8500000
            7           8           9          10          11          12
    1   1.5200000   1.5200000   1.8500000   1.5200000   1.5200000   1.2000000
           13          14          15          16          17          18
    1   1.2000000   1.2000000   1.2000000   1.2000000   1.2000000   1.2000000
           19
    1   1.2000000
 using 16 threads for integral computing
 -------------------------------------------------------
 OpenMP Integral computing Module                
 Release: version 1.0, May 2013, Q-Chem Inc. Pittsburgh 
 -------------------------------------------------------
 -------------------------------------------------------
 OpenMP BLAS3 based DFT computing Module                
 Release: version 1.0, May 2013, Q-Chem Inc. Pittsburgh 
 -------------------------------------------------------
 A restricted SCF calculation will be
 performed using DIIS, GDM
 SCF converges when RMS gradient is below 1.0e-07
 ---------------------------------------
  Cycle       Energy         DIIS error
 ---------------------------------------
    1    -648.7684183105      2.33e-02  
    2    -646.4026364414      3.29e-03  Done DIIS. Switching to GDM
 ---------------------------------------
  Cycle       Energy        RMS Gradient
 ---------------------------------------
    1    -646.4026364414      1.14e-01   Descent step
    2    -646.6045286720      2.52e-02   Normal BFGS step
    3    -646.6241098324      1.28e-02   Normal BFGS step
    4    -646.6266842531      3.43e-03   Normal BFGS step
    5    -646.6274840246      6.41e-04   Normal BFGS step
    6    -646.6275208301      3.16e-04   Normal BFGS step
    7    -646.6275287125      1.55e-04   Normal BFGS step
    8    -646.6275293385      8.43e-05   Normal BFGS step
    9    -646.6275295806      3.82e-05   Normal BFGS step
   10    -646.6275296186      2.08e-05   Normal BFGS step
   11    -646.6275296228      1.10e-05   Normal BFGS step
   12    -646.6275296235      5.60e-06   Normal BFGS step
   13    -646.6275296238      2.09e-06   Normal BFGS step
   14    -646.6275296238      1.07e-06   Normal BFGS step
   15    -646.6275296238      4.28e-07   Normal BFGS step
   16    -646.6275296238      1.48e-07   Normal BFGS step
   17    -646.6275296239      5.88e-08  Convergence criterion met
 ---------------------------------------
 SCF time:   CPU 2216.96s  wall 169.00s 
(3)  G-ENP(liq) elect-nuc-pol free energy of system     -646.627529624 a.u.
(4)  G-CDS(liq) cavity-dispersion-solvent structure 
     free energy                                                5.4313 kcal/mol
(6)  G-S(liq) free energy of system                     -646.618874261 a.u.
 SCF   energy in the final basis set =     -646.6188742607
 Total energy in the final basis set =     -646.6188742607
 
 --------------------------------------------------------------
 
                    Orbital Energies (a.u.)
 --------------------------------------------------------------
 
 Alpha MOs
 -- Occupied --
-19.4109 -19.4004 -19.3627 -19.3604 -19.3497 -19.3481 -10.4615 -10.4548
-10.4490 -10.4140 -10.3607  -1.2734  -1.2179  -1.2038  -1.1911  -1.1363
 -1.0593  -0.9178  -0.8467  -0.7864  -0.7365  -0.6839  -0.6732  -0.6469
 -0.6379  -0.6108  -0.5964  -0.5826  -0.5758  -0.5665  -0.5532  -0.5422
 -0.5236  -0.5107  -0.4991  -0.4659  -0.4591  -0.4379  -0.4325  -0.4209
 -0.4091  -0.3910  -0.3632
 -- Virtual --
 -0.0075   0.0277   0.0358   0.0383   0.0476   0.0635   0.0648   0.0685
  0.0773   0.0811   0.0992   0.1016   0.1110   0.1195   0.1228   0.1299
  0.1341   0.1386   0.1490   0.1533   0.1604   0.1656   0.1701   0.1735
  0.1762   0.1842   0.1891   0.1911   0.2035   0.2200   0.2277   0.2329
  0.2398   0.2524   0.2604   0.2662   0.2747   0.2774   0.2881   0.2976
  0.2997   0.3073   0.3140   0.3194   0.3260   0.3282   0.3372   0.3379
  0.3461   0.3522   0.3574   0.3640   0.3676   0.3709   0.3776   0.3829
  0.3862   0.3914   0.3932   0.4081   0.4110   0.4139   0.4344   0.4387
  0.4453   0.4522   0.4580   0.4656   0.4805   0.4957   0.5116   0.5487
  0.5630   0.5724   0.5821   0.6164   0.6177   0.6243   0.6481   0.6559
  0.6586   0.6674   0.6747   0.6844   0.6914   0.7038   0.7051   0.7142
  0.7265   0.7332   0.7437   0.7534   0.7625   0.7790   0.7868   0.7965
  0.8143   0.8315   0.8704   0.8774   0.8855   0.8962   0.9103   0.9442
  0.9492   0.9813   0.9905   0.9993   1.0147   1.0238   1.0401   1.0662
  1.0777   1.0901   1.1010   1.1181   1.1254   1.1446   1.1481   1.1599
  1.1764   1.1779   1.1883   1.1978   1.2049   1.2080   1.2151   1.2233
  1.2328   1.2384   1.2446   1.2517   1.2589   1.2688   1.2955   1.3003
  1.3049   1.3228   1.3418   1.3510   1.3667   1.3738   1.3870   1.3953
  1.4003   1.4292   1.4528   1.4623   1.4688   1.4933   1.5024   1.5175
  1.5289   1.5324   1.5476   1.5674   1.5801   1.5947   1.6106   1.6241
  1.6299   1.6378   1.6723   1.6929   1.6974   1.7201   1.7317   1.7438
  1.7610   1.7844   1.8070   1.8362   1.8526   1.8557   1.8947   1.9085
  1.9145   1.9310   1.9619   1.9955   2.0134   2.0485   2.0650   2.0813
  2.1163   2.1326   2.1799   2.2124   2.2422   2.2906   2.3211   2.3438
  2.3498   2.3871   2.4061   2.4150   2.4462   2.4577   2.4871   2.5324
  2.5585   2.5937   2.6538   2.6902   2.7076   2.7483   2.7687   2.8007
  2.8111   2.8300   2.8497   2.8636   2.8787   2.9134   2.9280   2.9509
  2.9534   2.9976   3.0139   3.0219   3.0534   3.0683   3.0926   3.1123
  3.1190   3.1547   3.1668   3.2002   3.2084   3.2343   3.2631   3.2832
  3.3206   3.3358   3.3669   3.3954   3.4061   3.4313   3.4355   3.4538
  3.4707   3.4791   3.4987   3.5234   3.5465   3.5618   3.5951   3.5993
  3.6179   3.6285   3.6598   3.6642   3.6779   3.6866   3.7275   3.7384
  3.7511   3.7729   3.7915   3.7984   3.8291   3.8425   3.8539   3.8657
  3.8956   3.9098   3.9155   3.9315   3.9537   3.9692   3.9898   4.0259
  4.0458   4.0548   4.0718   4.1109   4.1294   4.1585   4.1856   4.2094
  4.2153   4.2326   4.2606   4.2685   4.2883   4.3158   4.3315   4.3365
  4.3714   4.3786   4.4106   4.4419   4.5120   4.5148   4.5559   4.5649
  4.5968   4.6007   4.6552   4.6822   4.7215   4.7597   4.7841   4.7942
  4.8111   4.8928   4.9814   5.0130   5.0688   5.1237   5.1508   5.1575
  5.1732   5.1911   5.2018   5.2214   5.2342   5.2556   5.2620   5.2743
  5.2944   5.3152   5.3236   5.3453   5.3522   5.3745   5.3960   5.4018
  5.4435   5.4547   5.4775   5.4990   5.5027   5.5140   5.5254   5.5455
  5.5541   5.5806   5.5987   5.6026   5.6134   5.6182   5.6375   5.6601
  5.6862   5.7005   5.7576   5.7714   5.8040   5.8247   5.8842   5.9303
  6.0021   6.0645   6.0982   6.1536   6.2317   6.3405   6.3780   6.5118
  6.5319   6.6295   6.7544   6.8395   6.8882   6.9337   6.9653   6.9889
  6.9932   7.0196   7.0502   7.0760   7.1062   7.1244   7.1598   7.2072
  7.2394   7.2559   7.2737   7.2899   7.3187   7.3360   7.3670   7.3861
  7.4016   7.4350   7.4708   7.5071   7.5398   7.5734   7.6144   7.6510
  7.6856   7.7255   7.7839   7.7946   7.8486   7.8904   7.9665   8.1861
 24.6010  24.7552  24.8259  24.8789  25.0142  50.5038  50.5701  50.6166
 50.6324  50.6863  50.7347
 --------------------------------------------------------------
 
          Ground-State Mulliken Net Atomic Charges

     Atom                 Charge (a.u.)
  ----------------------------------------
      1 C                    -0.121379
      2 O                    -0.337800
      3 C                     0.497600
      4 O                    -0.414498
      5 C                    -0.469650
      6 C                    -0.021659
      7 O                    -0.026727
      8 O                    -0.355488
      9 C                    -0.311405
     10 O                    -0.415655
     11 O                    -0.445677
     12 H                     0.265112
     13 H                     0.222280
     14 H                     0.270795
     15 H                     0.331343
     16 H                     0.352161
     17 H                     0.293119
     18 H                     0.343633
     19 H                     0.343895
  ----------------------------------------
  Sum of atomic charges =     0.000000

 -----------------------------------------------------------------
                    Cartesian Multipole Moments
 -----------------------------------------------------------------
    Charge (ESU x 10^10)
                 0.0000
    Dipole Moment (Debye)
         X       0.6793      Y       4.7524      Z       0.4967
       Tot       4.8263
    Quadrupole Moments (Debye-Ang)
        XX     -61.0256     XY       7.2915     YY     -57.4131
        XZ      12.4934     YZ       5.2883     ZZ     -75.3912
    Octopole Moments (Debye-Ang^2)
       XXX    -800.8004    XXY     -71.5946    XYY    -226.4287
       YYY    -124.7160    XXZ     117.0860    XYZ      45.4261
       YYZ      37.5902    XZZ    -320.0970    YZZ     -66.2120
       ZZZ      50.0116
    Hexadecapole Moments (Debye-Ang^3)
      XXXX   -7838.0154   XXXY   -1308.7353   XXYY   -1277.9708
      XYYY    -795.1865   YYYY    -900.6378   XXXZ     939.0935
      XXYZ     302.5495   XYYZ     213.3855   YYYZ       9.6974
      XXZZ   -1658.2962   XYZZ    -412.4937   YYZZ    -283.2948
      XZZZ     257.9010   YZZZ     -56.7157   ZZZZ    -567.3227
 -----------------------------------------------------------------
 Calculating analytic gradient of the SCF energy
 Gradient of CDS energy
            1           2           3           4           5           6
    1  -0.0006981  -0.0001303  -0.0005335   0.0004548  -0.0000617   0.0000096
    2  -0.0020025   0.0013568  -0.0011532   0.0009681   0.0002552   0.0000843
    3  -0.0011518   0.0003226   0.0019340  -0.0011043   0.0001525  -0.0000876
            7           8           9          10          11          12
    1   0.0000477  -0.0000958   0.0021990  -0.0001982  -0.0021966   0.0002254
    2  -0.0000250   0.0003192   0.0004729  -0.0006225   0.0001415   0.0002760
    3   0.0000849   0.0000320   0.0007806  -0.0020130   0.0010043   0.0000114
           13          14          15          16          17          18
    1   0.0000934  -0.0000166   0.0000921   0.0003196  -0.0001365   0.0001404
    2   0.0000557   0.0000936  -0.0000716  -0.0003503  -0.0000033   0.0003211
    3   0.0001396  -0.0002083   0.0000467  -0.0001808  -0.0002033   0.0003805
           19
    1   0.0004856
    2  -0.0001161
    3   0.0000598
 Gradient of SCF Energy
            1           2           3           4           5           6
    1   0.0063212  -0.0029842  -0.0012463  -0.0046390   0.0146327  -0.0124892
    2   0.0041586  -0.0181118   0.0156722  -0.0143093  -0.0231111   0.0135902
    3   0.0077034   0.0006650  -0.0128706   0.0131881   0.0013304  -0.0094173
            7           8           9          10          11          12
    1  -0.0016031   0.0154655   0.0135484  -0.0113312  -0.0042766  -0.0042147
    2   0.0032531   0.0196965  -0.0114322  -0.0219100   0.0147436   0.0120878
    3  -0.0012895  -0.0064777   0.0101544   0.0040169  -0.0176498  -0.0093805
           13          14          15          16          17          18
    1  -0.0005453  -0.0080161   0.0077454  -0.0117041  -0.0081173   0.0086967
    2   0.0045893   0.0131087  -0.0117139  -0.0172883   0.0108250   0.0206451
    3   0.0112414  -0.0107935   0.0073944   0.0062771  -0.0055069  -0.0003822
           19
    1   0.0047573
    2  -0.0144935
    3   0.0117970
 Max gradient component =       2.311E-02
 RMS gradient           =       1.131E-02
 Computing fast CPCM-SWIG gradient
 Updating gradient with PCM contributions...
 -- total gradient after adding PCM contribution --
---------------------------------------------------
  Atom         X              Y              Z     
---------------------------------------------------
   1       0.001348       0.009103       0.002643
   2       0.000220      -0.011447      -0.000973
   3       0.000068       0.003283      -0.007173
   4      -0.002293      -0.006792       0.007903
   5       0.000277      -0.000577      -0.000906
   6      -0.000054       0.001333       0.000557
   7      -0.004227       0.001301      -0.001680
   8       0.008285       0.004540      -0.001314
   9       0.004876      -0.000669       0.002446
  10      -0.005049      -0.007901       0.002330
  11      -0.001916       0.006223      -0.006638
  12      -0.000800       0.002449      -0.002342
  13       0.000255       0.001070       0.003328
  14      -0.001097       0.002633      -0.001405
  15       0.001144      -0.002080       0.001293
  16      -0.004603      -0.005134       0.001316
  17      -0.000993       0.001852      -0.002393
  18       0.003273       0.006095      -0.001149
  19       0.001285      -0.005283       0.004156
---------------------------------------------------
 Number of fixed atoms: 0
 Gradient time:  CPU 403.23 s  wall 36.14 s
 Geometry Optimization Parameters
   NAtoms,    NIC,     NZ,  NCons,   NDum,   NFix, NCnnct, MaxDiis
       19     122       0       0       0       0       0       0


** GEOMETRY OPTIMIZATION IN DELOCALIZED INTERNAL COORDINATES **
   Searching for a Minimum

   Optimization Cycle:   1

                       Coordinates (Angstroms)
     ATOM                X               Y               Z
      1  C         2.2603454155   -0.2506522821   -1.0719215177
      2  O         2.3161506162   -1.4413924916   -1.2987790099
      3  C         2.5527996776    0.2681338074    0.3451342044
      4  O         2.2214861235   -0.4215639394    1.2902209227
      5  C         3.2915044544    1.5733267162    0.4632414047
      6  C         4.7128022948    1.3714586534   -0.0649761664
      7  O         4.5563233454    0.9981167064   -1.4422957780
      8  O         5.6133472174    0.1017321562   -1.8058674600
      9  C         5.5707341865    2.6285812128    0.0371476665
     10  O         5.7108828250    2.8929134011    1.4132998174
     11  O         6.8129083128    2.4639741015   -0.6038066697
     12  H         1.9779751633    0.4890990715   -1.8380712938
     13  H         3.3179668612    1.8849777799    1.5086006018
     14  H         2.7883456139    2.3419108213   -0.1368426026
     15  H         5.2077720906    0.5504488038    0.4666062382
     16  H         5.1666854774   -0.7612838737   -1.6984054797
     17  H         5.0845765030    3.4602861366   -0.4850401751
     18  H         6.1420917782    3.7597814528    1.4960618668
     19  H         7.2413096433    1.6863376660   -0.2045934697
   Point Group: c1    Number of degrees of freedom:    51


   Energy is   -646.618874261


 Attempting to generate delocalized internal coordinates
 Initial Hessian constructed with Jon Baker's OPTIMIZE code

 51 Hessian modes will be used to form the next step
  Hessian Eigenvalues:
     0.004269    0.004313    0.004765    0.005256    0.005819    0.007065
     0.008599    0.010939    0.014548    0.014660    0.043091    0.047773
     0.051237    0.056786    0.058582    0.062638    0.075596    0.087653
     0.092397    0.123665    0.160000    0.160000    0.160000    0.160000
     0.166044    0.184177    0.194041    0.207662    0.219623    0.220012
     0.249726    0.250000    0.250000    0.287762    0.294551    0.298527
     0.319220    0.334845    0.339864    0.341070    0.341517    0.346804
     0.401984    0.405860    0.442723    0.444079    0.518387    0.526769
     0.530259    0.971806    0.983490

 Minimum search - taking simple RFO step
 Searching for Lamda that Minimizes Along All modes
 Value Taken    Lamda =  -0.00149955
 Step Taken.  Stepsize is  0.217376

                             Maximum     Tolerance    Cnvgd?
         Gradient           0.010269      0.000300      NO
         Displacement       0.075933      0.001200      NO
         Energy change     *********      0.000001      NO


 New Cartesian Coordinates Obtained by Inverse Iteration

 Displacement from previous Coordinates is:  0.294572
 ----------------------------------------------------------------
             Standard Nuclear Orientation (Angstroms)
    I     Atom           X                Y                Z
 ----------------------------------------------------------------
    1      C       2.2128646855    -0.2370273031    -1.0628039123
    2      O       2.3238238647    -1.4073137856    -1.3379521731
    3      C       2.5733165504     0.2587263252     0.3459223251
    4      O       2.2229464679    -0.4044396459     1.2957058361
    5      C       3.3088930166     1.5598016746     0.4517961319
    6      C       4.7300097501     1.3611727402    -0.0665694490
    7      O       4.5799082954     0.9753662937    -1.4391239726
    8      O       5.6149714908     0.0583278570    -1.7985719791
    9      C       5.5669012220     2.6300539050     0.0384230579
   10      O       5.7023896781     2.9037004336     1.4124327899
   11      O       6.8189004829     2.4865425379    -0.5870895388
   12      H       1.9158119907     0.5156617333    -1.8024767390
   13      H       3.3293885352     1.8804743192     1.4889918400
   14      H       2.8042710311     2.3144620808    -0.1558658308
   15      H       5.2271049118     0.5520819704     0.4726570233
   16      H       5.1655897337    -0.7976466323    -1.7104375423
   17      H       5.0715215815     3.4531586214    -0.4790720351
   18      H       6.1096243646     3.7731797368     1.5090406057
   19      H       7.2677699470     1.7199030379    -0.2052933377
 ----------------------------------------------------------------
 Nuclear Repulsion Energy =         663.18875637 hartrees
 There are       43 alpha and       43 beta electrons
 Discretize the solute cavity surface with Lebedev spheres
	Using 110 Lebedev grid points for each H atom
	Using 194 Lebedev grid points for other atoms
	Atomic van der Waals radii will be scaled by 1.20
 Remove points where switching function is < 1.0e-08
 Keep 1542 surface tesserae and discard 1472 interior tesserae
 Molecular Surface Area = 175.236 Angst**2
 Applying Cartesian multipole field
    Component          Value
    ---------          -----
     (2,0,0)        1.00000E-12
     (0,2,0)        2.00000E-11
     (0,0,2)       -3.00000E-11
 Nucleus-field energy     =     0.0000000125 hartrees
 Requested basis set is 6-311++G(2df,2p)
 There are 136 shells and 454 basis functions
 A cutoff of  1.0D-12 yielded   8041 shell pairs
 There are     88461 function pairs (    110160 Cartesian)
 Smallest overlap matrix eigenvalue = 6.76E-06
 Guess MOs from SCF MO coefficient file

 -----------------------------------------------------------------------
  General SCF calculation program by
  Eric Jon Sundstrom, Paul Horn, Yuezhi Mao, Dmitri Zuev, Alec White,
  David Stuck, Shaama M.S., Shane Yost, Joonho Lee, David Small,
  Daniel Levine, Susi Lehtola, Hugh Burton, Evgeny Epifanovsky,
  Bang C. Huynh
 -----------------------------------------------------------------------
 Exchange:     0.1500 Hartree-Fock + 1.0000 wB97M-V + LR-HF
 Correlation:  1.0000 wB97M-V
 Using SG-2 standard quadrature grid
 Nonlocal Correlation:  VV10 with C = 0.0100 and b = 6.00 and scale = 1.00000
 Grid used for NLC:  SG-1 standard quadrature
 
 Citation of the SMD model:
 Marenich, A.V.; Cramer, C.J.; Truhlar, D.G.
 J. Phys. Chem. B 2009, 113, 6378-6396.
 iSolventCode=           1
 Solvent: water                                                           
 
 vradii
            1           2           3           4           5           6
    1   1.8500000   1.5200000   1.8500000   1.5200000   1.8500000   1.8500000
            7           8           9          10          11          12
    1   1.5200000   1.5200000   1.8500000   1.5200000   1.5200000   1.2000000
           13          14          15          16          17          18
    1   1.2000000   1.2000000   1.2000000   1.2000000   1.2000000   1.2000000
           19
    1   1.2000000
 -------------------------------------------------------
 OpenMP BLAS3 based DFT computing Module                
 Release: version 1.0, May 2013, Q-Chem Inc. Pittsburgh 
 -------------------------------------------------------
 A restricted SCF calculation will be
 performed using Roothaan-Hall, DIIS, GDM
 SCF converges when RMS gradient is below 1.0e-07
 ---------------------------------------
  Cycle       Energy         DIIS error
 ---------------------------------------
    1    -646.5676682266      5.98e-04  Roothaan Step
 ---------------------------------------
  Cycle       Energy         DIIS error
 ---------------------------------------
    1    -646.6135921797      6.55e-04  
    2    -646.6167564359      7.89e-04  Done DIIS. Switching to GDM
 ---------------------------------------
  Cycle       Energy        RMS Gradient
 ---------------------------------------
    1    -646.6167564359      2.92e-02   Normal BFGS step
    2    -646.6087348636      4.81e-02  Line search: overstep
    3    -646.6272712965      2.15e-03   Normal BFGS step
    4    -646.6277238051      1.41e-03   Normal BFGS step
    5    -646.6277701368      1.45e-03   Normal BFGS step
    6    -646.6277895851      2.31e-04   Normal BFGS step
    7    -646.6277903943      1.63e-04   Normal BFGS step
    8    -646.6277908220      8.90e-05   Normal BFGS step
    9    -646.6277908880      2.80e-05   Normal BFGS step
   10    -646.6277909098      1.12e-05   Normal BFGS step
   11    -646.6277909119      4.34e-06   Normal BFGS step
   12    -646.6277909126      1.77e-06   Normal BFGS step
   13    -646.6277909127      7.61e-07   Normal BFGS step
   14    -646.6277909127      4.76e-07   Normal BFGS step
   15    -646.6277909127      3.31e-07   Normal BFGS step
   16    -646.6277909127      1.78e-07   Normal BFGS step
  GDM::WARNING energy changes are now smaller than effective accuracy.
  GDM::        calculation will continue, but THRESH should be increased
  GDM::        or SCF_CONVERGENCE decreased. 
  GDM::        effective_thresh = 4.17e-09
   17    -646.6277909126      7.23e-08  Convergence criterion met
 ---------------------------------------
 SCF time:   CPU 2320.13s  wall 163.00s 
(3)  G-ENP(liq) elect-nuc-pol free energy of system     -646.627790913 a.u.
(4)  G-CDS(liq) cavity-dispersion-solvent structure 
     free energy                                                5.4775 kcal/mol
(6)  G-S(liq) free energy of system                     -646.619061998 a.u.
 SCF   energy in the final basis set =     -646.6190619979
 Total energy in the final basis set =     -646.6190619979
 
 --------------------------------------------------------------
 
                    Orbital Energies (a.u.)
 --------------------------------------------------------------
 
 Alpha MOs
 -- Occupied --
-19.4101 -19.3995 -19.3624 -19.3595 -19.3482 -19.3468 -10.4595 -10.4532
-10.4485 -10.4131 -10.3584  -1.2743  -1.2205  -1.2044  -1.1947  -1.1364
 -1.0605  -0.9194  -0.8477  -0.7874  -0.7378  -0.6861  -0.6741  -0.6491
 -0.6390  -0.6117  -0.5974  -0.5838  -0.5773  -0.5673  -0.5541  -0.5403
 -0.5248  -0.5110  -0.5011  -0.4667  -0.4581  -0.4381  -0.4335  -0.4204
 -0.4082  -0.3912  -0.3610
 -- Virtual --
 -0.0033   0.0276   0.0360   0.0382   0.0477   0.0631   0.0649   0.0686
  0.0770   0.0809   0.0979   0.1017   0.1102   0.1196   0.1234   0.1306
  0.1336   0.1394   0.1495   0.1532   0.1605   0.1660   0.1717   0.1735
  0.1768   0.1847   0.1897   0.1916   0.2041   0.2191   0.2283   0.2344
  0.2421   0.2543   0.2601   0.2665   0.2743   0.2782   0.2890   0.2977
  0.3005   0.3082   0.3128   0.3194   0.3254   0.3301   0.3369   0.3386
  0.3471   0.3534   0.3586   0.3642   0.3670   0.3713   0.3777   0.3834
  0.3880   0.3922   0.3951   0.4085   0.4108   0.4142   0.4342   0.4396
  0.4456   0.4517   0.4580   0.4661   0.4841   0.4954   0.5119   0.5466
  0.5645   0.5749   0.5843   0.6172   0.6223   0.6278   0.6500   0.6549
  0.6575   0.6689   0.6757   0.6844   0.6907   0.7037   0.7061   0.7157
  0.7247   0.7326   0.7448   0.7544   0.7672   0.7818   0.7918   0.7972
  0.8201   0.8307   0.8661   0.8752   0.8886   0.8946   0.9112   0.9442
  0.9483   0.9808   0.9913   1.0030   1.0146   1.0283   1.0465   1.0646
  1.0812   1.0882   1.1048   1.1175   1.1231   1.1427   1.1529   1.1585
  1.1712   1.1777   1.1871   1.1965   1.2023   1.2072   1.2133   1.2253
  1.2336   1.2398   1.2476   1.2545   1.2625   1.2679   1.2945   1.3012
  1.3052   1.3251   1.3465   1.3569   1.3630   1.3711   1.3889   1.3926
  1.4048   1.4325   1.4528   1.4636   1.4762   1.4898   1.5056   1.5197
  1.5283   1.5362   1.5532   1.5677   1.5829   1.5903   1.6095   1.6258
  1.6306   1.6420   1.6678   1.6869   1.7038   1.7223   1.7272   1.7470
  1.7718   1.7875   1.8095   1.8327   1.8541   1.8569   1.8959   1.9065
  1.9159   1.9289   1.9652   2.0057   2.0199   2.0520   2.0688   2.0805
  2.1207   2.1490   2.1825   2.2093   2.2320   2.2922   2.3296   2.3413
  2.3551   2.3870   2.3995   2.4107   2.4432   2.4575   2.4832   2.5402
  2.5562   2.5886   2.6429   2.6887   2.7096   2.7491   2.7743   2.8017
  2.8170   2.8343   2.8497   2.8668   2.8714   2.9245   2.9327   2.9459
  2.9565   2.9985   3.0179   3.0316   3.0569   3.0706   3.0983   3.1137
  3.1170   3.1501   3.1636   3.2004   3.2017   3.2331   3.2655   3.2899
  3.3200   3.3393   3.3647   3.3920   3.4116   3.4318   3.4349   3.4581
  3.4705   3.4859   3.5036   3.5243   3.5444   3.5615   3.5976   3.6097
  3.6175   3.6378   3.6442   3.6692   3.6764   3.6823   3.7318   3.7439
  3.7559   3.7793   3.7942   3.7993   3.8314   3.8454   3.8579   3.8694
  3.8953   3.9147   3.9211   3.9351   3.9611   3.9710   3.9862   4.0321
  4.0562   4.0657   4.0742   4.1112   4.1377   4.1668   4.1897   4.2165
  4.2220   4.2439   4.2701   4.2753   4.2987   4.3232   4.3443   4.3507
  4.3839   4.3945   4.4215   4.4514   4.5182   4.5236   4.5604   4.5751
  4.6029   4.6082   4.6618   4.6917   4.7314   4.7640   4.7920   4.7986
  4.8165   4.8984   4.9844   5.0138   5.0700   5.1292   5.1528   5.1622
  5.1780   5.1910   5.2022   5.2210   5.2387   5.2547   5.2650   5.2797
  5.2950   5.3154   5.3215   5.3462   5.3536   5.3772   5.3969   5.4003
  5.4444   5.4602   5.4864   5.4975   5.5082   5.5268   5.5315   5.5465
  5.5760   5.5826   5.6068   5.6143   5.6182   5.6320   5.6470   5.6704
  5.6904   5.6998   5.7714   5.7820   5.8151   5.8361   5.8986   5.9367
  6.0245   6.0877   6.1083   6.1470   6.2499   6.3502   6.4096   6.5346
  6.5651   6.6359   6.7609   6.8542   6.8890   6.9397   6.9665   6.9919
  6.9970   7.0194   7.0502   7.0776   7.1109   7.1438   7.1768   7.2196
  7.2568   7.2703   7.2930   7.3131   7.3207   7.3435   7.3698   7.3831
  7.4013   7.4297   7.4746   7.5087   7.5422   7.5762   7.6250   7.6594
  7.6950   7.7363   7.7760   7.8008   7.8542   7.8904   7.9705   8.1801
 24.6163  24.7755  24.8384  24.9058  25.0288  50.5029  50.5708  50.6203
 50.6342  50.7010  50.7401
 --------------------------------------------------------------
 
          Ground-State Mulliken Net Atomic Charges

     Atom                 Charge (a.u.)
  ----------------------------------------
      1 C                    -0.101620
      2 O                    -0.335226
      3 C                     0.505818
      4 O                    -0.417948
      5 C                    -0.486144
      6 C                    -0.029078
      7 O                    -0.029445
      8 O                    -0.356241
      9 C                    -0.308475
     10 O                    -0.415877
     11 O                    -0.450860
     12 H                     0.260883
     13 H                     0.221700
     14 H                     0.273478
     15 H                     0.334340
     16 H                     0.350853
     17 H                     0.296823
     18 H                     0.342636
     19 H                     0.344383
  ----------------------------------------
  Sum of atomic charges =     0.000000

 -----------------------------------------------------------------
                    Cartesian Multipole Moments
 -----------------------------------------------------------------
    Charge (ESU x 10^10)
                 0.0000
    Dipole Moment (Debye)
         X       0.4909      Y       4.6193      Z       0.5459
       Tot       4.6772
    Quadrupole Moments (Debye-Ang)
        XX     -62.2313     XY       6.8474     YY     -57.0788
        XZ      12.6568     YZ       5.2296     ZZ     -75.5123
    Octopole Moments (Debye-Ang^2)
       XXX    -807.6342    XXY     -74.0500    XYY    -226.8160
       YYY    -125.7528    XXZ     117.1457    XYZ      45.1786
       YYZ      37.7117    XZZ    -320.2867    YZZ     -65.8277
       ZZZ      50.4579
    Hexadecapole Moments (Debye-Ang^3)
      XXXX   -7876.7311   XXXY   -1324.2541   XXYY   -1289.8819
      XYYY    -802.2576   YYYY    -896.4325   XXXZ     932.9770
      XXYZ     299.3444   XYYZ     213.5020   YYYZ      11.0321
      XXZZ   -1658.9472   XYZZ    -410.6524   YYZZ    -281.0605
      XZZZ     256.8510   YZZZ     -59.0218   ZZZZ    -568.3593
 -----------------------------------------------------------------
 Calculating analytic gradient of the SCF energy
 Gradient of CDS energy
            1           2           3           4           5           6
    1  -0.0006597  -0.0001989  -0.0005154   0.0004705  -0.0000654   0.0000076
    2  -0.0018741   0.0012473  -0.0010796   0.0008932   0.0002506   0.0000834
    3  -0.0012086   0.0003662   0.0018874  -0.0010516   0.0001476  -0.0000877
            7           8           9          10          11          12
    1   0.0000549  -0.0000923   0.0023606  -0.0002121  -0.0023335   0.0002220
    2  -0.0000250   0.0003215   0.0005039  -0.0006483   0.0001194   0.0002718
    3   0.0000910   0.0000319   0.0008655  -0.0021773   0.0010517   0.0000241
           13          14          15          16          17          18
    1   0.0000928  -0.0000131   0.0000917   0.0003132  -0.0001437   0.0001288
    2   0.0000562   0.0000848  -0.0000769  -0.0003557   0.0000104   0.0003256
    3   0.0001317  -0.0002052   0.0000466  -0.0001815  -0.0001664   0.0003816
           19
    1   0.0004921
    2  -0.0001086
    3   0.0000530
 Gradient of SCF Energy
            1           2           3           4           5           6
    1  -0.0070640   0.0004763   0.0085049  -0.0045333   0.0118627  -0.0122997
    2  -0.0026624  -0.0072666   0.0090812  -0.0061996  -0.0213595   0.0120680
    3   0.0067717   0.0004790  -0.0075301   0.0058402   0.0030517  -0.0096874
            7           8           9          10          11          12
    1   0.0005713   0.0084337   0.0080823  -0.0058417  -0.0027641  -0.0001116
    2   0.0026541   0.0131768  -0.0103272  -0.0141571   0.0089507   0.0093570
    3   0.0005336  -0.0053960   0.0079944   0.0008671  -0.0104037  -0.0075117
           13          14          15          16          17          18
    1  -0.0005789  -0.0069323   0.0061658  -0.0064074  -0.0075627   0.0055659
    2   0.0037000   0.0105524  -0.0095205  -0.0126605   0.0090142   0.0151188
    3   0.0077648  -0.0092625   0.0061944   0.0041625  -0.0028466   0.0013159
           19
    1   0.0044330
    2  -0.0095198
    3   0.0076630
 Max gradient component =       2.136E-02
 RMS gradient           =       8.200E-03
 Computing fast CPCM-SWIG gradient
 Updating gradient with PCM contributions...
 -- total gradient after adding PCM contribution --
---------------------------------------------------
  Atom         X              Y              Z     
---------------------------------------------------
   1      -0.011543       0.002084       0.001772
   2       0.003515      -0.000722      -0.000836
   3       0.009728      -0.002992      -0.001174
   4      -0.002301       0.001219       0.000152
   5      -0.002789       0.001365       0.000125
   6       0.000039       0.000259       0.000451
   7      -0.001903       0.000831       0.000115
   8       0.001300      -0.001411      -0.000603
   9      -0.000561      -0.000015       0.000134
  10      -0.000118      -0.000227      -0.000404
  11      -0.000142       0.000565       0.000178
  12       0.003208      -0.000507      -0.000623
  13       0.000254       0.000072      -0.000078
  14       0.000086       0.000284       0.000275
  15      -0.000137      -0.000278       0.000109
  16       0.000443      -0.000793      -0.000383
  17      -0.000289       0.000155       0.000136
  18       0.000552       0.000563       0.000286
  19       0.000658      -0.000453       0.000366
---------------------------------------------------
 Number of fixed atoms: 0
 Gradient time:  CPU 402.30 s  wall 33.62 s
 Geometry Optimization Parameters
   NAtoms,    NIC,     NZ,  NCons,   NDum,   NFix, NCnnct, MaxDiis
       19     122       0       0       0       0       0       0

 Cartesian Hessian Update
 Hessian updated using BFGS update


** GEOMETRY OPTIMIZATION IN DELOCALIZED INTERNAL COORDINATES **
   Searching for a Minimum

   Optimization Cycle:   2

                       Coordinates (Angstroms)
     ATOM                X               Y               Z
      1  C         2.2128646855   -0.2370273031   -1.0628039123
      2  O         2.3238238647   -1.4073137856   -1.3379521731
      3  C         2.5733165504    0.2587263252    0.3459223251
      4  O         2.2229464679   -0.4044396459    1.2957058361
      5  C         3.3088930166    1.5598016746    0.4517961319
      6  C         4.7300097501    1.3611727402   -0.0665694490
      7  O         4.5799082954    0.9753662937   -1.4391239726
      8  O         5.6149714908    0.0583278570   -1.7985719791
      9  C         5.5669012220    2.6300539050    0.0384230579
     10  O         5.7023896781    2.9037004336    1.4124327899
     11  O         6.8189004829    2.4865425379   -0.5870895388
     12  H         1.9158119907    0.5156617333   -1.8024767390
     13  H         3.3293885352    1.8804743192    1.4889918400
     14  H         2.8042710311    2.3144620808   -0.1558658308
     15  H         5.2271049118    0.5520819704    0.4726570233
     16  H         5.1655897337   -0.7976466323   -1.7104375423
     17  H         5.0715215815    3.4531586214   -0.4790720351
     18  H         6.1096243646    3.7731797368    1.5090406057
     19  H         7.2677699470    1.7199030379   -0.2052933377
   Point Group: c1    Number of degrees of freedom:    51


   Energy is   -646.619061998

 Hessian updated using BFGS update

 49 Hessian modes will be used to form the next step
  Hessian Eigenvalues:
     0.003596    0.004753    0.005248    0.005381    0.005825    0.008394
     0.010469    0.014338    0.014601    0.018572    0.043230    0.047635
     0.051047    0.056781    0.058962    0.062649    0.075826    0.087251
     0.092374    0.123876    0.150948    0.162150    0.166608    0.184888
     0.193970    0.206543    0.214865    0.219857    0.247749    0.249762
     0.252689    0.286304    0.291238    0.297646    0.311195    0.326837
     0.336861    0.340426    0.341297    0.345477    0.396722    0.403048
     0.442586    0.443929    0.483278    0.522026    0.528693    0.907705
     0.977541

 Minimum search - taking simple RFO step
 Searching for Lamda that Minimizes Along All modes
 Value Taken    Lamda =  -0.00286922
 Calculated Step too Large.  Step scaled by  0.650112
 Step Taken.  Stepsize is  0.300000

                             Maximum     Tolerance    Cnvgd?
         Gradient           0.003447      0.000300      NO
         Displacement       0.155340      0.001200      NO
         Energy change     -0.000188      0.000001      NO


 New Cartesian Coordinates Obtained by Inverse Iteration

 Displacement from previous Coordinates is:  0.363937
 ----------------------------------------------------------------
             Standard Nuclear Orientation (Angstroms)
    I     Atom           X                Y                Z
 ----------------------------------------------------------------
    1      C       2.2391363236    -0.2387611712    -1.0791916277
    2      O       2.2430067687    -1.4153680390    -1.3164791796
    3      C       2.5868639943     0.2666196233     0.3279029696
    4      O       2.2412839169    -0.3899858203     1.2758926156
    5      C       3.3274754863     1.5578144490     0.4305607962
    6      C       4.7497225597     1.3592753288    -0.0720288186
    7      O       4.6106699647     0.9741345956    -1.4430508604
    8      O       5.6195641078     0.0366722542    -1.8009447504
    9      C       5.5709178773     2.6342862090     0.0479409380
   10      O       5.6985076491     2.9062421984     1.4221815964
   11      O       6.8328511590     2.5099015866    -0.5598723368
   12      H       1.7975290363     0.4845435594    -1.7659398054
   13      H       3.3362574909     1.8836814664     1.4602206800
   14      H       2.8288812455     2.3020030902    -0.1854335567
   15      H       5.2429344112     0.5561791029     0.4702335097
   16      H       5.1683939753    -0.8102976824    -1.7204602544
   17      H       5.0725910887     3.4546539501    -0.4601633421
   18      H       6.0829385283     3.7748579184     1.5407339764
   19      H       7.2964820164     1.7497332808    -0.2023894502
 ----------------------------------------------------------------
 Nuclear Repulsion Energy =         663.28454653 hartrees
 There are       43 alpha and       43 beta electrons
 Discretize the solute cavity surface with Lebedev spheres
	Using 110 Lebedev grid points for each H atom
	Using 194 Lebedev grid points for other atoms
	Atomic van der Waals radii will be scaled by 1.20
 Remove points where switching function is < 1.0e-08
 Keep 1537 surface tesserae and discard 1477 interior tesserae
 Molecular Surface Area = 174.903 Angst**2
 Applying Cartesian multipole field
    Component          Value
    ---------          -----
     (2,0,0)        1.00000E-12
     (0,2,0)        2.00000E-11
     (0,0,2)       -3.00000E-11
 Nucleus-field energy     =     0.0000000127 hartrees
 Requested basis set is 6-311++G(2df,2p)
 There are 136 shells and 454 basis functions
 A cutoff of  1.0D-12 yielded   8028 shell pairs
 There are     88332 function pairs (    110014 Cartesian)
 Smallest overlap matrix eigenvalue = 6.88E-06
 Guess MOs from SCF MO coefficient file

 -----------------------------------------------------------------------
  General SCF calculation program by
  Eric Jon Sundstrom, Paul Horn, Yuezhi Mao, Dmitri Zuev, Alec White,
  David Stuck, Shaama M.S., Shane Yost, Joonho Lee, David Small,
  Daniel Levine, Susi Lehtola, Hugh Burton, Evgeny Epifanovsky,
  Bang C. Huynh
 -----------------------------------------------------------------------
 Exchange:     0.1500 Hartree-Fock + 1.0000 wB97M-V + LR-HF
 Correlation:  1.0000 wB97M-V
 Using SG-2 standard quadrature grid
 Nonlocal Correlation:  VV10 with C = 0.0100 and b = 6.00 and scale = 1.00000
 Grid used for NLC:  SG-1 standard quadrature
 
 Citation of the SMD model:
 Marenich, A.V.; Cramer, C.J.; Truhlar, D.G.
 J. Phys. Chem. B 2009, 113, 6378-6396.
 iSolventCode=           1
 Solvent: water                                                           
 
 vradii
            1           2           3           4           5           6
    1   1.8500000   1.5200000   1.8500000   1.5200000   1.8500000   1.8500000
            7           8           9          10          11          12
    1   1.5200000   1.5200000   1.8500000   1.5200000   1.5200000   1.2000000
           13          14          15          16          17          18
    1   1.2000000   1.2000000   1.2000000   1.2000000   1.2000000   1.2000000
           19
    1   1.2000000
 -------------------------------------------------------
 OpenMP BLAS3 based DFT computing Module                
 Release: version 1.0, May 2013, Q-Chem Inc. Pittsburgh 
 -------------------------------------------------------
 A restricted SCF calculation will be
 performed using Roothaan-Hall, DIIS, GDM
 SCF converges when RMS gradient is below 1.0e-07
 ---------------------------------------
  Cycle       Energy         DIIS error
 ---------------------------------------
    1    -646.5621099943      6.77e-04  Roothaan Step
 ---------------------------------------
  Cycle       Energy         DIIS error
 ---------------------------------------
    1    -646.6116960814      6.49e-04  
    2    -646.6153135195      7.76e-04  Done DIIS. Switching to GDM
 ---------------------------------------
  Cycle       Energy        RMS Gradient
 ---------------------------------------
    1    -646.6153135195      3.41e-02   Normal BFGS step
    2    -646.6078469582      4.97e-02  Line search: overstep
    3    -646.6254986324      4.41e-03   Normal BFGS step
    4    -646.6259798435      2.87e-03   Normal BFGS step
    5    -646.6260431228      1.40e-03   Normal BFGS step
    6    -646.6260674054      9.26e-04   Normal BFGS step
    7    -646.6260706968      5.28e-04   Normal BFGS step
    8    -646.6260721135      1.49e-04   Normal BFGS step
    9    -646.6260723613      3.26e-05   Normal BFGS step
   10    -646.6260724209      1.23e-05   Normal BFGS step
   11    -646.6260724260      6.22e-06   Normal BFGS step
   12    -646.6260724277      3.47e-06   Normal BFGS step
   13    -646.6260724279      1.72e-06   Normal BFGS step
   14    -646.6260724280      9.43e-07   Normal BFGS step
   15    -646.6260724280      3.38e-07   Normal BFGS step
   16    -646.6260724280      1.07e-07   Normal BFGS step
   17    -646.6260724280      4.13e-08  Convergence criterion met
 ---------------------------------------
 SCF time:   CPU 2411.12s  wall 178.00s 
(3)  G-ENP(liq) elect-nuc-pol free energy of system     -646.626072428 a.u.
(4)  G-CDS(liq) cavity-dispersion-solvent structure 
     free energy                                                5.4625 kcal/mol
(6)  G-S(liq) free energy of system                     -646.617367311 a.u.
 SCF   energy in the final basis set =     -646.6173673108
 Total energy in the final basis set =     -646.6173673108
 
 --------------------------------------------------------------
 
                    Orbital Energies (a.u.)
 --------------------------------------------------------------
 
 Alpha MOs
 -- Occupied --
-19.4109 -19.3991 -19.3613 -19.3592 -19.3466 -19.3455 -10.4570 -10.4509
-10.4483 -10.4125 -10.3549  -1.2775  -1.2241  -1.2052  -1.1977  -1.1369
 -1.0626  -0.9209  -0.8492  -0.7884  -0.7401  -0.6892  -0.6746  -0.6520
 -0.6401  -0.6138  -0.5991  -0.5851  -0.5786  -0.5690  -0.5559  -0.5384
 -0.5248  -0.5122  -0.5030  -0.4677  -0.4572  -0.4378  -0.4331  -0.4201
 -0.4078  -0.3918  -0.3598
 -- Virtual --
 -0.0023   0.0278   0.0359   0.0385   0.0481   0.0625   0.0648   0.0689
  0.0774   0.0829   0.0985   0.1020   0.1117   0.1195   0.1237   0.1304
  0.1330   0.1403   0.1502   0.1524   0.1601   0.1658   0.1706   0.1732
  0.1766   0.1849   0.1897   0.1938   0.2040   0.2197   0.2294   0.2358
  0.2421   0.2551   0.2595   0.2677   0.2744   0.2787   0.2903   0.2987
  0.3025   0.3096   0.3112   0.3218   0.3297   0.3315   0.3382   0.3454
  0.3494   0.3543   0.3584   0.3656   0.3671   0.3727   0.3762   0.3849
  0.3879   0.3942   0.3959   0.4072   0.4124   0.4173   0.4331   0.4383
  0.4456   0.4531   0.4567   0.4644   0.4831   0.4952   0.5137   0.5550
  0.5659   0.5771   0.5880   0.6198   0.6203   0.6284   0.6445   0.6541
  0.6569   0.6657   0.6740   0.6860   0.6938   0.7038   0.7095   0.7197
  0.7288   0.7314   0.7502   0.7559   0.7682   0.7833   0.7924   0.8007
  0.8232   0.8423   0.8751   0.8824   0.8893   0.8962   0.9076   0.9463
  0.9528   0.9779   0.9857   1.0042   1.0115   1.0344   1.0466   1.0613
  1.0775   1.0896   1.1100   1.1116   1.1278   1.1467   1.1524   1.1598
  1.1742   1.1820   1.1854   1.1961   1.2013   1.2068   1.2159   1.2217
  1.2337   1.2415   1.2508   1.2585   1.2614   1.2667   1.2936   1.3009
  1.3085   1.3276   1.3431   1.3567   1.3640   1.3724   1.3905   1.3925
  1.4036   1.4331   1.4544   1.4705   1.4731   1.4935   1.5033   1.5246
  1.5277   1.5441   1.5594   1.5732   1.5876   1.5982   1.6135   1.6310
  1.6331   1.6444   1.6666   1.6928   1.7031   1.7250   1.7333   1.7464
  1.7699   1.7891   1.8123   1.8345   1.8509   1.8592   1.8958   1.9055
  1.9150   1.9255   1.9655   2.0032   2.0257   2.0475   2.0704   2.0759
  2.1222   2.1317   2.1887   2.2112   2.2520   2.2927   2.3349   2.3481
  2.3557   2.3940   2.3952   2.4057   2.4498   2.4595   2.4853   2.5450
  2.5539   2.5982   2.6615   2.6818   2.7036   2.7441   2.7737   2.7900
  2.8206   2.8312   2.8577   2.8699   2.8849   2.9010   2.9342   2.9471
  2.9620   3.0021   3.0241   3.0301   3.0551   3.0669   3.0802   3.1110
  3.1253   3.1570   3.1721   3.2096   3.2257   3.2532   3.2777   3.2926
  3.3188   3.3426   3.3680   3.3887   3.4182   3.4213   3.4366   3.4627
  3.4851   3.4889   3.4993   3.5204   3.5297   3.5672   3.5981   3.6120
  3.6252   3.6351   3.6627   3.6708   3.6776   3.6882   3.7322   3.7414
  3.7632   3.7853   3.7949   3.7964   3.8419   3.8494   3.8640   3.8732
  3.8982   3.9163   3.9269   3.9391   3.9604   3.9760   3.9863   4.0320
  4.0604   4.0787   4.0867   4.1132   4.1377   4.1722   4.1947   4.2349
  4.2418   4.2584   4.2745   4.2903   4.3089   4.3342   4.3550   4.3758
  4.3929   4.4172   4.4285   4.4607   4.5267   4.5318   4.5712   4.5858
  4.6083   4.6259   4.6749   4.7001   4.7397   4.7720   4.7976   4.8048
  4.8226   4.9099   4.9882   5.0145   5.0719   5.1267   5.1577   5.1621
  5.1784   5.1961   5.2048   5.2229   5.2298   5.2547   5.2681   5.2844
  5.2949   5.3161   5.3213   5.3507   5.3590   5.3855   5.4012   5.4125
  5.4444   5.4762   5.4902   5.4949   5.5097   5.5186   5.5305   5.5565
  5.5692   5.5948   5.6134   5.6246   5.6328   5.6471   5.6672   5.6846
  5.7035   5.7124   5.7813   5.8030   5.8272   5.8568   5.9132   5.9434
  6.0494   6.1102   6.1220   6.1467   6.2726   6.3897   6.4254   6.5405
  6.5683   6.6427   6.7684   6.8742   6.9263   6.9410   6.9727   6.9982
  7.0019   7.0189   7.0518   7.0780   7.1154   7.1548   7.1893   7.2387
  7.2708   7.2838   7.3164   7.3294   7.3407   7.3471   7.3724   7.3954
  7.4108   7.4323   7.4787   7.5113   7.5462   7.5818   7.6350   7.6681
  7.7057   7.7345   7.7863   7.8075   7.8614   7.8924   7.9779   8.1752
 24.6308  24.7957  24.8529  24.9240  25.0576  50.5045  50.5729  50.6255
 50.6375  50.7072  50.7530
 --------------------------------------------------------------
 
          Ground-State Mulliken Net Atomic Charges

     Atom                 Charge (a.u.)
  ----------------------------------------
      1 C                    -0.104696
      2 O                    -0.340962
      3 C                     0.480700
      4 O                    -0.418237
      5 C                    -0.459302
      6 C                    -0.021575
      7 O                    -0.016095
      8 O                    -0.362853
      9 C                    -0.306352
     10 O                    -0.415920
     11 O                    -0.456207
     12 H                     0.255270
     13 H                     0.219808
     14 H                     0.273305
     15 H                     0.335514
     16 H                     0.350753
     17 H                     0.301038
     18 H                     0.341315
     19 H                     0.344496
  ----------------------------------------
  Sum of atomic charges =     0.000000

 -----------------------------------------------------------------
                    Cartesian Multipole Moments
 -----------------------------------------------------------------
    Charge (ESU x 10^10)
                -0.0000
    Dipole Moment (Debye)
         X       0.5722      Y       4.5414      Z       0.4760
       Tot       4.6020
    Quadrupole Moments (Debye-Ang)
        XX     -61.9589     XY       6.1702     YY     -57.2418
        XZ      12.1389     YZ       5.3086     ZZ     -75.0967
    Octopole Moments (Debye-Ang^2)
       XXX    -808.4317    XXY     -78.0523    XYY    -228.3224
       YYY    -126.5864    XXZ     114.5140    XYZ      45.9397
       YYZ      38.4465    XZZ    -318.8450    YZZ     -65.9487
       ZZZ      50.7168
    Hexadecapole Moments (Debye-Ang^3)
      XXXX   -7901.6002   XXXY   -1353.2622   XXYY   -1307.9054
      XYYY    -815.4255   YYYY    -902.9516   XXXZ     915.4022
      XXYZ     300.5409   XYYZ     214.8830   YYYZ      12.6440
      XXZZ   -1654.2835   XYZZ    -411.3733   YYZZ    -278.6830
      XZZZ     253.5700   YZZZ     -59.5711   ZZZZ    -563.1348
 -----------------------------------------------------------------
 Calculating analytic gradient of the SCF energy
 Gradient of CDS energy
            1           2           3           4           5           6
    1  -0.0007413  -0.0000739  -0.0004968   0.0004361  -0.0000632   0.0000064
    2  -0.0018199   0.0011953  -0.0010151   0.0008379   0.0002508   0.0000818
    3  -0.0011276   0.0003030   0.0017961  -0.0009811   0.0001436  -0.0000865
            7           8           9          10          11          12
    1   0.0000740  -0.0000880   0.0025480  -0.0002199  -0.0025023   0.0001639
    2  -0.0000275   0.0003241   0.0005342  -0.0006649   0.0001007   0.0002759
    3   0.0001071   0.0000317   0.0009667  -0.0023571   0.0011038   0.0000212
           13          14          15          16          17          18
    1   0.0000911  -0.0000144   0.0000897   0.0003245  -0.0001502   0.0001185
    2   0.0000552   0.0000775  -0.0000803  -0.0003651   0.0000176   0.0003257
    3   0.0001249  -0.0002060   0.0000462  -0.0001823  -0.0001374   0.0003867
           19
    1   0.0004978
    2  -0.0001038
    3   0.0000468
 Gradient of SCF Energy
            1           2           3           4           5           6
    1   0.0225702  -0.0095681  -0.0066751   0.0008784   0.0134411  -0.0109083
    2  -0.0052101   0.0036824   0.0059451  -0.0006166  -0.0217067   0.0113096
    3  -0.0067456   0.0064608   0.0009629  -0.0003729   0.0021118  -0.0106184
            7           8           9          10          11          12
    1   0.0041002   0.0007459   0.0021565  -0.0003329  -0.0005591  -0.0105648
    2   0.0026136   0.0077771  -0.0098682  -0.0050003   0.0022828   0.0034798
    3   0.0030011  -0.0043385   0.0053433  -0.0020747  -0.0029127  -0.0007744
           13          14          15          16          17          18
    1  -0.0009670  -0.0058967   0.0046446  -0.0018537  -0.0066866   0.0022215
    2   0.0017907   0.0069497  -0.0073590  -0.0075583   0.0069818   0.0082376
    3   0.0039443  -0.0074519   0.0048552   0.0026678  -0.0000704   0.0027813
           19
    1   0.0032538
    2  -0.0037312
    3   0.0032310
 Max gradient component =       2.257E-02
 RMS gradient           =       6.974E-03
 Computing fast CPCM-SWIG gradient
 Updating gradient with PCM contributions...
 -- total gradient after adding PCM contribution --
---------------------------------------------------
  Atom         X              Y              Z     
---------------------------------------------------
   1       0.015459      -0.001411      -0.010909
   2      -0.006440       0.010485       0.004876
   3      -0.005586      -0.006440       0.006754
   4       0.003277       0.006926      -0.006288
   5      -0.000889       0.001093      -0.000282
   6       0.001030      -0.000290      -0.000154
   7       0.001827       0.000503       0.002456
   8      -0.006949      -0.007188       0.000381
   9      -0.006101       0.000399      -0.002565
  10       0.004938       0.008877      -0.002789
  11       0.002315      -0.006315       0.007128
  12      -0.005163      -0.005854       0.005474
  13      -0.000000      -0.001753      -0.003718
  14       0.001056      -0.003032       0.002059
  15      -0.001580       0.001913      -0.001275
  16       0.005419       0.004810      -0.001688
  17       0.000682      -0.001877       0.002816
  18      -0.002441      -0.006331       0.001369
  19      -0.000853       0.005483      -0.003644
---------------------------------------------------
 Number of fixed atoms: 0
 Gradient time:  CPU 399.49 s  wall 34.30 s
 Geometry Optimization Parameters
   NAtoms,    NIC,     NZ,  NCons,   NDum,   NFix, NCnnct, MaxDiis
       19     122       0       0       0       0       0       0

 Cartesian Hessian Update
 Hessian updated using BFGS update


** GEOMETRY OPTIMIZATION IN DELOCALIZED INTERNAL COORDINATES **
   Searching for a Minimum

   Optimization Cycle:   3

                       Coordinates (Angstroms)
     ATOM                X               Y               Z
      1  C         2.2391363236   -0.2387611712   -1.0791916277
      2  O         2.2430067687   -1.4153680390   -1.3164791796
      3  C         2.5868639943    0.2666196233    0.3279029696
      4  O         2.2412839169   -0.3899858203    1.2758926156
      5  C         3.3274754863    1.5578144490    0.4305607962
      6  C         4.7497225597    1.3592753288   -0.0720288186
      7  O         4.6106699647    0.9741345956   -1.4430508604
      8  O         5.6195641078    0.0366722542   -1.8009447504
      9  C         5.5709178773    2.6342862090    0.0479409380
     10  O         5.6985076491    2.9062421984    1.4221815964
     11  O         6.8328511590    2.5099015866   -0.5598723368
     12  H         1.7975290363    0.4845435594   -1.7659398054
     13  H         3.3362574909    1.8836814664    1.4602206800
     14  H         2.8288812455    2.3020030902   -0.1854335567
     15  H         5.2429344112    0.5561791029    0.4702335097
     16  H         5.1683939753   -0.8102976824   -1.7204602544
     17  H         5.0725910887    3.4546539501   -0.4601633421
     18  H         6.0829385283    3.7748579184    1.5407339764
     19  H         7.2964820164    1.7497332808   -0.2023894502
   Point Group: c1    Number of degrees of freedom:    51


   Energy is   -646.617367311

 Hessian updated using BFGS update

 50 Hessian modes will be used to form the next step
  Hessian Eigenvalues:
     0.004296    0.004770    0.005247    0.005803    0.007173    0.008728
     0.010966    0.014418    0.014619    0.043123    0.047300    0.051041
     0.056779    0.058626    0.062633    0.068724    0.075726    0.087942
     0.092430    0.123723    0.156738    0.160006    0.161784    0.166553
     0.185936    0.194752    0.207054    0.213361    0.222713    0.249112
     0.250643    0.253203    0.288185    0.293075    0.297723    0.316844
     0.333184    0.336487    0.340407    0.341297    0.345824    0.392664
     0.402865    0.442672    0.443948    0.499107    0.522137    0.528773
     0.931322    0.977894

 Minimum search - taking simple RFO step
 Searching for Lamda that Minimizes Along All modes
 Value Taken    Lamda =  -0.00455107
 Step Taken.  Stepsize is  0.292047

                             Maximum     Tolerance    Cnvgd?
         Gradient           0.010338      0.000300      NO
         Displacement       0.087805      0.001200      NO
         Energy change      0.001695      0.000001      NO


 New Cartesian Coordinates Obtained by Inverse Iteration

 Displacement from previous Coordinates is:  0.610633
 ----------------------------------------------------------------
             Standard Nuclear Orientation (Angstroms)
    I     Atom           X                Y                Z
 ----------------------------------------------------------------
    1      C       2.2839953853    -0.2506628513    -1.0682649775
    2      O       2.4098625209    -1.4248725763    -1.3089996257
    3      C       2.5435898470     0.2896252864     0.3458093901
    4      O       2.2201436691    -0.3940391876     1.2884225686
    5      C       3.2983348611     1.5782211289     0.4568632934
    6      C       4.7152189801     1.3673712656    -0.0657446597
    7      O       4.5563570651     1.0000570540    -1.4402944433
    8      O       5.5688505607     0.0694396501    -1.8081274179
    9      C       5.5656607684     2.6250033579     0.0439481505
   10      O       5.7187990048     2.8809206245     1.4193299301
   11      O       6.8070381651     2.4734936252    -0.5995722815
   12      H       1.9706344326     0.4738023405    -1.8294636503
   13      H       3.3173596515     1.8990118799     1.4929112119
   14      H       2.8043397162     2.3362919635    -0.1534883239
   15      H       5.2070738249     0.5499171101     0.4629636682
   16      H       5.1122656285    -0.7764404552    -1.6883893705
   17      H       5.0749276651     3.4588877892    -0.4575836447
   18      H       6.1240921486     3.7477721207     1.5236665685
   19      H       7.2474637051     1.6923857742    -0.2442732864
 ----------------------------------------------------------------
 Nuclear Repulsion Energy =         665.73138080 hartrees
 There are       43 alpha and       43 beta electrons
 Discretize the solute cavity surface with Lebedev spheres
	Using 110 Lebedev grid points for each H atom
	Using 194 Lebedev grid points for other atoms
	Atomic van der Waals radii will be scaled by 1.20
 Remove points where switching function is < 1.0e-08
 Keep 1536 surface tesserae and discard 1478 interior tesserae
 Molecular Surface Area = 174.147 Angst**2
 Applying Cartesian multipole field
    Component          Value
    ---------          -----
     (2,0,0)        1.00000E-12
     (0,2,0)        2.00000E-11
     (0,0,2)       -3.00000E-11
 Nucleus-field energy     =     0.0000000124 hartrees
 Requested basis set is 6-311++G(2df,2p)
 There are 136 shells and 454 basis functions
 A cutoff of  1.0D-12 yielded   8072 shell pairs
 There are     88857 function pairs (    110673 Cartesian)
 Smallest overlap matrix eigenvalue = 6.73E-06
 Guess MOs from SCF MO coefficient file

 -----------------------------------------------------------------------
  General SCF calculation program by
  Eric Jon Sundstrom, Paul Horn, Yuezhi Mao, Dmitri Zuev, Alec White,
  David Stuck, Shaama M.S., Shane Yost, Joonho Lee, David Small,
  Daniel Levine, Susi Lehtola, Hugh Burton, Evgeny Epifanovsky,
  Bang C. Huynh
 -----------------------------------------------------------------------
 Exchange:     0.1500 Hartree-Fock + 1.0000 wB97M-V + LR-HF
 Correlation:  1.0000 wB97M-V
 Using SG-2 standard quadrature grid
 Nonlocal Correlation:  VV10 with C = 0.0100 and b = 6.00 and scale = 1.00000
 Grid used for NLC:  SG-1 standard quadrature
 
 Citation of the SMD model:
 Marenich, A.V.; Cramer, C.J.; Truhlar, D.G.
 J. Phys. Chem. B 2009, 113, 6378-6396.
 iSolventCode=           1
 Solvent: water                                                           
 
 vradii
            1           2           3           4           5           6
    1   1.8500000   1.5200000   1.8500000   1.5200000   1.8500000   1.8500000
            7           8           9          10          11          12
    1   1.5200000   1.5200000   1.8500000   1.5200000   1.5200000   1.2000000
           13          14          15          16          17          18
    1   1.2000000   1.2000000   1.2000000   1.2000000   1.2000000   1.2000000
           19
    1   1.2000000
 -------------------------------------------------------
 OpenMP BLAS3 based DFT computing Module                
 Release: version 1.0, May 2013, Q-Chem Inc. Pittsburgh 
 -------------------------------------------------------
 A restricted SCF calculation will be
 performed using Roothaan-Hall, DIIS, GDM
 SCF converges when RMS gradient is below 1.0e-07
 ---------------------------------------
  Cycle       Energy         DIIS error
 ---------------------------------------
    1    -646.5602698856      7.38e-04  Roothaan Step
 ---------------------------------------
  Cycle       Energy         DIIS error
 ---------------------------------------
    1    -646.6129646458      6.62e-04  
    2    -646.6166319900      7.93e-04  Done DIIS. Switching to GDM
 ---------------------------------------
  Cycle       Energy        RMS Gradient
 ---------------------------------------
    1    -646.6166319900      3.66e-02   Normal BFGS step
    2    -646.6087191912      5.74e-02  Line search: overstep
    3    -646.6272378300      4.75e-03   Normal BFGS step
    4    -646.6277833147      3.19e-03   Normal BFGS step
    5    -646.6278700176      1.67e-03   Normal BFGS step
    6    -646.6279030741      8.81e-04   Normal BFGS step
    7    -646.6279078821      4.89e-04   Normal BFGS step
    8    -646.6279094513      1.20e-04   Normal BFGS step
    9    -646.6279097641      5.36e-05   Normal BFGS step
   10    -646.6279098238      2.65e-05   Normal BFGS step
   11    -646.6279098351      1.85e-05   Normal BFGS step
   12    -646.6279098379      6.27e-06   Normal BFGS step
   13    -646.6279098385      2.72e-06   Normal BFGS step
   14    -646.6279098386      6.65e-07   Normal BFGS step
   15    -646.6279098387      2.17e-07   Normal BFGS step
   16    -646.6279098387      1.14e-07   Normal BFGS step
   17    -646.6279098387      4.78e-08  Convergence criterion met
 ---------------------------------------
 SCF time:   CPU 2461.09s  wall 184.00s 
(3)  G-ENP(liq) elect-nuc-pol free energy of system     -646.627909839 a.u.
(4)  G-CDS(liq) cavity-dispersion-solvent structure 
     free energy                                                5.3988 kcal/mol
(6)  G-S(liq) free energy of system                     -646.619306256 a.u.
 SCF   energy in the final basis set =     -646.6193062562
 Total energy in the final basis set =     -646.6193062562
 
 --------------------------------------------------------------
 
                    Orbital Energies (a.u.)
 --------------------------------------------------------------
 
 Alpha MOs
 -- Occupied --
-19.4112 -19.4000 -19.3618 -19.3593 -19.3480 -19.3467 -10.4590 -10.4523
-10.4486 -10.4133 -10.3580  -1.2785  -1.2214  -1.2048  -1.1952  -1.1372
 -1.0615  -0.9198  -0.8486  -0.7874  -0.7395  -0.6879  -0.6740  -0.6496
 -0.6401  -0.6131  -0.5977  -0.5845  -0.5776  -0.5684  -0.5557  -0.5400
 -0.5237  -0.5130  -0.5012  -0.4671  -0.4581  -0.4380  -0.4334  -0.4205
 -0.4090  -0.3914  -0.3611
 -- Virtual --
 -0.0036   0.0279   0.0361   0.0385   0.0479   0.0636   0.0649   0.0689
  0.0773   0.0821   0.0994   0.1018   0.1126   0.1196   0.1233   0.1300
  0.1341   0.1398   0.1497   0.1530   0.1606   0.1661   0.1710   0.1732
  0.1762   0.1837   0.1906   0.1931   0.2038   0.2219   0.2275   0.2335
  0.2406   0.2547   0.2606   0.2679   0.2754   0.2788   0.2894   0.2982
  0.3012   0.3076   0.3141   0.3204   0.3279   0.3293   0.3379   0.3391
  0.3463   0.3527   0.3592   0.3658   0.3687   0.3715   0.3778   0.3835
  0.3878   0.3923   0.3940   0.4088   0.4123   0.4158   0.4352   0.4387
  0.4450   0.4541   0.4594   0.4679   0.4828   0.4960   0.5138   0.5507
  0.5651   0.5771   0.5863   0.6168   0.6194   0.6273   0.6487   0.6566
  0.6634   0.6718   0.6785   0.6849   0.6919   0.7051   0.7063   0.7170
  0.7224   0.7374   0.7448   0.7567   0.7658   0.7800   0.7889   0.7972
  0.8164   0.8346   0.8671   0.8832   0.8847   0.8983   0.9131   0.9504
  0.9516   0.9850   0.9937   1.0021   1.0181   1.0243   1.0409   1.0645
  1.0817   1.0914   1.1013   1.1206   1.1247   1.1444   1.1502   1.1580
  1.1704   1.1786   1.1878   1.1994   1.2041   1.2101   1.2112   1.2268
  1.2320   1.2369   1.2446   1.2546   1.2611   1.2691   1.2954   1.2981
  1.3059   1.3260   1.3466   1.3528   1.3724   1.3783   1.3912   1.3970
  1.4066   1.4313   1.4511   1.4631   1.4775   1.4964   1.5051   1.5221
  1.5303   1.5385   1.5552   1.5696   1.5842   1.5961   1.6128   1.6277
  1.6324   1.6429   1.6774   1.6919   1.7020   1.7219   1.7271   1.7485
  1.7729   1.7904   1.8088   1.8383   1.8552   1.8561   1.8960   1.9103
  1.9178   1.9398   1.9678   2.0046   2.0236   2.0508   2.0762   2.0867
  2.1271   2.1415   2.1875   2.2156   2.2415   2.2948   2.3327   2.3443
  2.3521   2.3876   2.4015   2.4120   2.4552   2.4577   2.4924   2.5371
  2.5553   2.5977   2.6544   2.6892   2.7069   2.7465   2.7737   2.8056
  2.8122   2.8364   2.8540   2.8674   2.8876   2.9158   2.9312   2.9531
  2.9570   3.0019   3.0165   3.0258   3.0525   3.0767   3.0889   3.1149
  3.1183   3.1625   3.1725   3.2020   3.2117   3.2326   3.2690   3.2854
  3.3214   3.3364   3.3729   3.3969   3.4132   3.4288   3.4366   3.4586
  3.4777   3.4857   3.5066   3.5334   3.5492   3.5694   3.5999   3.6073
  3.6216   3.6351   3.6578   3.6686   3.6746   3.6935   3.7326   3.7456
  3.7582   3.7791   3.7949   3.8008   3.8370   3.8465   3.8604   3.8659
  3.8985   3.9167   3.9231   3.9360   3.9612   3.9759   3.9948   4.0307
  4.0525   4.0702   4.0830   4.1127   4.1353   4.1650   4.1926   4.2199
  4.2289   4.2478   4.2694   4.2781   4.3037   4.3289   4.3457   4.3605
  4.3887   4.4043   4.4228   4.4551   4.5219   4.5257   4.5679   4.5784
  4.6031   4.6156   4.6618   4.6899   4.7313   4.7654   4.7910   4.7961
  4.8176   4.9038   4.9824   5.0105   5.0675   5.1284   5.1524   5.1619
  5.1781   5.1936   5.2033   5.2221   5.2423   5.2577   5.2682   5.2803
  5.2980   5.3140   5.3236   5.3518   5.3582   5.3828   5.4046   5.4115
  5.4496   5.4649   5.4855   5.4978   5.5080   5.5253   5.5292   5.5506
  5.5673   5.5922   5.6090   5.6191   5.6219   5.6343   5.6480   5.6749
  5.6989   5.7052   5.7774   5.7899   5.8161   5.8461   5.9040   5.9431
  6.0304   6.1002   6.1166   6.1511   6.2634   6.3736   6.4075   6.5367
  6.5545   6.6446   6.7624   6.8726   6.9146   6.9397   6.9710   6.9955
  7.0016   7.0221   7.0557   7.0772   7.1129   7.1460   7.1837   7.2316
  7.2636   7.2754   7.3003   7.3230   7.3272   7.3454   7.3710   7.3921
  7.4055   7.4398   7.4771   7.5113   7.5442   7.5779   7.6280   7.6616
  7.6977   7.7345   7.7844   7.8052   7.8575   7.8913   7.9808   8.1822
 24.6186  24.7799  24.8455  24.9073  25.0380  50.5079  50.5757  50.6225
 50.6359  50.7020  50.7450
 --------------------------------------------------------------
 
          Ground-State Mulliken Net Atomic Charges

     Atom                 Charge (a.u.)
  ----------------------------------------
      1 C                    -0.130282
      2 O                    -0.331874
      3 C                     0.504851
      4 O                    -0.412836
      5 C                    -0.479764
      6 C                    -0.019180
      7 O                    -0.016861
      8 O                    -0.359418
      9 C                    -0.309654
     10 O                    -0.414904
     11 O                    -0.452471
     12 H                     0.261251
     13 H                     0.221393
     14 H                     0.272481
     15 H                     0.335283
     16 H                     0.349030
     17 H                     0.297169
     18 H                     0.341639
     19 H                     0.344147
  ----------------------------------------
  Sum of atomic charges =     0.000000

 -----------------------------------------------------------------
                    Cartesian Multipole Moments
 -----------------------------------------------------------------
    Charge (ESU x 10^10)
                 0.0000
    Dipole Moment (Debye)
         X       0.4293      Y       4.6722      Z       0.5292
       Tot       4.7216
    Quadrupole Moments (Debye-Ang)
        XX     -62.4723     XY       7.3910     YY     -57.2153
        XZ      12.6030     YZ       5.3333     ZZ     -75.4363
    Octopole Moments (Debye-Ang^2)
       XXX    -808.4477    XXY     -71.5266    XYY    -227.9600
       YYY    -125.7336    XXZ     115.7005    XYZ      44.6312
       YYZ      38.4479    XZZ    -320.7131    YZZ     -65.8966
       ZZZ      50.5718
    Hexadecapole Moments (Debye-Ang^3)
      XXXX   -7860.7689   XXXY   -1310.4091   XXYY   -1291.5450
      XYYY    -797.2275   YYYY    -896.8761   XXXZ     916.8335
      XXYZ     294.1768   XYYZ     218.0127   YYYZ      12.2931
      XXZZ   -1658.0502   XYZZ    -407.1273   YYZZ    -280.4652
      XZZZ     260.8520   YZZZ     -57.9126   ZZZZ    -568.0360
 -----------------------------------------------------------------
 Calculating analytic gradient of the SCF energy
 Gradient of CDS energy
            1           2           3           4           5           6
    1  -0.0005999  -0.0002002  -0.0005062   0.0004138  -0.0000568   0.0000088
    2  -0.0018678   0.0012131  -0.0010795   0.0009094   0.0002569   0.0000807
    3  -0.0011432   0.0003142   0.0018562  -0.0010237   0.0001479  -0.0000856
            7           8           9          10          11          12
[...]
  1.9177   1.9295   1.9695   2.0024   2.0278   2.0497   2.0733   2.0895
  2.1300   2.1467   2.1858   2.2165   2.2348   2.2954   2.3338   2.3406
  2.3538   2.3878   2.4059   2.4092   2.4475   2.4560   2.4842   2.5379
  2.5556   2.5918   2.6525   2.6952   2.7093   2.7492   2.7699   2.8002
  2.8131   2.8338   2.8516   2.8691   2.8872   2.9103   2.9301   2.9531
  2.9550   2.9996   3.0207   3.0275   3.0628   3.0729   3.0940   3.1076
  3.1171   3.1552   3.1645   3.2014   3.2097   3.2321   3.2716   3.2925
  3.3193   3.3338   3.3702   3.3993   3.4146   3.4238   3.4310   3.4544
  3.4744   3.4843   3.5080   3.5298   3.5468   3.5644   3.6039   3.6084
  3.6203   3.6385   3.6590   3.6728   3.6787   3.6881   3.7332   3.7493
  3.7538   3.7781   3.7927   3.7966   3.8340   3.8456   3.8617   3.8645
  3.8956   3.9115   3.9202   3.9317   3.9583   3.9755   3.9943   4.0312
  4.0497   4.0698   4.0770   4.1069   4.1317   4.1640   4.1893   4.2171
  4.2282   4.2445   4.2658   4.2781   4.3039   4.3259   4.3415   4.3611
  4.3865   4.4048   4.4254   4.4510   4.5157   4.5256   4.5617   4.5762
  4.6009   4.6151   4.6608   4.6879   4.7262   4.7614   4.7903   4.7996
  4.8185   4.9045   4.9847   5.0111   5.0678   5.1270   5.1533   5.1622
  5.1786   5.1920   5.2026   5.2237   5.2403   5.2615   5.2655   5.2801
  5.2950   5.3127   5.3260   5.3512   5.3549   5.3798   5.4016   5.4068
  5.4453   5.4630   5.4843   5.4968   5.5086   5.5227   5.5274   5.5498
  5.5689   5.5863   5.6002   5.6133   5.6175   5.6329   5.6462   5.6722
  5.6913   5.7054   5.7736   5.7885   5.8139   5.8438   5.9012   5.9323
  6.0280   6.0990   6.1193   6.1478   6.2596   6.3607   6.4078   6.5364
  6.5667   6.6408   6.7596   6.8675   6.8957   6.9386   6.9681   6.9907
  6.9978   7.0197   7.0538   7.0743   7.1161   7.1494   7.1848   7.2198
  7.2601   7.2705   7.2940   7.3175   7.3257   7.3443   7.3730   7.3830
  7.4042   7.4373   7.4758   7.5118   7.5434   7.5750   7.6266   7.6594
  7.6959   7.7380   7.7767   7.8049   7.8556   7.8924   7.9792   8.1829
 24.6142  24.7721  24.8396  24.9078  25.0295  50.5070  50.5750  50.6203
 50.6335  50.7049  50.7418
 --------------------------------------------------------------
 
          Ground-State Mulliken Net Atomic Charges

     Atom                 Charge (a.u.)
  ----------------------------------------
      1 C                    -0.112328
      2 O                    -0.334837
      3 C                     0.499683
      4 O                    -0.417533
      5 C                    -0.480783
      6 C                    -0.030539
      7 O                    -0.023361
      8 O                    -0.356376
      9 C                    -0.296482
     10 O                    -0.413879
     11 O                    -0.452356
     12 H                     0.259911
     13 H                     0.220248
     14 H                     0.272972
     15 H                     0.335454
     16 H                     0.348747
     17 H                     0.295384
     18 H                     0.341822
     19 H                     0.344253
  ----------------------------------------
  Sum of atomic charges =     0.000000

 -----------------------------------------------------------------
                    Cartesian Multipole Moments
 -----------------------------------------------------------------
    Charge (ESU x 10^10)
                 0.0000
    Dipole Moment (Debye)
         X       0.4491      Y       4.5519      Z       0.3960
       Tot       4.5911
    Quadrupole Moments (Debye-Ang)
        XX     -63.4065     XY       6.4626     YY     -57.1183
        XZ      12.2236     YZ       5.6027     ZZ     -75.3071
    Octopole Moments (Debye-Ang^2)
       XXX    -821.0441    XXY     -79.6994    XYY    -229.1466
       YYY    -125.0435    XXZ     111.6424    XYZ      45.8729
       YYZ      40.0033    XZZ    -320.0441    YZZ     -66.4721
       ZZZ      49.6113
    Hexadecapole Moments (Debye-Ang^3)
      XXXX   -7994.8158   XXXY   -1379.8527   XXYY   -1310.7136
      XYYY    -800.6758   YYYY    -891.0004   XXXZ     882.5349
      XXYZ     298.6658   XYYZ     226.3382   YYYZ      18.2905
      XXZZ   -1659.0659   XYZZ    -409.6709   YYZZ    -278.1633
      XZZZ     264.0922   YZZZ     -55.1816   ZZZZ    -569.6543
 -----------------------------------------------------------------
 Calculating analytic gradient of the SCF energy
 Gradient of CDS energy
            1           2           3           4           5           6
    1  -0.0005591  -0.0002221  -0.0006334   0.0005251  -0.0000535   0.0000088
    2  -0.0019173   0.0012408  -0.0010150   0.0008580   0.0002531   0.0000843
    3  -0.0011204   0.0003071   0.0018830  -0.0010528   0.0001475  -0.0000879
            7           8           9          10          11          12
    1   0.0000491  -0.0001014   0.0024358  -0.0002597  -0.0023487   0.0002091
    2  -0.0000328   0.0003201   0.0004249  -0.0005717   0.0001223   0.0002799
    3   0.0000844   0.0000343   0.0007736  -0.0021852   0.0011468   0.0000022
           13          14          15          16          17          18
    1   0.0000920  -0.0000137   0.0000925   0.0003082  -0.0001408   0.0001225
    2   0.0000552   0.0000861  -0.0000720  -0.0003420   0.0000225   0.0003194
    3   0.0001326  -0.0002086   0.0000497  -0.0001795  -0.0001537   0.0003882
           19
    1   0.0004893
    2  -0.0001160
    3   0.0000387
 Gradient of SCF Energy
            1           2           3           4           5           6
    1   0.0055867  -0.0033153  -0.0011608  -0.0024380   0.0141647  -0.0127215
    2  -0.0040332  -0.0070502   0.0117508  -0.0071648  -0.0227969   0.0127203
    3   0.0054797   0.0014445  -0.0067931   0.0058644   0.0032178  -0.0107611
            7           8           9          10          11          12
    1   0.0026520   0.0066685   0.0089079  -0.0047268  -0.0021504  -0.0039460
    2   0.0020452   0.0147194  -0.0112054  -0.0145846   0.0088021   0.0091843
    3   0.0004481  -0.0052411   0.0077984   0.0007381  -0.0094242  -0.0071000
           13          14          15          16          17          18
    1  -0.0009116  -0.0068184   0.0065306  -0.0064132  -0.0073438   0.0041052
    2   0.0039061   0.0102763  -0.0097280  -0.0118348   0.0092750   0.0150081
    3   0.0078796  -0.0095819   0.0060226   0.0048703  -0.0025961   0.0012853
           19
    1   0.0033301
    2  -0.0092898
    3   0.0064486
 Max gradient component =       2.280E-02
 RMS gradient           =       8.314E-03
 Computing fast CPCM-SWIG gradient
 Updating gradient with PCM contributions...
 -- total gradient after adding PCM contribution --
---------------------------------------------------
  Atom         X              Y              Z     
---------------------------------------------------
   1       0.000016       0.000013      -0.000019
   2       0.000003      -0.000020       0.000005
   3      -0.000007      -0.000043       0.000057
   4       0.000019       0.000006      -0.000021
   5      -0.000045       0.000026      -0.000020
   6      -0.000001      -0.000009       0.000015
   7      -0.000000      -0.000017      -0.000012
   8       0.000006       0.000015       0.000005
   9       0.000005      -0.000008      -0.000017
  10      -0.000006       0.000005       0.000015
  11       0.000020       0.000031       0.000025
  12       0.000005      -0.000000      -0.000006
  13       0.000002       0.000012       0.000000
  14       0.000012      -0.000007      -0.000012
  15       0.000007       0.000003       0.000007
  16      -0.000006      -0.000011       0.000009
  17      -0.000001       0.000002      -0.000004
  18      -0.000015       0.000017      -0.000004
  19      -0.000014      -0.000014      -0.000023
---------------------------------------------------
 Number of fixed atoms: 0
 Gradient time:  CPU 391.81 s  wall 32.34 s
 Geometry Optimization Parameters
   NAtoms,    NIC,     NZ,  NCons,   NDum,   NFix, NCnnct, MaxDiis
       19     122       0       0       0       0       0       0

 Cartesian Hessian Update
 Hessian updated using BFGS update


** GEOMETRY OPTIMIZATION IN DELOCALIZED INTERNAL COORDINATES **
   Searching for a Minimum

   Optimization Cycle:  12

                       Coordinates (Angstroms)
     ATOM                X               Y               Z
      1  C         2.2867888836   -0.2689100452   -1.0553124086
      2  O         2.4283557895   -1.4466784570   -1.2764297375
      3  C         2.5398893323    0.2922720639    0.3514951789
      4  O         2.1362154940   -0.3371581728    1.3027665679
      5  C         3.2995555436    1.5804806938    0.4478405416
      6  C         4.7180081424    1.3669934628   -0.0707196150
      7  O         4.5641546148    1.0046335528   -1.4477228412
      8  O         5.5955187324    0.0964867232   -1.8233996319
      9  C         5.5725255836    2.6222789187    0.0533253514
     10  O         5.7432390541    2.8476814022    1.4322368038
     11  O         6.8050433082    2.4841727311   -0.6105323774
     12  H         1.9500149247    0.4405604585   -1.8221124136
     13  H         3.3175029835    1.9148637660    1.4808610489
     14  H         2.8052496829    2.3340890525   -0.1706793061
     15  H         5.2061653168    0.5446633053    0.4563834879
     16  H         5.1566626281   -0.7621502599   -1.7132605220
     17  H         5.0762691398    3.4683275902   -0.4237181558
     18  H         6.1071594545    3.7324456259    1.5513118710
     19  H         7.2376889910    1.6811334882   -0.2926207424
   Point Group: c1    Number of degrees of freedom:    51


   Energy is   -646.619612493

 Hessian updated using BFGS update

 51 Hessian modes will be used to form the next step
  Hessian Eigenvalues:
     0.001224    0.005075    0.005537    0.007176    0.009700    0.010493
     0.013632    0.019664    0.028509    0.043989    0.049292    0.052516
     0.057500    0.058912    0.063975    0.067736    0.080308    0.087306
     0.093119    0.125399    0.159513    0.159980    0.160921    0.173823
     0.177653    0.197851    0.202189    0.208745    0.222929    0.238093
     0.244094    0.252339    0.278753    0.287111    0.307777    0.315878
     0.327843    0.336544    0.339344    0.341027    0.341459    0.347376
     0.402835    0.440116    0.443517    0.460211    0.506292    0.522377
     0.529137    0.939331    0.975360

 Minimum search - taking simple RFO step
 Searching for Lamda that Minimizes Along All modes
 Value Taken    Lamda =  -0.00000028
 Step Taken.  Stepsize is  0.005669

                             Maximum     Tolerance    Cnvgd?
         Gradient           0.000066      0.000300     YES
         Displacement       0.002232      0.001200      NO
         Energy change     -0.000001      0.000001     YES

 Final energy is   -646.619612493476     


 ******************************
 **  OPTIMIZATION CONVERGED  **
 ******************************

                       Coordinates (Angstroms)
     ATOM                X               Y               Z
      1  C         2.2867888836   -0.2689100452   -1.0553124086
      2  O         2.4283557895   -1.4466784570   -1.2764297375
      3  C         2.5398893323    0.2922720639    0.3514951789
      4  O         2.1362154940   -0.3371581728    1.3027665679
      5  C         3.2995555436    1.5804806938    0.4478405416
      6  C         4.7180081424    1.3669934628   -0.0707196150
      7  O         4.5641546148    1.0046335528   -1.4477228412
      8  O         5.5955187324    0.0964867232   -1.8233996319
      9  C         5.5725255836    2.6222789187    0.0533253514
     10  O         5.7432390541    2.8476814022    1.4322368038
     11  O         6.8050433082    2.4841727311   -0.6105323774
     12  H         1.9500149247    0.4405604585   -1.8221124136
     13  H         3.3175029835    1.9148637660    1.4808610489
     14  H         2.8052496829    2.3340890525   -0.1706793061
     15  H         5.2061653168    0.5446633053    0.4563834879
     16  H         5.1566626281   -0.7621502599   -1.7132605220
     17  H         5.0762691398    3.4683275902   -0.4237181558
     18  H         6.1071594545    3.7324456259    1.5513118710
     19  H         7.2376889910    1.6811334882   -0.2926207424

Z-matrix Print:
$molecule
0 1
O 
O  1 1.424632
H  2 0.970558 1 101.927753
C  1 1.432171 2 109.697740 3 95.834559 0
H  4 1.091953 1 108.760074 2 -28.314411 0
C  4 1.523591 1 110.303295 2 91.536987 0
H  6 1.090706 4 110.383250 1 63.374320 0
O  6 1.406727 4 111.844727 1 -53.846501 0
H  8 0.965982 6 108.585530 4 -53.321143 0
O  6 1.407603 4 106.242898 1 -176.119887 0
H  10 0.964067 6 108.284573 4 -167.541164 0
C  4 1.525283 1 105.211982 2 -147.203296 0
H  12 1.085940 4 110.556904 1 -176.875854 0
H  12 1.093083 4 108.945063 1 -56.527388 0
C  12 1.498618 4 109.222415 1 62.541118 0
O  15 1.209980 12 124.453263 4 114.143243 0
C  15 1.535608 12 117.166854 4 -64.651499 0
H  17 1.097610 15 117.024234 12 -44.772119 0
O  17 1.206678 15 120.346541 12 136.903189 0
$end

 
 --------------------------------------------------------------
 
                    Orbital Energies (a.u.)
 --------------------------------------------------------------
 
 Alpha MOs
 -- Occupied --
-19.4109 -19.3998 -19.3617 -19.3595 -19.3481 -19.3466 -10.4596 -10.4531
-10.4485 -10.4133 -10.3587  -1.2772  -1.2205  -1.2041  -1.1948  -1.1370
 -1.0608  -0.9196  -0.8478  -0.7873  -0.7393  -0.6874  -0.6741  -0.6485
 -0.6396  -0.6131  -0.5973  -0.5846  -0.5770  -0.5680  -0.5561  -0.5383
 -0.5224  -0.5134  -0.5010  -0.4667  -0.4581  -0.4384  -0.4336  -0.4200
 -0.4091  -0.3914  -0.3606
 -- Virtual --
 -0.0012   0.0277   0.0361   0.0381   0.0480   0.0637   0.0649   0.0686
  0.0771   0.0812   0.0969   0.1017   0.1118   0.1193   0.1240   0.1300
  0.1335   0.1400   0.1497   0.1531   0.1604   0.1663   0.1720   0.1722
  0.1759   0.1828   0.1898   0.1936   0.2030   0.2224   0.2263   0.2332
  0.2406   0.2542   0.2600   0.2686   0.2753   0.2786   0.2886   0.2976
  0.3012   0.3070   0.3154   0.3211   0.3273   0.3297   0.3379   0.3404
  0.3452   0.3525   0.3590   0.3654   0.3672   0.3721   0.3782   0.3842
  0.3883   0.3906   0.3953   0.4072   0.4113   0.4156   0.4339   0.4372
  0.4429   0.4542   0.4590   0.4682   0.4839   0.4947   0.5126   0.5470
  0.5657   0.5790   0.5855   0.6164   0.6205   0.6266   0.6486   0.6534
  0.6612   0.6689   0.6767   0.6822   0.6928   0.7024   0.7081   0.7172
  0.7222   0.7344   0.7428   0.7525   0.7679   0.7789   0.7896   0.7983
  0.8121   0.8331   0.8644   0.8836   0.8893   0.8962   0.9192   0.9468
  0.9535   0.9794   0.9936   1.0037   1.0161   1.0258   1.0453   1.0631
  1.0825   1.0946   1.1034   1.1181   1.1257   1.1466   1.1514   1.1579
  1.1721   1.1747   1.1843   1.1983   1.2041   1.2080   1.2094   1.2270
  1.2317   1.2357   1.2479   1.2583   1.2608   1.2707   1.2931   1.2997
  1.3073   1.3257   1.3475   1.3572   1.3664   1.3741   1.3885   1.3951
  1.4088   1.4328   1.4497   1.4624   1.4778   1.4947   1.5014   1.5187
  1.5299   1.5374   1.5574   1.5657   1.5838   1.5873   1.6095   1.6263
  1.6290   1.6415   1.6722   1.6875   1.7045   1.7199   1.7265   1.7466
  1.7754   1.7868   1.8100   1.8329   1.8538   1.8542   1.8927   1.9071
  1.9177   1.9295   1.9695   2.0024   2.0278   2.0497   2.0733   2.0895
  2.1300   2.1467   2.1858   2.2165   2.2348   2.2954   2.3338   2.3406
  2.3538   2.3878   2.4059   2.4092   2.4475   2.4560   2.4842   2.5379
  2.5556   2.5918   2.6525   2.6952   2.7093   2.7492   2.7699   2.8002
  2.8131   2.8338   2.8516   2.8691   2.8872   2.9103   2.9301   2.9531
  2.9550   2.9996   3.0207   3.0275   3.0628   3.0729   3.0940   3.1076
  3.1171   3.1552   3.1645   3.2014   3.2097   3.2321   3.2716   3.2925
  3.3193   3.3338   3.3702   3.3993   3.4146   3.4238   3.4310   3.4544
  3.4744   3.4843   3.5080   3.5298   3.5468   3.5644   3.6039   3.6084
  3.6203   3.6385   3.6590   3.6728   3.6787   3.6881   3.7332   3.7493
  3.7538   3.7781   3.7927   3.7966   3.8340   3.8456   3.8617   3.8645
  3.8956   3.9115   3.9202   3.9317   3.9583   3.9755   3.9943   4.0312
  4.0497   4.0698   4.0770   4.1069   4.1317   4.1640   4.1893   4.2171
  4.2282   4.2445   4.2658   4.2781   4.3039   4.3259   4.3415   4.3611
  4.3865   4.4048   4.4254   4.4510   4.5157   4.5256   4.5617   4.5762
  4.6009   4.6151   4.6608   4.6879   4.7262   4.7614   4.7903   4.7996
  4.8185   4.9045   4.9847   5.0111   5.0678   5.1270   5.1533   5.1622
  5.1786   5.1920   5.2026   5.2237   5.2403   5.2615   5.2655   5.2801
  5.2950   5.3127   5.3260   5.3512   5.3549   5.3798   5.4016   5.4068
  5.4453   5.4630   5.4843   5.4968   5.5086   5.5227   5.5274   5.5498
  5.5689   5.5863   5.6002   5.6133   5.6175   5.6329   5.6462   5.6722
  5.6913   5.7054   5.7736   5.7885   5.8139   5.8438   5.9012   5.9323
  6.0280   6.0990   6.1193   6.1478   6.2596   6.3607   6.4078   6.5364
  6.5667   6.6408   6.7596   6.8675   6.8957   6.9386   6.9681   6.9907
  6.9978   7.0197   7.0538   7.0743   7.1161   7.1494   7.1848   7.2198
  7.2601   7.2705   7.2940   7.3175   7.3257   7.3443   7.3730   7.3830
  7.4042   7.4373   7.4758   7.5118   7.5434   7.5750   7.6266   7.6594
  7.6959   7.7380   7.7767   7.8049   7.8556   7.8924   7.9792   8.1829
 24.6142  24.7721  24.8396  24.9078  25.0295  50.5070  50.5750  50.6203
 50.6335  50.7049  50.7418
 --------------------------------------------------------------
 
          Ground-State Mulliken Net Atomic Charges

     Atom                 Charge (a.u.)
  ----------------------------------------
      1 C                    -0.112328
      2 O                    -0.334837
      3 C                     0.499683
      4 O                    -0.417533
      5 C                    -0.480783
      6 C                    -0.030539
      7 O                    -0.023361
      8 O                    -0.356376
      9 C                    -0.296482
     10 O                    -0.413879
     11 O                    -0.452356
     12 H                     0.259911
     13 H                     0.220248
     14 H                     0.272972
     15 H                     0.335454
     16 H                     0.348747
     17 H                     0.295384
     18 H                     0.341822
     19 H                     0.344253
  ----------------------------------------
  Sum of atomic charges =     0.000000

 -----------------------------------------------------------------
                    Cartesian Multipole Moments
 -----------------------------------------------------------------
    Charge (ESU x 10^10)
                 0.0000
    Dipole Moment (Debye)
         X       0.4491      Y       4.5519      Z       0.3960
       Tot       4.5911
    Quadrupole Moments (Debye-Ang)
        XX     -63.4065     XY       6.4626     YY     -57.1183
        XZ      12.2236     YZ       5.6027     ZZ     -75.3071
    Octopole Moments (Debye-Ang^2)
       XXX    -821.0441    XXY     -79.6994    XYY    -229.1466
       YYY    -125.0435    XXZ     111.6424    XYZ      45.8729
       YYZ      40.0033    XZZ    -320.0441    YZZ     -66.4721
       ZZZ      49.6113
    Hexadecapole Moments (Debye-Ang^3)
      XXXX   -7994.8158   XXXY   -1379.8527   XXYY   -1310.7136
      XYYY    -800.6758   YYYY    -891.0004   XXXZ     882.5349
      XXYZ     298.6658   XYYZ     226.3382   YYYZ      18.2905
      XXZZ   -1659.0659   XYZZ    -409.6709   YYZZ    -278.1633
      XZZZ     264.0922   YZZZ     -55.1816   ZZZZ    -569.6543
 -----------------------------------------------------------------
 Total job time:  2404.75s(wall), 32523.41s(cpu) 
 Mon Jun 24 14:51:16 2024

        *************************************************************
        *                                                           *
        *  Thank you very much for using Q-Chem.  Have a nice day.  *
        *                                                           *
        *************************************************************


