
Running Job 1 of 1 Q_in.in
qchem Q_in.in_189359.0 /scratch/ari.fischer/qChem2234343.hpc-mn1/qchem189359/ 0
/usr/local/qchem-5.4.1/exe/qcprog.exe_s Q_in.in_189359.0 /scratch/ari.fischer/qChem2234343.hpc-mn1/qchem189359/
                  Welcome to Q-Chem
     A Quantum Leap Into The Future Of Chemistry


 Q-Chem 5.4, Q-Chem, Inc., Pleasanton, CA (2021)

 License issued to: Nanyang Technological University (site)

 E. Epifanovsky,  A. T. B. Gilbert,  Xintian Feng,  Joonho Lee,  Yuezhi Mao,  
 N. Mardirossian,  P. Pokhilko,  A. White,  M. Wormit,  M. P. Coons,  
 A. L. Dempwolff,  Zhengting Gan,  D. Hait,  P. R. Horn,  L. D. Jacobson,  
 I. Kaliman,  J. Kussmann,  A. W. Lange,  Ka Un Lao,  D. S. Levine,  Jie Liu,  
 S. C. McKenzie,  A. F. Morrison,  K. Nanda,  F. Plasser,  D. R. Rehn,  
 M. L. Vidal,  Zhi-Qiang You,  Ying Zhu,  B. Alam,  B. Albrecht,  
 A. Aldossary,  E. Alguire,  J. H. Andersen,  D. Barton,  K. Begam,  A. Behn,  
 Y. A. Bernard,  E. J. Berquist,  H. Burton,  A. Carreras,  K. Carter-Fenk,  
 R. Chakraborty,  A. D. Chien,  K. D. Closser,  V. Cofer-Shabica,  
 S. Dasgupta,  Jia Deng,  M. de Wergifosse,  M. Diedenhofen,  Hainam Do,  
 S. Ehlert,  Po-Tung Fang,  S. Fatehi,  Qingguo Feng,  T. Friedhoff,  
 J. Gayvert,  Qinghui Ge,  G. Gidofalvi,  M. Goldey,  J. Gomes,  
 C. Gonzalez-Espinoza,  S. Gulania,  A. Gunina,  M. W. D. Hanson-Heine,  
 P. H. P. Harbach,  A. W. Hauser,  M. F. Herbst,  M. Hernandez Vera,  
 M. Hodecker,  Z. C. Holden,  S. Houck,  Xunkun Huang,  Kerwin Hui,  
 B. C. Huynh,  M. Ivanov,  Hyunjun Ji,  Hanjie Jiang,  B. Kaduk,  S. Kaehler,  
 K. Khistyaev,  Jaehoon Kim,  P. Klunzinger,  Z. Koczor-Benda,  
 Joong Hoon Koh,  D. Kosenkov,  L. Koulias,  T. Kowalczyk,  C. M. Krauter,  
 K. Kue,  A. Kunitsa,  T. Kus,  A. Landau,  K. V. Lawler,  D. Lefrancois,  
 S. Lehtola,  Rain Li,  Yi-Pei Li,  Jiashu Liang,  M. Liebenthal,  
 Hung-Hsuan Lin,  You-Sheng Lin,  Fenglai Liu,  Kuan-Yu Liu,  
 M. Loipersberger,  A. Luenser,  A. Manjanath,  P. Manohar,  E. Mansoor,  
 S. F. Manzer,  Shan-Ping Mao,  A. V. Marenich,  T. Markovich,  S. Mason,  
 S. A. Maurer,  P. F. McLaughlin,  M. F. S. J. Menger,  J.-M. Mewes,  
 S. A. Mewes,  P. Morgante,  J. W. Mullinax,  K. J. Oosterbaan,  G. Paran,  
 Alexander C. Paul,  Suranjan K. Paul,  F. Pavosevic,  Zheng Pei,  S. Prager,  
 E. I. Proynov,  E. Ramos,  B. Rana,  A. E. Rask,  A. Rettig,  R. M. Richard,  
 F. Rob,  E. Rossomme,  T. Scheele,  M. Scheurer,  M. Schneider,  
 N. Sergueev,  S. M. Sharada,  W. Skomorowski,  D. W. Small,  C. J. Stein,  
 Yu-Chuan Su,  E. J. Sundstrom,  Zhen Tao,  J. Thirman,  T. Tsuchimochi,  
 N. M. Tubman,  S. P. Veccham,  O. Vydrov,  J. Wenzel,  J. Witte,  A. Yamada,  
 Kun Yao,  S. Yeganeh,  S. R. Yost,  A. Zech,  Igor Ying Zhang,  Xing Zhang,  
 Yu Zhang,  D. Zuev,  A. Aspuru-Guzik,  A. T. Bell,  N. A. Besley,  
 K. B. Bravaya,  B. R. Brooks,  D. Casanova,  Jeng-Da Chai,  S. Coriani,  
 C. J. Cramer,  A. E. DePrince, III,  R. A. DiStasio Jr.,  A. Dreuw,  
 B. D. Dunietz,  T. R. Furlani,  W. A. Goddard III,  S. Grimme,  
 S. Hammes-Schiffer,  T. Head-Gordon,  W. J. Hehre,  Chao-Ping Hsu,  
 T.-C. Jagau,  Yousung Jung,  A. Klamt,  Jing Kong,  D. S. Lambrecht,  
 WanZhen Liang,  N. J. Mayhall,  C. W. McCurdy,  J. B. Neaton,  
 C. Ochsenfeld,  J. A. Parkhill,  R. Peverati,  V. A. Rassolov,  Yihan Shao,  
 L. V. Slipchenko,  T. Stauch,  R. P. Steele,  J. E. Subotnik,  
 A. J. W. Thom,  A. Tkatchenko,  D. G. Truhlar,  T. Van Voorhis,  
 T. A. Wesolowski,  K. B. Whaley,  H. L. Woodcock III,  P. M. Zimmerman,  
 S. Faraji,  P. M. W. Gill,  M. Head-Gordon,  J. M. Herbert,  A. I. Krylov

 Additional authors for Version 5.4.1: 
 S. Kotaru,  Shaozhi Li,  Xiangyuan Li,  F. Matz,  A. Molle,  Haisheng Ren,  
 Yingli Su,  Hung-Yi Tsai,  C. Utku,  Fang Wang

 Contributors to earlier versions of Q-Chem not listed above: 
 R. D. Adamson,  B. Austin,  R. Baer,  J. Baker,  G. J. O. Beran,  
 K. Brandhorst,  S. T. Brown,  E. F. C. Byrd,  A. K. Chakraborty,  
 G. K. L. Chan,  Chun-Min Chang,  Yunqing Chen,  C.-L. Cheng,  
 Siu Hung Chien,  D. M. Chipman,  D. L. Crittenden,  H. Dachsel,  
 R. J. Doerksen,  A. D. Dutoi,  R. G. Edgar,  J. Fosso-Tande,  
 L. Fusti-Molnar,  D. Ghosh,  A. Ghysels,  A. Golubeva-Zadorozhnaya,  
 J. Gonthier,  M. S. Gordon,  S. R. Gwaltney,  G. Hawkins,  J. E. Herr,  
 A. Heyden,  S. Hirata,  E. G. Hohenstein,  G. Kedziora,  F. J. Keil,  
 C. Kelley,  Jihan Kim,  R. A. King,  R. Z. Khaliullin,  P. P. Korambath,  
 W. Kurlancheek,  A. Laurent,  A. M. Lee,  M. S. Lee,  S. V. Levchenko,  
 Ching Yeh Lin,  D. Liotard,  E. Livshits,  R. C. Lochan,  I. Lotan,  
 L. A. Martinez-Martinez,  P. E. Maslen,  N. Nair,  D. P. O'Neill,  
 D. Neuhauser,  E. Neuscamman,  C. M. Oana,  R. Olivares-Amaya,  R. Olson,  
 T. M. Perrine,  B. Peters,  P. A. Pieniazek,  A. Prociuk,  Y. M. Rhee,  
 J. Ritchie,  M. A. Rohrdanz,  E. Rosta,  N. J. Russ,  H. F. Schaefer III,  
 M. W. Schmidt,  N. E. Schultz,  S. Sharma,  N. Shenvi,  C. D. Sherrill,  
 A. C. Simmonett,  A. Sodt,  T. Stein,  D. Stuck,  K. S. Thanthiriwatte,  
 V. Vanovschi,  L. Vogt,  Tao Wang,  A. Warshel,  M. A. Watson,  
 C. F. Williams,  Q. Wu,  X. Xu,  Jun Yang,  W. Zhang,  Yan Zhao

 Please cite Q-Chem as follows:
 Y. Shao et al., Mol. Phys. 113, 184-215 (2015)
 DOI: 10.1080/00268976.2014.952696

 Q-Chem 5.4.1 for Intel X86 EM64T Linux

 Parts of Q-Chem use Armadillo 9.800.1 (Horizon Scraper).
 http://arma.sourceforge.net/

 Q-Chem begins on Fri Jul 12 11:22:15 2024  

 Host: 
0

     Scratch files written to /scratch/ari.fischer/qChem2234343.hpc-mn1/qchem189359//
 Aug1521 |scratch|qcdevops|jenkins|workspace|build_RNUM 8249   
 Processing $rem in /usr/local/qchem-5.4.1/config/preferences:
 Processing $rem in /home/ari.fischer/.qchemrc:
 Symmetry turned off for PCM/SM12/SMD calculation


!!********************************************.
!!******************Warning*******************.
!!Desired Analytical derivatives not available.
!!Finite difference job might take a long time.
!!********************************************.
!!********************************************.


 2-order derivative to be evaluated numerically with 1-order analytical derivatives

 Checking the input file for inconsistencies... 	...done.

--------------------------------------------------------------
User input:
--------------------------------------------------------------
$molecule
0 1
O         0.9075559781   -0.5331089340    0.1026410830
C         2.2807277100   -0.2451977476   -0.0395611229
C         2.7245404021    0.8414487907    0.8944063790
O         1.9078117957    1.3610103831    1.6475893196
C         4.1432003894    1.2189035730    0.8413866876
C         4.7276446883    2.1343452932    1.6151559071
C         4.1168371073    2.9951113519    2.7094441684
O         3.1245567633    3.8672297440    2.2175343137
O         3.6549699861    2.2240669182    3.7966958777
H         0.5647864039    0.0731520667    0.7761741825
H         2.5095087526    0.0765942947   -1.0605324234
H         2.8871756288   -1.1333829285    0.1612945735
H         4.7412200024    0.6907499172    0.1097523430
H         5.7870598496    2.3025461099    1.4635559391
H         4.8935619101    3.6350954882    3.1158173690
H         2.4227339214    3.3176757218    1.8392406086
H         2.9712635110    1.6264712573    3.4633676947
$end

$rem
BASIS = 6-311++G(2df,2p)
GUI = 2
JOB_TYPE = Frequency
METHOD = wB97M-V
SOLVENT_METHOD = SMD
SCF_ALGORITHM = DIIS_GDM
MAX_SCF_CYCLES = 400
SCF_CONVERGENCE = 7
THRESH = 12
$end
--------------------------------------------------------------
 ----------------------------------------------------------------
             Standard Nuclear Orientation (Angstroms)
    I     Atom           X                Y                Z
 ----------------------------------------------------------------
    1      O       0.9075559781    -0.5331089340     0.1026410830
    2      C       2.2807277100    -0.2451977476    -0.0395611229
    3      C       2.7245404021     0.8414487907     0.8944063790
    4      O       1.9078117957     1.3610103831     1.6475893196
    5      C       4.1432003894     1.2189035730     0.8413866876
    6      C       4.7276446883     2.1343452932     1.6151559071
    7      C       4.1168371073     2.9951113519     2.7094441684
    8      O       3.1245567633     3.8672297440     2.2175343137
    9      O       3.6549699861     2.2240669182     3.7966958777
   10      H       0.5647864039     0.0731520667     0.7761741825
   11      H       2.5095087526     0.0765942947    -1.0605324234
   12      H       2.8871756288    -1.1333829285     0.1612945735
   13      H       4.7412200024     0.6907499172     0.1097523430
   14      H       5.7870598496     2.3025461099     1.4635559391
   15      H       4.8935619101     3.6350954882     3.1158173690
   16      H       2.4227339214     3.3176757218     1.8392406086
   17      H       2.9712635110     1.6264712573     3.4633676947
 ----------------------------------------------------------------
 Nuclear Repulsion Energy =         465.87643235 hartrees
 There are       35 alpha and       35 beta electrons
 Requested basis set is 6-311++G(2df,2p)
 There are 120 shells and 386 basis functions

 Total QAlloc Memory Limit 288000 MB
 Mega-Array Size       188 MB
 MEM_STATIC part       192 MB
 
 Citation of the SMD model:
 Marenich, A.V.; Cramer, C.J.; Truhlar, D.G.
 J. Phys. Chem. B 2009, 113, 6378-6396.
 iSolventCode=           1
 Solvent: water                                                           
 
 vradii
            1           2           3           4           5           6
    1   1.5200000   1.8500000   1.8500000   1.5200000   1.8500000   1.8500000
            7           8           9          10          11          12
    1   1.8500000   1.5200000   1.5200000   1.2000000   1.2000000   1.2000000
           13          14          15          16          17
    1   1.2000000   1.2000000   1.2000000   1.2000000   1.2000000
 Changing PCM_VDW_RADII to SMD_RADIUS
 Discretize the solute cavity surface with Lebedev spheres
	Using 110 Lebedev grid points for each H atom
	Using 194 Lebedev grid points for other atoms
	Atomic van der Waals radii will be scaled by 1.20
 Remove points where switching function is < 1.0e-08
 Keep 1290 surface tesserae and discard 1336 interior tesserae
 Molecular Surface Area = 147.928 Angst**2
 A cutoff of  1.0D-12 yielded   6458 shell pairs
 There are     66851 function pairs (     83064 Cartesian)
 Smallest overlap matrix eigenvalue = 4.07E-06
 Guess from superposition of atomic densities
 Warning:  Energy on first SCF cycle will be non-variational
 SAD guess density has 70.000000 electrons

 -----------------------------------------------------------------------
  General SCF calculation program by
  Eric Jon Sundstrom, Paul Horn, Yuezhi Mao, Dmitri Zuev, Alec White,
  David Stuck, Shaama M.S., Shane Yost, Joonho Lee, David Small,
  Daniel Levine, Susi Lehtola, Hugh Burton, Evgeny Epifanovsky,
  Bang C. Huynh
 -----------------------------------------------------------------------
 Exchange:     0.1500 Hartree-Fock + 1.0000 wB97M-V + LR-HF
 Correlation:  1.0000 wB97M-V
 Using SG-2 standard quadrature grid
 Nonlocal Correlation:  VV10 with C = 0.0100 and b = 6.00 and scale = 1.00000
 Grid used for NLC:  SG-1 standard quadrature
 using 16 threads for integral computing
 -------------------------------------------------------
 OpenMP Integral computing Module                
 Release: version 1.0, May 2013, Q-Chem Inc. Pittsburgh 
 -------------------------------------------------------
 
 Citation of the SMD model:
 Marenich, A.V.; Cramer, C.J.; Truhlar, D.G.
 J. Phys. Chem. B 2009, 113, 6378-6396.
 iSolventCode=           1
 Solvent: water                                                           
 
 vradii
            1           2           3           4           5           6
    1   1.5200000   1.8500000   1.8500000   1.5200000   1.8500000   1.8500000
            7           8           9          10          11          12
    1   1.8500000   1.5200000   1.5200000   1.2000000   1.2000000   1.2000000
           13          14          15          16          17
    1   1.2000000   1.2000000   1.2000000   1.2000000   1.2000000
 -------------------------------------------------------
 OpenMP BLAS3 based DFT computing Module                
 Release: version 1.0, May 2013, Q-Chem Inc. Pittsburgh 
 -------------------------------------------------------
 A restricted SCF calculation will be
 performed using DIIS, GDM
 SCF converges when RMS gradient is below 1.0e-07
 ---------------------------------------
  Cycle       Energy         DIIS error
 ---------------------------------------
    1    -498.2794851500      2.58e-02  
    2    -496.0726632106      3.39e-03  Done DIIS. Switching to GDM
 ---------------------------------------
  Cycle       Energy        RMS Gradient
 ---------------------------------------
    1    -496.0726632106      8.68e-02   Descent step
    2    -496.2222422411      3.49e-02   Normal BFGS step
    3    -496.2408435268      9.85e-03   Normal BFGS step
    4    -496.2419827711      5.09e-03   Normal BFGS step
    5    -496.2427897801      1.29e-03   Normal BFGS step
    6    -496.2428172761      6.48e-04   Normal BFGS step
    7    -496.2428284824      2.35e-04   Normal BFGS step
    8    -496.2428290576      1.25e-04   Normal BFGS step
    9    -496.2428291650      2.68e-05   Normal BFGS step
   10    -496.2428291757      1.08e-05   Normal BFGS step
   11    -496.2428291793      6.39e-06   Normal BFGS step
   12    -496.2428291796      1.18e-06   Normal BFGS step
   13    -496.2428291796      9.32e-07   Normal BFGS step
   14    -496.2428291796      2.59e-07   Normal BFGS step
   15    -496.2428291797      5.61e-08  Convergence criterion met
 ---------------------------------------
 SCF time:   CPU 1309.31s  wall 90.00s 
(3)  G-ENP(liq) elect-nuc-pol free energy of system     -496.242829180 a.u.
(4)  G-CDS(liq) cavity-dispersion-solvent structure 
     free energy                                                3.6116 kcal/mol
(6)  G-S(liq) free energy of system                     -496.237073693 a.u.
 SCF   energy in the final basis set =     -496.2370736925
 Total energy in the final basis set =     -496.2370736925
 
 --------------------------------------------------------------
 
                    Orbital Energies (a.u.)
 --------------------------------------------------------------
 
 Alpha MOs
 -- Occupied --
-19.3517 -19.3453 -19.3439 -19.3425 -10.4565 -10.4533 -10.3965 -10.3738
-10.3591  -1.2122  -1.1981  -1.1574  -1.1338  -0.9372  -0.8670  -0.8112
 -0.7356  -0.6666  -0.6565  -0.6457  -0.6193  -0.5977  -0.5922  -0.5537
 -0.5422  -0.5206  -0.5158  -0.4884  -0.4854  -0.4662  -0.4227  -0.4149
 -0.4009  -0.3853  -0.3773
 -- Virtual --
 -0.0018   0.0226   0.0364   0.0413   0.0524   0.0580   0.0625   0.0720
  0.0816   0.1011   0.1047   0.1173   0.1240   0.1288   0.1314   0.1352
  0.1503   0.1573   0.1587   0.1612   0.1726   0.1739   0.1763   0.1891
  0.1995   0.2002   0.2086   0.2274   0.2360   0.2420   0.2491   0.2528
  0.2686   0.2754   0.2861   0.2927   0.2977   0.3003   0.3144   0.3233
  0.3268   0.3342   0.3370   0.3454   0.3464   0.3563   0.3580   0.3604
  0.3702   0.3770   0.3799   0.3866   0.4014   0.4054   0.4150   0.4285
  0.4510   0.4623   0.4635   0.5070   0.5281   0.5457   0.5526   0.5735
  0.5781   0.5981   0.6067   0.6149   0.6178   0.6280   0.6330   0.6441
  0.6511   0.6644   0.6735   0.6842   0.6936   0.7034   0.7212   0.7262
  0.7537   0.7593   0.7636   0.7820   0.7986   0.8058   0.8319   0.8366
  0.8492   0.8545   0.8803   0.8852   0.9021   0.9034   0.9391   0.9542
  0.9704   1.0073   1.0340   1.0600   1.0640   1.0686   1.0802   1.0810
  1.0900   1.1024   1.1200   1.1262   1.1609   1.1661   1.1756   1.1844
  1.2149   1.2166   1.2239   1.2355   1.2400   1.2527   1.2665   1.2781
  1.2870   1.2878   1.3044   1.3280   1.3620   1.3762   1.4068   1.4276
  1.4315   1.4378   1.4427   1.4563   1.4707   1.4814   1.4932   1.5079
  1.5185   1.5336   1.5412   1.5477   1.5675   1.6007   1.6068   1.6242
  1.6292   1.6429   1.6847   1.7017   1.7234   1.7507   1.8416   1.8995
  1.9161   1.9250   1.9425   1.9928   1.9949   2.0271   2.0333   2.0566
  2.1198   2.1551   2.2064   2.2192   2.2233   2.2733   2.2920   2.3462
  2.3834   2.4189   2.4215   2.4486   2.5470   2.5602   2.5704   2.6405
  2.6534   2.6777   2.6917   2.7589   2.7637   2.8019   2.8177   2.8193
  2.8691   2.8777   2.9021   2.9171   2.9234   2.9488   2.9617   2.9936
  3.0030   3.0067   3.0564   3.0600   3.1231   3.1400   3.1611   3.1624
  3.1984   3.2140   3.2269   3.2565   3.2691   3.2732   3.3191   3.3256
  3.3321   3.3474   3.3689   3.3931   3.4034   3.4484   3.4910   3.5055
  3.5113   3.5340   3.5376   3.5790   3.5855   3.5938   3.6359   3.6439
  3.6563   3.7011   3.7039   3.7161   3.7318   3.7531   3.7678   3.8014
  3.8048   3.8248   3.8635   3.8650   3.8759   3.8855   3.9053   3.9192
  3.9620   3.9784   4.0140   4.0204   4.0634   4.1020   4.1146   4.1343
  4.1841   4.1988   4.2032   4.2141   4.2401   4.2446   4.2541   4.3082
  4.3380   4.3466   4.3679   4.3992   4.4027   4.4477   4.4516   4.4551
  4.4853   4.5239   4.5490   4.6172   4.6341   4.7071   4.7995   4.8240
  4.8776   4.9386   5.0562   5.1871   5.2092   5.2103   5.2181   5.2461
  5.2559   5.2618   5.2947   5.3027   5.3179   5.3219   5.3454   5.3806
  5.4160   5.4347   5.4363   5.4668   5.5279   5.5492   5.5688   5.5870
  5.6081   5.6189   5.6341   5.6451   5.6552   5.6680   5.7165   5.7205
  5.7909   5.8364   5.8697   5.9060   5.9617   6.0315   6.0775   6.1426
  6.1635   6.3466   6.5970   6.6254   6.7016   6.8708   7.0542   7.0698
  7.0782   7.0931   7.1414   7.2066   7.2353   7.2955   7.3177   7.3324
  7.3517   7.4078   7.4229   7.4309   7.4578   7.4677   7.6281   7.6434
  7.7021   7.7224   7.7613   7.8190   7.8285   7.8590  24.4139  24.7746
 24.8100  25.0238  25.2310  50.5719  50.6091  50.6485  50.7535
 --------------------------------------------------------------
 
          Ground-State Mulliken Net Atomic Charges

     Atom                 Charge (a.u.)
  ----------------------------------------
      1 O                    -0.447443
      2 C                    -0.502110
      3 C                     0.342496
      4 O                    -0.472582
      5 C                     0.064747
      6 C                     0.030867
      7 C                    -0.517152
      8 O                    -0.406284
      9 O                    -0.400280
     10 H                     0.349961
     11 H                     0.215516
     12 H                     0.216399
     13 H                     0.303743
     14 H                     0.260858
     15 H                     0.263763
     16 H                     0.351048
     17 H                     0.346451
  ----------------------------------------
  Sum of atomic charges =     0.000000

 -----------------------------------------------------------------
                    Cartesian Multipole Moments
 -----------------------------------------------------------------
    Charge (ESU x 10^10)
                 0.0000
    Dipole Moment (Debye)
         X       3.7605      Y      -2.2296      Z      -3.4109
       Tot       5.5450
    Quadrupole Moments (Debye-Ang)
        XX     -29.0771     XY      -5.0206     YY     -70.1905
        XZ     -10.6563     YZ     -12.5771     ZZ     -70.5549
    Octopole Moments (Debye-Ang^2)
       XXX    -350.9713    XXY     -65.3636    XYY    -197.3688
       YYY    -321.4380    XXZ    -100.6467    XYZ     -26.8518
       YYZ    -126.5135    XZZ    -222.1664    YZZ    -132.6582
       ZZZ    -325.0812
    Hexadecapole Moments (Debye-Ang^3)
      XXXX   -2724.7018   XXXY    -666.8158   XXYY    -827.0404
      XYYY   -1109.1360   YYYY   -1793.7689   XXXZ    -832.3355
      XXYZ    -204.4528   XYYZ    -377.1280   YYYZ    -769.4136
      XXZZ    -985.6710   XYZZ    -442.9380   YYZZ    -604.4488
      XZZZ   -1156.0367   YZZZ    -801.5120   ZZZZ   -1637.4861
 -----------------------------------------------------------------
 Calculating analytic gradient of the SCF energy
 Gradient of CDS energy
            1           2           3           4           5           6
    1   0.0019114  -0.0023011  -0.0008802   0.0005950   0.0002807   0.0002287
    2   0.0004134  -0.0012460   0.0005808  -0.0004222  -0.0001157  -0.0000253
    3  -0.0001681  -0.0005275   0.0008216  -0.0006020  -0.0002165  -0.0000980
            7           8           9          10          11          12
    1  -0.0017920   0.0014537   0.0005631  -0.0004306   0.0001622   0.0002017
    2   0.0008384  -0.0013308   0.0010062  -0.0000336   0.0001979   0.0000380
    3   0.0011316   0.0007477  -0.0014318   0.0000870  -0.0000155   0.0001405
           13          14          15          16          17
    1   0.0000877   0.0002076   0.0001229  -0.0002766  -0.0001344
    2  -0.0000827   0.0000451   0.0000793   0.0002617  -0.0002046
    3  -0.0001131  -0.0000173   0.0000450  -0.0001138   0.0003303
 Gradient of SCF Energy
            1           2           3           4           5           6
    1  -0.0005916  -0.0206965   0.0024402  -0.0047817  -0.0047428  -0.0058899
    2  -0.0068819   0.0063361  -0.0027713   0.0042475  -0.0002827   0.0085793
    3  -0.0062538   0.0127845  -0.0035160   0.0053901   0.0010403   0.0106573
            7           8           9          10          11          12
    1  -0.0067057   0.0017073   0.0034934  -0.0007342   0.0057594   0.0089286
    2  -0.0045878   0.0071782   0.0049392   0.0041161   0.0026446  -0.0074014
    3  -0.0026020   0.0035962   0.0067659   0.0039990  -0.0097079   0.0004160
           13          14          15          16          17
    1   0.0089149   0.0131129   0.0051241  -0.0023454  -0.0029928
    2  -0.0092062   0.0015779   0.0010160  -0.0043458  -0.0051578
    3  -0.0121774  -0.0024057  -0.0005763  -0.0035938  -0.0038162
 Max gradient component =       2.070E-02
 RMS gradient           =       6.558E-03
 Computing fast CPCM-SWIG gradient
 Updating gradient with PCM contributions...
 -- total gradient after adding PCM contribution --
---------------------------------------------------
  Atom         X              Y              Z     
---------------------------------------------------
   1      -0.000021      -0.000034       0.000046
   2       0.000033      -0.000014      -0.000001
   3      -0.000013       0.000006      -0.000012
   4      -0.000001       0.000005      -0.000008
   5       0.000009      -0.000023       0.000008
   6       0.000011       0.000013       0.000004
   7       0.000050      -0.000002       0.000021
   8      -0.000020       0.000016      -0.000023
   9      -0.000008      -0.000007       0.000027
  10      -0.000038       0.000049      -0.000027
  11       0.000021       0.000032      -0.000007
  12      -0.000007      -0.000005      -0.000018
  13       0.000005      -0.000017       0.000005
  14       0.000009      -0.000011       0.000005
  15       0.000026      -0.000003       0.000001
  16      -0.000021       0.000011      -0.000021
  17      -0.000034      -0.000017      -0.000001
---------------------------------------------------
 Number of fixed atoms: 0
 Gradient time:  CPU 240.28 s  wall 20.35 s
 ######################################################
 ######################################################
 # Starting finite difference calculation for IDERIV  #
 Finite diff step size:  1.88973e-03 a.u.
 ----------------------------------------------------------------
             Standard Nuclear Orientation (Angstroms)
    I     Atom           X                Y                Z
 ----------------------------------------------------------------
    1      O       0.9085559781    -0.5331089340     0.1026410830
    2      C       2.2807277100    -0.2451977476    -0.0395611229
    3      C       2.7245404021     0.8414487907     0.8944063790
    4      O       1.9078117957     1.3610103831     1.6475893196
    5      C       4.1432003894     1.2189035730     0.8413866876
    6      C       4.7276446883     2.1343452932     1.6151559071
    7      C       4.1168371073     2.9951113519     2.7094441684
    8      O       3.1245567633     3.8672297440     2.2175343137
    9      O       3.6549699861     2.2240669182     3.7966958777
   10      H       0.5647864039     0.0731520667     0.7761741825
   11      H       2.5095087526     0.0765942947    -1.0605324234
   12      H       2.8871756288    -1.1333829285     0.1612945735
   13      H       4.7412200024     0.6907499172     0.1097523430
   14      H       5.7870598496     2.3025461099     1.4635559391
   15      H       4.8935619101     3.6350954882     3.1158173690
   16      H       2.4227339214     3.3176757218     1.8392406086
   17      H       2.9712635110     1.6264712573     3.4633676947
 ----------------------------------------------------------------
 Nuclear Repulsion Energy =         465.89867814 hartrees
 There are       35 alpha and       35 beta electrons
 Discretize the solute cavity surface with Lebedev spheres
	Using 110 Lebedev grid points for each H atom
	Using 194 Lebedev grid points for other atoms
	Atomic van der Waals radii will be scaled by 1.20
 Remove points where switching function is < 1.0e-08
 Keep 1290 surface tesserae and discard 1336 interior tesserae
 Molecular Surface Area = 147.922 Angst**2
 Requested basis set is 6-311++G(2df,2p)
 There are 120 shells and 386 basis functions
 A cutoff of  1.0D-12 yielded   6458 shell pairs
 There are     66851 function pairs (     83064 Cartesian)
 Smallest overlap matrix eigenvalue = 4.07E-06
 Guess MOs from SCF MO coefficient file

 -----------------------------------------------------------------------
  General SCF calculation program by
  Eric Jon Sundstrom, Paul Horn, Yuezhi Mao, Dmitri Zuev, Alec White,
  David Stuck, Shaama M.S., Shane Yost, Joonho Lee, David Small,
  Daniel Levine, Susi Lehtola, Hugh Burton, Evgeny Epifanovsky,
  Bang C. Huynh
 -----------------------------------------------------------------------
 Exchange:     0.1500 Hartree-Fock + 1.0000 wB97M-V + LR-HF
 Correlation:  1.0000 wB97M-V
 Using SG-2 standard quadrature grid
 Nonlocal Correlation:  VV10 with C = 0.0100 and b = 6.00 and scale = 1.00000
 Grid used for NLC:  SG-1 standard quadrature
 
 Citation of the SMD model:
 Marenich, A.V.; Cramer, C.J.; Truhlar, D.G.
 J. Phys. Chem. B 2009, 113, 6378-6396.
 iSolventCode=           1
 Solvent: water                                                           
 
 vradii
            1           2           3           4           5           6
    1   1.5200000   1.8500000   1.8500000   1.5200000   1.8500000   1.8500000
            7           8           9          10          11          12
    1   1.8500000   1.5200000   1.5200000   1.2000000   1.2000000   1.2000000
           13          14          15          16          17
    1   1.2000000   1.2000000   1.2000000   1.2000000   1.2000000
 -------------------------------------------------------
 OpenMP BLAS3 based DFT computing Module                
 Release: version 1.0, May 2013, Q-Chem Inc. Pittsburgh 
 -------------------------------------------------------
 A restricted SCF calculation will be
 performed using Roothaan-Hall, DIIS, GDM
 SCF converges when RMS gradient is below 1.0e-07
 ---------------------------------------
  Cycle       Energy         DIIS error
 ---------------------------------------
    1    -496.2061298122      4.25e-04  Roothaan Step
 ---------------------------------------
  Cycle       Energy         DIIS error
 ---------------------------------------
    1    -496.2363139936      4.83e-04  
    2    -496.2401062884      4.49e-04  Done DIIS. Switching to GDM
 ---------------------------------------
  Cycle       Energy        RMS Gradient
 ---------------------------------------
    1    -496.2401062884      9.85e-03   Normal BFGS step
    2    -496.2397003189      1.50e-02  Line search: overstep
    3    -496.2426692732      2.32e-03   Normal BFGS step
    4    -496.2428019033      1.59e-03   Normal BFGS step
    5    -496.2428232359      7.05e-04   Normal BFGS step
    6    -496.2428316832      9.90e-05   Normal BFGS step
    7    -496.2428319737      1.53e-04   Normal BFGS step
    8    -496.2428320944      2.64e-05   Normal BFGS step
    9    -496.2428321014      2.38e-05   Normal BFGS step
   10    -496.2428321038      5.45e-06   Normal BFGS step
   11    -496.2428321040      7.89e-07   Normal BFGS step
   12    -496.2428321040      4.80e-07   Normal BFGS step
   13    -496.2428321040      1.58e-07   Normal BFGS step
   14    -496.2428321040      6.43e-08  Convergence criterion met
 ---------------------------------------
 SCF time:   CPU 1346.80s  wall 92.00s 
(3)  G-ENP(liq) elect-nuc-pol free energy of system     -496.242832104 a.u.
(4)  G-CDS(liq) cavity-dispersion-solvent structure 
     free energy                                                3.6141 kcal/mol
(6)  G-S(liq) free energy of system                     -496.237072743 a.u.
 SCF   energy in the final basis set =     -496.2370727425
 Total energy in the final basis set =     -496.2370727425
 
 --------------------------------------------------------------
 
                    Orbital Energies (a.u.)
 --------------------------------------------------------------
 
 Alpha MOs
 -- Occupied --
-19.3517 -19.3453 -19.3439 -19.3425 -10.4564 -10.4533 -10.3964 -10.3738
-10.3591  -1.2122  -1.1982  -1.1576  -1.1338  -0.9372  -0.8669  -0.8111
 -0.7357  -0.6666  -0.6565  -0.6457  -0.6193  -0.5977  -0.5923  -0.5537
 -0.5422  -0.5206  -0.5158  -0.4884  -0.4853  -0.4662  -0.4227  -0.4149
 -0.4008  -0.3853  -0.3772
 -- Virtual --
 -0.0018   0.0226   0.0364   0.0413   0.0524   0.0580   0.0625   0.0720
  0.0816   0.1011   0.1047   0.1173   0.1241   0.1288   0.1314   0.1352
  0.1503   0.1572   0.1587   0.1612   0.1726   0.1739   0.1763   0.1891
  0.1995   0.2002   0.2086   0.2274   0.2360   0.2420   0.2492   0.2529
  0.2686   0.2755   0.2861   0.2927   0.2977   0.3003   0.3144   0.3233
  0.3268   0.3342   0.3371   0.3454   0.3465   0.3564   0.3580   0.3604
  0.3702   0.3770   0.3799   0.3866   0.4014   0.4054   0.4150   0.4285
  0.4509   0.4623   0.4635   0.5071   0.5282   0.5457   0.5526   0.5735
  0.5782   0.5981   0.6067   0.6149   0.6179   0.6280   0.6330   0.6441
  0.6511   0.6644   0.6735   0.6842   0.6936   0.7035   0.7212   0.7262
  0.7537   0.7593   0.7636   0.7820   0.7986   0.8058   0.8319   0.8366
  0.8492   0.8545   0.8803   0.8852   0.9021   0.9034   0.9391   0.9542
  0.9704   1.0073   1.0340   1.0600   1.0640   1.0686   1.0802   1.0810
  1.0900   1.1024   1.1201   1.1262   1.1608   1.1661   1.1755   1.1844
  1.2149   1.2166   1.2239   1.2355   1.2400   1.2527   1.2665   1.2782
  1.2870   1.2878   1.3044   1.3280   1.3622   1.3762   1.4069   1.4276
  1.4315   1.4378   1.4428   1.4563   1.4707   1.4815   1.4932   1.5079
  1.5185   1.5336   1.5412   1.5478   1.5675   1.6006   1.6067   1.6242
  1.6293   1.6429   1.6847   1.7017   1.7234   1.7506   1.8417   1.8995
  1.9161   1.9249   1.9426   1.9928   1.9949   2.0271   2.0335   2.0567
  2.1198   2.1551   2.2064   2.2191   2.2238   2.2733   2.2920   2.3463
  2.3841   2.4189   2.4215   2.4487   2.5472   2.5603   2.5704   2.6406
  2.6534   2.6777   2.6917   2.7589   2.7638   2.8019   2.8178   2.8194
  2.8692   2.8778   2.9021   2.9171   2.9235   2.9488   2.9617   2.9936
  3.0030   3.0067   3.0564   3.0600   3.1233   3.1400   3.1611   3.1624
  3.1986   3.2140   3.2269   3.2566   3.2693   3.2734   3.3192   3.3256
  3.3321   3.3475   3.3690   3.3932   3.4034   3.4485   3.4912   3.5055
  3.5113   3.5339   3.5375   3.5791   3.5855   3.5939   3.6359   3.6439
  3.6563   3.7011   3.7039   3.7160   3.7319   3.7531   3.7682   3.8015
  3.8048   3.8249   3.8636   3.8650   3.8760   3.8856   3.9053   3.9192
  3.9620   3.9785   4.0141   4.0203   4.0635   4.1020   4.1146   4.1343
  4.1842   4.1988   4.2034   4.2141   4.2402   4.2446   4.2537   4.3082
  4.3380   4.3466   4.3679   4.3992   4.4027   4.4478   4.4516   4.4552
  4.4854   4.5239   4.5490   4.6172   4.6341   4.7072   4.7995   4.8241
  4.8776   4.9386   5.0562   5.1872   5.2091   5.2104   5.2182   5.2460
  5.2559   5.2618   5.2947   5.3028   5.3182   5.3219   5.3454   5.3807
  5.4161   5.4347   5.4363   5.4672   5.5279   5.5493   5.5690   5.5870
  5.6078   5.6189   5.6342   5.6451   5.6552   5.6679   5.7166   5.7206
  5.7909   5.8364   5.8699   5.9077   5.9617   6.0329   6.0778   6.1429
  6.1635   6.3467   6.5975   6.6275   6.7016   6.8711   7.0542   7.0698
  7.0782   7.0933   7.1414   7.2066   7.2353   7.2958   7.3176   7.3314
  7.3518   7.4080   7.4227   7.4309   7.4578   7.4677   7.6284   7.6440
  7.7021   7.7224   7.7614   7.8190   7.8285   7.8591  24.4139  24.7755
 24.8107  25.0239  25.2311  50.5719  50.6094  50.6486  50.7535
 --------------------------------------------------------------
 
          Ground-State Mulliken Net Atomic Charges

     Atom                 Charge (a.u.)
  ----------------------------------------
      1 O                    -0.447258
      2 C                    -0.502018
      3 C                     0.342390
      4 O                    -0.472679
      5 C                     0.064761
      6 C                     0.030848
      7 C                    -0.517133
      8 O                    -0.406295
      9 O                    -0.400292
     10 H                     0.350109
     11 H                     0.215410
     12 H                     0.216309
     13 H                     0.303735
     14 H                     0.260848
     15 H                     0.263761
     16 H                     0.351049
     17 H                     0.346453
  ----------------------------------------
  Sum of atomic charges =     0.000000

 -----------------------------------------------------------------
                    Cartesian Multipole Moments
 -----------------------------------------------------------------
    Charge (ESU x 10^10)
                 0.0000
    Dipole Moment (Debye)
         X       3.7544      Y      -2.2305      Z      -3.4109
       Tot       5.5412
    Quadrupole Moments (Debye-Ang)
        XX     -29.0977     XY      -5.0219     YY     -70.1925
        XZ     -10.6576     YZ     -12.5789     ZZ     -70.5566
    Octopole Moments (Debye-Ang^2)
       XXX    -351.0666    XXY     -65.3738    XYY    -197.3865
       YYY    -321.4459    XXZ    -100.6554    XYZ     -26.8571
       YYZ    -126.5171    XZZ    -222.1812    YZZ    -132.6629
       ZZZ    -325.0852
    Hexadecapole Moments (Debye-Ang^3)
      XXXX   -2725.1031   XXXY    -666.8693   XXYY    -827.1042
      XYYY   -1109.1522   YYYY   -1793.7928   XXXZ    -832.3879
      XXYZ    -204.4773   XYYZ    -377.1449   YYYZ    -769.4283
      XXZZ    -985.7197   XYZZ    -442.9507   YYZZ    -604.4599
      XZZZ   -1156.0537   YZZZ    -801.5244   ZZZZ   -1637.5074
 -----------------------------------------------------------------
 Calculating analytic gradient of the SCF energy
 Gradient of CDS energy
            1           2           3           4           5           6
    1   0.0021895  -0.0025785  -0.0008802   0.0005950   0.0002807   0.0002287
    2   0.0004712  -0.0013028   0.0005807  -0.0004222  -0.0001157  -0.0000253
    3  -0.0001969  -0.0004986   0.0008215  -0.0006020  -0.0002165  -0.0000980
            7           8           9          10          11          12
    1  -0.0017920   0.0014537   0.0005631  -0.0004301   0.0001620   0.0002009
    2   0.0008384  -0.0013308   0.0010062  -0.0000337   0.0001979   0.0000372
    3   0.0011316   0.0007477  -0.0014318   0.0000867  -0.0000156   0.0001407
           13          14          15          16          17
    1   0.0000877   0.0002076   0.0001229  -0.0002766  -0.0001344
    2  -0.0000827   0.0000451   0.0000793   0.0002617  -0.0002046
    3  -0.0001131  -0.0000173   0.0000450  -0.0001138   0.0003303
 Gradient of SCF Energy
            1           2           3           4           5           6
    1   0.0004896  -0.0213960   0.0023641  -0.0047661  -0.0047372  -0.0058923
    2  -0.0068848   0.0061798  -0.0027918   0.0042586  -0.0002872   0.0085699
    3  -0.0065563   0.0128123  -0.0035132   0.0053980   0.0010354   0.0106490
            7           8           9          10          11          12
    1  -0.0067022   0.0017074   0.0034931  -0.0009178   0.0057064   0.0088499
    2  -0.0045818   0.0071768   0.0049372   0.0043161   0.0026247  -0.0074083
    3  -0.0025968   0.0035946   0.0067644   0.0042401  -0.0096873   0.0004199
           13          14          15          16          17
    1   0.0089118   0.0131057   0.0051212  -0.0023453  -0.0029924
    2  -0.0091988   0.0015766   0.0010138  -0.0043446  -0.0051561
    3  -0.0121693  -0.0024053  -0.0005778  -0.0035928  -0.0038150
 Max gradient component =       2.140E-02
 RMS gradient           =       6.605E-03
 Computing fast CPCM-SWIG gradient
 Updating gradient with PCM contributions...
 -- total gradient after adding PCM contribution --
---------------------------------------------------
  Atom         X              Y              Z     
---------------------------------------------------
   1       0.001027      -0.000031      -0.000246
   2      -0.000679      -0.000169       0.000031
   3      -0.000081      -0.000007      -0.000003
   4       0.000009       0.000014      -0.000002
   5       0.000010      -0.000034      -0.000001
   6       0.000007       0.000014       0.000006
   7       0.000048      -0.000000       0.000023
   8      -0.000018       0.000015      -0.000024
   9      -0.000007      -0.000007       0.000025
  10      -0.000206       0.000244       0.000207
  11      -0.000023       0.000015       0.000007
  12      -0.000073      -0.000016      -0.000013
  13       0.000006      -0.000016       0.000005
  14       0.000008      -0.000012       0.000005
  15       0.000027      -0.000004       0.000000
  16      -0.000022       0.000012      -0.000021
  17      -0.000034      -0.000017      -0.000000
---------------------------------------------------
 Number of fixed atoms: 0
 Gradient time:  CPU 257.28 s  wall 22.94 s
 ----------------------------------------------------------------
             Standard Nuclear Orientation (Angstroms)
    I     Atom           X                Y                Z
 ----------------------------------------------------------------
    1      O       0.9065559781    -0.5331089340     0.1026410830
    2      C       2.2807277100    -0.2451977476    -0.0395611229
    3      C       2.7245404021     0.8414487907     0.8944063790
    4      O       1.9078117957     1.3610103831     1.6475893196
    5      C       4.1432003894     1.2189035730     0.8413866876
    6      C       4.7276446883     2.1343452932     1.6151559071
    7      C       4.1168371073     2.9951113519     2.7094441684
    8      O       3.1245567633     3.8672297440     2.2175343137
    9      O       3.6549699861     2.2240669182     3.7966958777
   10      H       0.5647864039     0.0731520667     0.7761741825
   11      H       2.5095087526     0.0765942947    -1.0605324234
   12      H       2.8871756288    -1.1333829285     0.1612945735
   13      H       4.7412200024     0.6907499172     0.1097523430
   14      H       5.7870598496     2.3025461099     1.4635559391
   15      H       4.8935619101     3.6350954882     3.1158173690
   16      H       2.4227339214     3.3176757218     1.8392406086
   17      H       2.9712635110     1.6264712573     3.4633676947
 ----------------------------------------------------------------
 Nuclear Repulsion Energy =         465.85420250 hartrees
 There are       35 alpha and       35 beta electrons
 Discretize the solute cavity surface with Lebedev spheres
	Using 110 Lebedev grid points for each H atom
	Using 194 Lebedev grid points for other atoms
	Atomic van der Waals radii will be scaled by 1.20
 Remove points where switching function is < 1.0e-08
 Keep 1291 surface tesserae and discard 1335 interior tesserae
 Molecular Surface Area = 147.934 Angst**2
 Requested basis set is 6-311++G(2df,2p)
 There are 120 shells and 386 basis functions
 A cutoff of  1.0D-12 yielded   6458 shell pairs
 There are     66851 function pairs (     83064 Cartesian)
 Smallest overlap matrix eigenvalue = 4.07E-06
 Guess MOs from SCF MO coefficient file

 -----------------------------------------------------------------------
  General SCF calculation program by
  Eric Jon Sundstrom, Paul Horn, Yuezhi Mao, Dmitri Zuev, Alec White,
  David Stuck, Shaama M.S., Shane Yost, Joonho Lee, David Small,
  Daniel Levine, Susi Lehtola, Hugh Burton, Evgeny Epifanovsky,
  Bang C. Huynh
 -----------------------------------------------------------------------
 Exchange:     0.1500 Hartree-Fock + 1.0000 wB97M-V + LR-HF
 Correlation:  1.0000 wB97M-V
 Using SG-2 standard quadrature grid
 Nonlocal Correlation:  VV10 with C = 0.0100 and b = 6.00 and scale = 1.00000
 Grid used for NLC:  SG-1 standard quadrature
 
 Citation of the SMD model:
 Marenich, A.V.; Cramer, C.J.; Truhlar, D.G.
 J. Phys. Chem. B 2009, 113, 6378-6396.
 iSolventCode=           1
 Solvent: water                                                           
 
 vradii
            1           2           3           4           5           6
    1   1.5200000   1.8500000   1.8500000   1.5200000   1.8500000   1.8500000
            7           8           9          10          11          12
    1   1.8500000   1.5200000   1.5200000   1.2000000   1.2000000   1.2000000
           13          14          15          16          17
    1   1.2000000   1.2000000   1.2000000   1.2000000   1.2000000
 -------------------------------------------------------
 OpenMP BLAS3 based DFT computing Module                
 Release: version 1.0, May 2013, Q-Chem Inc. Pittsburgh 
 -------------------------------------------------------
 A restricted SCF calculation will be
 performed using Roothaan-Hall, DIIS, GDM
 SCF converges when RMS gradient is below 1.0e-07
 ---------------------------------------
  Cycle       Energy         DIIS error
 ---------------------------------------
    1    -496.2061045328      4.24e-04  Roothaan Step
 ---------------------------------------
  Cycle       Energy         DIIS error
 ---------------------------------------
    1    -496.2362937472      4.83e-04  
    2    -496.2400923256      4.50e-04  Done DIIS. Switching to GDM
 ---------------------------------------
  Cycle       Energy        RMS Gradient
 ---------------------------------------
    1    -496.2400923256      9.84e-03   Normal BFGS step
    2    -496.2396835836      1.50e-02  Line search: overstep
    3    -496.2426615596      2.31e-03   Normal BFGS step
    4    -496.2427945400      1.59e-03   Normal BFGS step
    5    -496.2428159224      7.05e-04   Normal BFGS step
    6    -496.2428243819      9.99e-05   Normal BFGS step
    7    -496.2428246724      1.53e-04   Normal BFGS step
    8    -496.2428247939      2.64e-05   Normal BFGS step
    9    -496.2428248008      2.38e-05   Normal BFGS step
   10    -496.2428248032      5.52e-06   Normal BFGS step
   11    -496.2428248034      8.00e-07   Normal BFGS step
   12    -496.2428248034      4.86e-07   Normal BFGS step
   13    -496.2428248034      1.57e-07   Normal BFGS step
   14    -496.2428248035      6.39e-08  Convergence criterion met
 ---------------------------------------
 SCF time:   CPU 1347.19s  wall 93.00s 
(3)  G-ENP(liq) elect-nuc-pol free energy of system     -496.242824803 a.u.
(4)  G-CDS(liq) cavity-dispersion-solvent structure 
     free energy                                                3.6095 kcal/mol
(6)  G-S(liq) free energy of system                     -496.237072669 a.u.
 SCF   energy in the final basis set =     -496.2370726693
 Total energy in the final basis set =     -496.2370726693
 
 --------------------------------------------------------------
 
                    Orbital Energies (a.u.)
 --------------------------------------------------------------
 
 Alpha MOs
 -- Occupied --
-19.3517 -19.3453 -19.3439 -19.3425 -10.4565 -10.4533 -10.3966 -10.3738
-10.3591  -1.2122  -1.1981  -1.1573  -1.1338  -0.9373  -0.8670  -0.8112
 -0.7356  -0.6665  -0.6565  -0.6457  -0.6192  -0.5977  -0.5921  -0.5536
 -0.5421  -0.5206  -0.5158  -0.4884  -0.4854  -0.4663  -0.4227  -0.4149
 -0.4009  -0.3853  -0.3773
 -- Virtual --
 -0.0018   0.0226   0.0364   0.0413   0.0524   0.0580   0.0625   0.0720
  0.0816   0.1011   0.1047   0.1173   0.1240   0.1288   0.1314   0.1352
  0.1503   0.1573   0.1587   0.1612   0.1726   0.1739   0.1763   0.1891
  0.1995   0.2002   0.2086   0.2274   0.2359   0.2421   0.2491   0.2528
  0.2686   0.2753   0.2861   0.2927   0.2977   0.3003   0.3143   0.3233
  0.3268   0.3342   0.3370   0.3454   0.3464   0.3563   0.3580   0.3603
  0.3702   0.3769   0.3799   0.3866   0.4014   0.4054   0.4150   0.4284
  0.4510   0.4623   0.4635   0.5069   0.5281   0.5456   0.5526   0.5734
  0.5781   0.5980   0.6067   0.6149   0.6178   0.6280   0.6330   0.6441
  0.6511   0.6644   0.6735   0.6842   0.6936   0.7034   0.7212   0.7262
  0.7537   0.7593   0.7635   0.7820   0.7987   0.8058   0.8319   0.8366
  0.8492   0.8545   0.8804   0.8852   0.9021   0.9034   0.9391   0.9542
  0.9704   1.0073   1.0340   1.0600   1.0640   1.0685   1.0802   1.0810
  1.0900   1.1024   1.1199   1.1262   1.1609   1.1661   1.1756   1.1844
  1.2148   1.2166   1.2238   1.2355   1.2400   1.2527   1.2665   1.2781
  1.2870   1.2877   1.3044   1.3279   1.3619   1.3762   1.4068   1.4275
  1.4315   1.4378   1.4427   1.4562   1.4707   1.4814   1.4932   1.5079
  1.5185   1.5336   1.5411   1.5477   1.5674   1.6008   1.6069   1.6242
  1.6292   1.6429   1.6847   1.7017   1.7233   1.7507   1.8414   1.8995
  1.9161   1.9251   1.9424   1.9928   1.9949   2.0270   2.0331   2.0565
  2.1198   2.1551   2.2064   2.2192   2.2228   2.2733   2.2919   2.3462
  2.3828   2.4188   2.4215   2.4484   2.5468   2.5602   2.5703   2.6404
  2.6533   2.6777   2.6916   2.7588   2.7637   2.8019   2.8177   2.8193
  2.8690   2.8777   2.9021   2.9171   2.9234   2.9488   2.9617   2.9936
  3.0030   3.0066   3.0563   3.0600   3.1229   3.1400   3.1611   3.1623
  3.1983   3.2139   3.2268   3.2565   3.2690   3.2729   3.3189   3.3255
  3.3320   3.3473   3.3688   3.3931   3.4034   3.4482   3.4907   3.5055
  3.5112   3.5341   3.5376   3.5790   3.5854   3.5938   3.6359   3.6439
  3.6563   3.7011   3.7038   3.7162   3.7317   3.7530   3.7675   3.8014
  3.8047   3.8247   3.8634   3.8650   3.8758   3.8855   3.9053   3.9192
  3.9620   3.9784   4.0139   4.0204   4.0632   4.1021   4.1146   4.1343
  4.1841   4.1987   4.2030   4.2141   4.2401   4.2445   4.2544   4.3082
  4.3380   4.3466   4.3679   4.3992   4.4027   4.4476   4.4516   4.4549
  4.4853   4.5239   4.5490   4.6172   4.6342   4.7071   4.7996   4.8240
  4.8777   4.9386   5.0561   5.1871   5.2092   5.2102   5.2180   5.2463
  5.2559   5.2618   5.2946   5.3026   5.3176   5.3218   5.3454   5.3806
  5.4159   5.4347   5.4364   5.4664   5.5278   5.5492   5.5687   5.5870
  5.6083   5.6190   5.6341   5.6451   5.6552   5.6681   5.7164   5.7203
  5.7908   5.8363   5.8696   5.9043   5.9617   6.0301   6.0774   6.1422
  6.1635   6.3465   6.5963   6.6234   6.7016   6.8706   7.0542   7.0698
  7.0782   7.0930   7.1414   7.2067   7.2353   7.2951   7.3178   7.3335
  7.3517   7.4077   7.4230   7.4310   7.4578   7.4677   7.6277   7.6429
  7.7021   7.7224   7.7612   7.8190   7.8285   7.8589  24.4139  24.7736
 24.8093  25.0237  25.2310  50.5719  50.6088  50.6485  50.7535
 --------------------------------------------------------------
 
          Ground-State Mulliken Net Atomic Charges

     Atom                 Charge (a.u.)
  ----------------------------------------
      1 O                    -0.447627
      2 C                    -0.502204
      3 C                     0.342602
      4 O                    -0.472484
      5 C                     0.064734
      6 C                     0.030886
      7 C                    -0.517171
      8 O                    -0.406273
      9 O                    -0.400268
     10 H                     0.349814
     11 H                     0.215621
     12 H                     0.216489
     13 H                     0.303750
     14 H                     0.260868
     15 H                     0.263765
     16 H                     0.351048
     17 H                     0.346449
  ----------------------------------------
  Sum of atomic charges =     0.000000

 -----------------------------------------------------------------
                    Cartesian Multipole Moments
 -----------------------------------------------------------------
    Charge (ESU x 10^10)
                 0.0000
    Dipole Moment (Debye)
         X       3.7666      Y      -2.2287      Z      -3.4109
       Tot       5.5488
    Quadrupole Moments (Debye-Ang)
        XX     -29.0566     XY      -5.0193     YY     -70.1886
        XZ     -10.6549     YZ     -12.5754     ZZ     -70.5532
    Octopole Moments (Debye-Ang^2)
       XXX    -350.8762    XXY     -65.3534    XYY    -197.3512
       YYY    -321.4301    XXZ    -100.6379    XYZ     -26.8466
       YYZ    -126.5099    XZZ    -222.1517    YZZ    -132.6535
       ZZZ    -325.0772
    Hexadecapole Moments (Debye-Ang^3)
      XXXX   -2724.3010   XXXY    -666.7623   XXYY    -826.9767
      XYYY   -1109.1198   YYYY   -1793.7450   XXXZ    -832.2830
      XXYZ    -204.4283   XYYZ    -377.1112   YYYZ    -769.3988
      XXZZ    -985.6223   XYZZ    -442.9253   YYZZ    -604.4376
      XZZZ   -1156.0197   YZZZ    -801.4996   ZZZZ   -1637.4647
 -----------------------------------------------------------------
 Calculating analytic gradient of the SCF energy
 Gradient of CDS energy
            1           2           3           4           5           6
    1   0.0016384  -0.0020289  -0.0008801   0.0005950   0.0002807   0.0002287
    2   0.0003568  -0.0011904   0.0005809  -0.0004222  -0.0001157  -0.0000253
    3  -0.0001399  -0.0005558   0.0008216  -0.0006020  -0.0002165  -0.0000980
            7           8           9          10          11          12
    1  -0.0017920   0.0014537   0.0005631  -0.0004310   0.0001624   0.0002026
    2   0.0008384  -0.0013308   0.0010062  -0.0000336   0.0001979   0.0000388
    3   0.0011316   0.0007477  -0.0014318   0.0000872  -0.0000154   0.0001402
           13          14          15          16          17
    1   0.0000877   0.0002076   0.0001229  -0.0002766  -0.0001344
    2  -0.0000827   0.0000451   0.0000793   0.0002617  -0.0002046
    3  -0.0001131  -0.0000173   0.0000450  -0.0001138   0.0003303
 Gradient of SCF Energy
            1           2           3           4           5           6
    1  -0.0016639  -0.0200052   0.0025161  -0.0047973  -0.0047484  -0.0058875
    2  -0.0068767   0.0064905  -0.0027510   0.0042365  -0.0002783   0.0085886
    3  -0.0059522   0.0127577  -0.0035189   0.0053822   0.0010452   0.0106655
            7           8           9          10          11          12
    1  -0.0067092   0.0017073   0.0034936  -0.0005510   0.0058124   0.0090072
    2  -0.0045937   0.0071796   0.0049411   0.0039160   0.0026644  -0.0073945
    3  -0.0026073   0.0035977   0.0067673   0.0037577  -0.0097284   0.0004121
           13          14          15          16          17
    1   0.0089179   0.0131200   0.0051269  -0.0023456  -0.0029933
    2  -0.0092136   0.0015792   0.0010182  -0.0043469  -0.0051595
    3  -0.0121855  -0.0024061  -0.0005749  -0.0035949  -0.0038173
 Max gradient component =       2.001E-02
 RMS gradient           =       6.516E-03
 Computing fast CPCM-SWIG gradient
 Updating gradient with PCM contributions...
 -- total gradient after adding PCM contribution --
---------------------------------------------------
  Atom         X              Y              Z     
---------------------------------------------------
   1      -0.001060      -0.000035       0.000337
   2       0.000736       0.000140      -0.000033
   3       0.000054       0.000019      -0.000020
   4      -0.000011      -0.000003      -0.000013
   5       0.000007      -0.000012       0.000018
   6       0.000015       0.000012       0.000002
   7       0.000051      -0.000003       0.000019
   8      -0.000021       0.000017      -0.000023
   9      -0.000009      -0.000007       0.000028
  10       0.000129      -0.000146      -0.000262
  11       0.000065       0.000049      -0.000020
  12       0.000058       0.000007      -0.000022
  13       0.000004      -0.000018       0.000005
  14       0.000009      -0.000011       0.000006
  15       0.000026      -0.000003       0.000001
  16      -0.000021       0.000011      -0.000021
  17      -0.000034      -0.000017      -0.000001
---------------------------------------------------
 Number of fixed atoms: 0
 Gradient time:  CPU 244.79 s  wall 20.51 s
 ----------------------------------------------------------------
             Standard Nuclear Orientation (Angstroms)
    I     Atom           X                Y                Z
 ----------------------------------------------------------------
    1      O       0.9075559781    -0.5321089340     0.1026410830
    2      C       2.2807277100    -0.2451977476    -0.0395611229
    3      C       2.7245404021     0.8414487907     0.8944063790
    4      O       1.9078117957     1.3610103831     1.6475893196
    5      C       4.1432003894     1.2189035730     0.8413866876
    6      C       4.7276446883     2.1343452932     1.6151559071
    7      C       4.1168371073     2.9951113519     2.7094441684
    8      O       3.1245567633     3.8672297440     2.2175343137
    9      O       3.6549699861     2.2240669182     3.7966958777
   10      H       0.5647864039     0.0731520667     0.7761741825
   11      H       2.5095087526     0.0765942947    -1.0605324234
   12      H       2.8871756288    -1.1333829285     0.1612945735
   13      H       4.7412200024     0.6907499172     0.1097523430
   14      H       5.7870598496     2.3025461099     1.4635559391
   15      H       4.8935619101     3.6350954882     3.1158173690
   16      H       2.4227339214     3.3176757218     1.8392406086
   17      H       2.9712635110     1.6264712573     3.4633676947
 ----------------------------------------------------------------
 Nuclear Repulsion Energy =         465.89186591 hartrees
 There are       35 alpha and       35 beta electrons
 Discretize the solute cavity surface with Lebedev spheres
	Using 110 Lebedev grid points for each H atom
	Using 194 Lebedev grid points for other atoms
	Atomic van der Waals radii will be scaled by 1.20
 Remove points where switching function is < 1.0e-08
 Keep 1290 surface tesserae and discard 1336 interior tesserae
 Molecular Surface Area = 147.923 Angst**2
 Requested basis set is 6-311++G(2df,2p)
 There are 120 shells and 386 basis functions
 A cutoff of  1.0D-12 yielded   6458 shell pairs
 There are     66851 function pairs (     83064 Cartesian)
 Smallest overlap matrix eigenvalue = 4.07E-06
 Guess MOs from SCF MO coefficient file

 -----------------------------------------------------------------------
  General SCF calculation program by
  Eric Jon Sundstrom, Paul Horn, Yuezhi Mao, Dmitri Zuev, Alec White,
  David Stuck, Shaama M.S., Shane Yost, Joonho Lee, David Small,
  Daniel Levine, Susi Lehtola, Hugh Burton, Evgeny Epifanovsky,
  Bang C. Huynh
 -----------------------------------------------------------------------
 Exchange:     0.1500 Hartree-Fock + 1.0000 wB97M-V + LR-HF
 Correlation:  1.0000 wB97M-V
 Using SG-2 standard quadrature grid
 Nonlocal Correlation:  VV10 with C = 0.0100 and b = 6.00 and scale = 1.00000
 Grid used for NLC:  SG-1 standard quadrature
 
 Citation of the SMD model:
 Marenich, A.V.; Cramer, C.J.; Truhlar, D.G.
 J. Phys. Chem. B 2009, 113, 6378-6396.
 iSolventCode=           1
 Solvent: water                                                           
 
 vradii
            1           2           3           4           5           6
    1   1.5200000   1.8500000   1.8500000   1.5200000   1.8500000   1.8500000
            7           8           9          10          11          12
    1   1.8500000   1.5200000   1.5200000   1.2000000   1.2000000   1.2000000
           13          14          15          16          17
    1   1.2000000   1.2000000   1.2000000   1.2000000   1.2000000
 -------------------------------------------------------
 OpenMP BLAS3 based DFT computing Module                
 Release: version 1.0, May 2013, Q-Chem Inc. Pittsburgh 
 -------------------------------------------------------
 A restricted SCF calculation will be
 performed using Roothaan-Hall, DIIS, GDM
 SCF converges when RMS gradient is below 1.0e-07
 ---------------------------------------
  Cycle       Energy         DIIS error
 ---------------------------------------
    1    -496.2061141099      4.25e-04  Roothaan Step
 ---------------------------------------
  Cycle       Energy         DIIS error
 ---------------------------------------
    1    -496.2363090158      4.83e-04  
    2    -496.2401052528      4.49e-04  Done DIIS. Switching to GDM
 ---------------------------------------
  Cycle       Energy        RMS Gradient
 ---------------------------------------
    1    -496.2401052528      9.86e-03   Normal BFGS step
    2    -496.2396987714      1.50e-02  Line search: overstep
    3    -496.2426664348      2.32e-03   Normal BFGS step
    4    -496.2427992681      1.60e-03   Normal BFGS step
    5    -496.2428206481      7.05e-04   Normal BFGS step
    6    -496.2428291005      9.89e-05   Normal BFGS step
    7    -496.2428293908      1.53e-04   Normal BFGS step
    8    -496.2428295115      2.64e-05   Normal BFGS step
    9    -496.2428295185      2.38e-05   Normal BFGS step
   10    -496.2428295209      5.45e-06   Normal BFGS step
   11    -496.2428295210      7.89e-07   Normal BFGS step
   12    -496.2428295211      4.80e-07   Normal BFGS step
   13    -496.2428295211      1.59e-07   Normal BFGS step
   14    -496.2428295211      6.42e-08  Convergence criterion met
 ---------------------------------------
 SCF time:   CPU 1367.32s  wall 94.00s 
(3)  G-ENP(liq) elect-nuc-pol free energy of system     -496.242829521 a.u.
(4)  G-CDS(liq) cavity-dispersion-solvent structure 
     free energy                                                3.6121 kcal/mol
(6)  G-S(liq) free energy of system                     -496.237073240 a.u.
 SCF   energy in the final basis set =     -496.2370732404
 Total energy in the final basis set =     -496.2370732404
 
 --------------------------------------------------------------
 
                    Orbital Energies (a.u.)
 --------------------------------------------------------------
 
 Alpha MOs
 -- Occupied --
-19.3516 -19.3453 -19.3439 -19.3424 -10.4565 -10.4533 -10.3965 -10.3738
-10.3591  -1.2122  -1.1981  -1.1575  -1.1338  -0.9372  -0.8670  -0.8112
 -0.7357  -0.6666  -0.6565  -0.6457  -0.6193  -0.5977  -0.5922  -0.5538
 -0.5421  -0.5206  -0.5158  -0.4884  -0.4854  -0.4662  -0.4227  -0.4149
 -0.4009  -0.3853  -0.3773
 -- Virtual --
 -0.0018   0.0226   0.0364   0.0413   0.0524   0.0580   0.0625   0.0720
  0.0816   0.1011   0.1047   0.1173   0.1241   0.1288   0.1314   0.1352
  0.1503   0.1573   0.1587   0.1612   0.1726   0.1739   0.1763   0.1891
  0.1995   0.2002   0.2086   0.2274   0.2360   0.2421   0.2491   0.2528
  0.2686   0.2755   0.2861   0.2927   0.2977   0.3004   0.3144   0.3233
  0.3268   0.3342   0.3370   0.3455   0.3464   0.3563   0.3580   0.3604
  0.3702   0.3770   0.3799   0.3866   0.4014   0.4054   0.4150   0.4284
  0.4510   0.4623   0.4635   0.5070   0.5282   0.5457   0.5526   0.5735
  0.5781   0.5981   0.6067   0.6150   0.6178   0.6280   0.6330   0.6441
  0.6512   0.6644   0.6736   0.6842   0.6936   0.7035   0.7212   0.7262
  0.7537   0.7593   0.7636   0.7820   0.7987   0.8058   0.8319   0.8366
  0.8492   0.8545   0.8803   0.8852   0.9021   0.9035   0.9391   0.9542
  0.9704   1.0073   1.0340   1.0600   1.0640   1.0686   1.0801   1.0810
  1.0900   1.1024   1.1200   1.1262   1.1609   1.1661   1.1755   1.1844
  1.2149   1.2166   1.2239   1.2355   1.2400   1.2527   1.2665   1.2781
  1.2869   1.2878   1.3044   1.3280   1.3621   1.3762   1.4068   1.4276
  1.4316   1.4378   1.4427   1.4563   1.4707   1.4814   1.4932   1.5080
  1.5185   1.5336   1.5413   1.5479   1.5675   1.6008   1.6069   1.6242
  1.6293   1.6429   1.6848   1.7017   1.7234   1.7507   1.8416   1.8995
  1.9161   1.9252   1.9426   1.9928   1.9949   2.0271   2.0334   2.0566
  2.1198   2.1550   2.2064   2.2188   2.2232   2.2733   2.2920   2.3463
  2.3837   2.4188   2.4215   2.4485   2.5471   2.5603   2.5704   2.6406
  2.6534   2.6777   2.6917   2.7590   2.7637   2.8023   2.8178   2.8193
  2.8692   2.8777   2.9021   2.9172   2.9234   2.9489   2.9617   2.9936
  3.0030   3.0067   3.0564   3.0600   3.1232   3.1400   3.1611   3.1624
  3.1985   3.2139   3.2269   3.2565   3.2691   3.2731   3.3191   3.3256
  3.3320   3.3474   3.3689   3.3931   3.4034   3.4484   3.4911   3.5055
  3.5113   3.5339   3.5376   3.5791   3.5855   3.5939   3.6359   3.6439
  3.6563   3.7011   3.7039   3.7161   3.7319   3.7531   3.7680   3.8015
  3.8048   3.8250   3.8636   3.8650   3.8759   3.8856   3.9053   3.9192
  3.9620   3.9784   4.0140   4.0203   4.0634   4.1020   4.1146   4.1343
  4.1842   4.1988   4.2035   4.2141   4.2402   4.2447   4.2547   4.3084
  4.3380   4.3468   4.3679   4.3993   4.4028   4.4479   4.4516   4.4553
  4.4854   4.5239   4.5490   4.6172   4.6341   4.7072   4.7996   4.8241
  4.8777   4.9386   5.0562   5.1871   5.2092   5.2103   5.2181   5.2461
  5.2559   5.2618   5.2947   5.3027   5.3179   5.3219   5.3454   5.3807
  5.4162   5.4348   5.4365   5.4669   5.5279   5.5493   5.5690   5.5871
  5.6086   5.6190   5.6341   5.6451   5.6553   5.6681   5.7167   5.7213
  5.7909   5.8364   5.8699   5.9062   5.9617   6.0326   6.0777   6.1428
  6.1635   6.3466   6.5971   6.6258   6.7016   6.8708   7.0542   7.0699
  7.0783   7.0933   7.1414   7.2068   7.2353   7.2956   7.3179   7.3348
  7.3517   7.4079   7.4229   7.4311   7.4579   7.4677   7.6283   7.6441
  7.7021   7.7224   7.7613   7.8190   7.8285   7.8590  24.4139  24.7748
 24.8101  25.0239  25.2310  50.5719  50.6095  50.6486  50.7535
 --------------------------------------------------------------
 
          Ground-State Mulliken Net Atomic Charges

     Atom                 Charge (a.u.)
  ----------------------------------------
      1 O                    -0.447280
      2 C                    -0.501917
      3 C                     0.342352
      4 O                    -0.472633
      5 C                     0.064730
      6 C                     0.030841
      7 C                    -0.517124
      8 O                    -0.406293
      9 O                    -0.400287
     10 H                     0.349854
     11 H                     0.215535
     12 H                     0.216379
     13 H                     0.303730
     14 H                     0.260853
     15 H                     0.263762
     16 H                     0.351052
     17 H                     0.346448
  ----------------------------------------
  Sum of atomic charges =     0.000000

 -----------------------------------------------------------------
                    Cartesian Multipole Moments
 -----------------------------------------------------------------
    Charge (ESU x 10^10)
                 0.0000
    Dipole Moment (Debye)
         X       3.7599      Y      -2.2328      Z      -3.4107
       Tot       5.5458
    Quadrupole Moments (Debye-Ang)
        XX     -29.0804     XY      -5.0255     YY     -70.1888
        XZ     -10.6578     YZ     -12.5789     ZZ     -70.5546
    Octopole Moments (Debye-Ang^2)
       XXX    -350.9916    XXY     -65.3833    XYY    -197.3721
       YYY    -321.4634    XXZ    -100.6544    XYZ     -26.8568
       YYZ    -126.5153    XZZ    -222.1702    YZZ    -132.6679
       ZZZ    -325.0833
    Hexadecapole Moments (Debye-Ang^3)
      XXXX   -2724.8186   XXXY    -666.8920   XXYY    -827.0593
      XYYY   -1109.1730   YYYY   -1793.7445   XXXZ    -832.3748
      XXYZ    -204.4722   XYYZ    -377.1387   YYYZ    -769.4271
      XXZZ    -985.6902   XYZZ    -442.9551   YYZZ    -604.4494
      XZZZ   -1156.0500   YZZZ    -801.5238   ZZZZ   -1637.4963
 -----------------------------------------------------------------
 Calculating analytic gradient of the SCF energy
 Gradient of CDS energy
            1           2           3           4           5           6
    1   0.0019687  -0.0023592  -0.0008803   0.0005950   0.0002807   0.0002287
    2   0.0004264  -0.0012607   0.0005809  -0.0004222  -0.0001157  -0.0000253
    3  -0.0001754  -0.0005194   0.0008215  -0.0006020  -0.0002165  -0.0000980
            7           8           9          10          11          12
    1  -0.0017920   0.0014537   0.0005631  -0.0004306   0.0001613   0.0002036
    2   0.0008384  -0.0013308   0.0010062  -0.0000337   0.0001979   0.0000397
    3   0.0011316   0.0007477  -0.0014318   0.0000872  -0.0000159   0.0001400
           13          14          15          16          17
    1   0.0000877   0.0002076   0.0001229  -0.0002766  -0.0001344
    2  -0.0000827   0.0000451   0.0000793   0.0002617  -0.0002046
    3  -0.0001131  -0.0000173   0.0000450  -0.0001138   0.0003303
 Gradient of SCF Energy
            1           2           3           4           5           6
    1  -0.0005868  -0.0207799   0.0023805  -0.0047989  -0.0047444  -0.0058925
    2  -0.0063215   0.0061663  -0.0027948   0.0042450  -0.0002837   0.0085756
    3  -0.0058101   0.0127612  -0.0035187   0.0053863   0.0010357   0.0106535
            7           8           9          10          11          12
    1  -0.0067039   0.0017047   0.0034922  -0.0006007   0.0057415   0.0089762
    2  -0.0045844   0.0071762   0.0049380   0.0037290   0.0026467  -0.0073772
    3  -0.0025997   0.0035941   0.0067645   0.0036023  -0.0097087   0.0004042
           13          14          15          16          17
    1   0.0089140   0.0131098   0.0051224  -0.0023429  -0.0029914
    2  -0.0092057   0.0015764   0.0010144  -0.0043432  -0.0051573
    3  -0.0121756  -0.0024054  -0.0005773  -0.0035920  -0.0038145
 Max gradient component =       2.078E-02
 RMS gradient           =       6.530E-03
 Computing fast CPCM-SWIG gradient
 Updating gradient with PCM contributions...
 -- total gradient after adding PCM contribution --
---------------------------------------------------
  Atom         X              Y              Z     
---------------------------------------------------
   1      -0.000020       0.000513       0.000495
   2      -0.000051      -0.000186      -0.000027
   3      -0.000070      -0.000010      -0.000012
   4      -0.000017       0.000000      -0.000007
   5       0.000007      -0.000028      -0.000002
   6       0.000008       0.000013       0.000005
   7       0.000049      -0.000001       0.000022
   8      -0.000019       0.000015      -0.000023
   9      -0.000007      -0.000007       0.000026
  10       0.000096      -0.000330      -0.000429
  11       0.000003       0.000036      -0.000008
  12       0.000036       0.000022      -0.000029
  13       0.000005      -0.000017       0.000005
  14       0.000008      -0.000012       0.000005
  15       0.000026      -0.000003       0.000001
  16      -0.000022       0.000012      -0.000021
  17      -0.000034      -0.000017       0.000000
---------------------------------------------------
 Number of fixed atoms: 0
 Gradient time:  CPU 246.90 s  wall 20.56 s
 ----------------------------------------------------------------
             Standard Nuclear Orientation (Angstroms)
    I     Atom           X                Y                Z
 ----------------------------------------------------------------
    1      O       0.9075559781    -0.5341089340     0.1026410830
    2      C       2.2807277100    -0.2451977476    -0.0395611229
    3      C       2.7245404021     0.8414487907     0.8944063790
    4      O       1.9078117957     1.3610103831     1.6475893196
    5      C       4.1432003894     1.2189035730     0.8413866876
    6      C       4.7276446883     2.1343452932     1.6151559071
    7      C       4.1168371073     2.9951113519     2.7094441684
    8      O       3.1245567633     3.8672297440     2.2175343137
    9      O       3.6549699861     2.2240669182     3.7966958777
   10      H       0.5647864039     0.0731520667     0.7761741825
   11      H       2.5095087526     0.0765942947    -1.0605324234
   12      H       2.8871756288    -1.1333829285     0.1612945735
   13      H       4.7412200024     0.6907499172     0.1097523430
   14      H       5.7870598496     2.3025461099     1.4635559391
   15      H       4.8935619101     3.6350954882     3.1158173690
   16      H       2.4227339214     3.3176757218     1.8392406086
   17      H       2.9712635110     1.6264712573     3.4633676947
 ----------------------------------------------------------------
 Nuclear Repulsion Energy =         465.86099194 hartrees
 There are       35 alpha and       35 beta electrons
 Discretize the solute cavity surface with Lebedev spheres
	Using 110 Lebedev grid points for each H atom
	Using 194 Lebedev grid points for other atoms
	Atomic van der Waals radii will be scaled by 1.20
 Remove points where switching function is < 1.0e-08
 Keep 1291 surface tesserae and discard 1335 interior tesserae
 Molecular Surface Area = 147.933 Angst**2
 Requested basis set is 6-311++G(2df,2p)
 There are 120 shells and 386 basis functions
 A cutoff of  1.0D-12 yielded   6458 shell pairs
 There are     66851 function pairs (     83064 Cartesian)
 Smallest overlap matrix eigenvalue = 4.07E-06
 Guess MOs from SCF MO coefficient file

 -----------------------------------------------------------------------
  General SCF calculation program by
  Eric Jon Sundstrom, Paul Horn, Yuezhi Mao, Dmitri Zuev, Alec White,
  David Stuck, Shaama M.S., Shane Yost, Joonho Lee, David Small,
  Daniel Levine, Susi Lehtola, Hugh Burton, Evgeny Epifanovsky,
  Bang C. Huynh
 -----------------------------------------------------------------------
 Exchange:     0.1500 Hartree-Fock + 1.0000 wB97M-V + LR-HF
 Correlation:  1.0000 wB97M-V
 Using SG-2 standard quadrature grid
 Nonlocal Correlation:  VV10 with C = 0.0100 and b = 6.00 and scale = 1.00000
 Grid used for NLC:  SG-1 standard quadrature
 
 Citation of the SMD model:
 Marenich, A.V.; Cramer, C.J.; Truhlar, D.G.
 J. Phys. Chem. B 2009, 113, 6378-6396.
 iSolventCode=           1
 Solvent: water                                                           
 
 vradii
            1           2           3           4           5           6
    1   1.5200000   1.8500000   1.8500000   1.5200000   1.8500000   1.8500000
            7           8           9          10          11          12
    1   1.8500000   1.5200000   1.5200000   1.2000000   1.2000000   1.2000000
           13          14          15          16          17
    1   1.2000000   1.2000000   1.2000000   1.2000000   1.2000000
 -------------------------------------------------------
 OpenMP BLAS3 based DFT computing Module                
 Release: version 1.0, May 2013, Q-Chem Inc. Pittsburgh 
 -------------------------------------------------------
 A restricted SCF calculation will be
 performed using Roothaan-Hall, DIIS, GDM
 SCF converges when RMS gradient is below 1.0e-07
 ---------------------------------------
  Cycle       Energy         DIIS error
 ---------------------------------------
    1    -496.2061024666      4.25e-04  Roothaan Step
 ---------------------------------------
  Cycle       Energy         DIIS error
 ---------------------------------------
    1    -496.2362938233      4.84e-04  
    2    -496.2400861959      4.51e-04  Done DIIS. Switching to GDM
 ---------------------------------------
  Cycle       Energy        RMS Gradient
 ---------------------------------------
    1    -496.2400861959      9.83e-03   Normal BFGS step
    2    -496.2396756538      1.50e-02  Line search: overstep
    3    -496.2426648696      2.31e-03   Normal BFGS step
    4    -496.2427976197      1.59e-03   Normal BFGS step
    5    -496.2428189466      7.07e-04   Normal BFGS step
    6    -496.2428274082      9.99e-05   Normal BFGS step
    7    -496.2428276990      1.53e-04   Normal BFGS step
    8    -496.2428278206      2.64e-05   Normal BFGS step
    9    -496.2428278276      2.38e-05   Normal BFGS step
   10    -496.2428278300      5.53e-06   Normal BFGS step
   11    -496.2428278301      8.02e-07   Normal BFGS step
   12    -496.2428278302      4.87e-07   Normal BFGS step
   13    -496.2428278302      1.57e-07   Normal BFGS step
   14    -496.2428278302      6.43e-08  Convergence criterion met
 ---------------------------------------
 SCF time:   CPU 1359.33s  wall 94.00s 
(3)  G-ENP(liq) elect-nuc-pol free energy of system     -496.242827830 a.u.
(4)  G-CDS(liq) cavity-dispersion-solvent structure 
     free energy                                                3.6111 kcal/mol
(6)  G-S(liq) free energy of system                     -496.237073112 a.u.
 SCF   energy in the final basis set =     -496.2370731120
 Total energy in the final basis set =     -496.2370731120
 
 --------------------------------------------------------------
 
                    Orbital Energies (a.u.)
 --------------------------------------------------------------
 
 Alpha MOs
 -- Occupied --
-19.3517 -19.3453 -19.3439 -19.3425 -10.4565 -10.4533 -10.3965 -10.3738
-10.3591  -1.2122  -1.1981  -1.1573  -1.1338  -0.9373  -0.8670  -0.8112
 -0.7356  -0.6665  -0.6565  -0.6457  -0.6192  -0.5977  -0.5922  -0.5536
 -0.5422  -0.5206  -0.5158  -0.4884  -0.4854  -0.4662  -0.4227  -0.4149
 -0.4009  -0.3853  -0.3773
 -- Virtual --
 -0.0018   0.0226   0.0364   0.0413   0.0524   0.0580   0.0625   0.0720
  0.0816   0.1011   0.1047   0.1173   0.1240   0.1288   0.1313   0.1352
  0.1503   0.1573   0.1587   0.1612   0.1726   0.1739   0.1763   0.1891
  0.1995   0.2002   0.2086   0.2274   0.2359   0.2420   0.2491   0.2528
  0.2686   0.2753   0.2861   0.2927   0.2977   0.3002   0.3143   0.3233
  0.3268   0.3342   0.3370   0.3454   0.3465   0.3563   0.3580   0.3603
  0.3702   0.3770   0.3799   0.3866   0.4014   0.4054   0.4150   0.4285
  0.4509   0.4623   0.4635   0.5069   0.5281   0.5456   0.5526   0.5735
  0.5781   0.5980   0.6067   0.6148   0.6178   0.6280   0.6330   0.6441
  0.6511   0.6644   0.6735   0.6842   0.6936   0.7034   0.7212   0.7262
  0.7537   0.7593   0.7635   0.7819   0.7986   0.8058   0.8319   0.8366
  0.8492   0.8545   0.8803   0.8852   0.9022   0.9033   0.9390   0.9542
  0.9704   1.0073   1.0340   1.0600   1.0640   1.0685   1.0803   1.0810
  1.0900   1.1024   1.1200   1.1262   1.1608   1.1661   1.1756   1.1843
  1.2149   1.2166   1.2238   1.2355   1.2400   1.2527   1.2665   1.2782
  1.2870   1.2878   1.3044   1.3279   1.3620   1.3761   1.4068   1.4276
  1.4315   1.4378   1.4427   1.4563   1.4707   1.4814   1.4932   1.5077
  1.5185   1.5335   1.5411   1.5477   1.5674   1.6006   1.6068   1.6242
  1.6292   1.6429   1.6847   1.7017   1.7233   1.7506   1.8415   1.8995
  1.9161   1.9248   1.9424   1.9928   1.9949   2.0270   2.0332   2.0566
  2.1198   2.1552   2.2064   2.2195   2.2233   2.2733   2.2920   2.3462
  2.3831   2.4189   2.4215   2.4487   2.5469   2.5602   2.5703   2.6405
  2.6533   2.6777   2.6917   2.7588   2.7638   2.8016   2.8177   2.8193
  2.8690   2.8777   2.9021   2.9171   2.9234   2.9487   2.9617   2.9936
  3.0030   3.0067   3.0563   3.0600   3.1231   3.1400   3.1611   3.1624
  3.1984   3.2140   3.2269   3.2565   3.2691   3.2732   3.3190   3.3256
  3.3321   3.3474   3.3689   3.3931   3.4034   3.4483   3.4908   3.5055
  3.5112   3.5341   3.5376   3.5790   3.5855   3.5938   3.6359   3.6439
  3.6563   3.7010   3.7038   3.7161   3.7318   3.7531   3.7677   3.8014
  3.8047   3.8246   3.8634   3.8650   3.8758   3.8855   3.9052   3.9192
  3.9620   3.9784   4.0140   4.0204   4.0633   4.1020   4.1146   4.1342
  4.1841   4.1987   4.2030   4.2141   4.2401   4.2444   4.2534   4.3080
  4.3380   4.3464   4.3678   4.3992   4.4027   4.4476   4.4516   4.4549
  4.4853   4.5240   4.5490   4.6172   4.6341   4.7071   4.7995   4.8240
  4.8776   4.9386   5.0561   5.1871   5.2092   5.2103   5.2181   5.2462
  5.2559   5.2618   5.2946   5.3027   5.3179   5.3219   5.3453   5.3806
  5.4159   5.4347   5.4362   5.4667   5.5278   5.5492   5.5687   5.5869
  5.6075   5.6189   5.6341   5.6451   5.6552   5.6679   5.7162   5.7198
  5.7908   5.8363   5.8696   5.9058   5.9617   6.0305   6.0774   6.1423
  6.1635   6.3466   6.5968   6.6250   6.7016   6.8708   7.0542   7.0697
  7.0781   7.0930   7.1414   7.2065   7.2353   7.2954   7.3174   7.3301
  7.3517   7.4078   7.4228   7.4307   7.4577   7.4677   7.6278   7.6428
  7.7021   7.7224   7.7614   7.8190   7.8285   7.8590  24.4139  24.7744
 24.8098  25.0238  25.2310  50.5719  50.6087  50.6485  50.7535
 --------------------------------------------------------------
 
          Ground-State Mulliken Net Atomic Charges

     Atom                 Charge (a.u.)
  ----------------------------------------
      1 O                    -0.447606
      2 C                    -0.502303
      3 C                     0.342640
      4 O                    -0.472530
      5 C                     0.064765
      6 C                     0.030893
      7 C                    -0.517179
      8 O                    -0.406275
      9 O                    -0.400274
     10 H                     0.350069
     11 H                     0.215497
     12 H                     0.216420
     13 H                     0.303756
     14 H                     0.260863
     15 H                     0.263765
     16 H                     0.351045
     17 H                     0.346454
  ----------------------------------------
  Sum of atomic charges =     0.000000

 -----------------------------------------------------------------
                    Cartesian Multipole Moments
 -----------------------------------------------------------------
    Charge (ESU x 10^10)
                -0.0000
    Dipole Moment (Debye)
         X       3.7612      Y      -2.2264      Z      -3.4110
       Tot       5.5442
    Quadrupole Moments (Debye-Ang)
        XX     -29.0739     XY      -5.0157     YY     -70.1923
        XZ     -10.6547     YZ     -12.5754     ZZ     -70.5552
    Octopole Moments (Debye-Ang^2)
       XXX    -350.9510    XXY     -65.3438    XYY    -197.3656
       YYY    -321.4125    XXZ    -100.6389    XYZ     -26.8469
       YYZ    -126.5118    XZZ    -222.1627    YZZ    -132.6485
       ZZZ    -325.0790
    Hexadecapole Moments (Debye-Ang^3)
      XXXX   -2724.5849   XXXY    -666.7395   XXYY    -827.0215
      XYYY   -1109.0990   YYYY   -1793.7934   XXXZ    -832.2962
      XXYZ    -204.4334   XYYZ    -377.1174   YYYZ    -769.4000
      XXZZ    -985.6517   XYZZ    -442.9209   YYZZ    -604.4481
      XZZZ   -1156.0234   YZZZ    -801.5001   ZZZZ   -1637.4758
 -----------------------------------------------------------------
 Calculating analytic gradient of the SCF energy
 Gradient of CDS energy
            1           2           3           4           5           6
    1   0.0018541  -0.0022431  -0.0008800   0.0005950   0.0002807   0.0002287
    2   0.0004004  -0.0012314   0.0005807  -0.0004222  -0.0001157  -0.0000253
    3  -0.0001608  -0.0005355   0.0008216  -0.0006020  -0.0002165  -0.0000980
            7           8           9          10          11          12
    1  -0.0017920   0.0014537   0.0005631  -0.0004306   0.0001631   0.0002000
    2   0.0008384  -0.0013308   0.0010062  -0.0000336   0.0001979   0.0000364
    3   0.0011316   0.0007477  -0.0014318   0.0000867  -0.0000151   0.0001410
           13          14          15          16          17
[...]
 Frequency:       953.79                1011.94                1047.72
 Force Cnst:      2.1711                 1.4734                 0.8384
 Red. Mass:       4.0505                 2.4420                 1.2963
 IR Active:          YES                    YES                    YES
 IR Intens:       32.888                 16.141                  0.116
 Raman Active:       YES                    YES                    YES
               X      Y      Z        X      Y      Z        X      Y      Z
 O         -0.018 -0.004  0.001    0.010 -0.029  0.030   -0.000  0.001 -0.001
 C          0.022 -0.129 -0.128   -0.047  0.151 -0.156    0.001 -0.002  0.003
 C         -0.024  0.093  0.095    0.055 -0.174  0.182   -0.000  0.004 -0.004
 O         -0.165  0.079  0.127   -0.012  0.035 -0.035    0.001 -0.002  0.002
 C          0.273 -0.072 -0.152   -0.015  0.061 -0.065   -0.022  0.073 -0.069
 C         -0.172  0.026  0.083   -0.005  0.005 -0.005    0.026 -0.088  0.083
 C         -0.003  0.006  0.009   -0.000  0.002  0.001    0.000 -0.003  0.002
 O          0.050 -0.057  0.019    0.001 -0.001 -0.000   -0.008  0.006  0.001
 O          0.021  0.033 -0.066   -0.000 -0.000 -0.000    0.005  0.002 -0.008
 H          0.256  0.119  0.038    0.008 -0.057  0.054   -0.000  0.002 -0.002
 H         -0.047 -0.133 -0.145    0.264 -0.511 -0.272   -0.012  0.007  0.003
 H         -0.032 -0.170 -0.146   -0.177  0.202  0.573    0.009 -0.000 -0.011
 H          0.408  0.023 -0.117    0.028 -0.101  0.088    0.145 -0.473  0.462
 H         -0.181  0.365  0.409    0.039 -0.139  0.144   -0.150  0.504 -0.487
 H          0.110 -0.060 -0.100    0.002  0.000 -0.001   -0.004  0.013 -0.013
 H          0.089 -0.090 -0.004   -0.000 -0.003  0.007   -0.014  0.021 -0.008
 H          0.047  0.034 -0.117    0.006 -0.004 -0.006    0.003  0.013 -0.023
 TransDip   0.166  0.076  0.019    0.030 -0.083  0.093    0.006 -0.000  0.009

 Mode:                22                     23                     24
 Frequency:      1135.76                1201.50                1211.50
 Force Cnst:      2.6089                 1.6564                 0.9985
 Red. Mass:       3.4328                 1.9474                 1.1547
 IR Active:          YES                    YES                    YES
 IR Intens:      346.537                206.964                267.159
 Raman Active:       YES                    YES                    YES
               X      Y      Z        X      Y      Z        X      Y      Z
 O         -0.086 -0.042 -0.015   -0.011 -0.002  0.002   -0.001 -0.001  0.001
 C          0.065 -0.023 -0.042    0.008 -0.008 -0.010    0.001  0.001 -0.004
 C          0.314  0.246  0.145    0.012  0.011  0.009    0.001  0.003 -0.000
 O         -0.017 -0.040 -0.033   -0.026  0.010  0.015   -0.005 -0.002  0.007
 C         -0.077  0.005  0.033    0.036  0.040  0.031    0.007  0.005  0.003
 C         -0.070 -0.050 -0.031   -0.034 -0.018 -0.013   -0.003 -0.014  0.008
 C         -0.000  0.024  0.025    0.137 -0.027 -0.084    0.021 -0.001 -0.010
 O         -0.009  0.005 -0.004   -0.087  0.072 -0.037   -0.040  0.069 -0.011
 O         -0.006 -0.006  0.005   -0.048 -0.072  0.126   -0.003  0.004 -0.051
 H          0.017  0.006 -0.000    0.005  0.005  0.003    0.003 -0.001  0.003
 H         -0.226 -0.260 -0.171    0.010 -0.012 -0.011    0.018 -0.002 -0.002
 H         -0.225 -0.245 -0.193    0.007 -0.010 -0.015   -0.012 -0.006  0.002
 H         -0.534 -0.272 -0.124    0.449  0.313  0.184    0.090  0.069  0.028
 H         -0.075 -0.218 -0.209   -0.036 -0.279 -0.278   -0.008 -0.059 -0.077
 H          0.084 -0.031 -0.054    0.359 -0.106 -0.396    0.140 -0.319  0.264
 H          0.031 -0.034 -0.031    0.013 -0.076 -0.023    0.333 -0.523  0.100
 H          0.021 -0.021 -0.030    0.037  0.077 -0.356   -0.101 -0.206  0.573
 TransDip   0.433  0.347  0.218    0.270 -0.101 -0.360    0.161 -0.401  0.295

 Mode:                25                     26                     27
 Frequency:      1234.52                1247.96                1279.20
 Force Cnst:      1.1710                 1.0464                 1.0428
 Red. Mass:       1.3041                 1.1404                 1.0816
 IR Active:          YES                    YES                    YES
 IR Intens:      210.642                 61.295                  2.627
 Raman Active:       YES                    YES                    YES
               X      Y      Z        X      Y      Z        X      Y      Z
 O         -0.121 -0.050 -0.014   -0.035 -0.013 -0.004   -0.001 -0.031  0.027
 C          0.035  0.000 -0.009    0.006 -0.002 -0.001   -0.005  0.029 -0.032
 C          0.018  0.009  0.009   -0.010 -0.012 -0.007   -0.009  0.032 -0.032
 O          0.006 -0.003 -0.006    0.022 -0.009 -0.015    0.003 -0.005  0.004
 C          0.003  0.003  0.001   -0.019 -0.000  0.004    0.000 -0.006  0.006
 C         -0.008 -0.008 -0.006    0.017  0.018  0.015    0.001 -0.000  0.001
 C         -0.010  0.007  0.013    0.031 -0.010 -0.028   -0.002  0.006 -0.006
 O          0.009 -0.016  0.005   -0.026  0.037 -0.013    0.004 -0.003  0.002
 O          0.003  0.008 -0.016   -0.009 -0.021  0.037   -0.002 -0.003  0.004
 H          0.594  0.292  0.090    0.172  0.088  0.026    0.051 -0.033  0.059
 H          0.271  0.265  0.126    0.090  0.108  0.052    0.665  0.261  0.170
 H          0.371  0.270  0.189    0.155  0.116  0.083   -0.576 -0.336 -0.023
 H          0.116  0.076  0.043   -0.394 -0.246 -0.130   -0.013 -0.005 -0.006
 H         -0.006 -0.183 -0.182    0.013  0.442  0.454   -0.006  0.033 -0.010
 H         -0.093  0.064  0.085    0.258 -0.165 -0.224   -0.001  0.012 -0.017
 H         -0.061  0.098 -0.017    0.141 -0.227  0.036    0.001  0.002  0.000
 H         -0.012 -0.024  0.080    0.026  0.049 -0.178   -0.001  0.001 -0.006
 TransDip   0.384  0.238  0.111    0.225 -0.050 -0.099    0.023  0.042 -0.021

 Mode:                28                     29                     30
 Frequency:      1304.99                1354.51                1396.77
 Force Cnst:      3.3707                 2.1634                 2.2344
 Red. Mass:       3.3593                 2.0013                 1.9438
 IR Active:          YES                    YES                    YES
 IR Intens:      205.283                 18.424                  8.875
 Raman Active:       YES                    YES                    YES
               X      Y      Z        X      Y      Z        X      Y      Z
 O          0.000  0.002 -0.002   -0.141  0.023  0.064   -0.012 -0.002  0.002
 C         -0.001 -0.000  0.001    0.225  0.003 -0.064    0.024  0.011  0.003
 C          0.001 -0.003  0.004   -0.029 -0.014 -0.004   -0.010  0.012  0.015
 O          0.000 -0.002  0.002   -0.004  0.004  0.004    0.012 -0.005 -0.009
 C         -0.000 -0.001 -0.004   -0.008 -0.006 -0.004   -0.007 -0.029 -0.029
 C          0.003 -0.017  0.019    0.007 -0.012 -0.014   -0.051  0.012  0.029
 C         -0.075  0.259 -0.246   -0.021  0.000  0.005    0.250 -0.006 -0.076
 O          0.140 -0.072  0.074    0.008 -0.000  0.003   -0.060  0.002 -0.019
 O         -0.082 -0.112  0.096    0.006  0.005 -0.002   -0.043 -0.031  0.016
 H          0.001  0.003 -0.003   -0.756 -0.266 -0.029   -0.023 -0.007  0.000
 H         -0.047 -0.023 -0.015    0.343 -0.019 -0.051   -0.004 -0.047 -0.020
 H          0.039  0.027  0.007    0.343  0.061 -0.124   -0.010 -0.023 -0.044
 H         -0.013  0.027 -0.034    0.067  0.041  0.022   -0.079 -0.078 -0.055
 H         -0.019  0.058 -0.059    0.007  0.045  0.045   -0.057  0.211  0.239
 H         -0.172  0.474 -0.399   -0.038  0.010  0.020   -0.234  0.291  0.407
 H          0.261 -0.265  0.108    0.031 -0.040  0.015   -0.307  0.406 -0.105
 H         -0.134 -0.213  0.407    0.009  0.021 -0.042   -0.099 -0.173  0.420
 TransDip  -0.112  0.328 -0.300   -0.003 -0.096 -0.098    0.066  0.054  0.042

 Mode:                31                     32                     33
 Frequency:      1420.20                1436.67                1457.33
 Force Cnst:      1.6030                 1.5916                 1.6867
 Red. Mass:       1.3489                 1.3088                 1.3480
 IR Active:          YES                    YES                    YES
 IR Intens:      103.531                 60.365                172.646
 Raman Active:       YES                    YES                    YES
               X      Y      Z        X      Y      Z        X      Y      Z
 O          0.030  0.027  0.016    0.012  0.006  0.002    0.002  0.001  0.000
 C         -0.027 -0.082 -0.072    0.009 -0.055 -0.057   -0.008 -0.002  0.001
 C         -0.017  0.004  0.008    0.047  0.046  0.031    0.001 -0.004 -0.001
 O          0.008 -0.005 -0.007   -0.001 -0.009 -0.009   -0.002  0.001  0.001
 C          0.086  0.027  0.001   -0.081 -0.023  0.002    0.014  0.005  0.001
 C         -0.035  0.045  0.057    0.018 -0.056 -0.063   -0.007 -0.002  0.020
 C          0.017  0.002  0.001   -0.005 -0.005 -0.012   -0.035  0.080 -0.125
 O         -0.008 -0.007 -0.004    0.006  0.009  0.004    0.007 -0.038  0.005
 O         -0.008 -0.006 -0.006    0.007  0.006  0.010    0.018  0.003  0.057
 H         -0.280 -0.117 -0.028   -0.096 -0.044 -0.014   -0.000  0.000 -0.000
 H         -0.065  0.465  0.094   -0.277  0.439  0.048    0.030 -0.019  0.002
 H          0.056  0.098  0.464   -0.129 -0.009  0.503    0.024  0.012 -0.026
 H         -0.339 -0.253 -0.154    0.319  0.245  0.150   -0.062 -0.023 -0.041
 H         -0.033 -0.282 -0.284    0.013  0.258  0.265   -0.016 -0.031 -0.064
 H          0.115 -0.046 -0.106   -0.175  0.075  0.182    0.070 -0.576  0.697
 H         -0.069  0.094 -0.029    0.067 -0.091  0.028   -0.093  0.100 -0.008
 H         -0.023 -0.047  0.106    0.025  0.051 -0.114    0.084  0.119 -0.307
 TransDip  -0.312 -0.009  0.093    0.088  0.187  0.138   -0.089  0.211 -0.353

 Mode:                34                     35                     36
 Frequency:      1467.56                1505.59                1689.09
 Force Cnst:      1.7200                 2.4533                16.6632
 Red. Mass:       1.3555                 1.8369                 9.9129
 IR Active:          YES                    YES                    YES
 IR Intens:      170.637                 26.658                336.577
 Raman Active:       YES                    YES                    YES
               X      Y      Z        X      Y      Z        X      Y      Z
 O         -0.009 -0.004 -0.001   -0.063 -0.036 -0.016   -0.011 -0.003  0.000
 C          0.031  0.010  0.001    0.200  0.097  0.034   -0.001  0.009  0.009
 C         -0.010  0.002  0.006   -0.082 -0.061 -0.035    0.428 -0.190 -0.313
 O          0.009 -0.002 -0.005    0.008  0.008  0.005   -0.235  0.140  0.207
 C         -0.035 -0.013 -0.002    0.038  0.001 -0.011   -0.264 -0.246 -0.175
 C          0.033 -0.022 -0.029   -0.001  0.037  0.039    0.147  0.284  0.251
 C         -0.011  0.120  0.072   -0.006 -0.020 -0.018    0.013 -0.050 -0.055
 O         -0.008 -0.059 -0.012    0.001  0.008  0.001   -0.008  0.007  0.003
 O         -0.015 -0.015 -0.029    0.003  0.002  0.006   -0.005  0.001  0.009
 H          0.004  0.002  0.001    0.245  0.103  0.026   -0.115 -0.044 -0.010
 H         -0.104  0.036 -0.015   -0.614  0.073 -0.125    0.015  0.178  0.056
 H         -0.076 -0.042  0.064   -0.497 -0.294  0.248    0.053  0.071  0.171
 H          0.154  0.114  0.060   -0.104 -0.097 -0.066    0.119 -0.025 -0.067
 H          0.037  0.125  0.111    0.001 -0.108 -0.112    0.189 -0.091 -0.153
 H          0.577 -0.371 -0.235   -0.041  0.001  0.006    0.096 -0.105 -0.136
 H         -0.276  0.381 -0.111    0.044 -0.063  0.021   -0.072  0.071 -0.029
 H         -0.052 -0.142  0.306    0.010  0.030 -0.063   -0.023 -0.048  0.076
 TransDip  -0.071  0.348  0.222    0.157 -0.004 -0.053    0.564 -0.007 -0.164

 Mode:                37                     38                     39
 Frequency:      1741.85                3041.44                3074.47
 Force Cnst:     13.4289                 5.7761                 6.1421
 Red. Mass:       7.5122                 1.0598                 1.1029
 IR Active:          YES                    YES                    YES
 IR Intens:      144.593                 50.794                  6.973
 Raman Active:       YES                    YES                    YES
               X      Y      Z        X      Y      Z        X      Y      Z
 O          0.009  0.006  0.003    0.000  0.001  0.001   -0.000  0.001 -0.001
 C         -0.007 -0.024 -0.021    0.040 -0.026 -0.050    0.024 -0.067  0.060
 C         -0.210  0.222  0.282    0.001 -0.000 -0.001    0.000 -0.001  0.001
 O          0.159 -0.114 -0.159   -0.001  0.001  0.001    0.000 -0.000  0.000
 C         -0.187 -0.275 -0.227   -0.000  0.000  0.000   -0.000  0.000 -0.000
 C          0.125  0.285  0.259   -0.000 -0.000 -0.000   -0.000  0.000 -0.000
 C         -0.024 -0.051 -0.046    0.000  0.000 -0.000    0.000 -0.000  0.000
 O          0.001  0.010  0.002   -0.000  0.000  0.000    0.000  0.000  0.000
 O          0.003  0.002  0.009   -0.000  0.000  0.000   -0.000 -0.000  0.000
 H          0.018  0.006  0.001   -0.000 -0.011 -0.011    0.001 -0.005  0.003
 H          0.053 -0.094 -0.023   -0.137 -0.228  0.718    0.124  0.165 -0.601
 H          0.028 -0.012 -0.107   -0.338  0.526 -0.131   -0.410  0.636 -0.125
 H          0.446  0.100 -0.038    0.004 -0.005 -0.006    0.000 -0.000 -0.000
 H          0.174 -0.180 -0.246   -0.001 -0.000 -0.000   -0.000  0.000 -0.000
 H          0.069 -0.119 -0.144   -0.001 -0.001 -0.000   -0.000 -0.000 -0.000
 H          0.077 -0.103  0.031    0.000 -0.000 -0.000   -0.000 -0.000 -0.000
 H          0.021  0.052 -0.111    0.000  0.000 -0.000    0.000  0.000 -0.000
 TransDip  -0.104  0.249  0.275    0.213  0.083  0.004    0.036 -0.050  0.058

 Mode:                40                     41                     42
 Frequency:      3146.44                3182.63                3200.32
 Force Cnst:      6.3552                 6.4855                 6.6127
 Red. Mass:       1.0895                 1.0867                 1.0958
 IR Active:          YES                    YES                    YES
 IR Intens:       43.960                  4.475                  4.012
 Raman Active:       YES                    YES                    YES
               X      Y      Z        X      Y      Z        X      Y      Z
 O         -0.000  0.000  0.000    0.000  0.000  0.000    0.000  0.000  0.000
 C          0.000 -0.000 -0.000    0.000 -0.000 -0.000    0.001 -0.000 -0.000
 C          0.000  0.000  0.000   -0.001 -0.000 -0.000   -0.002 -0.001 -0.000
 O         -0.000 -0.000 -0.000   -0.000  0.000  0.000   -0.000 -0.000  0.000
 C         -0.001  0.000  0.001    0.027 -0.022 -0.031    0.037 -0.038 -0.051
 C          0.013  0.003 -0.001   -0.068 -0.011  0.010    0.049  0.012 -0.003
 C         -0.061 -0.050 -0.032   -0.008 -0.007 -0.005    0.004  0.004  0.003
 O          0.001  0.002  0.001    0.000  0.000  0.000   -0.000 -0.000 -0.000
 O          0.001  0.001  0.001    0.000  0.000  0.000   -0.000 -0.000 -0.000
 H          0.001 -0.000 -0.000   -0.000 -0.000 -0.000   -0.000 -0.001 -0.001
 H         -0.000 -0.000  0.001   -0.001 -0.001  0.004   -0.001 -0.001  0.005
 H         -0.001  0.001 -0.000   -0.002  0.003 -0.001   -0.002  0.004 -0.001
 H          0.009 -0.008 -0.011   -0.312  0.269  0.375   -0.460  0.401  0.557
 H         -0.146 -0.026  0.018    0.797  0.127 -0.115   -0.539 -0.087  0.076
 H          0.702  0.582  0.370    0.093  0.079  0.052   -0.048 -0.042 -0.028
 H         -0.010 -0.018 -0.006   -0.003 -0.004 -0.002    0.000  0.003  0.001
 H         -0.012 -0.009 -0.014   -0.002 -0.003 -0.003    0.001  0.001  0.003
 TransDip  -0.155 -0.123 -0.076   -0.055 -0.035 -0.019    0.061 -0.001 -0.021

 Mode:                43                     44                     45
 Frequency:      3721.97                3735.21                3760.79
 Force Cnst:      8.6971                 8.7604                 8.8816
 Red. Mass:       1.0656                 1.0657                 1.0658
 IR Active:          YES                    YES                    YES
 IR Intens:      197.669                149.011                209.011
 Raman Active:       YES                    YES                    YES
               X      Y      Z        X      Y      Z        X      Y      Z
 O          0.024 -0.038 -0.043   -0.001  0.002  0.003   -0.000  0.001  0.001
 C          0.001 -0.001 -0.001   -0.000 -0.000  0.000   -0.000  0.000  0.000
 C         -0.001 -0.000  0.000    0.002 -0.001 -0.001    0.001 -0.000 -0.001
 O          0.000  0.000  0.000   -0.001  0.001  0.000   -0.001  0.000  0.001
 C          0.000 -0.000 -0.000   -0.000 -0.000 -0.000   -0.000 -0.000 -0.000
 C         -0.000  0.000  0.000    0.000  0.000  0.001   -0.000  0.000  0.000
 C         -0.000 -0.000 -0.000   -0.002 -0.001 -0.001   -0.002 -0.002 -0.001
 O         -0.003 -0.002 -0.002   -0.045 -0.033 -0.025   -0.006 -0.004 -0.004
 O         -0.000 -0.000 -0.000    0.006  0.005  0.003   -0.044 -0.039 -0.019
 H         -0.386  0.608  0.688    0.023 -0.038 -0.043    0.006 -0.012 -0.013
 H         -0.005 -0.006  0.008    0.001  0.001 -0.000    0.000  0.000 -0.000
 H         -0.009  0.006 -0.004    0.001 -0.000  0.000    0.001  0.000  0.001
 H          0.000  0.001  0.001   -0.001  0.000 -0.000   -0.001 -0.000  0.000
 H          0.000 -0.000 -0.000    0.002 -0.000 -0.001    0.002 -0.001 -0.001
 H          0.001  0.001  0.001    0.013  0.007  0.008    0.015  0.013  0.006
 H          0.047  0.034  0.026    0.728  0.536  0.396    0.098  0.072  0.053
 H          0.007  0.007  0.003   -0.095 -0.084 -0.043    0.698  0.622  0.321
 TransDip  -0.078  0.307  0.320    0.277  0.216  0.171    0.314  0.302  0.157

 STANDARD THERMODYNAMIC QUANTITIES AT   298.15 K  AND     1.00 ATM

   This Molecule has  0 Imaginary Frequencies
   Zero point vibrational energy:       84.979 kcal/mol

   Atom    1 Element O  Has Mass   15.99491
   Atom    2 Element C  Has Mass   12.00000
   Atom    3 Element C  Has Mass   12.00000
   Atom    4 Element O  Has Mass   15.99491
   Atom    5 Element C  Has Mass   12.00000
   Atom    6 Element C  Has Mass   12.00000
   Atom    7 Element C  Has Mass   12.00000
   Atom    8 Element O  Has Mass   15.99491
   Atom    9 Element O  Has Mass   15.99491
   Atom   10 Element H  Has Mass    1.00783
   Atom   11 Element H  Has Mass    1.00783
   Atom   12 Element H  Has Mass    1.00783
   Atom   13 Element H  Has Mass    1.00783
   Atom   14 Element H  Has Mass    1.00783
   Atom   15 Element H  Has Mass    1.00783
   Atom   16 Element H  Has Mass    1.00783
   Atom   17 Element H  Has Mass    1.00783
   Molecular Mass:   132.042280 amu
   Principal axes and moments of inertia in amu*Bohr^2:
                             1           2           3
    Eigenvalues --      533.06336  1948.57822  2136.56968
          X               0.48217     0.85147    -0.20620
          Y               0.68065    -0.21590     0.70007
          Z               0.55157    -0.47790    -0.68365
   Rotational Symmetry Number is   1
   The Molecule is an Asymmetric Top
   Translational Enthalpy:        0.889 kcal/mol
   Rotational Enthalpy:           0.889 kcal/mol
   Vibrational Enthalpy:         89.312 kcal/mol
   gas constant (RT):             0.592 kcal/mol
   Translational Entropy:        40.546  cal/mol.K
   Rotational Entropy:           29.185  cal/mol.K
   Vibrational Entropy:          27.456  cal/mol.K

   Total Enthalpy:               91.682 kcal/mol
   Total Entropy:                97.187  cal/mol.K
 Total job time:  12197.93s(wall), 169244.07s(cpu) 
 Fri Jul 12 14:45:33 2024

        *************************************************************
        *                                                           *
        *  Thank you very much for using Q-Chem.  Have a nice day.  *
        *                                                           *
        *************************************************************


