
Running Job 1 of 1 Q_in.in
qchem Q_in.in_195871.0 /scratch/ari.fischer/qChem2100610.hpc-mn1/qchem195871/ 0
/usr/local/qchem-5.4.1/exe/qcprog.exe_s Q_in.in_195871.0 /scratch/ari.fischer/qChem2100610.hpc-mn1/qchem195871/
                  Welcome to Q-Chem
     A Quantum Leap Into The Future Of Chemistry


 Q-Chem 5.4, Q-Chem, Inc., Pleasanton, CA (2021)

 License issued to: Nanyang Technological University (site)

 E. Epifanovsky,  A. T. B. Gilbert,  Xintian Feng,  Joonho Lee,  Yuezhi Mao,  
 N. Mardirossian,  P. Pokhilko,  A. White,  M. Wormit,  M. P. Coons,  
 A. L. Dempwolff,  Zhengting Gan,  D. Hait,  P. R. Horn,  L. D. Jacobson,  
 I. Kaliman,  J. Kussmann,  A. W. Lange,  Ka Un Lao,  D. S. Levine,  Jie Liu,  
 S. C. McKenzie,  A. F. Morrison,  K. Nanda,  F. Plasser,  D. R. Rehn,  
 M. L. Vidal,  Zhi-Qiang You,  Ying Zhu,  B. Alam,  B. Albrecht,  
 A. Aldossary,  E. Alguire,  J. H. Andersen,  D. Barton,  K. Begam,  A. Behn,  
 Y. A. Bernard,  E. J. Berquist,  H. Burton,  A. Carreras,  K. Carter-Fenk,  
 R. Chakraborty,  A. D. Chien,  K. D. Closser,  V. Cofer-Shabica,  
 S. Dasgupta,  Jia Deng,  M. de Wergifosse,  M. Diedenhofen,  Hainam Do,  
 S. Ehlert,  Po-Tung Fang,  S. Fatehi,  Qingguo Feng,  T. Friedhoff,  
 J. Gayvert,  Qinghui Ge,  G. Gidofalvi,  M. Goldey,  J. Gomes,  
 C. Gonzalez-Espinoza,  S. Gulania,  A. Gunina,  M. W. D. Hanson-Heine,  
 P. H. P. Harbach,  A. W. Hauser,  M. F. Herbst,  M. Hernandez Vera,  
 M. Hodecker,  Z. C. Holden,  S. Houck,  Xunkun Huang,  Kerwin Hui,  
 B. C. Huynh,  M. Ivanov,  Hyunjun Ji,  Hanjie Jiang,  B. Kaduk,  S. Kaehler,  
 K. Khistyaev,  Jaehoon Kim,  P. Klunzinger,  Z. Koczor-Benda,  
 Joong Hoon Koh,  D. Kosenkov,  L. Koulias,  T. Kowalczyk,  C. M. Krauter,  
 K. Kue,  A. Kunitsa,  T. Kus,  A. Landau,  K. V. Lawler,  D. Lefrancois,  
 S. Lehtola,  Rain Li,  Yi-Pei Li,  Jiashu Liang,  M. Liebenthal,  
 Hung-Hsuan Lin,  You-Sheng Lin,  Fenglai Liu,  Kuan-Yu Liu,  
 M. Loipersberger,  A. Luenser,  A. Manjanath,  P. Manohar,  E. Mansoor,  
 S. F. Manzer,  Shan-Ping Mao,  A. V. Marenich,  T. Markovich,  S. Mason,  
 S. A. Maurer,  P. F. McLaughlin,  M. F. S. J. Menger,  J.-M. Mewes,  
 S. A. Mewes,  P. Morgante,  J. W. Mullinax,  K. J. Oosterbaan,  G. Paran,  
 Alexander C. Paul,  Suranjan K. Paul,  F. Pavosevic,  Zheng Pei,  S. Prager,  
 E. I. Proynov,  E. Ramos,  B. Rana,  A. E. Rask,  A. Rettig,  R. M. Richard,  
 F. Rob,  E. Rossomme,  T. Scheele,  M. Scheurer,  M. Schneider,  
 N. Sergueev,  S. M. Sharada,  W. Skomorowski,  D. W. Small,  C. J. Stein,  
 Yu-Chuan Su,  E. J. Sundstrom,  Zhen Tao,  J. Thirman,  T. Tsuchimochi,  
 N. M. Tubman,  S. P. Veccham,  O. Vydrov,  J. Wenzel,  J. Witte,  A. Yamada,  
 Kun Yao,  S. Yeganeh,  S. R. Yost,  A. Zech,  Igor Ying Zhang,  Xing Zhang,  
 Yu Zhang,  D. Zuev,  A. Aspuru-Guzik,  A. T. Bell,  N. A. Besley,  
 K. B. Bravaya,  B. R. Brooks,  D. Casanova,  Jeng-Da Chai,  S. Coriani,  
 C. J. Cramer,  A. E. DePrince, III,  R. A. DiStasio Jr.,  A. Dreuw,  
 B. D. Dunietz,  T. R. Furlani,  W. A. Goddard III,  S. Grimme,  
 S. Hammes-Schiffer,  T. Head-Gordon,  W. J. Hehre,  Chao-Ping Hsu,  
 T.-C. Jagau,  Yousung Jung,  A. Klamt,  Jing Kong,  D. S. Lambrecht,  
 WanZhen Liang,  N. J. Mayhall,  C. W. McCurdy,  J. B. Neaton,  
 C. Ochsenfeld,  J. A. Parkhill,  R. Peverati,  V. A. Rassolov,  Yihan Shao,  
 L. V. Slipchenko,  T. Stauch,  R. P. Steele,  J. E. Subotnik,  
 A. J. W. Thom,  A. Tkatchenko,  D. G. Truhlar,  T. Van Voorhis,  
 T. A. Wesolowski,  K. B. Whaley,  H. L. Woodcock III,  P. M. Zimmerman,  
 S. Faraji,  P. M. W. Gill,  M. Head-Gordon,  J. M. Herbert,  A. I. Krylov

 Additional authors for Version 5.4.1: 
 S. Kotaru,  Shaozhi Li,  Xiangyuan Li,  F. Matz,  A. Molle,  Haisheng Ren,  
 Yingli Su,  Hung-Yi Tsai,  C. Utku,  Fang Wang

 Contributors to earlier versions of Q-Chem not listed above: 
 R. D. Adamson,  B. Austin,  R. Baer,  J. Baker,  G. J. O. Beran,  
 K. Brandhorst,  S. T. Brown,  E. F. C. Byrd,  A. K. Chakraborty,  
 G. K. L. Chan,  Chun-Min Chang,  Yunqing Chen,  C.-L. Cheng,  
 Siu Hung Chien,  D. M. Chipman,  D. L. Crittenden,  H. Dachsel,  
 R. J. Doerksen,  A. D. Dutoi,  R. G. Edgar,  J. Fosso-Tande,  
 L. Fusti-Molnar,  D. Ghosh,  A. Ghysels,  A. Golubeva-Zadorozhnaya,  
 J. Gonthier,  M. S. Gordon,  S. R. Gwaltney,  G. Hawkins,  J. E. Herr,  
 A. Heyden,  S. Hirata,  E. G. Hohenstein,  G. Kedziora,  F. J. Keil,  
 C. Kelley,  Jihan Kim,  R. A. King,  R. Z. Khaliullin,  P. P. Korambath,  
 W. Kurlancheek,  A. Laurent,  A. M. Lee,  M. S. Lee,  S. V. Levchenko,  
 Ching Yeh Lin,  D. Liotard,  E. Livshits,  R. C. Lochan,  I. Lotan,  
 L. A. Martinez-Martinez,  P. E. Maslen,  N. Nair,  D. P. O'Neill,  
 D. Neuhauser,  E. Neuscamman,  C. M. Oana,  R. Olivares-Amaya,  R. Olson,  
 T. M. Perrine,  B. Peters,  P. A. Pieniazek,  A. Prociuk,  Y. M. Rhee,  
 J. Ritchie,  M. A. Rohrdanz,  E. Rosta,  N. J. Russ,  H. F. Schaefer III,  
 M. W. Schmidt,  N. E. Schultz,  S. Sharma,  N. Shenvi,  C. D. Sherrill,  
 A. C. Simmonett,  A. Sodt,  T. Stein,  D. Stuck,  K. S. Thanthiriwatte,  
 V. Vanovschi,  L. Vogt,  Tao Wang,  A. Warshel,  M. A. Watson,  
 C. F. Williams,  Q. Wu,  X. Xu,  Jun Yang,  W. Zhang,  Yan Zhao

 Please cite Q-Chem as follows:
 Y. Shao et al., Mol. Phys. 113, 184-215 (2015)
 DOI: 10.1080/00268976.2014.952696

 Q-Chem 5.4.1 for Intel X86 EM64T Linux

 Parts of Q-Chem use Armadillo 9.800.1 (Horizon Scraper).
 http://arma.sourceforge.net/

 Q-Chem begins on Tue May 14 09:56:05 2024  

 Host: 
0

     Scratch files written to /scratch/ari.fischer/qChem2100610.hpc-mn1/qchem195871//
 Aug1521 |scratch|qcdevops|jenkins|workspace|build_RNUM 8249   
 Processing $rem in /usr/local/qchem-5.4.1/config/preferences:
 Processing $rem in /home/ari.fischer/.qchemrc:
 Symmetry turned off for PCM/SM12/SMD calculation


!!********************************************.
!!******************Warning*******************.
!!Desired Analytical derivatives not available.
!!Finite difference job might take a long time.
!!********************************************.
!!********************************************.


 2-order derivative to be evaluated numerically with 1-order analytical derivatives

 Checking the input file for inconsistencies... 	...done.

--------------------------------------------------------------
User input:
--------------------------------------------------------------
$molecule
0 2
H         0.5982457874    0.8749630692    1.5800268670
C        -0.0572375520    1.1042506427    0.7513469880
C        -1.1201684287    1.8823611434    0.9071181045
H        -1.3695949260    2.3272375989    1.8614316756
C        -2.0612452203    2.1303068924   -0.2296295620
H        -3.0782147606    1.8339670192    0.0240779581
C        -1.6363076827    1.4105723098   -1.5124612683
H        -2.2172198657    1.7449564114   -2.3687929903
C        -0.1243369580    1.4532084756   -1.7166899583
H         0.1346204005    1.0126767899   -2.6785942912
C         0.2367390093    0.4925858830   -0.5935355063
H         1.2375404335    0.0778532465   -0.6723686995
O         0.4697687099    2.7173244303   -1.5444741472
H         0.2863130648    3.2452414232   -2.3297009728
O        -1.8979472948    0.0197168696   -1.3385003686
O        -0.6510549477   -0.5974298580   -0.8681674770
O        -2.1094943960    3.5759795989   -0.4549662374
O        -3.1574113729    3.9186612540   -1.1490912143
$end

$rem
BASIS = 6-311++G(2df,2p)
GUI = 2
JOB_TYPE = Frequency
METHOD = wB97M-V
SOLVENT_METHOD = SMD
SCF_ALGORITHM = DIIS_GDM
MAX_SCF_CYCLES = 400
SCF_CONVERGENCE = 7
THRESH = 12
$end
--------------------------------------------------------------
 ----------------------------------------------------------------
             Standard Nuclear Orientation (Angstroms)
    I     Atom           X                Y                Z
 ----------------------------------------------------------------
    1      H       0.5982457874     0.8749630692     1.5800268670
    2      C      -0.0572375520     1.1042506427     0.7513469880
    3      C      -1.1201684287     1.8823611434     0.9071181045
    4      H      -1.3695949260     2.3272375989     1.8614316756
    5      C      -2.0612452203     2.1303068924    -0.2296295620
    6      H      -3.0782147606     1.8339670192     0.0240779581
    7      C      -1.6363076827     1.4105723098    -1.5124612683
    8      H      -2.2172198657     1.7449564114    -2.3687929903
    9      C      -0.1243369580     1.4532084756    -1.7166899583
   10      H       0.1346204005     1.0126767899    -2.6785942912
   11      C       0.2367390093     0.4925858830    -0.5935355063
   12      H       1.2375404335     0.0778532465    -0.6723686995
   13      O       0.4697687099     2.7173244303    -1.5444741472
   14      H       0.2863130648     3.2452414232    -2.3297009728
   15      O      -1.8979472948     0.0197168696    -1.3385003686
   16      O      -0.6510549477    -0.5974298580    -0.8681674770
   17      O      -2.1094943960     3.5759795989    -0.4549662374
   18      O      -3.1574113729     3.9186612540    -1.1490912143
 ----------------------------------------------------------------
 Nuclear Repulsion Energy =         677.68682851 hartrees
 There are       42 alpha and       41 beta electrons
 Requested basis set is 6-311++G(2df,2p)
 There are 130 shells and 444 basis functions

 Total QAlloc Memory Limit 288000 MB
 Mega-Array Size       188 MB
 MEM_STATIC part       192 MB
 
 Citation of the SMD model:
 Marenich, A.V.; Cramer, C.J.; Truhlar, D.G.
 J. Phys. Chem. B 2009, 113, 6378-6396.
 iSolventCode=           1
 Solvent: water                                                           
 
 vradii
            1           2           3           4           5           6
    1   1.2000000   1.8500000   1.8500000   1.2000000   1.8500000   1.2000000
            7           8           9          10          11          12
    1   1.8500000   1.2000000   1.8500000   1.2000000   1.8500000   1.2000000
           13          14          15          16          17          18
    1   1.5200000   1.2000000   1.5200000   1.5200000   1.5200000   1.5200000
 Changing PCM_VDW_RADII to SMD_RADIUS
 Discretize the solute cavity surface with Lebedev spheres
	Using 110 Lebedev grid points for each H atom
	Using 194 Lebedev grid points for other atoms
	Atomic van der Waals radii will be scaled by 1.20
 Remove points where switching function is < 1.0e-08
 Keep 1362 surface tesserae and discard 1542 interior tesserae
 Molecular Surface Area = 155.031 Angst**2
 A cutoff of  1.0D-12 yielded   7773 shell pairs
 There are     91333 function pairs (    115096 Cartesian)
 Smallest overlap matrix eigenvalue = 3.12E-06
 Guess from superposition of atomic densities
 Warning:  Energy on first SCF cycle will be non-variational
 SAD guess density has 83.000000 electrons

 -----------------------------------------------------------------------
  General SCF calculation program by
  Eric Jon Sundstrom, Paul Horn, Yuezhi Mao, Dmitri Zuev, Alec White,
  David Stuck, Shaama M.S., Shane Yost, Joonho Lee, David Small,
  Daniel Levine, Susi Lehtola, Hugh Burton, Evgeny Epifanovsky,
  Bang C. Huynh
 -----------------------------------------------------------------------
 Exchange:     0.1500 Hartree-Fock + 1.0000 wB97M-V + LR-HF
 Correlation:  1.0000 wB97M-V
 Using SG-2 standard quadrature grid
 Nonlocal Correlation:  VV10 with C = 0.0100 and b = 6.00 and scale = 1.00000
 Grid used for NLC:  SG-1 standard quadrature
 using 16 threads for integral computing
 -------------------------------------------------------
 OpenMP Integral computing Module                
 Release: version 1.0, May 2013, Q-Chem Inc. Pittsburgh 
 -------------------------------------------------------
 
 Citation of the SMD model:
 Marenich, A.V.; Cramer, C.J.; Truhlar, D.G.
 J. Phys. Chem. B 2009, 113, 6378-6396.
 iSolventCode=           1
 Solvent: water                                                           
 
 vradii
            1           2           3           4           5           6
    1   1.2000000   1.8500000   1.8500000   1.2000000   1.8500000   1.2000000
            7           8           9          10          11          12
    1   1.8500000   1.2000000   1.8500000   1.2000000   1.8500000   1.2000000
           13          14          15          16          17          18
    1   1.5200000   1.2000000   1.5200000   1.5200000   1.5200000   1.5200000
 -------------------------------------------------------
 OpenMP BLAS3 based DFT computing Module                
 Release: version 1.0, May 2013, Q-Chem Inc. Pittsburgh 
 -------------------------------------------------------
 A unrestricted SCF calculation will be
 performed using DIIS, GDM
 SCF converges when RMS gradient is below 1.0e-07
 ---------------------------------------
  Cycle       Energy         DIIS error
 ---------------------------------------
    1    -611.5826045742      1.19e-02  
    2    -608.6148682847      1.20e-03  Done DIIS. Switching to GDM
 ---------------------------------------
  Cycle       Energy        RMS Gradient
 ---------------------------------------
    1    -608.6148682847      9.01e-02   Descent step
    2    -608.7194368582      5.01e-02   Normal BFGS step
    3    -608.7383521403      2.77e-02   Normal BFGS step
    4    -608.7425792149      5.87e-03   Normal BFGS step
    5    -608.7436986495      4.95e-03   Normal BFGS step
    6    -608.7439854580      4.00e-03   Normal BFGS step
    7    -608.7440717404      2.22e-03   Normal BFGS step
    8    -608.7440991276      1.43e-03   Normal BFGS step
    9    -608.7441065809      1.01e-03   Normal BFGS step
   10    -608.7441108061      7.67e-04   Normal BFGS step
   11    -608.7441134137      6.40e-04   Normal BFGS step
   12    -608.7441165382      2.73e-04   Normal BFGS step
   13    -608.7441172457      1.07e-04   Normal BFGS step
   14    -608.7441174724      2.59e-05   Normal BFGS step
   15    -608.7441174917      1.14e-05   Normal BFGS step
   16    -608.7441174966      7.00e-06   Normal BFGS step
   17    -608.7441174971      1.77e-06   Normal BFGS step
   18    -608.7441174972      1.03e-06   Normal BFGS step
   19    -608.7441174973      7.70e-07   Normal BFGS step
   20    -608.7441174973      4.77e-07   Normal BFGS step
   21    -608.7441174973      1.57e-07   Normal BFGS step
   22    -608.7441174973      5.90e-08  Convergence criterion met
 ---------------------------------------
 SCF time:   CPU 3220.17s  wall 220.00s 
<S^2> =          0.754010140
(3)  G-ENP(liq) elect-nuc-pol free energy of system     -608.744117497 a.u.
(4)  G-CDS(liq) cavity-dispersion-solvent structure 
     free energy                                                2.0768 kcal/mol
(6)  G-S(liq) free energy of system                     -608.740807931 a.u.
 SCF   energy in the final basis set =     -608.7408079309
 Total energy in the final basis set =     -608.7408079309
 
 --------------------------------------------------------------
 
                    Orbital Energies (a.u.)
 --------------------------------------------------------------
 
 Alpha MOs
 -- Occupied --
-19.4670 -19.4182 -19.4079 -19.4063 -19.3509 -10.4172 -10.4126 -10.4104
-10.4100 -10.3582 -10.3554  -1.3464  -1.2764  -1.1746  -1.0754  -1.0304
 -0.9572  -0.8851  -0.8387  -0.7618  -0.7368  -0.6937  -0.6761  -0.6504
 -0.6407  -0.6213  -0.6019  -0.5821  -0.5665  -0.5591  -0.5362  -0.5292
 -0.5076  -0.4942  -0.4809  -0.4617  -0.4282  -0.4136  -0.4104  -0.3948
 -0.3694  -0.3614
 -- Virtual --
  0.0254   0.0355   0.0396   0.0426   0.0480   0.0572   0.0607   0.0761
  0.0806   0.0944   0.1079   0.1145   0.1289   0.1323   0.1331   0.1389
  0.1445   0.1461   0.1474   0.1554   0.1557   0.1616   0.1654   0.1773
  0.1833   0.1885   0.1912   0.1972   0.1999   0.2088   0.2229   0.2268
  0.2327   0.2392   0.2509   0.2624   0.2691   0.2784   0.2885   0.2931
  0.2975   0.3022   0.3171   0.3178   0.3212   0.3268   0.3409   0.3416
  0.3500   0.3589   0.3651   0.3691   0.3768   0.3825   0.3873   0.3916
  0.3966   0.3994   0.4053   0.4120   0.4205   0.4305   0.4348   0.4426
  0.4498   0.4577   0.4685   0.4802   0.5061   0.5085   0.5244   0.5472
  0.5579   0.5864   0.6016   0.6073   0.6152   0.6264   0.6423   0.6556
  0.6672   0.6814   0.6969   0.7016   0.7056   0.7168   0.7254   0.7310
  0.7470   0.7546   0.7614   0.7746   0.7827   0.7927   0.8146   0.8212
  0.8363   0.8406   0.8545   0.8642   0.8989   0.9146   0.9432   0.9714
  0.9811   1.0129   1.0256   1.0544   1.0701   1.0863   1.1149   1.1210
  1.1312   1.1317   1.1563   1.1586   1.1697   1.1732   1.1780   1.1829
  1.1900   1.2130   1.2159   1.2210   1.2346   1.2367   1.2487   1.2558
  1.2696   1.2763   1.2822   1.3074   1.3141   1.3287   1.3375   1.3421
  1.3525   1.3724   1.3789   1.3912   1.3929   1.4114   1.4202   1.4458
  1.4547   1.4620   1.4738   1.4831   1.5052   1.5069   1.5214   1.5291
  1.5621   1.5730   1.5819   1.5905   1.5933   1.6069   1.6311   1.6671
  1.6812   1.6840   1.7015   1.7043   1.7238   1.7588   1.7623   1.7808
  1.8104   1.8237   1.8385   1.8631   1.8744   1.9027   1.9512   1.9805
  1.9978   2.0191   2.0277   2.0416   2.1115   2.1428   2.1498   2.1675
  2.2407   2.2474   2.2623   2.2804   2.3230   2.3339   2.3673   2.3828
  2.4163   2.4289   2.4559   2.5454   2.6534   2.6781   2.6967   2.7190
  2.7385   2.7573   2.7723   2.7966   2.8050   2.8350   2.8406   2.8509
  2.8713   2.8858   2.9050   2.9402   2.9564   2.9707   2.9813   2.9962
  3.0001   3.0392   3.0498   3.0702   3.0878   3.1141   3.1339   3.1654
  3.1980   3.2241   3.2674   3.2854   3.3081   3.3296   3.3469   3.3575
  3.3959   3.4018   3.4078   3.4427   3.4670   3.4768   3.4847   3.5138
  3.5245   3.5387   3.5545   3.5854   3.6188   3.6277   3.6468   3.6664
  3.6802   3.6908   3.7168   3.7284   3.7381   3.7585   3.7697   3.7815
  3.7973   3.8105   3.8207   3.8499   3.8551   3.8963   3.9037   3.9158
  3.9270   3.9539   3.9771   3.9866   4.0056   4.0355   4.0561   4.0609
  4.0863   4.1255   4.1488   4.1825   4.2029   4.2143   4.2606   4.2792
  4.3054   4.3166   4.3354   4.3603   4.3686   4.3838   4.3943   4.4254
  4.4649   4.4702   4.4947   4.5068   4.5598   4.5673   4.5782   4.5920
  4.6190   4.6380   4.6507   4.6726   4.7032   4.7366   4.7395   4.7525
  4.7610   4.7918   4.8341   4.8766   4.9084   4.9317   4.9744   5.0110
  5.0406   5.0787   5.0881   5.0959   5.0990   5.1195   5.1828   5.2155
  5.2356   5.2575   5.2735   5.2944   5.2971   5.3126   5.3250   5.3521
  5.3616   5.3777   5.4072   5.4332   5.4601   5.4633   5.4763   5.5164
  5.5362   5.5587   5.5751   5.6183   5.6228   5.6374   5.6669   5.7001
  5.7330   5.7574   5.7806   5.8105   5.8266   5.8448   5.9200   5.9578
  5.9856   6.0381   6.0664   6.1539   6.2669   6.4649   6.4764   6.6051
  6.6352   6.6647   6.7269   6.7410   6.8437   6.8964   6.9874   7.0212
  7.1075   7.1236   7.2220   7.2723   7.2966   7.3161   7.3410   7.3886
  7.4138   7.4272   7.4514   7.4548   7.4737   7.5261   7.6350   7.7208
  7.8156   7.8422   7.8918   7.9395   8.0298   8.1052   8.2338  24.3657
 24.6904  24.7371  24.8284  24.8529  25.2341  50.4335  50.5511  50.5881
 50.6541  50.6595
 
 Beta MOs
 -- Occupied --
-19.4565 -19.4079 -19.4063 -19.3997 -19.3508 -10.4176 -10.4123 -10.4104
-10.4101 -10.3581 -10.3554  -1.3201  -1.2763  -1.1744  -1.0750  -1.0090
 -0.9459  -0.8841  -0.8305  -0.7615  -0.7327  -0.6910  -0.6737  -0.6413
 -0.6284  -0.5987  -0.5889  -0.5721  -0.5617  -0.5535  -0.5281  -0.5121
 -0.5063  -0.4918  -0.4759  -0.4599  -0.4199  -0.4063  -0.3947  -0.3702
 -0.3620
 -- Virtual --
 -0.0334   0.0255   0.0358   0.0397   0.0430   0.0490   0.0577   0.0609
  0.0766   0.0809   0.0947   0.1085   0.1150   0.1303   0.1325   0.1337
  0.1393   0.1448   0.1466   0.1475   0.1557   0.1561   0.1618   0.1659
  0.1779   0.1839   0.1892   0.1921   0.1986   0.2011   0.2101   0.2231
  0.2296   0.2337   0.2401   0.2571   0.2646   0.2698   0.2802   0.2905
  0.2943   0.3022   0.3032   0.3179   0.3186   0.3218   0.3285   0.3428
  0.3444   0.3505   0.3602   0.3657   0.3700   0.3777   0.3829   0.3876
  0.3918   0.3970   0.4003   0.4059   0.4128   0.4222   0.4318   0.4353
  0.4434   0.4518   0.4591   0.4686   0.4810   0.5067   0.5090   0.5247
  0.5476   0.5582   0.5872   0.6018   0.6080   0.6154   0.6270   0.6424
  0.6563   0.6676   0.6818   0.6973   0.7019   0.7056   0.7171   0.7260
  0.7313   0.7472   0.7549   0.7625   0.7755   0.7830   0.7935   0.8149
  0.8217   0.8370   0.8408   0.8548   0.8650   0.8991   0.9158   0.9438
  0.9722   0.9819   1.0149   1.0268   1.0552   1.0706   1.0874   1.1173
  1.1238   1.1323   1.1330   1.1582   1.1627   1.1739   1.1769   1.1862
  1.1930   1.1951   1.2168   1.2205   1.2307   1.2388   1.2403   1.2499
  1.2600   1.2706   1.2779   1.2851   1.3114   1.3155   1.3319   1.3380
  1.3432   1.3551   1.3736   1.3800   1.3924   1.3948   1.4123   1.4211
  1.4462   1.4573   1.4636   1.4768   1.4845   1.5058   1.5094   1.5280
  1.5321   1.5633   1.5758   1.5827   1.5927   1.5961   1.6101   1.6368
  1.6782   1.6834   1.6995   1.7081   1.7153   1.7281   1.7623   1.7676
  1.7826   1.8142   1.8255   1.8412   1.8641   1.8760   1.9080   1.9548
  1.9814   2.0004   2.0203   2.0324   2.0473   2.1124   2.1450   2.1534
  2.1710   2.2454   2.2552   2.2642   2.2873   2.3234   2.3487   2.3719
  2.3860   2.4204   2.4310   2.4575   2.5464   2.6538   2.6830   2.6989
  2.7220   2.7389   2.7576   2.7731   2.7970   2.8053   2.8357   2.8407
  2.8512   2.8718   2.8859   2.9051   2.9405   2.9566   2.9719   2.9816
  2.9966   3.0004   3.0397   3.0502   3.0706   3.0883   3.1148   3.1346
  3.1655   3.1985   3.2242   3.2676   3.2857   3.3084   3.3298   3.3471
  3.3577   3.3961   3.4019   3.4080   3.4431   3.4673   3.4771   3.4851
  3.5140   3.5250   3.5391   3.5546   3.5867   3.6189   3.6279   3.6472
  3.6671   3.6802   3.6911   3.7169   3.7286   3.7384   3.7592   3.7700
  3.7817   3.7972   3.8109   3.8211   3.8501   3.8554   3.8967   3.9039
  3.9161   3.9274   3.9542   3.9776   3.9873   4.0063   4.0358   4.0563
  4.0612   4.0869   4.1256   4.1494   4.1830   4.2031   4.2147   4.2609
  4.2798   4.3065   4.3169   4.3361   4.3607   4.3690   4.3846   4.3949
  4.4263   4.4661   4.4716   4.4954   4.5075   4.5667   4.5699   4.5795
  4.5937   4.6213   4.6482   4.6601   4.6761   4.7045   4.7376   4.7476
  4.7538   4.7718   4.7932   4.8356   4.8815   4.9192   4.9490   4.9769
  5.0150   5.0497   5.0819   5.1057   5.1428   5.1510   5.1910   5.2096
  5.2218   5.2622   5.2852   5.2896   5.2957   5.3068   5.3155   5.3298
  5.3555   5.3668   5.3944   5.4093   5.4394   5.4645   5.4718   5.4875
  5.5178   5.5405   5.5654   5.5820   5.6194   5.6235   5.6435   5.6680
  5.7005   5.7394   5.7628   5.7865   5.8158   5.8322   5.8523   5.9243
  5.9582   5.9873   6.0383   6.0666   6.1542   6.2671   6.4813   6.5221
  6.6162   6.6357   6.6671   6.7273   6.7416   6.9269   6.9742   7.0171
  7.0533   7.1212   7.1507   7.2499   7.2891   7.3150   7.3240   7.3475
  7.3893   7.4281   7.4416   7.4593   7.4701   7.4960   7.5268   7.6360
  7.7216   7.8269   7.8443   7.8923   7.9398   8.0433   8.1250   8.2339
 24.3657  24.6904  24.7369  24.8284  24.8530  25.2341  50.4463  50.5602
 50.5881  50.6546  50.6596
 --------------------------------------------------------------
 
          Ground-State Mulliken Net Atomic Charges

     Atom                 Charge (a.u.)    Spin (a.u.)
  --------------------------------------------------------
      1 H                     0.306783       0.000004
      2 C                    -0.295443      -0.007539
      3 C                    -0.105669       0.014925
      4 H                     0.307206      -0.000861
      5 C                    -0.466243      -0.017976
      6 H                     0.306486       0.005299
      7 C                    -0.252706       0.016151
      8 H                     0.288629      -0.001197
      9 C                    -0.045308       0.002868
     10 H                     0.298836       0.000485
     11 C                    -0.147869       0.000336
     12 H                     0.281311       0.000012
     13 O                    -0.409775       0.005246
     14 H                     0.342048      -0.000842
     15 O                    -0.122946       0.002257
     16 O                    -0.142915      -0.000457
     17 O                     0.070017       0.314973
     18 O                    -0.212442       0.666318
  --------------------------------------------------------
  Sum of atomic charges =     0.000000
  Sum of spin   charges =     1.000000

 -----------------------------------------------------------------
                    Cartesian Multipole Moments
 -----------------------------------------------------------------
    Charge (ESU x 10^10)
                 0.0000
    Dipole Moment (Debye)
         X       2.5057      Y       0.1120      Z      -0.5685
       Tot       2.5718
    Quadrupole Moments (Debye-Ang)
        XX     -69.4176     XY       3.1778     YY     -78.8769
        XZ      -4.1273     YZ      -3.9330     ZZ     -51.3916
    Octopole Moments (Debye-Ang^2)
       XXX     225.3541    XXY    -132.7493    XYY     110.7346
       YYY    -385.0752    XXZ      60.4607    XYZ     -11.0730
       YYZ      44.2114    XZZ      68.3481    YZZ     -70.7501
       ZZZ     105.4358
    Hexadecapole Moments (Debye-Ang^3)
      XXXX   -1080.9020   XXXY     554.0320   XXYY    -629.0835
      XYYY     689.4607   YYYY   -2094.7255   XXXZ    -196.0862
      XXYZ     126.0602   XYYZ    -118.5691   YYYZ     232.2201
      XXZZ    -271.4608   XYZZ     150.2138   YYZZ    -314.7115
      XZZZ    -145.7043   YZZZ     142.0898   ZZZZ    -484.3766
 -----------------------------------------------------------------
 Calculating analytic gradient of the SCF energy
 Gradient of CDS energy
            1           2           3           4           5           6
    1   0.0001215   0.0002350  -0.0000976  -0.0000670  -0.0001207  -0.0002073
    2  -0.0000425  -0.0000951   0.0001559   0.0001138   0.0001551  -0.0000543
    3   0.0001536   0.0002993   0.0002826   0.0001672  -0.0000778  -0.0000139
            7           8           9          10          11          12
    1  -0.0001354  -0.0001393   0.0010215  -0.0000106   0.0000964   0.0001720
    2  -0.0001752   0.0000845   0.0018704  -0.0001760  -0.0002669  -0.0001301
    3  -0.0000887  -0.0001114   0.0001627  -0.0001495  -0.0001924  -0.0000218
           13          14          15          16          17          18
    1  -0.0010515   0.0002336   0.0000792  -0.0000912  -0.0000473   0.0000088
    2  -0.0018604   0.0003936  -0.0000415   0.0000424  -0.0000105   0.0000369
    3  -0.0001017  -0.0002621   0.0000528  -0.0000714  -0.0000408   0.0000132
 Gradient of SCF Energy
            1           2           3           4           5           6
    1   0.0053525   0.0017768  -0.0025397  -0.0021217   0.0068939  -0.0059227
    2  -0.0018681   0.0028386  -0.0040283   0.0027332   0.0101302  -0.0016522
    3   0.0064657  -0.0057278  -0.0066605   0.0068816  -0.0026275   0.0024196
            7           8           9          10          11          12
    1   0.0043158  -0.0041297  -0.0008422   0.0031628  -0.0143747   0.0094052
    2  -0.0117937   0.0037372   0.0076832  -0.0024621  -0.0001707  -0.0034090
    3   0.0068946  -0.0088899   0.0122983  -0.0111661  -0.0014638  -0.0002602
           13          14          15          16          17          18
    1   0.0050302  -0.0038901  -0.0016317   0.0001067   0.0014032  -0.0019944
    2  -0.0056773   0.0070191  -0.0019600  -0.0024226   0.0002776   0.0010248
    3   0.0168797  -0.0156501  -0.0001117  -0.0000155   0.0011294  -0.0003961
 Max gradient component =       1.688E-02
 RMS gradient           =       6.227E-03
 Computing fast CPCM-SWIG gradient
 Updating gradient with PCM contributions...
 -- total gradient after adding PCM contribution --
---------------------------------------------------
  Atom         X              Y              Z     
---------------------------------------------------
   1      -0.000016      -0.000030       0.000010
   2      -0.000008      -0.000018      -0.000001
   3      -0.000028      -0.000021       0.000020
   4      -0.000010       0.000010       0.000002
   5       0.000027       0.000070       0.000038
   6      -0.000018      -0.000026      -0.000009
   7       0.000039      -0.000032      -0.000026
   8      -0.000025       0.000037       0.000001
   9      -0.000026       0.000021       0.000002
  10       0.000035      -0.000006      -0.000008
  11       0.000012       0.000033       0.000034
  12      -0.000008      -0.000029       0.000006
  13       0.000063      -0.000018       0.000060
  14      -0.000019       0.000059      -0.000037
  15       0.000036       0.000008      -0.000062
  16      -0.000068      -0.000036      -0.000040
  17       0.000044      -0.000042       0.000025
  18      -0.000029       0.000021      -0.000014
---------------------------------------------------
 Number of fixed atoms: 0
 Gradient time:  CPU 463.88 s  wall 36.29 s
 ######################################################
 ######################################################
 # Starting finite difference calculation for IDERIV  #
 Finite diff step size:  1.88973e-03 a.u.
 ----------------------------------------------------------------
             Standard Nuclear Orientation (Angstroms)
    I     Atom           X                Y                Z
 ----------------------------------------------------------------
    1      H       0.5992457874     0.8749630692     1.5800268670
    2      C      -0.0572375520     1.1042506427     0.7513469880
    3      C      -1.1201684287     1.8823611434     0.9071181045
    4      H      -1.3695949260     2.3272375989     1.8614316756
    5      C      -2.0612452203     2.1303068924    -0.2296295620
    6      H      -3.0782147606     1.8339670192     0.0240779581
    7      C      -1.6363076827     1.4105723098    -1.5124612683
    8      H      -2.2172198657     1.7449564114    -2.3687929903
    9      C      -0.1243369580     1.4532084756    -1.7166899583
   10      H       0.1346204005     1.0126767899    -2.6785942912
   11      C       0.2367390093     0.4925858830    -0.5935355063
   12      H       1.2375404335     0.0778532465    -0.6723686995
   13      O       0.4697687099     2.7173244303    -1.5444741472
   14      H       0.2863130648     3.2452414232    -2.3297009728
   15      O      -1.8979472948     0.0197168696    -1.3385003686
   16      O      -0.6510549477    -0.5974298580    -0.8681674770
   17      O      -2.1094943960     3.5759795989    -0.4549662374
   18      O      -3.1574113729     3.9186612540    -1.1490912143
 ----------------------------------------------------------------
 Nuclear Repulsion Energy =         677.68341984 hartrees
 There are       42 alpha and       41 beta electrons
 Discretize the solute cavity surface with Lebedev spheres
	Using 110 Lebedev grid points for each H atom
	Using 194 Lebedev grid points for other atoms
	Atomic van der Waals radii will be scaled by 1.20
 Remove points where switching function is < 1.0e-08
 Keep 1362 surface tesserae and discard 1542 interior tesserae
 Molecular Surface Area = 155.034 Angst**2
 Requested basis set is 6-311++G(2df,2p)
 There are 130 shells and 444 basis functions
 A cutoff of  1.0D-12 yielded   7773 shell pairs
 There are     91333 function pairs (    115096 Cartesian)
 Smallest overlap matrix eigenvalue = 3.11E-06
 Guess MOs from SCF MO coefficient file

 -----------------------------------------------------------------------
  General SCF calculation program by
  Eric Jon Sundstrom, Paul Horn, Yuezhi Mao, Dmitri Zuev, Alec White,
  David Stuck, Shaama M.S., Shane Yost, Joonho Lee, David Small,
  Daniel Levine, Susi Lehtola, Hugh Burton, Evgeny Epifanovsky,
  Bang C. Huynh
 -----------------------------------------------------------------------
 Exchange:     0.1500 Hartree-Fock + 1.0000 wB97M-V + LR-HF
 Correlation:  1.0000 wB97M-V
 Using SG-2 standard quadrature grid
 Nonlocal Correlation:  VV10 with C = 0.0100 and b = 6.00 and scale = 1.00000
 Grid used for NLC:  SG-1 standard quadrature
 
 Citation of the SMD model:
 Marenich, A.V.; Cramer, C.J.; Truhlar, D.G.
 J. Phys. Chem. B 2009, 113, 6378-6396.
 iSolventCode=           1
 Solvent: water                                                           
 
 vradii
            1           2           3           4           5           6
    1   1.2000000   1.8500000   1.8500000   1.2000000   1.8500000   1.2000000
            7           8           9          10          11          12
    1   1.8500000   1.2000000   1.8500000   1.2000000   1.8500000   1.2000000
           13          14          15          16          17          18
    1   1.5200000   1.2000000   1.5200000   1.5200000   1.5200000   1.5200000
 -------------------------------------------------------
 OpenMP BLAS3 based DFT computing Module                
 Release: version 1.0, May 2013, Q-Chem Inc. Pittsburgh 
 -------------------------------------------------------
 A unrestricted SCF calculation will be
 performed using Roothaan-Hall, DIIS, GDM
 SCF converges when RMS gradient is below 1.0e-07
 ---------------------------------------
  Cycle       Energy         DIIS error
 ---------------------------------------
    1    -608.7108445724      1.77e-04  Roothaan Step
 ---------------------------------------
  Cycle       Energy         DIIS error
 ---------------------------------------
    1    -608.7385951198      1.94e-04  
    2    -608.7425096626      1.49e-04  Done DIIS. Switching to GDM
 ---------------------------------------
  Cycle       Energy        RMS Gradient
 ---------------------------------------
    1    -608.7425096626      7.65e-03   Normal BFGS step
    2    -608.7425134795      1.18e-02   Normal BFGS step
    3    -608.7440824402      1.39e-03   Normal BFGS step
    4    -608.7440860734      2.45e-03   Normal BFGS step
    5    -608.7441163237      2.51e-04   Normal BFGS step
    6    -608.7441170160      1.90e-04   Normal BFGS step
    7    -608.7441173729      1.09e-04   Normal BFGS step
    8    -608.7441174383      5.89e-05   Normal BFGS step
    9    -608.7441174644      1.44e-05   Normal BFGS step
   10    -608.7441174704      5.55e-06   Normal BFGS step
   11    -608.7441174712      5.53e-06   Normal BFGS step
   12    -608.7441174715      5.18e-06   Normal BFGS step
   13    -608.7441174716      4.65e-06   Normal BFGS step
   14    -608.7441174717      3.45e-06   Normal BFGS step
   15    -608.7441174717      1.37e-06   Normal BFGS step
   16    -608.7441174717      7.54e-07   Normal BFGS step
   17    -608.7441174718      2.56e-07   Normal BFGS step
   18    -608.7441174717      9.30e-08  Convergence criterion met
 ---------------------------------------
 SCF time:   CPU 2809.80s  wall 192.00s 
<S^2> =          0.754010123
(3)  G-ENP(liq) elect-nuc-pol free energy of system     -608.744117472 a.u.
(4)  G-CDS(liq) cavity-dispersion-solvent structure 
     free energy                                                2.0769 kcal/mol
(6)  G-S(liq) free energy of system                     -608.740807675 a.u.
 SCF   energy in the final basis set =     -608.7408076752
 Total energy in the final basis set =     -608.7408076752
 
 --------------------------------------------------------------
 
                    Orbital Energies (a.u.)
 --------------------------------------------------------------
 
 Alpha MOs
 -- Occupied --
-19.4670 -19.4182 -19.4079 -19.4063 -19.3509 -10.4172 -10.4126 -10.4104
-10.4100 -10.3582 -10.3554  -1.3464  -1.2764  -1.1746  -1.0754  -1.0304
 -0.9572  -0.8851  -0.8387  -0.7618  -0.7367  -0.6937  -0.6761  -0.6504
 -0.6407  -0.6213  -0.6019  -0.5821  -0.5665  -0.5591  -0.5362  -0.5292
 -0.5076  -0.4942  -0.4809  -0.4617  -0.4282  -0.4136  -0.4104  -0.3948
 -0.3694  -0.3614
 -- Virtual --
  0.0254   0.0355   0.0396   0.0426   0.0480   0.0572   0.0607   0.0761
  0.0806   0.0944   0.1079   0.1145   0.1289   0.1323   0.1331   0.1389
  0.1445   0.1461   0.1474   0.1554   0.1557   0.1616   0.1654   0.1773
  0.1833   0.1885   0.1912   0.1972   0.1999   0.2088   0.2229   0.2268
  0.2327   0.2392   0.2509   0.2624   0.2691   0.2784   0.2885   0.2931
  0.2975   0.3022   0.3171   0.3178   0.3212   0.3268   0.3409   0.3416
  0.3500   0.3589   0.3650   0.3690   0.3768   0.3825   0.3873   0.3916
  0.3966   0.3994   0.4052   0.4120   0.4205   0.4305   0.4347   0.4426
  0.4498   0.4577   0.4685   0.4802   0.5061   0.5085   0.5244   0.5472
  0.5578   0.5864   0.6016   0.6073   0.6152   0.6264   0.6423   0.6556
  0.6671   0.6814   0.6969   0.7016   0.7055   0.7168   0.7254   0.7310
  0.7470   0.7546   0.7614   0.7746   0.7827   0.7927   0.8146   0.8212
  0.8363   0.8406   0.8545   0.8642   0.8989   0.9146   0.9432   0.9714
  0.9811   1.0128   1.0256   1.0544   1.0701   1.0863   1.1149   1.1210
  1.1311   1.1317   1.1563   1.1586   1.1698   1.1732   1.1780   1.1829
  1.1900   1.2130   1.2159   1.2209   1.2346   1.2366   1.2486   1.2558
  1.2696   1.2763   1.2822   1.3074   1.3141   1.3287   1.3375   1.3421
  1.3525   1.3724   1.3789   1.3912   1.3929   1.4114   1.4201   1.4457
  1.4547   1.4619   1.4738   1.4831   1.5052   1.5069   1.5214   1.5291
  1.5620   1.5730   1.5818   1.5905   1.5933   1.6068   1.6311   1.6671
  1.6812   1.6840   1.7015   1.7043   1.7238   1.7588   1.7623   1.7808
  1.8104   1.8236   1.8385   1.8631   1.8744   1.9027   1.9512   1.9805
  1.9978   2.0191   2.0277   2.0416   2.1115   2.1428   2.1498   2.1675
  2.2407   2.2475   2.2624   2.2804   2.3230   2.3339   2.3672   2.3829
  2.4163   2.4289   2.4560   2.5453   2.6536   2.6782   2.6967   2.7191
  2.7385   2.7572   2.7723   2.7965   2.8050   2.8350   2.8406   2.8509
  2.8712   2.8858   2.9049   2.9402   2.9564   2.9706   2.9813   2.9962
  3.0001   3.0392   3.0498   3.0702   3.0877   3.1141   3.1339   3.1654
  3.1980   3.2240   3.2674   3.2854   3.3081   3.3295   3.3469   3.3575
  3.3958   3.4019   3.4079   3.4427   3.4670   3.4767   3.4846   3.5137
  3.5245   3.5387   3.5545   3.5854   3.6187   3.6277   3.6469   3.6664
  3.6802   3.6908   3.7168   3.7285   3.7381   3.7585   3.7696   3.7815
  3.7973   3.8105   3.8205   3.8498   3.8550   3.8963   3.9034   3.9157
  3.9270   3.9538   3.9771   3.9867   4.0055   4.0356   4.0561   4.0609
  4.0863   4.1255   4.1486   4.1825   4.2028   4.2143   4.2605   4.2791
  4.3054   4.3165   4.3353   4.3600   4.3686   4.3837   4.3943   4.4254
  4.4649   4.4701   4.4946   4.5068   4.5598   4.5669   4.5783   4.5920
  4.6189   4.6380   4.6506   4.6726   4.7032   4.7366   4.7395   4.7525
  4.7610   4.7918   4.8340   4.8765   4.9084   4.9317   4.9740   5.0108
  5.0405   5.0786   5.0881   5.0958   5.0990   5.1194   5.1828   5.2154
  5.2356   5.2574   5.2735   5.2943   5.2971   5.3126   5.3250   5.3521
  5.3616   5.3777   5.4072   5.4331   5.4601   5.4632   5.4763   5.5163
  5.5359   5.5586   5.5751   5.6182   5.6227   5.6373   5.6669   5.7000
  5.7330   5.7574   5.7806   5.8104   5.8266   5.8449   5.9200   5.9577
  5.9856   6.0380   6.0660   6.1537   6.2669   6.4649   6.4764   6.6051
  6.6352   6.6647   6.7269   6.7410   6.8437   6.8964   6.9874   7.0212
  7.1075   7.1236   7.2220   7.2723   7.2966   7.3161   7.3410   7.3886
  7.4138   7.4272   7.4514   7.4548   7.4737   7.5261   7.6350   7.7207
  7.8156   7.8422   7.8918   7.9395   8.0298   8.1052   8.2338  24.3652
 24.6903  24.7371  24.8283  24.8528  25.2337  50.4335  50.5511  50.5881
 50.6541  50.6595
 
 Beta MOs
 -- Occupied --
-19.4565 -19.4079 -19.4063 -19.3997 -19.3508 -10.4176 -10.4123 -10.4104
-10.4101 -10.3581 -10.3555  -1.3201  -1.2763  -1.1744  -1.0750  -1.0090
 -0.9459  -0.8841  -0.8305  -0.7615  -0.7327  -0.6910  -0.6737  -0.6413
 -0.6284  -0.5987  -0.5889  -0.5721  -0.5617  -0.5535  -0.5281  -0.5121
 -0.5063  -0.4918  -0.4759  -0.4599  -0.4199  -0.4063  -0.3947  -0.3702
 -0.3620
 -- Virtual --
 -0.0334   0.0255   0.0358   0.0397   0.0430   0.0490   0.0577   0.0609
  0.0766   0.0809   0.0947   0.1085   0.1150   0.1303   0.1325   0.1337
  0.1393   0.1448   0.1466   0.1475   0.1557   0.1561   0.1618   0.1659
  0.1779   0.1839   0.1892   0.1921   0.1986   0.2011   0.2101   0.2231
  0.2296   0.2337   0.2401   0.2571   0.2646   0.2698   0.2802   0.2905
  0.2943   0.3022   0.3032   0.3178   0.3186   0.3218   0.3285   0.3428
  0.3444   0.3505   0.3602   0.3657   0.3700   0.3777   0.3829   0.3876
  0.3918   0.3970   0.4003   0.4058   0.4127   0.4221   0.4318   0.4353
  0.4434   0.4518   0.4591   0.4686   0.4810   0.5067   0.5090   0.5247
  0.5476   0.5582   0.5872   0.6018   0.6080   0.6154   0.6270   0.6424
  0.6563   0.6676   0.6818   0.6973   0.7019   0.7056   0.7171   0.7260
  0.7313   0.7472   0.7549   0.7625   0.7755   0.7830   0.7935   0.8149
  0.8217   0.8371   0.8408   0.8547   0.8650   0.8991   0.9158   0.9438
  0.9722   0.9819   1.0149   1.0268   1.0552   1.0705   1.0874   1.1174
  1.1238   1.1323   1.1330   1.1582   1.1627   1.1739   1.1768   1.1862
  1.1930   1.1951   1.2168   1.2205   1.2307   1.2387   1.2403   1.2498
  1.2600   1.2706   1.2779   1.2852   1.3114   1.3155   1.3319   1.3380
  1.3432   1.3551   1.3736   1.3800   1.3923   1.3948   1.4123   1.4211
  1.4462   1.4573   1.4636   1.4768   1.4844   1.5057   1.5094   1.5280
  1.5320   1.5633   1.5757   1.5826   1.5927   1.5960   1.6101   1.6368
  1.6782   1.6834   1.6995   1.7081   1.7153   1.7281   1.7623   1.7676
  1.7826   1.8142   1.8255   1.8412   1.8641   1.8760   1.9080   1.9548
  1.9814   2.0004   2.0203   2.0324   2.0473   2.1124   2.1450   2.1534
  2.1710   2.2454   2.2552   2.2642   2.2873   2.3234   2.3487   2.3719
  2.3860   2.4204   2.4310   2.4575   2.5463   2.6539   2.6830   2.6989
  2.7221   2.7389   2.7575   2.7732   2.7970   2.8053   2.8357   2.8407
  2.8512   2.8717   2.8859   2.9050   2.9406   2.9566   2.9719   2.9816
  2.9965   3.0005   3.0397   3.0502   3.0705   3.0883   3.1148   3.1346
  3.1655   3.1985   3.2241   3.2676   3.2857   3.3084   3.3298   3.3471
  3.3578   3.3960   3.4020   3.4081   3.4432   3.4673   3.4770   3.4851
  3.5139   3.5250   3.5391   3.5546   3.5866   3.6187   3.6279   3.6472
  3.6671   3.6801   3.6911   3.7169   3.7287   3.7383   3.7592   3.7700
  3.7817   3.7972   3.8109   3.8210   3.8501   3.8553   3.8966   3.9036
  3.9160   3.9274   3.9541   3.9776   3.9873   4.0063   4.0359   4.0563
  4.0612   4.0868   4.1257   4.1493   4.1829   4.2030   4.2147   4.2609
  4.2797   4.3065   4.3168   4.3360   4.3605   4.3690   4.3844   4.3949
  4.4263   4.4661   4.4715   4.4952   4.5075   4.5664   4.5698   4.5795
  4.5937   4.6211   4.6482   4.6601   4.6761   4.7044   4.7376   4.7476
  4.7537   4.7717   4.7932   4.8355   4.8815   4.9191   4.9490   4.9765
  5.0148   5.0497   5.0818   5.1056   5.1428   5.1510   5.1910   5.2096
  5.2218   5.2622   5.2852   5.2895   5.2957   5.3067   5.3155   5.3298
  5.3555   5.3668   5.3944   5.4093   5.4393   5.4645   5.4718   5.4875
  5.5177   5.5401   5.5653   5.5819   5.6194   5.6233   5.6434   5.6680
  5.7004   5.7394   5.7627   5.7865   5.8158   5.8322   5.8523   5.9243
  5.9581   5.9873   6.0382   6.0662   6.1540   6.2671   6.4812   6.5221
  6.6162   6.6357   6.6671   6.7273   6.7416   6.9269   6.9742   7.0171
  7.0533   7.1212   7.1507   7.2499   7.2891   7.3150   7.3240   7.3475
  7.3893   7.4281   7.4416   7.4593   7.4701   7.4959   7.5268   7.6360
  7.7216   7.8269   7.8443   7.8923   7.9398   8.0433   8.1250   8.2339
 24.3652  24.6903  24.7369  24.8283  24.8530  25.2337  50.4462  50.5602
 50.5882  50.6546  50.6596
 --------------------------------------------------------------
 
          Ground-State Mulliken Net Atomic Charges

     Atom                 Charge (a.u.)    Spin (a.u.)
  --------------------------------------------------------
      1 H                     0.306550       0.000004
      2 C                    -0.295439      -0.007539
      3 C                    -0.105730       0.014925
      4 H                     0.307234      -0.000861
      5 C                    -0.466301      -0.017978
      6 H                     0.306488       0.005298
      7 C                    -0.252748       0.016152
      8 H                     0.288628      -0.001197
      9 C                    -0.045256       0.002867
     10 H                     0.298834       0.000484
     11 C                    -0.147595       0.000336
     12 H                     0.281345       0.000012
     13 O                    -0.409781       0.005246
     14 H                     0.342052      -0.000842
     15 O                    -0.122944       0.002257
     16 O                    -0.142920      -0.000457
     17 O                     0.070016       0.314971
     18 O                    -0.212431       0.666321
  --------------------------------------------------------
  Sum of atomic charges =     0.000000
  Sum of spin   charges =     1.000000

 -----------------------------------------------------------------
                    Cartesian Multipole Moments
 -----------------------------------------------------------------
    Charge (ESU x 10^10)
                 0.0000
    Dipole Moment (Debye)
         X       2.5060      Y       0.1123      Z      -0.5689
       Tot       2.5722
    Quadrupole Moments (Debye-Ang)
        XX     -69.4163     XY       3.1773     YY     -78.8763
        XZ      -4.1260     YZ      -3.9332     ZZ     -51.3931
    Octopole Moments (Debye-Ang^2)
       XXX     225.3503    XXY    -132.7461    XYY     110.7305
       YYY    -385.0721    XXZ      60.4615    XYZ     -11.0716
       YYZ      44.2096    XZZ      68.3487    YZZ     -70.7508
       ZZZ     105.4311
    Hexadecapole Moments (Debye-Ang^3)
      XXXX   -1080.8998   XXXY     554.0220   XXYY    -629.0742
      XYYY     689.4450   YYYY   -2094.7100   XXXZ    -196.0868
      XXYZ     126.0591   XYYZ    -118.5674   YYYZ     232.2139
      XXZZ    -271.4581   XYZZ     150.2127   YYZZ    -314.7125
      XZZZ    -145.7047   YZZZ     142.0861   ZZZZ    -484.3911
 -----------------------------------------------------------------
 Calculating analytic gradient of the SCF energy
 Gradient of CDS energy
            1           2           3           4           5           6
    1   0.0001221   0.0002343  -0.0000975  -0.0000670  -0.0001207  -0.0002073
    2  -0.0000427  -0.0000949   0.0001559   0.0001138   0.0001551  -0.0000543
    3   0.0001542   0.0002987   0.0002826   0.0001672  -0.0000778  -0.0000139
            7           8           9          10          11          12
    1  -0.0001354  -0.0001393   0.0010215  -0.0000106   0.0000964   0.0001720
    2  -0.0001752   0.0000845   0.0018704  -0.0001760  -0.0002669  -0.0001301
    3  -0.0000887  -0.0001114   0.0001627  -0.0001495  -0.0001923  -0.0000218
           13          14          15          16          17          18
    1  -0.0010515   0.0002336   0.0000792  -0.0000912  -0.0000473   0.0000088
    2  -0.0018604   0.0003936  -0.0000415   0.0000424  -0.0000105   0.0000369
    3  -0.0001017  -0.0002621   0.0000528  -0.0000714  -0.0000408   0.0000132
 Gradient of SCF Energy
            1           2           3           4           5           6
    1   0.0056623   0.0014741  -0.0025621  -0.0021244   0.0069010  -0.0059224
    2  -0.0019703   0.0029217  -0.0040148   0.0027251   0.0101430  -0.0016528
    3   0.0067354  -0.0059788  -0.0067002   0.0068820  -0.0026250   0.0024205
            7           8           9          10          11          12
    1   0.0043152  -0.0041298  -0.0008419   0.0031629  -0.0143617   0.0094070
    2  -0.0117925   0.0037372   0.0076839  -0.0024624  -0.0001711  -0.0034100
    3   0.0068943  -0.0088902   0.0123024  -0.0111652  -0.0014475  -0.0002607
           13          14          15          16          17          18
    1   0.0050301  -0.0038900  -0.0016315   0.0001068   0.0013999  -0.0019954
    2  -0.0056779   0.0070194  -0.0019603  -0.0024225   0.0002778   0.0010266
    3   0.0168796  -0.0156503  -0.0001114  -0.0000145   0.0011267  -0.0003971
 Max gradient component =       1.688E-02
 RMS gradient           =       6.242E-03
 Computing fast CPCM-SWIG gradient
 Updating gradient with PCM contributions...
 -- total gradient after adding PCM contribution --
---------------------------------------------------
  Atom         X              Y              Z     
---------------------------------------------------
   1       0.000286      -0.000131       0.000287
   2      -0.000304       0.000064      -0.000258
   3      -0.000049      -0.000008      -0.000019
   4      -0.000013       0.000002       0.000004
   5       0.000034       0.000083       0.000039
   6      -0.000018      -0.000026      -0.000008
   7       0.000038      -0.000032      -0.000025
   8      -0.000025       0.000037       0.000000
   9      -0.000025       0.000022       0.000005
  10       0.000035      -0.000007      -0.000007
  11       0.000025       0.000032       0.000047
  12      -0.000007      -0.000030       0.000005
  13       0.000063      -0.000018       0.000059
  14      -0.000019       0.000059      -0.000037
  15       0.000036       0.000008      -0.000061
  16      -0.000068      -0.000036      -0.000039
  17       0.000040      -0.000042       0.000022
  18      -0.000030       0.000022      -0.000015
---------------------------------------------------
 Number of fixed atoms: 0
 Gradient time:  CPU 439.16 s  wall 34.43 s
 ----------------------------------------------------------------
             Standard Nuclear Orientation (Angstroms)
    I     Atom           X                Y                Z
 ----------------------------------------------------------------
    1      H       0.5972457874     0.8749630692     1.5800268670
    2      C      -0.0572375520     1.1042506427     0.7513469880
    3      C      -1.1201684287     1.8823611434     0.9071181045
    4      H      -1.3695949260     2.3272375989     1.8614316756
    5      C      -2.0612452203     2.1303068924    -0.2296295620
    6      H      -3.0782147606     1.8339670192     0.0240779581
    7      C      -1.6363076827     1.4105723098    -1.5124612683
    8      H      -2.2172198657     1.7449564114    -2.3687929903
    9      C      -0.1243369580     1.4532084756    -1.7166899583
   10      H       0.1346204005     1.0126767899    -2.6785942912
   11      C       0.2367390093     0.4925858830    -0.5935355063
   12      H       1.2375404335     0.0778532465    -0.6723686995
   13      O       0.4697687099     2.7173244303    -1.5444741472
   14      H       0.2863130648     3.2452414232    -2.3297009728
   15      O      -1.8979472948     0.0197168696    -1.3385003686
   16      O      -0.6510549477    -0.5974298580    -0.8681674770
   17      O      -2.1094943960     3.5759795989    -0.4549662374
   18      O      -3.1574113729     3.9186612540    -1.1490912143
 ----------------------------------------------------------------
 Nuclear Repulsion Energy =         677.69023737 hartrees
 There are       42 alpha and       41 beta electrons
 Discretize the solute cavity surface with Lebedev spheres
	Using 110 Lebedev grid points for each H atom
	Using 194 Lebedev grid points for other atoms
	Atomic van der Waals radii will be scaled by 1.20
 Remove points where switching function is < 1.0e-08
 Keep 1362 surface tesserae and discard 1542 interior tesserae
 Molecular Surface Area = 155.027 Angst**2
 Requested basis set is 6-311++G(2df,2p)
 There are 130 shells and 444 basis functions
 A cutoff of  1.0D-12 yielded   7773 shell pairs
 There are     91333 function pairs (    115096 Cartesian)
 Smallest overlap matrix eigenvalue = 3.12E-06
 Guess MOs from SCF MO coefficient file

 -----------------------------------------------------------------------
  General SCF calculation program by
  Eric Jon Sundstrom, Paul Horn, Yuezhi Mao, Dmitri Zuev, Alec White,
  David Stuck, Shaama M.S., Shane Yost, Joonho Lee, David Small,
  Daniel Levine, Susi Lehtola, Hugh Burton, Evgeny Epifanovsky,
  Bang C. Huynh
 -----------------------------------------------------------------------
 Exchange:     0.1500 Hartree-Fock + 1.0000 wB97M-V + LR-HF
 Correlation:  1.0000 wB97M-V
 Using SG-2 standard quadrature grid
 Nonlocal Correlation:  VV10 with C = 0.0100 and b = 6.00 and scale = 1.00000
 Grid used for NLC:  SG-1 standard quadrature
 
 Citation of the SMD model:
 Marenich, A.V.; Cramer, C.J.; Truhlar, D.G.
 J. Phys. Chem. B 2009, 113, 6378-6396.
 iSolventCode=           1
 Solvent: water                                                           
 
 vradii
            1           2           3           4           5           6
    1   1.2000000   1.8500000   1.8500000   1.2000000   1.8500000   1.2000000
            7           8           9          10          11          12
    1   1.8500000   1.2000000   1.8500000   1.2000000   1.8500000   1.2000000
           13          14          15          16          17          18
    1   1.5200000   1.2000000   1.5200000   1.5200000   1.5200000   1.5200000
 -------------------------------------------------------
 OpenMP BLAS3 based DFT computing Module                
 Release: version 1.0, May 2013, Q-Chem Inc. Pittsburgh 
 -------------------------------------------------------
 A unrestricted SCF calculation will be
 performed using Roothaan-Hall, DIIS, GDM
 SCF converges when RMS gradient is below 1.0e-07
 ---------------------------------------
  Cycle       Energy         DIIS error
 ---------------------------------------
    1    -608.7108512613      1.77e-04  Roothaan Step
 ---------------------------------------
  Cycle       Energy         DIIS error
 ---------------------------------------
    1    -608.7385956829      1.94e-04  
    2    -608.7425104403      1.49e-04  Done DIIS. Switching to GDM
 ---------------------------------------
  Cycle       Energy        RMS Gradient
 ---------------------------------------
    1    -608.7425104403      7.65e-03   Normal BFGS step
    2    -608.7425140530      1.18e-02   Normal BFGS step
    3    -608.7440819690      1.39e-03   Normal BFGS step
    4    -608.7440856130      2.44e-03   Normal BFGS step
    5    -608.7441158057      2.51e-04   Normal BFGS step
    6    -608.7441164981      1.90e-04   Normal BFGS step
    7    -608.7441168545      1.09e-04   Normal BFGS step
    8    -608.7441169200      5.88e-05   Normal BFGS step
    9    -608.7441169460      1.45e-05   Normal BFGS step
   10    -608.7441169520      5.34e-06   Normal BFGS step
   11    -608.7441169528      5.29e-06   Normal BFGS step
   12    -608.7441169531      4.96e-06   Normal BFGS step
   13    -608.7441169532      4.47e-06   Normal BFGS step
   14    -608.7441169533      3.37e-06   Normal BFGS step
   15    -608.7441169533      1.38e-06   Normal BFGS step
   16    -608.7441169533      7.48e-07   Normal BFGS step
   17    -608.7441169534      2.58e-07   Normal BFGS step
   18    -608.7441169534      9.29e-08  Convergence criterion met
 ---------------------------------------
 SCF time:   CPU 2777.18s  wall 190.00s 
<S^2> =          0.754010160
(3)  G-ENP(liq) elect-nuc-pol free energy of system     -608.744116953 a.u.
(4)  G-CDS(liq) cavity-dispersion-solvent structure 
     free energy                                                2.0766 kcal/mol
(6)  G-S(liq) free energy of system                     -608.740807616 a.u.
 SCF   energy in the final basis set =     -608.7408076160
 Total energy in the final basis set =     -608.7408076160
 
 --------------------------------------------------------------
 
                    Orbital Energies (a.u.)
 --------------------------------------------------------------
 
 Alpha MOs
 -- Occupied --
-19.4670 -19.4182 -19.4079 -19.4063 -19.3509 -10.4172 -10.4126 -10.4104
-10.4100 -10.3582 -10.3553  -1.3464  -1.2764  -1.1746  -1.0754  -1.0304
 -0.9572  -0.8851  -0.8387  -0.7618  -0.7368  -0.6937  -0.6762  -0.6504
 -0.6407  -0.6213  -0.6019  -0.5821  -0.5666  -0.5591  -0.5362  -0.5292
 -0.5076  -0.4942  -0.4809  -0.4617  -0.4282  -0.4136  -0.4104  -0.3949
 -0.3694  -0.3614
 -- Virtual --
  0.0255   0.0355   0.0396   0.0426   0.0480   0.0572   0.0607   0.0761
  0.0806   0.0944   0.1079   0.1145   0.1289   0.1323   0.1331   0.1389
  0.1445   0.1461   0.1474   0.1554   0.1557   0.1616   0.1654   0.1773
  0.1833   0.1885   0.1912   0.1972   0.1999   0.2088   0.2229   0.2268
  0.2327   0.2392   0.2509   0.2624   0.2691   0.2784   0.2885   0.2932
  0.2975   0.3022   0.3171   0.3178   0.3212   0.3268   0.3409   0.3416
  0.3500   0.3589   0.3651   0.3691   0.3768   0.3825   0.3873   0.3916
  0.3966   0.3994   0.4053   0.4121   0.4205   0.4305   0.4348   0.4426
  0.4498   0.4577   0.4685   0.4802   0.5061   0.5085   0.5244   0.5472
  0.5579   0.5864   0.6016   0.6073   0.6152   0.6264   0.6423   0.6556
  0.6672   0.6814   0.6970   0.7016   0.7056   0.7169   0.7254   0.7311
  0.7470   0.7546   0.7614   0.7746   0.7827   0.7927   0.8146   0.8212
  0.8363   0.8406   0.8546   0.8642   0.8990   0.9146   0.9432   0.9714
  0.9811   1.0129   1.0256   1.0544   1.0702   1.0863   1.1149   1.1210
  1.1312   1.1316   1.1563   1.1586   1.1697   1.1732   1.1780   1.1829
  1.1900   1.2130   1.2159   1.2210   1.2346   1.2367   1.2487   1.2558
  1.2697   1.2763   1.2821   1.3075   1.3141   1.3287   1.3375   1.3422
  1.3525   1.3724   1.3789   1.3913   1.3929   1.4114   1.4202   1.4458
  1.4547   1.4620   1.4738   1.4831   1.5052   1.5070   1.5214   1.5292
  1.5621   1.5730   1.5819   1.5905   1.5934   1.6069   1.6311   1.6671
  1.6812   1.6840   1.7015   1.7044   1.7239   1.7588   1.7623   1.7808
  1.8105   1.8237   1.8385   1.8631   1.8744   1.9027   1.9513   1.9805
  1.9978   2.0191   2.0278   2.0416   2.1115   2.1428   2.1498   2.1675
  2.2407   2.2474   2.2623   2.2804   2.3230   2.3339   2.3673   2.3828
  2.4163   2.4289   2.4559   2.5454   2.6533   2.6781   2.6967   2.7190
  2.7385   2.7573   2.7723   2.7966   2.8050   2.8351   2.8406   2.8509
  2.8714   2.8858   2.9050   2.9401   2.9564   2.9707   2.9812   2.9963
  3.0001   3.0392   3.0498   3.0703   3.0878   3.1141   3.1339   3.1654
  3.1980   3.2242   3.2674   3.2853   3.3081   3.3296   3.3469   3.3574
  3.3960   3.4018   3.4077   3.4426   3.4671   3.4768   3.4848   3.5139
  3.5246   3.5388   3.5545   3.5854   3.6190   3.6277   3.6468   3.6664
  3.6802   3.6908   3.7168   3.7284   3.7382   3.7585   3.7697   3.7815
  3.7973   3.8105   3.8208   3.8499   3.8551   3.8963   3.9039   3.9158
  3.9270   3.9539   3.9771   3.9866   4.0056   4.0354   4.0561   4.0610
  4.0863   4.1254   4.1489   4.1826   4.2031   4.2144   4.2606   4.2793
  4.3055   4.3166   4.3355   4.3605   4.3686   4.3839   4.3944   4.4254
  4.4649   4.4702   4.4949   4.5068   4.5599   4.5676   4.5782   4.5920
  4.6192   4.6381   4.6507   4.6726   4.7032   4.7366   4.7396   4.7525
  4.7610   4.7918   4.8342   4.8766   4.9085   4.9318   4.9748   5.0112
  5.0407   5.0787   5.0881   5.0960   5.0990   5.1195   5.1829   5.2155
  5.2356   5.2575   5.2735   5.2944   5.2972   5.3126   5.3250   5.3521
  5.3617   5.3777   5.4072   5.4332   5.4601   5.4633   5.4764   5.5165
  5.5366   5.5588   5.5752   5.6183   5.6230   5.6376   5.6670   5.7002
  5.7330   5.7574   5.7806   5.8105   5.8267   5.8448   5.9200   5.9579
  5.9857   6.0383   6.0667   6.1541   6.2669   6.4649   6.4764   6.6052
  6.6352   6.6647   6.7269   6.7410   6.8437   6.8964   6.9874   7.0212
  7.1075   7.1236   7.2220   7.2723   7.2966   7.3161   7.3410   7.3886
  7.4138   7.4272   7.4515   7.4548   7.4737   7.5261   7.6350   7.7208
  7.8156   7.8422   7.8918   7.9395   8.0298   8.1052   8.2338  24.3663
 24.6904  24.7371  24.8284  24.8529  25.2344  50.4335  50.5511  50.5881
 50.6541  50.6595
 
 Beta MOs
 -- Occupied --
-19.4565 -19.4079 -19.4063 -19.3997 -19.3508 -10.4176 -10.4123 -10.4104
-10.4101 -10.3581 -10.3553  -1.3201  -1.2763  -1.1744  -1.0750  -1.0090
 -0.9459  -0.8841  -0.8305  -0.7615  -0.7327  -0.6910  -0.6738  -0.6413
 -0.6285  -0.5987  -0.5889  -0.5720  -0.5618  -0.5535  -0.5281  -0.5121
 -0.5063  -0.4918  -0.4759  -0.4599  -0.4199  -0.4063  -0.3947  -0.3702
 -0.3620
 -- Virtual --
 -0.0334   0.0255   0.0358   0.0397   0.0430   0.0490   0.0577   0.0609
  0.0766   0.0809   0.0947   0.1085   0.1150   0.1303   0.1325   0.1337
  0.1393   0.1448   0.1466   0.1475   0.1557   0.1561   0.1618   0.1659
  0.1779   0.1839   0.1892   0.1921   0.1986   0.2011   0.2101   0.2231
  0.2296   0.2337   0.2401   0.2571   0.2646   0.2698   0.2802   0.2905
  0.2943   0.3022   0.3032   0.3179   0.3186   0.3218   0.3285   0.3428
  0.3444   0.3504   0.3602   0.3658   0.3701   0.3777   0.3829   0.3876
  0.3918   0.3970   0.4003   0.4059   0.4128   0.4222   0.4318   0.4353
  0.4434   0.4518   0.4591   0.4686   0.4810   0.5066   0.5090   0.5247
  0.5476   0.5582   0.5872   0.6018   0.6080   0.6154   0.6271   0.6424
  0.6563   0.6676   0.6818   0.6973   0.7019   0.7056   0.7171   0.7260
  0.7313   0.7472   0.7549   0.7625   0.7755   0.7830   0.7935   0.8149
  0.8217   0.8370   0.8408   0.8548   0.8650   0.8992   0.9158   0.9438
  0.9722   0.9819   1.0149   1.0268   1.0552   1.0706   1.0874   1.1173
  1.1238   1.1324   1.1330   1.1582   1.1627   1.1739   1.1769   1.1862
  1.1930   1.1951   1.2168   1.2205   1.2307   1.2388   1.2403   1.2499
  1.2600   1.2706   1.2779   1.2851   1.3114   1.3155   1.3319   1.3380
  1.3432   1.3551   1.3736   1.3800   1.3925   1.3948   1.4123   1.4212
  1.4462   1.4573   1.4637   1.4768   1.4845   1.5058   1.5094   1.5280
  1.5321   1.5634   1.5758   1.5827   1.5928   1.5961   1.6101   1.6369
  1.6782   1.6834   1.6995   1.7081   1.7154   1.7281   1.7623   1.7676
  1.7826   1.8142   1.8256   1.8412   1.8641   1.8760   1.9080   1.9549
  1.9814   2.0004   2.0203   2.0325   2.0473   2.1124   2.1451   2.1534
  2.1710   2.2454   2.2551   2.2642   2.2873   2.3234   2.3487   2.3720
  2.3859   2.4204   2.4310   2.4575   2.5464   2.6537   2.6829   2.6990
  2.7220   2.7389   2.7576   2.7731   2.7970   2.8053   2.8358   2.8407
  2.8512   2.8719   2.8859   2.9052   2.9405   2.9567   2.9720   2.9816
  2.9966   3.0004   3.0397   3.0502   3.0706   3.0883   3.1148   3.1346
  3.1655   3.1985   3.2243   3.2676   3.2856   3.3084   3.3299   3.3472
  3.3577   3.3962   3.4019   3.4079   3.4431   3.4674   3.4772   3.4852
  3.5141   3.5250   3.5392   3.5546   3.5867   3.6190   3.6279   3.6472
  3.6672   3.6802   3.6911   3.7169   3.7286   3.7384   3.7592   3.7701
  3.7817   3.7972   3.8109   3.8213   3.8502   3.8554   3.8967   3.9041
  3.9161   3.9274   3.9542   3.9777   3.9873   4.0063   4.0357   4.0563
  4.0612   4.0869   4.1256   4.1496   4.1831   4.2033   4.2148   4.2609
  4.2799   4.3066   4.3169   4.3362   4.3610   4.3690   4.3847   4.3950
  4.4263   4.4661   4.4716   4.4955   4.5075   4.5669   4.5700   4.5794
  4.5938   4.6215   4.6483   4.6601   4.6761   4.7045   4.7377   4.7477
  4.7538   4.7718   4.7932   4.8356   4.8816   4.9192   4.9491   4.9773
  5.0153   5.0498   5.0819   5.1058   5.1428   5.1510   5.1910   5.2096
  5.2219   5.2622   5.2853   5.2896   5.2957   5.3068   5.3156   5.3298
  5.3555   5.3668   5.3944   5.4093   5.4394   5.4646   5.4718   5.4876
  5.5179   5.5409   5.5655   5.5820   5.6195   5.6236   5.6436   5.6680
  5.7006   5.7394   5.7628   5.7865   5.8159   5.8323   5.8523   5.9243
  5.9583   5.9874   6.0384   6.0670   6.1544   6.2672   6.4813   6.5221
  6.6162   6.6357   6.6671   6.7273   6.7416   6.9269   6.9742   7.0171
  7.0533   7.1212   7.1507   7.2499   7.2891   7.3150   7.3240   7.3475
  7.3893   7.4281   7.4416   7.4593   7.4701   7.4960   7.5268   7.6360
  7.7216   7.8269   7.8443   7.8923   7.9398   8.0433   8.1250   8.2339
 24.3663  24.6904  24.7370  24.8284  24.8530  25.2344  50.4463  50.5602
 50.5881  50.6546  50.6596
 --------------------------------------------------------------
 
          Ground-State Mulliken Net Atomic Charges

     Atom                 Charge (a.u.)    Spin (a.u.)
  --------------------------------------------------------
      1 H                     0.307017       0.000004
      2 C                    -0.295449      -0.007540
      3 C                    -0.105606       0.014924
      4 H                     0.307177      -0.000861
      5 C                    -0.466187      -0.017974
      6 H                     0.306484       0.005299
      7 C                    -0.252664       0.016150
      8 H                     0.288629      -0.001197
      9 C                    -0.045360       0.002869
     10 H                     0.298838       0.000485
     11 C                    -0.148141       0.000336
     12 H                     0.281278       0.000012
     13 O                    -0.409769       0.005246
     14 H                     0.342045      -0.000842
     15 O                    -0.122948       0.002257
     16 O                    -0.142911      -0.000457
     17 O                     0.070019       0.314974
     18 O                    -0.212452       0.666316
  --------------------------------------------------------
  Sum of atomic charges =    -0.000000
  Sum of spin   charges =     1.000000

 -----------------------------------------------------------------
                    Cartesian Multipole Moments
 -----------------------------------------------------------------
    Charge (ESU x 10^10)
                -0.0000
    Dipole Moment (Debye)
         X       2.5053      Y       0.1116      Z      -0.5682
       Tot       2.5713
    Quadrupole Moments (Debye-Ang)
        XX     -69.4190     XY       3.1783     YY     -78.8775
        XZ      -4.1286     YZ      -3.9327     ZZ     -51.3900
    Octopole Moments (Debye-Ang^2)
       XXX     225.3579    XXY    -132.7524    XYY     110.7386
       YYY    -385.0783    XXZ      60.4598    XYZ     -11.0744
       YYZ      44.2132    XZZ      68.3474    YZZ     -70.7494
       ZZZ     105.4406
    Hexadecapole Moments (Debye-Ang^3)
      XXXX   -1080.9040   XXXY     554.0420   XXYY    -629.0928
      XYYY     689.4763   YYYY   -2094.7409   XXXZ    -196.0857
      XXYZ     126.0613   XYYZ    -118.5709   YYYZ     232.2262
      XXZZ    -271.4635   XYZZ     150.2149   YYZZ    -314.7105
      XZZZ    -145.7038   YZZZ     142.0934   ZZZZ    -484.3621
 -----------------------------------------------------------------
 Calculating analytic gradient of the SCF energy
 Gradient of CDS energy
            1           2           3           4           5           6
    1   0.0001209   0.0002356  -0.0000976  -0.0000670  -0.0001207  -0.0002073
    2  -0.0000423  -0.0000952   0.0001560   0.0001138   0.0001551  -0.0000543
    3   0.0001530   0.0003000   0.0002826   0.0001672  -0.0000778  -0.0000139
            7           8           9          10          11          12
    1  -0.0001354  -0.0001393   0.0010215  -0.0000106   0.0000964   0.0001720
    2  -0.0001752   0.0000845   0.0018704  -0.0001760  -0.0002670  -0.0001301
    3  -0.0000887  -0.0001114   0.0001627  -0.0001495  -0.0001924  -0.0000218
           13          14          15          16          17          18
    1  -0.0010515   0.0002336   0.0000792  -0.0000912  -0.0000473   0.0000088
    2  -0.0018604   0.0003936  -0.0000415   0.0000424  -0.0000105   0.0000369
    3  -0.0001017  -0.0002621   0.0000528  -0.0000714  -0.0000408   0.0000132
 Gradient of SCF Energy
            1           2           3           4           5           6
    1   0.0050424   0.0020797  -0.0025172  -0.0021191   0.0068867  -0.0059231
    2  -0.0017655   0.0027552  -0.0040418   0.0027413   0.0101173  -0.0016515
    3   0.0061949  -0.0054756  -0.0066208   0.0068812  -0.0026299   0.0024187
            7           8           9          10          11          12
    1   0.0043164  -0.0041295  -0.0008425   0.0031626  -0.0143877   0.0094033
    2  -0.0117948   0.0037371   0.0076825  -0.0024618  -0.0001702  -0.0034080
    3   0.0068950  -0.0088896   0.0122942  -0.0111669  -0.0014801  -0.0002597
           13          14          15          16          17          18
    1   0.0050304  -0.0038902  -0.0016320   0.0001065   0.0014065  -0.0019935
    2  -0.0056767   0.0070188  -0.0019597  -0.0024226   0.0002773   0.0010230
    3   0.0168798  -0.0156498  -0.0001120  -0.0000164   0.0011321  -0.0003950
 Max gradient component =       1.688E-02
 RMS gradient           =       6.212E-03
 Computing fast CPCM-SWIG gradient
 Updating gradient with PCM contributions...
 -- total gradient after adding PCM contribution --
---------------------------------------------------
  Atom         X              Y              Z     
---------------------------------------------------
   1      -0.000318       0.000071      -0.000268
   2       0.000288      -0.000100       0.000257
   3      -0.000007      -0.000033       0.000058
   4      -0.000008       0.000018      -0.000001
   5       0.000020       0.000057       0.000036
   6      -0.000018      -0.000025      -0.000010
   7       0.000039      -0.000033      -0.000026
   8      -0.000025       0.000037       0.000001
   9      -0.000026       0.000020      -0.000002
  10       0.000035      -0.000006      -0.000008
  11      -0.000000       0.000033       0.000020
  12      -0.000009      -0.000028       0.000007
  13       0.000063      -0.000018       0.000060
  14      -0.000019       0.000059      -0.000037
  15       0.000035       0.000008      -0.000062
  16      -0.000068      -0.000036      -0.000041
  17       0.000047      -0.000042       0.000028
  18      -0.000028       0.000019      -0.000013
---------------------------------------------------
 Number of fixed atoms: 0
 Gradient time:  CPU 457.29 s  wall 35.51 s
 ----------------------------------------------------------------
             Standard Nuclear Orientation (Angstroms)
    I     Atom           X                Y                Z
 ----------------------------------------------------------------
    1      H       0.5982457874     0.8759630692     1.5800268670
    2      C      -0.0572375520     1.1042506427     0.7513469880
    3      C      -1.1201684287     1.8823611434     0.9071181045
    4      H      -1.3695949260     2.3272375989     1.8614316756
    5      C      -2.0612452203     2.1303068924    -0.2296295620
    6      H      -3.0782147606     1.8339670192     0.0240779581
    7      C      -1.6363076827     1.4105723098    -1.5124612683
    8      H      -2.2172198657     1.7449564114    -2.3687929903
    9      C      -0.1243369580     1.4532084756    -1.7166899583
   10      H       0.1346204005     1.0126767899    -2.6785942912
   11      C       0.2367390093     0.4925858830    -0.5935355063
   12      H       1.2375404335     0.0778532465    -0.6723686995
   13      O       0.4697687099     2.7173244303    -1.5444741472
   14      H       0.2863130648     3.2452414232    -2.3297009728
   15      O      -1.8979472948     0.0197168696    -1.3385003686
   16      O      -0.6510549477    -0.5974298580    -0.8681674770
   17      O      -2.1094943960     3.5759795989    -0.4549662374
   18      O      -3.1574113729     3.9186612540    -1.1490912143
 ----------------------------------------------------------------
 Nuclear Repulsion Energy =         677.68797374 hartrees
 There are       42 alpha and       41 beta electrons
 Discretize the solute cavity surface with Lebedev spheres
	Using 110 Lebedev grid points for each H atom
	Using 194 Lebedev grid points for other atoms
	Atomic van der Waals radii will be scaled by 1.20
 Remove points where switching function is < 1.0e-08
 Keep 1362 surface tesserae and discard 1542 interior tesserae
 Molecular Surface Area = 155.029 Angst**2
 Requested basis set is 6-311++G(2df,2p)
 There are 130 shells and 444 basis functions
 A cutoff of  1.0D-12 yielded   7773 shell pairs
 There are     91333 function pairs (    115096 Cartesian)
 Smallest overlap matrix eigenvalue = 3.12E-06
 Guess MOs from SCF MO coefficient file

 -----------------------------------------------------------------------
  General SCF calculation program by
  Eric Jon Sundstrom, Paul Horn, Yuezhi Mao, Dmitri Zuev, Alec White,
  David Stuck, Shaama M.S., Shane Yost, Joonho Lee, David Small,
  Daniel Levine, Susi Lehtola, Hugh Burton, Evgeny Epifanovsky,
  Bang C. Huynh
 -----------------------------------------------------------------------
 Exchange:     0.1500 Hartree-Fock + 1.0000 wB97M-V + LR-HF
 Correlation:  1.0000 wB97M-V
 Using SG-2 standard quadrature grid
 Nonlocal Correlation:  VV10 with C = 0.0100 and b = 6.00 and scale = 1.00000
 Grid used for NLC:  SG-1 standard quadrature
 
 Citation of the SMD model:
 Marenich, A.V.; Cramer, C.J.; Truhlar, D.G.
 J. Phys. Chem. B 2009, 113, 6378-6396.
 iSolventCode=           1
 Solvent: water                                                           
 
 vradii
            1           2           3           4           5           6
    1   1.2000000   1.8500000   1.8500000   1.2000000   1.8500000   1.2000000
            7           8           9          10          11          12
    1   1.8500000   1.2000000   1.8500000   1.2000000   1.8500000   1.2000000
           13          14          15          16          17          18
    1   1.5200000   1.2000000   1.5200000   1.5200000   1.5200000   1.5200000
 -------------------------------------------------------
 OpenMP BLAS3 based DFT computing Module                
 Release: version 1.0, May 2013, Q-Chem Inc. Pittsburgh 
 -------------------------------------------------------
 A unrestricted SCF calculation will be
 performed using Roothaan-Hall, DIIS, GDM
 SCF converges when RMS gradient is below 1.0e-07
 ---------------------------------------
  Cycle       Energy         DIIS error
 ---------------------------------------
    1    -608.7108465698      1.77e-04  Roothaan Step
 ---------------------------------------
  Cycle       Energy         DIIS error
 ---------------------------------------
    1    -608.7385956362      1.94e-04  
    2    -608.7425098881      1.49e-04  Done DIIS. Switching to GDM
 ---------------------------------------
  Cycle       Energy        RMS Gradient
 ---------------------------------------
    1    -608.7425098881      7.65e-03   Normal BFGS step
    2    -608.7425136371      1.18e-02   Normal BFGS step
    3    -608.7440823662      1.39e-03   Normal BFGS step
    4    -608.7440860003      2.44e-03   Normal BFGS step
    5    -608.7441162385      2.51e-04   Normal BFGS step
    6    -608.7441169308      1.90e-04   Normal BFGS step
    7    -608.7441172876      1.09e-04   Normal BFGS step
    8    -608.7441173530      5.89e-05   Normal BFGS step
    9    -608.7441173790      1.44e-05   Normal BFGS step
   10    -608.7441173851      5.60e-06   Normal BFGS step
   11    -608.7441173859      5.57e-06   Normal BFGS step
   12    -608.7441173862      5.22e-06   Normal BFGS step
   13    -608.7441173863      4.68e-06   Normal BFGS step
   14    -608.7441173864      3.47e-06   Normal BFGS step
   15    -608.7441173864      1.37e-06   Normal BFGS step
   16    -608.7441173864      7.54e-07   Normal BFGS step
   17    -608.7441173865      2.56e-07   Normal BFGS step
   18    -608.7441173864      9.30e-08  Convergence criterion met
 ---------------------------------------
 SCF time:   CPU 2784.13s  wall 190.00s 
<S^2> =          0.754010135
(3)  G-ENP(liq) elect-nuc-pol free energy of system     -608.744117386 a.u.
(4)  G-CDS(liq) cavity-dispersion-solvent structure 
     free energy                                                2.0767 kcal/mol
(6)  G-S(liq) free energy of system                     -608.740807900 a.u.
 SCF   energy in the final basis set =     -608.7408079002
 Total energy in the final basis set =     -608.7408079002
 
 --------------------------------------------------------------
 
                    Orbital Energies (a.u.)
 --------------------------------------------------------------
 
 Alpha MOs
 -- Occupied --
-19.4670 -19.4182 -19.4079 -19.4063 -19.3509 -10.4172 -10.4126 -10.4104
-10.4100 -10.3582 -10.3553  -1.3464  -1.2764  -1.1746  -1.0754  -1.0304
 -0.9572  -0.8851  -0.8387  -0.7618  -0.7368  -0.6937  -0.6761  -0.6504
 -0.6407  -0.6213  -0.6019  -0.5821  -0.5666  -0.5591  -0.5362  -0.5292
 -0.5076  -0.4942  -0.4809  -0.4617  -0.4282  -0.4136  -0.4104  -0.3948
 -0.3694  -0.3614
 -- Virtual --
  0.0254   0.0355   0.0396   0.0426   0.0480   0.0572   0.0607   0.0761
  0.0806   0.0944   0.1079   0.1145   0.1289   0.1323   0.1331   0.1389
  0.1445   0.1461   0.1474   0.1554   0.1557   0.1616   0.1654   0.1773
  0.1833   0.1885   0.1912   0.1972   0.1999   0.2088   0.2229   0.2268
  0.2327   0.2392   0.2509   0.2624   0.2692   0.2784   0.2885   0.2931
  0.2975   0.3022   0.3171   0.3178   0.3212   0.3268   0.3409   0.3416
  0.3500   0.3589   0.3651   0.3691   0.3768   0.3825   0.3873   0.3916
  0.3966   0.3994   0.4052   0.4120   0.4205   0.4305   0.4347   0.4427
  0.4498   0.4577   0.4685   0.4802   0.5061   0.5085   0.5244   0.5472
  0.5579   0.5864   0.6016   0.6073   0.6152   0.6264   0.6423   0.6556
  0.6672   0.6814   0.6969   0.7016   0.7055   0.7168   0.7254   0.7311
  0.7470   0.7546   0.7614   0.7747   0.7827   0.7927   0.8146   0.8212
  0.8362   0.8406   0.8545   0.8642   0.8989   0.9146   0.9432   0.9714
  0.9811   1.0129   1.0256   1.0544   1.0702   1.0863   1.1149   1.1210
  1.1312   1.1317   1.1563   1.1586   1.1697   1.1732   1.1780   1.1830
  1.1900   1.2130   1.2159   1.2209   1.2346   1.2366   1.2487   1.2558
  1.2696   1.2763   1.2822   1.3075   1.3141   1.3287   1.3375   1.3422
  1.3526   1.3724   1.3789   1.3912   1.3929   1.4114   1.4202   1.4457
  1.4547   1.4620   1.4738   1.4831   1.5052   1.5069   1.5214   1.5291
  1.5621   1.5730   1.5819   1.5905   1.5934   1.6069   1.6311   1.6671
  1.6812   1.6840   1.7015   1.7043   1.7238   1.7588   1.7623   1.7808
  1.8104   1.8237   1.8385   1.8631   1.8744   1.9027   1.9512   1.9805
  1.9979   2.0190   2.0278   2.0416   2.1115   2.1429   2.1497   2.1675
  2.2407   2.2475   2.2623   2.2804   2.3230   2.3339   2.3673   2.3829
  2.4163   2.4289   2.4559   2.5454   2.6534   2.6781   2.6967   2.7190
  2.7385   2.7573   2.7723   2.7965   2.8050   2.8350   2.8405   2.8509
  2.8713   2.8858   2.9049   2.9403   2.9564   2.9706   2.9813   2.9962
  3.0001   3.0392   3.0498   3.0702   3.0878   3.1141   3.1339   3.1655
  3.1980   3.2242   3.2674   3.2854   3.3081   3.3296   3.3468   3.3575
  3.3959   3.4018   3.4077   3.4427   3.4671   3.4768   3.4847   3.5138
  3.5246   3.5387   3.5544   3.5854   3.6189   3.6277   3.6468   3.6664
  3.6802   3.6909   3.7168   3.7284   3.7382   3.7585   3.7697   3.7815
  3.7973   3.8104   3.8207   3.8499   3.8551   3.8963   3.9037   3.9159
  3.9270   3.9539   3.9772   3.9867   4.0055   4.0354   4.0561   4.0609
  4.0864   4.1255   4.1488   4.1825   4.2031   4.2143   4.2606   4.2791
  4.3055   4.3166   4.3354   4.3603   4.3686   4.3838   4.3943   4.4254
  4.4649   4.4702   4.4948   4.5068   4.5599   4.5674   4.5782   4.5920
  4.6191   4.6380   4.6507   4.6726   4.7033   4.7366   4.7396   4.7525
  4.7610   4.7918   4.8342   4.8766   4.9085   4.9317   4.9747   5.0111
  5.0406   5.0787   5.0881   5.0959   5.0990   5.1195   5.1828   5.2155
  5.2356   5.2575   5.2735   5.2944   5.2972   5.3126   5.3250   5.3522
  5.3616   5.3777   5.4072   5.4332   5.4601   5.4633   5.4763   5.5164
  5.5364   5.5587   5.5751   5.6183   5.6229   5.6375   5.6669   5.7002
  5.7330   5.7574   5.7806   5.8105   5.8266   5.8448   5.9200   5.9578
  5.9856   6.0382   6.0665   6.1540   6.2669   6.4649   6.4764   6.6051
  6.6352   6.6647   6.7269   6.7410   6.8437   6.8964   6.9874   7.0212
  7.1075   7.1236   7.2220   7.2723   7.2966   7.3161   7.3410   7.3886
  7.4138   7.4272   7.4515   7.4548   7.4737   7.5261   7.6350   7.7207
  7.8156   7.8422   7.8918   7.9395   8.0298   8.1052   8.2338  24.3659
 24.6904  24.7371  24.8284  24.8529  25.2342  50.4335  50.5511  50.5881
 50.6541  50.6595
 
 Beta MOs
 -- Occupied --
-19.4565 -19.4079 -19.4063 -19.3997 -19.3508 -10.4176 -10.4123 -10.4104
[...]
 C         -0.111  0.184  0.032    0.102 -0.045  0.055    0.055 -0.005 -0.005
 H         -0.111  0.118 -0.022    0.163 -0.083  0.253    0.047  0.007 -0.016
 C          0.114  0.066  0.115   -0.105 -0.002 -0.093   -0.066 -0.068 -0.008
 H         -0.016  0.038  0.198   -0.417 -0.092  0.076   -0.243 -0.136  0.080
 C          0.070 -0.024 -0.139   -0.003 -0.011  0.046    0.001 -0.006  0.028
 H          0.254 -0.261  0.018    0.246 -0.132  0.169    0.098 -0.026  0.064
 C         -0.061  0.281  0.106    0.204  0.099  0.042    0.023 -0.015  0.018
 H          0.008  0.476  0.157    0.276  0.277  0.094    0.032  0.002  0.031
 O         -0.029 -0.018  0.011    0.007 -0.002  0.004    0.012  0.012  0.001
 H          0.146  0.176  0.104   -0.030 -0.050 -0.019   -0.037 -0.040 -0.024
 O          0.021 -0.068  0.002    0.054  0.052  0.011    0.013  0.081 -0.012
 O         -0.123 -0.145 -0.046   -0.130 -0.101 -0.027    0.003 -0.021 -0.003
 O         -0.014 -0.083 -0.003   -0.001  0.006 -0.007   -0.004 -0.004  0.004
 O          0.007  0.002  0.003   -0.007  0.013 -0.007   -0.008  0.008 -0.006
 TransDip   0.028  0.358  0.096    0.112  0.021  0.087   -0.037 -0.111  0.015

 Mode:                25                     26                     27
 Frequency:      1041.28                1082.97                1115.28
 Force Cnst:      2.4563                 1.0975                 0.9425
 Red. Mass:       3.8449                 1.5882                 1.2860
 IR Active:          YES                    YES                    YES
 IR Intens:       33.662                  9.813                 13.493
 Raman Active:       YES                    YES                    YES
               X      Y      Z        X      Y      Z        X      Y      Z
 H         -0.250 -0.144  0.074    0.055 -0.110 -0.149   -0.089  0.106  0.081
 C         -0.008  0.042 -0.064   -0.007 -0.009 -0.067   -0.019  0.022  0.006
 C         -0.034 -0.045  0.028    0.046  0.006  0.037   -0.035 -0.058 -0.032
 H          0.223  0.259 -0.049    0.225 -0.151  0.155   -0.032  0.124 -0.119
 C          0.056 -0.017  0.038   -0.018 -0.023 -0.054    0.046  0.031  0.086
 H          0.070 -0.132 -0.041   -0.062 -0.003 -0.214    0.182  0.055  0.663
 C         -0.026  0.339 -0.106    0.018 -0.069 -0.002    0.023 -0.043 -0.054
 H         -0.092  0.546  0.024    0.204 -0.049 -0.121    0.505  0.023 -0.352
 C         -0.021 -0.008  0.006   -0.096  0.042 -0.031   -0.018  0.013 -0.005
 H         -0.154  0.027 -0.047   -0.390  0.102 -0.137   -0.181  0.111 -0.094
 C          0.105 -0.043  0.044    0.062  0.031  0.126   -0.016  0.017 -0.013
 H          0.029 -0.293  0.341    0.014 -0.178  0.620   -0.028 -0.022  0.057
 O         -0.015 -0.007  0.003   -0.001 -0.006 -0.011   -0.002 -0.007 -0.006
 H          0.003 -0.008 -0.002    0.181  0.244  0.119    0.038  0.052  0.026
 O         -0.004 -0.259  0.045   -0.012  0.033 -0.006    0.010  0.004  0.011
 O         -0.024  0.059 -0.006   -0.009 -0.013 -0.014   -0.008 -0.006 -0.001
 O         -0.000 -0.017 -0.018    0.003  0.017  0.006   -0.002 -0.021 -0.004
 O          0.000  0.007 -0.002    0.001 -0.006  0.002   -0.009  0.014 -0.008
 TransDip  -0.040  0.178  0.034    0.054  0.036  0.077    0.060  0.100  0.018

 Mode:                28                     29                     30
 Frequency:      1137.83                1212.22                1262.78
 Force Cnst:      1.0028                 0.9692                 1.7440
 Red. Mass:       1.3147                 1.1195                 1.8563
 IR Active:          YES                    YES                    YES
 IR Intens:        1.168                 20.059                  5.921
 Raman Active:       YES                    YES                    YES
               X      Y      Z        X      Y      Z        X      Y      Z
 H         -0.410  0.326  0.364   -0.151  0.157  0.184    0.162 -0.184 -0.188
 C         -0.023  0.023 -0.023   -0.009  0.009  0.032    0.017 -0.004 -0.024
 C          0.007 -0.010 -0.022    0.022 -0.019 -0.019   -0.018  0.004 -0.019
 H          0.457 -0.243  0.200    0.295 -0.145  0.108   -0.292  0.120 -0.143
 C          0.008  0.002  0.061    0.004 -0.005 -0.006   -0.034  0.038  0.081
 H         -0.020 -0.086 -0.159   -0.009 -0.021 -0.080    0.021 -0.141  0.093
 C          0.077 -0.032 -0.040   -0.005 -0.004 -0.013    0.158  0.025 -0.043
 H         -0.017 -0.030  0.026   -0.083 -0.033  0.028   -0.312 -0.535  0.064
 C         -0.067  0.030 -0.015    0.038  0.014  0.007   -0.044  0.088  0.011
 H          0.118 -0.128  0.107   -0.113  0.512 -0.259    0.102  0.355 -0.067
 C         -0.012 -0.059  0.043   -0.030  0.046 -0.025    0.033 -0.083  0.073
 H          0.020  0.093 -0.346   -0.023  0.029  0.191    0.200  0.315  0.058
 O         -0.001  0.000 -0.012    0.011 -0.028  0.021   -0.017 -0.061 -0.016
 H          0.116  0.180  0.083   -0.318 -0.494 -0.223   -0.049 -0.088 -0.024
 O         -0.019 -0.006  0.000   -0.001  0.007 -0.000   -0.061 -0.019 -0.017
 O          0.010  0.029 -0.002    0.000 -0.013  0.000   -0.003  0.041 -0.006
 O          0.002  0.002 -0.005    0.001  0.002  0.000    0.023 -0.008  0.004
 O         -0.001  0.002 -0.001   -0.001  0.000 -0.000   -0.016  0.006 -0.011
 TransDip   0.031 -0.016 -0.000   -0.089 -0.109 -0.029   -0.036  0.066  0.022

 Mode:                31                     32                     33
 Frequency:      1271.87                1274.46                1296.81
 Force Cnst:      2.9166                 2.9809                 1.2264
 Red. Mass:       3.0602                 3.1149                 1.2377
 IR Active:          YES                    YES                    YES
 IR Intens:       15.820                 60.656                 10.725
 Raman Active:       YES                    YES                    YES
               X      Y      Z        X      Y      Z        X      Y      Z
 H         -0.024  0.038  0.040   -0.016 -0.026 -0.013    0.056 -0.086 -0.069
 C         -0.000 -0.012  0.008   -0.006  0.012 -0.010    0.010  0.001 -0.010
 C          0.004  0.014 -0.015    0.020  0.008  0.011   -0.003  0.010 -0.011
 H         -0.076  0.028 -0.042    0.025 -0.053  0.040   -0.078 -0.001 -0.025
 C         -0.010  0.013  0.029   -0.007 -0.017 -0.038    0.019 -0.007  0.010
 H         -0.042 -0.014 -0.132   -0.020  0.073  0.008   -0.118  0.385 -0.081
 C          0.012 -0.030 -0.023   -0.032  0.005  0.014   -0.029 -0.069 -0.012
 H         -0.035  0.236  0.110    0.071  0.056 -0.036    0.152  0.627  0.133
 C         -0.021  0.133  0.044    0.015 -0.158 -0.052   -0.026  0.035 -0.019
 H          0.424  0.084  0.192   -0.444 -0.114 -0.204    0.358  0.345 -0.055
 C          0.014  0.084 -0.058   -0.018 -0.085  0.056    0.001 -0.062  0.051
 H         -0.284 -0.661  0.063    0.292  0.687 -0.068    0.141  0.292 -0.019
 O         -0.035 -0.094 -0.030    0.044  0.115  0.037   -0.002 -0.030 -0.019
 H          0.053  0.053  0.057   -0.063 -0.067 -0.071    0.003  0.011  0.009
 O          0.003  0.012  0.005    0.012 -0.012  0.004    0.026 -0.003  0.019
 O          0.026 -0.045  0.013   -0.029  0.045 -0.013   -0.018  0.015 -0.003
 O          0.180 -0.065  0.120    0.172 -0.059  0.118   -0.030 -0.012 -0.003
 O         -0.174  0.056 -0.116   -0.167  0.052 -0.110    0.012 -0.000  0.007
 TransDip  -0.009  0.125 -0.023   -0.178 -0.152 -0.085    0.104 -0.014  0.005

 Mode:                34                     35                     36
 Frequency:      1316.34                1329.46                1341.18
 Force Cnst:      2.3537                 1.3579                 1.3622
 Red. Mass:       2.3055                 1.3039                 1.2853
 IR Active:          YES                    YES                    YES
 IR Intens:      140.153                 40.739                  9.744
 Raman Active:       YES                    YES                    YES
               X      Y      Z        X      Y      Z        X      Y      Z
 H         -0.164  0.122  0.132   -0.041  0.023  0.036   -0.210  0.185  0.237
 C         -0.012  0.013 -0.018    0.002 -0.009 -0.006    0.029 -0.016 -0.012
 C          0.032 -0.006  0.059    0.010  0.008 -0.020    0.051 -0.016  0.009
 H          0.151 -0.047  0.109   -0.109  0.030 -0.064   -0.262  0.105 -0.130
 C          0.025 -0.082 -0.140    0.042 -0.045  0.060    0.023  0.004  0.065
 H         -0.036  0.512  0.278   -0.232  0.809 -0.071   -0.089  0.016 -0.369
 C         -0.043  0.089  0.074    0.083 -0.000 -0.064   -0.043  0.019  0.036
 H         -0.016 -0.350 -0.109   -0.214 -0.085  0.106    0.222 -0.211 -0.228
 C          0.159  0.106  0.058   -0.022 -0.016  0.008   -0.041 -0.001 -0.009
 H         -0.048  0.118 -0.002   -0.289 -0.211  0.022    0.273 -0.118  0.130
 C         -0.031 -0.032 -0.024    0.004  0.033 -0.011   -0.016 -0.027 -0.096
 H          0.102  0.284  0.019   -0.075 -0.163  0.020    0.132  0.210  0.535
 O         -0.074 -0.103 -0.054    0.013  0.027  0.021    0.009  0.010  0.003
 H          0.231  0.346  0.195   -0.060 -0.098 -0.051   -0.015 -0.020 -0.013
 O         -0.010 -0.016 -0.007   -0.015  0.007 -0.001   -0.000 -0.000 -0.005
 O         -0.013 -0.000  0.003    0.012 -0.006  0.002   -0.008  0.012  0.003
 O         -0.001 -0.014  0.021   -0.032 -0.035  0.005   -0.005 -0.007 -0.004
 O         -0.014  0.004 -0.009   -0.002  0.010 -0.003   -0.001  0.003 -0.001
 TransDip   0.203  0.320  0.013    0.102 -0.175  0.030   -0.005 -0.100 -0.003

 Mode:                37                     38                     39
 Frequency:      1370.82                1378.76                1416.48
 Force Cnst:      1.9672                 1.8885                 2.0723
 Red. Mass:       1.7768                 1.6861                 1.7530
 IR Active:          YES                    YES                    YES
 IR Intens:        5.553                 24.067                 30.673
 Raman Active:       YES                    YES                    YES
               X      Y      Z        X      Y      Z        X      Y      Z
 H         -0.049  0.018 -0.034   -0.002  0.011  0.043    0.363 -0.342 -0.298
 C         -0.017 -0.013 -0.060    0.004  0.013  0.031   -0.042  0.067  0.132
 C          0.013  0.007  0.039   -0.003 -0.006  0.032   -0.084  0.026 -0.114
 H         -0.046  0.047  0.002    0.184 -0.064  0.114    0.506 -0.269  0.168
 C          0.022 -0.052 -0.047   -0.063 -0.016 -0.140    0.071 -0.036  0.061
 H         -0.027  0.228  0.064    0.089  0.089  0.587   -0.024  0.149 -0.130
 C         -0.026  0.080  0.102    0.095 -0.005  0.019   -0.026  0.046  0.020
 H          0.307 -0.346 -0.281   -0.111  0.139  0.219    0.122 -0.253 -0.190
 C         -0.081 -0.010 -0.109   -0.110  0.021 -0.038   -0.036 -0.035  0.017
 H          0.442  0.107 -0.016    0.291 -0.286  0.209    0.228  0.044  0.056
 C          0.035  0.029  0.131    0.015 -0.042 -0.083    0.021 -0.029 -0.071
 H         -0.120 -0.246 -0.391    0.092  0.043  0.403    0.055  0.005  0.106
 O          0.028  0.017  0.027    0.024  0.023  0.025    0.003  0.009 -0.010
 H         -0.186 -0.290 -0.139   -0.125 -0.195 -0.096    0.052  0.091  0.035
 O         -0.005 -0.008 -0.011   -0.015 -0.002  0.000   -0.003 -0.002 -0.005
 O          0.005 -0.005 -0.010    0.003  0.017  0.005   -0.001  0.006  0.001
 O          0.000 -0.007  0.007    0.005  0.011  0.008   -0.000 -0.015  0.004
 O         -0.007  0.003 -0.005    0.002 -0.007  0.003   -0.010  0.009 -0.007
 TransDip  -0.060 -0.025  0.038   -0.108 -0.110 -0.030    0.120 -0.130  0.010

 Mode:                40                     41                     42
 Frequency:      1463.99                1734.89                3102.86
 Force Cnst:      2.5252                12.3895                 6.1651
 Red. Mass:       1.9998                 6.9865                 1.0868
 IR Active:          YES                    YES                    YES
 IR Intens:       36.484                  0.643                 30.176
 Raman Active:       YES                    YES                    YES
               X      Y      Z        X      Y      Z        X      Y      Z
 H          0.101 -0.108 -0.097   -0.014 -0.133 -0.394    0.001 -0.000  0.001
 C         -0.000  0.012  0.013   -0.392  0.307  0.121   -0.000  0.000  0.001
 C         -0.030  0.013 -0.024    0.432 -0.289  0.010    0.000 -0.000 -0.000
 H          0.063 -0.049  0.029   -0.203  0.026 -0.382    0.000  0.000  0.000
 C          0.026  0.008  0.031   -0.062  0.031 -0.014    0.006  0.002 -0.001
 H          0.007 -0.069 -0.131   -0.082  0.004 -0.136   -0.071 -0.020  0.018
 C         -0.051 -0.032  0.005    0.014 -0.014  0.001    0.004 -0.003  0.006
 H          0.177  0.089 -0.110   -0.033  0.057  0.056   -0.052  0.033 -0.080
 C          0.085  0.231 -0.099   -0.006  0.019  0.000    0.021 -0.032 -0.075
 H         -0.301 -0.637  0.165    0.015 -0.059  0.037   -0.243  0.387  0.874
 C          0.017 -0.061  0.038    0.051 -0.040 -0.021   -0.005  0.001  0.001
 H          0.088  0.103 -0.040    0.027 -0.078 -0.224    0.064 -0.023 -0.005
 O         -0.016 -0.051  0.045   -0.001 -0.003 -0.000    0.000 -0.000  0.001
 H         -0.243 -0.415 -0.157   -0.005 -0.012 -0.005   -0.005 -0.002 -0.002
 O         -0.000 -0.010  0.006   -0.001 -0.001  0.000    0.000 -0.000  0.000
 O         -0.012  0.001 -0.001   -0.004 -0.000 -0.002   -0.000  0.000 -0.000
 O          0.000 -0.002 -0.001   -0.008  0.007 -0.008    0.000  0.000  0.000
 O         -0.001  0.001 -0.001    0.004 -0.001  0.002   -0.000 -0.000 -0.000
 TransDip   0.136  0.067 -0.120    0.025  0.006 -0.005    0.025 -0.109 -0.136

 Mode:                43                     44                     45
 Frequency:      3108.86                3136.61                3153.68
 Force Cnst:      6.1806                 6.3089                 6.3828
 Red. Mass:       1.0854                 1.0884                 1.0892
 IR Active:          YES                    YES                    YES
 IR Intens:        4.296                  3.344                  6.440
 Raman Active:       YES                    YES                    YES
               X      Y      Z        X      Y      Z        X      Y      Z
 H          0.001 -0.002  0.004   -0.001  0.001 -0.001   -0.051  0.020 -0.061
 C         -0.000 -0.000 -0.000    0.000 -0.000  0.000    0.005 -0.002  0.004
 C          0.001 -0.001 -0.002    0.001 -0.000 -0.000   -0.000 -0.000 -0.001
 H         -0.009  0.015  0.026   -0.003  0.005  0.010   -0.002  0.003  0.007
 C         -0.078 -0.021  0.020   -0.008 -0.001  0.002    0.001  0.000 -0.000
 H          0.925  0.262 -0.230    0.090  0.024 -0.023   -0.011 -0.003  0.003
 C          0.004 -0.003  0.007   -0.046  0.024 -0.066    0.006 -0.003  0.008
 H         -0.056  0.034 -0.082    0.521 -0.295  0.775   -0.057  0.032 -0.085
 C          0.002 -0.002 -0.005    0.003 -0.003 -0.008   -0.002  0.002  0.007
 H         -0.015  0.025  0.057   -0.027  0.038  0.088    0.020 -0.029 -0.072
 C         -0.000  0.000  0.000   -0.008  0.004  0.001   -0.078  0.034  0.006
 H          0.005 -0.001 -0.000    0.108 -0.045 -0.009    0.907 -0.374 -0.072
 O         -0.000 -0.000  0.000   -0.000 -0.000  0.000    0.000  0.000 -0.000
 H         -0.000 -0.000  0.000   -0.001 -0.001  0.001    0.001  0.001  0.000
 O          0.000  0.000  0.000    0.000  0.001 -0.000    0.001 -0.000  0.000
 O         -0.000  0.000 -0.000    0.000 -0.001  0.000   -0.001 -0.001 -0.000
 O         -0.000 -0.001  0.000    0.000 -0.000 -0.000   -0.000  0.000  0.000
 O          0.000  0.000  0.000    0.000  0.000  0.000   -0.000  0.000 -0.000
 TransDip  -0.044 -0.048  0.011   -0.028  0.017 -0.049   -0.060  0.038  0.040

 Mode:                46                     47                     48
 Frequency:      3196.08                3216.01                3826.33
 Force Cnst:      6.5459                 6.7034                 9.2030
 Red. Mass:       1.0876                 1.1000                 1.0669
 IR Active:          YES                    YES                    YES
 IR Intens:        2.088                  8.155                155.953
 Raman Active:       YES                    YES                    YES
               X      Y      Z        X      Y      Z        X      Y      Z
 H         -0.314  0.108 -0.396    0.517 -0.181  0.648    0.000  0.000  0.000
 C          0.025 -0.008  0.034   -0.050  0.020 -0.055    0.000 -0.000  0.000
 C          0.017 -0.031 -0.064    0.016 -0.023 -0.040   -0.000  0.000 -0.000
 H         -0.194  0.349  0.751   -0.120  0.213  0.454   -0.000  0.000  0.000
 C          0.003  0.000  0.000    0.002  0.000  0.000    0.000 -0.000 -0.000
 H         -0.024 -0.005  0.004   -0.019 -0.004  0.003   -0.000  0.000  0.000
 C          0.000  0.000  0.001    0.001 -0.000  0.001    0.000 -0.000 -0.000
 H         -0.001  0.000 -0.002   -0.005  0.002 -0.007   -0.000  0.001 -0.001
 C         -0.000  0.000 -0.000   -0.000 -0.000  0.001   -0.001 -0.001 -0.001
 H          0.000  0.000  0.001    0.002 -0.002 -0.007   -0.002 -0.003  0.002
 C          0.004 -0.002 -0.001   -0.005  0.003  0.002   -0.000 -0.000  0.000
 H         -0.046  0.020  0.005    0.058 -0.026 -0.008    0.000  0.000 -0.000
 O          0.000 -0.000  0.000    0.000  0.000 -0.000   -0.011  0.036 -0.050
 H         -0.000 -0.000 -0.000    0.000  0.000 -0.000    0.180 -0.556  0.809
 O         -0.000 -0.000 -0.000    0.000 -0.000  0.000   -0.000 -0.000  0.000
 O          0.000  0.000  0.000   -0.000 -0.000 -0.000    0.000 -0.000  0.000
 O         -0.000 -0.000 -0.000   -0.000  0.000 -0.000   -0.000 -0.000  0.000
 O         -0.000  0.000 -0.000   -0.000  0.000 -0.000    0.000  0.000 -0.000
 TransDip   0.031 -0.027 -0.021   -0.030  0.004 -0.086    0.004 -0.281  0.285

 STANDARD THERMODYNAMIC QUANTITIES AT   298.15 K  AND     1.00 ATM

   This Molecule has  0 Imaginary Frequencies
   Zero point vibrational energy:       84.173 kcal/mol

   Atom    1 Element H  Has Mass    1.00783
   Atom    2 Element C  Has Mass   12.00000
   Atom    3 Element C  Has Mass   12.00000
   Atom    4 Element H  Has Mass    1.00783
   Atom    5 Element C  Has Mass   12.00000
   Atom    6 Element H  Has Mass    1.00783
   Atom    7 Element C  Has Mass   12.00000
   Atom    8 Element H  Has Mass    1.00783
   Atom    9 Element C  Has Mass   12.00000
   Atom   10 Element H  Has Mass    1.00783
   Atom   11 Element C  Has Mass   12.00000
   Atom   12 Element H  Has Mass    1.00783
   Atom   13 Element O  Has Mass   15.99491
   Atom   14 Element H  Has Mass    1.00783
   Atom   15 Element O  Has Mass   15.99491
   Atom   16 Element O  Has Mass   15.99491
   Atom   17 Element O  Has Mass   15.99491
   Atom   18 Element O  Has Mass   15.99491
   Molecular Mass:   159.029360 amu
   Principal axes and moments of inertia in amu*Bohr^2:
                             1           2           3
    Eigenvalues --      951.96288  1814.78943  1886.83674
          X              -0.54246     0.83604    -0.08231
          Y               0.84004     0.54077    -0.04362
          Z              -0.00804     0.09281     0.99565
   Rotational Symmetry Number is   1
   The Molecule is an Asymmetric Top
   Translational Enthalpy:        0.889 kcal/mol
   Rotational Enthalpy:           0.889 kcal/mol
   Vibrational Enthalpy:         88.195 kcal/mol
   gas constant (RT):             0.592 kcal/mol
   Translational Entropy:        41.101  cal/mol.K
   Rotational Entropy:           29.567  cal/mol.K
   Vibrational Entropy:          23.298  cal/mol.K

   Total Enthalpy:               90.565 kcal/mol
   Total Entropy:                93.966  cal/mol.K
 Total job time:  25340.28s(wall), 363011.10s(cpu) 
 Tue May 14 16:58:25 2024

        *************************************************************
        *                                                           *
        *  Thank you very much for using Q-Chem.  Have a nice day.  *
        *                                                           *
        *************************************************************


