
Running Job 1 of 1 Q_in.in
qchem Q_in.in_214339.0 /scratch/ari.fischer/qChem1516130.hpc-mn1/qchem214339/ 0
/usr/local/qchem-5.4.1/exe/qcprog.exe_s Q_in.in_214339.0 /scratch/ari.fischer/qChem1516130.hpc-mn1/qchem214339/
                  Welcome to Q-Chem
     A Quantum Leap Into The Future Of Chemistry


 Q-Chem 5.4, Q-Chem, Inc., Pleasanton, CA (2021)

 License issued to: Nanyang Technological University (site)

 E. Epifanovsky,  A. T. B. Gilbert,  Xintian Feng,  Joonho Lee,  Yuezhi Mao,  
 N. Mardirossian,  P. Pokhilko,  A. White,  M. Wormit,  M. P. Coons,  
 A. L. Dempwolff,  Zhengting Gan,  D. Hait,  P. R. Horn,  L. D. Jacobson,  
 I. Kaliman,  J. Kussmann,  A. W. Lange,  Ka Un Lao,  D. S. Levine,  Jie Liu,  
 S. C. McKenzie,  A. F. Morrison,  K. Nanda,  F. Plasser,  D. R. Rehn,  
 M. L. Vidal,  Zhi-Qiang You,  Ying Zhu,  B. Alam,  B. Albrecht,  
 A. Aldossary,  E. Alguire,  J. H. Andersen,  D. Barton,  K. Begam,  A. Behn,  
 Y. A. Bernard,  E. J. Berquist,  H. Burton,  A. Carreras,  K. Carter-Fenk,  
 R. Chakraborty,  A. D. Chien,  K. D. Closser,  V. Cofer-Shabica,  
 S. Dasgupta,  Jia Deng,  M. de Wergifosse,  M. Diedenhofen,  Hainam Do,  
 S. Ehlert,  Po-Tung Fang,  S. Fatehi,  Qingguo Feng,  T. Friedhoff,  
 J. Gayvert,  Qinghui Ge,  G. Gidofalvi,  M. Goldey,  J. Gomes,  
 C. Gonzalez-Espinoza,  S. Gulania,  A. Gunina,  M. W. D. Hanson-Heine,  
 P. H. P. Harbach,  A. W. Hauser,  M. F. Herbst,  M. Hernandez Vera,  
 M. Hodecker,  Z. C. Holden,  S. Houck,  Xunkun Huang,  Kerwin Hui,  
 B. C. Huynh,  M. Ivanov,  Hyunjun Ji,  Hanjie Jiang,  B. Kaduk,  S. Kaehler,  
 K. Khistyaev,  Jaehoon Kim,  P. Klunzinger,  Z. Koczor-Benda,  
 Joong Hoon Koh,  D. Kosenkov,  L. Koulias,  T. Kowalczyk,  C. M. Krauter,  
 K. Kue,  A. Kunitsa,  T. Kus,  A. Landau,  K. V. Lawler,  D. Lefrancois,  
 S. Lehtola,  Rain Li,  Yi-Pei Li,  Jiashu Liang,  M. Liebenthal,  
 Hung-Hsuan Lin,  You-Sheng Lin,  Fenglai Liu,  Kuan-Yu Liu,  
 M. Loipersberger,  A. Luenser,  A. Manjanath,  P. Manohar,  E. Mansoor,  
 S. F. Manzer,  Shan-Ping Mao,  A. V. Marenich,  T. Markovich,  S. Mason,  
 S. A. Maurer,  P. F. McLaughlin,  M. F. S. J. Menger,  J.-M. Mewes,  
 S. A. Mewes,  P. Morgante,  J. W. Mullinax,  K. J. Oosterbaan,  G. Paran,  
 Alexander C. Paul,  Suranjan K. Paul,  F. Pavosevic,  Zheng Pei,  S. Prager,  
 E. I. Proynov,  E. Ramos,  B. Rana,  A. E. Rask,  A. Rettig,  R. M. Richard,  
 F. Rob,  E. Rossomme,  T. Scheele,  M. Scheurer,  M. Schneider,  
 N. Sergueev,  S. M. Sharada,  W. Skomorowski,  D. W. Small,  C. J. Stein,  
 Yu-Chuan Su,  E. J. Sundstrom,  Zhen Tao,  J. Thirman,  T. Tsuchimochi,  
 N. M. Tubman,  S. P. Veccham,  O. Vydrov,  J. Wenzel,  J. Witte,  A. Yamada,  
 Kun Yao,  S. Yeganeh,  S. R. Yost,  A. Zech,  Igor Ying Zhang,  Xing Zhang,  
 Yu Zhang,  D. Zuev,  A. Aspuru-Guzik,  A. T. Bell,  N. A. Besley,  
 K. B. Bravaya,  B. R. Brooks,  D. Casanova,  Jeng-Da Chai,  S. Coriani,  
 C. J. Cramer,  A. E. DePrince, III,  R. A. DiStasio Jr.,  A. Dreuw,  
 B. D. Dunietz,  T. R. Furlani,  W. A. Goddard III,  S. Grimme,  
 S. Hammes-Schiffer,  T. Head-Gordon,  W. J. Hehre,  Chao-Ping Hsu,  
 T.-C. Jagau,  Yousung Jung,  A. Klamt,  Jing Kong,  D. S. Lambrecht,  
 WanZhen Liang,  N. J. Mayhall,  C. W. McCurdy,  J. B. Neaton,  
 C. Ochsenfeld,  J. A. Parkhill,  R. Peverati,  V. A. Rassolov,  Yihan Shao,  
 L. V. Slipchenko,  T. Stauch,  R. P. Steele,  J. E. Subotnik,  
 A. J. W. Thom,  A. Tkatchenko,  D. G. Truhlar,  T. Van Voorhis,  
 T. A. Wesolowski,  K. B. Whaley,  H. L. Woodcock III,  P. M. Zimmerman,  
 S. Faraji,  P. M. W. Gill,  M. Head-Gordon,  J. M. Herbert,  A. I. Krylov

 Additional authors for Version 5.4.1: 
 S. Kotaru,  Shaozhi Li,  Xiangyuan Li,  F. Matz,  A. Molle,  Haisheng Ren,  
 Yingli Su,  Hung-Yi Tsai,  C. Utku,  Fang Wang

 Contributors to earlier versions of Q-Chem not listed above: 
 R. D. Adamson,  B. Austin,  R. Baer,  J. Baker,  G. J. O. Beran,  
 K. Brandhorst,  S. T. Brown,  E. F. C. Byrd,  A. K. Chakraborty,  
 G. K. L. Chan,  Chun-Min Chang,  Yunqing Chen,  C.-L. Cheng,  
 Siu Hung Chien,  D. M. Chipman,  D. L. Crittenden,  H. Dachsel,  
 R. J. Doerksen,  A. D. Dutoi,  R. G. Edgar,  J. Fosso-Tande,  
 L. Fusti-Molnar,  D. Ghosh,  A. Ghysels,  A. Golubeva-Zadorozhnaya,  
 J. Gonthier,  M. S. Gordon,  S. R. Gwaltney,  G. Hawkins,  J. E. Herr,  
 A. Heyden,  S. Hirata,  E. G. Hohenstein,  G. Kedziora,  F. J. Keil,  
 C. Kelley,  Jihan Kim,  R. A. King,  R. Z. Khaliullin,  P. P. Korambath,  
 W. Kurlancheek,  A. Laurent,  A. M. Lee,  M. S. Lee,  S. V. Levchenko,  
 Ching Yeh Lin,  D. Liotard,  E. Livshits,  R. C. Lochan,  I. Lotan,  
 L. A. Martinez-Martinez,  P. E. Maslen,  N. Nair,  D. P. O'Neill,  
 D. Neuhauser,  E. Neuscamman,  C. M. Oana,  R. Olivares-Amaya,  R. Olson,  
 T. M. Perrine,  B. Peters,  P. A. Pieniazek,  A. Prociuk,  Y. M. Rhee,  
 J. Ritchie,  M. A. Rohrdanz,  E. Rosta,  N. J. Russ,  H. F. Schaefer III,  
 M. W. Schmidt,  N. E. Schultz,  S. Sharma,  N. Shenvi,  C. D. Sherrill,  
 A. C. Simmonett,  A. Sodt,  T. Stein,  D. Stuck,  K. S. Thanthiriwatte,  
 V. Vanovschi,  L. Vogt,  Tao Wang,  A. Warshel,  M. A. Watson,  
 C. F. Williams,  Q. Wu,  X. Xu,  Jun Yang,  W. Zhang,  Yan Zhao

 Please cite Q-Chem as follows:
 Y. Shao et al., Mol. Phys. 113, 184-215 (2015)
 DOI: 10.1080/00268976.2014.952696

 Q-Chem 5.4.1 for Intel X86 EM64T Linux

 Parts of Q-Chem use Armadillo 9.800.1 (Horizon Scraper).
 http://arma.sourceforge.net/

 Q-Chem begins on Thu Apr 20 21:38:40 2023  

 Host: 
0

     Scratch files written to /scratch/ari.fischer/qChem1516130.hpc-mn1/qchem214339//
 Aug1521 |scratch|qcdevops|jenkins|workspace|build_RNUM 8249   
 Processing $rem in /usr/local/qchem-5.4.1/config/preferences:
 Processing $rem in /home/ari.fischer/.qchemrc:
 Symmetry turned off for PCM/SM12/SMD calculation

 Checking the input file for inconsistencies... 	...done.

--------------------------------------------------------------
User input:
--------------------------------------------------------------
$molecule
0 2
C        -0.8591999942   -0.0390983043    0.1650081042
C        -2.3154201813   -0.0100047004   -0.1896539291
O        -3.0629693480    0.4505971624    0.9398157454
C        -0.0446894558   -1.1525560386   -0.1678053865
C         1.2861911199   -1.1747841497    0.1216970195
C         1.9843565521   -0.0390895273    0.8087481837
O         3.0753847979    0.4701488445    0.0030083830
C         1.0686268219    1.1078624970    1.1033557949
C        -0.2551087091    1.0854554295    0.8004948015
H        -2.6450745343   -1.0117931907   -0.4975027191
H        -2.4798748624    0.6644631023   -1.0437092355
H        -3.9527444481    0.6627051860    0.6163438963
H        -0.5045834447   -2.0037859226   -0.6659848927
H         1.8953936864   -2.0376430858   -0.1380752836
H         2.4182380545   -0.4030810351    1.7564931247
H         3.7589327266   -0.2203176446    0.0035604338
H         1.5165460306    1.9785755019    1.5754863765
H        -0.8788755120    1.9431379755    1.0405192829
$end

$rem
BASIS = 6-311++G(2df,2p)
GUI = 2
JOB_TYPE = Optimization
METHOD = wB97M-V
SCF_ALGORITHM = DIIS_GDM
MAX_SCF_CYCLES = 400
GEOM_OPT_MAX_CYCLES = 150
SCF_CONVERGENCE = 7
THRESH = 12
Solvent_method = SMD
$end
--------------------------------------------------------------
 ----------------------------------------------------------------
             Standard Nuclear Orientation (Angstroms)
    I     Atom           X                Y                Z
 ----------------------------------------------------------------
    1      C      -0.8591999942    -0.0390983043     0.1650081042
    2      C      -2.3154201813    -0.0100047004    -0.1896539291
    3      O      -3.0629693480     0.4505971624     0.9398157454
    4      C      -0.0446894558    -1.1525560386    -0.1678053865
    5      C       1.2861911199    -1.1747841497     0.1216970195
    6      C       1.9843565521    -0.0390895273     0.8087481837
    7      O       3.0753847979     0.4701488445     0.0030083830
    8      C       1.0686268219     1.1078624970     1.1033557949
    9      C      -0.2551087091     1.0854554295     0.8004948015
   10      H      -2.6450745343    -1.0117931907    -0.4975027191
   11      H      -2.4798748624     0.6644631023    -1.0437092355
   12      H      -3.9527444481     0.6627051860     0.6163438963
   13      H      -0.5045834447    -2.0037859226    -0.6659848927
   14      H       1.8953936864    -2.0376430858    -0.1380752836
   15      H       2.4182380545    -0.4030810351     1.7564931247
   16      H       3.7589327266    -0.2203176446     0.0035604338
   17      H       1.5165460306     1.9785755019     1.5754863765
   18      H      -0.8788755120     1.9431379755     1.0405192829
 ----------------------------------------------------------------
 Nuclear Repulsion Energy =         428.69825730 hartrees
 There are       34 alpha and       33 beta electrons
 Requested basis set is 6-311++G(2df,2p)
 There are 126 shells and 396 basis functions

 Total QAlloc Memory Limit 288000 MB
 Mega-Array Size       188 MB
 MEM_STATIC part       192 MB
 
 Citation of the SMD model:
 Marenich, A.V.; Cramer, C.J.; Truhlar, D.G.
 J. Phys. Chem. B 2009, 113, 6378-6396.
 iSolventCode=           1
 Solvent: water                                                           
 
 vradii
            1           2           3           4           5           6
    1   1.8500000   1.8500000   1.5200000   1.8500000   1.8500000   1.8500000
            7           8           9          10          11          12
    1   1.5200000   1.8500000   1.8500000   1.2000000   1.2000000   1.2000000
           13          14          15          16          17          18
    1   1.2000000   1.2000000   1.2000000   1.2000000   1.2000000   1.2000000
 Changing PCM_VDW_RADII to SMD_RADIUS
 Discretize the solute cavity surface with Lebedev spheres
	Using 110 Lebedev grid points for each H atom
	Using 194 Lebedev grid points for other atoms
	Atomic van der Waals radii will be scaled by 1.20
 Remove points where switching function is < 1.0e-08
 Keep 1337 surface tesserae and discard 1399 interior tesserae
 Molecular Surface Area = 155.527 Angst**2
 A cutoff of  1.0D-12 yielded   7078 shell pairs
 There are     70410 function pairs (     87183 Cartesian)
 Smallest overlap matrix eigenvalue = 1.33E-06

 Scale SEOQF with 1.000000e-01/1.000000e-01/1.000000e-01

 Standard Electronic Orientation quadrupole field applied
 Nucleus-field energy     =     0.0000000105 hartrees
 Guess from superposition of atomic densities
 Warning:  Energy on first SCF cycle will be non-variational
 SAD guess density has 67.000000 electrons

 -----------------------------------------------------------------------
  General SCF calculation program by
  Eric Jon Sundstrom, Paul Horn, Yuezhi Mao, Dmitri Zuev, Alec White,
  David Stuck, Shaama M.S., Shane Yost, Joonho Lee, David Small,
  Daniel Levine, Susi Lehtola, Hugh Burton, Evgeny Epifanovsky,
  Bang C. Huynh
 -----------------------------------------------------------------------
 Exchange:     0.1500 Hartree-Fock + 1.0000 wB97M-V + LR-HF
 Correlation:  1.0000 wB97M-V
 Using SG-2 standard quadrature grid
 Nonlocal Correlation:  VV10 with C = 0.0100 and b = 6.00 and scale = 1.00000
 Grid used for NLC:  SG-1 standard quadrature
 
 Citation of the SMD model:
 Marenich, A.V.; Cramer, C.J.; Truhlar, D.G.
 J. Phys. Chem. B 2009, 113, 6378-6396.
 iSolventCode=           1
 Solvent: water                                                           
 
 vradii
            1           2           3           4           5           6
    1   1.8500000   1.8500000   1.5200000   1.8500000   1.8500000   1.8500000
            7           8           9          10          11          12
    1   1.5200000   1.8500000   1.8500000   1.2000000   1.2000000   1.2000000
           13          14          15          16          17          18
    1   1.2000000   1.2000000   1.2000000   1.2000000   1.2000000   1.2000000
 using 8 threads for integral computing
 -------------------------------------------------------
 OpenMP Integral computing Module                
 Release: version 1.0, May 2013, Q-Chem Inc. Pittsburgh 
 -------------------------------------------------------
 -------------------------------------------------------
 OpenMP BLAS3 based DFT computing Module                
 Release: version 1.0, May 2013, Q-Chem Inc. Pittsburgh 
 -------------------------------------------------------
 A unrestricted SCF calculation will be
 performed using DIIS, GDM
 SCF converges when RMS gradient is below 1.0e-07
 ---------------------------------------
  Cycle       Energy         DIIS error
 ---------------------------------------
    1    -425.0277641727      1.26e-02  
    2    -422.4266983766      1.20e-03  Done DIIS. Switching to GDM
 ---------------------------------------
  Cycle       Energy        RMS Gradient
 ---------------------------------------
    1    -422.4266983766      3.55e-02   Descent step
    2    -422.5178029734      1.72e-02   Normal BFGS step
    3    -422.5299380288      9.96e-03   Normal BFGS step
    4    -422.5316736146      7.20e-03   Normal BFGS step
    5    -422.5321233353      3.86e-03   Normal BFGS step
    6    -422.5322663918      1.50e-03   Normal BFGS step
    7    -422.5322853712      6.63e-04   Normal BFGS step
    8    -422.5322911325      4.32e-04   Normal BFGS step
    9    -422.5322921966      1.91e-04   Normal BFGS step
   10    -422.5322926439      9.97e-05   Normal BFGS step
   11    -422.5322927355      4.08e-05   Normal BFGS step
   12    -422.5322927459      1.72e-05   Normal BFGS step
   13    -422.5322927479      3.69e-06   Normal BFGS step
   14    -422.5322927481      2.73e-06   Normal BFGS step
   15    -422.5322927482      9.13e-07   Normal BFGS step
   16    -422.5322927482      6.39e-07   Normal BFGS step
   17    -422.5322927481      4.33e-07   Normal BFGS step
   18    -422.5322927481      1.81e-07   Normal BFGS step
   19    -422.5322927481      9.10e-08  Convergence criterion met
 ---------------------------------------
 SCF time:   CPU 2118.91s  wall 268.00s 
<S^2> =          0.788502264
(3)  G-ENP(liq) elect-nuc-pol free energy of system     -422.532292748 a.u.
(4)  G-CDS(liq) cavity-dispersion-solvent structure 
     free energy                                                3.6562 kcal/mol
(6)  G-S(liq) free energy of system                     -422.526466233 a.u.
 SCF   energy in the final basis set =     -422.5264662329
 Total energy in the final basis set =     -422.5264662329
 
 --------------------------------------------------------------
 
                    Orbital Energies (a.u.)
 --------------------------------------------------------------
 
 Alpha MOs
 -- Occupied --
-19.3390 -19.3383 -10.4001 -10.3880 -10.3603 -10.3483 -10.3481 -10.3445
-10.3439  -1.1540  -1.1536  -0.9761  -0.8834  -0.8744  -0.7951  -0.7212
 -0.7106  -0.6302  -0.6227  -0.6175  -0.5797  -0.5732  -0.5358  -0.5225
 -0.5200  -0.4896  -0.4829  -0.4535  -0.4409  -0.4261  -0.3963  -0.3870
 -0.3637  -0.2648
 -- Virtual --
  0.0243   0.0322   0.0370   0.0516   0.0528   0.0561   0.0617   0.0631
  0.0772   0.0881   0.1018   0.1123   0.1211   0.1258   0.1283   0.1410
  0.1467   0.1553   0.1574   0.1601   0.1622   0.1638   0.1692   0.1720
  0.1836   0.1862   0.1972   0.1995   0.2027   0.2042   0.2111   0.2191
  0.2295   0.2403   0.2502   0.2556   0.2614   0.2694   0.2734   0.2787
  0.2833   0.2933   0.2974   0.3098   0.3149   0.3204   0.3240   0.3335
  0.3460   0.3528   0.3611   0.3647   0.3707   0.3789   0.3969   0.3984
  0.4071   0.4097   0.4211   0.4296   0.4471   0.4595   0.4647   0.5402
  0.5525   0.5634   0.5748   0.5842   0.5877   0.5986   0.6002   0.6080
  0.6095   0.6278   0.6325   0.6431   0.6450   0.6528   0.6700   0.6790
  0.6850   0.6989   0.7056   0.7126   0.7179   0.7301   0.7316   0.7391
  0.7440   0.7515   0.7634   0.7684   0.7831   0.8073   0.8162   0.8236
  0.8284   0.8327   0.8449   0.8597   0.8760   0.8897   0.9096   0.9287
  0.9440   0.9595   0.9725   0.9880   1.0218   1.0282   1.0389   1.0574
  1.0747   1.0835   1.1088   1.1119   1.1240   1.1387   1.1493   1.1568
  1.1603   1.1900   1.2019   1.2111   1.2182   1.2354   1.2387   1.2692
  1.2741   1.3021   1.3122   1.3291   1.3502   1.3536   1.3718   1.3853
  1.3882   1.4036   1.4068   1.4126   1.4289   1.4357   1.4390   1.4668
  1.4724   1.4889   1.5049   1.5174   1.5235   1.5380   1.5502   1.5564
  1.5591   1.5803   1.5957   1.6093   1.6305   1.6843   1.6907   1.7162
  1.7399   1.7578   1.8001   1.8095   1.8336   1.8566   1.8686   1.9424
  1.9518   2.0054   2.0362   2.0577   2.0729   2.1226   2.1327   2.1581
  2.2118   2.2870   2.3565   2.3658   2.4002   2.4396   2.5513   2.5916
  2.6306   2.6402   2.6581   2.6723   2.7347   2.7417   2.7736   2.8057
  2.8080   2.8195   2.8319   2.8340   2.8581   2.8698   2.8912   2.9044
  2.9191   2.9335   2.9369   2.9375   2.9502   2.9735   2.9869   3.0089
  3.0259   3.0340   3.0451   3.0562   3.0899   3.1092   3.1482   3.1671
  3.2081   3.2298   3.2360   3.2491   3.2718   3.2754   3.2850   3.2933
  3.3174   3.3218   3.3426   3.3498   3.3640   3.3785   3.3900   3.4233
  3.4418   3.4502   3.4533   3.4655   3.5060   3.5150   3.5394   3.5455
  3.5660   3.5829   3.6001   3.6096   3.6227   3.6441   3.6869   3.6983
  3.7208   3.7252   3.7438   3.7619   3.7669   3.7850   3.8064   3.8143
  3.8303   3.8391   3.8516   3.8610   3.8834   3.8886   3.9078   3.9316
  3.9562   3.9702   3.9936   4.0253   4.0426   4.0672   4.0804   4.1158
  4.1258   4.1310   4.1558   4.1714   4.1968   4.2122   4.2493   4.2764
  4.2936   4.3068   4.3205   4.3388   4.3508   4.3622   4.3839   4.3994
  4.4054   4.4502   4.4584   4.4763   4.4962   4.5061   4.5191   4.5257
  4.5841   4.6110   4.6172   4.6437   4.6803   4.6940   4.7173   4.7769
  4.8126   4.9161   4.9551   5.0172   5.0354   5.1420   5.1788   5.2069
  5.2642   5.2761   5.3015   5.3179   5.3298   5.3628   5.3702   5.4214
  5.4756   5.5029   5.5318   5.5634   5.5985   5.6108   5.6494   5.6594
  5.6750   5.6813   5.7670   5.8157   5.8589   5.9074   5.9353   5.9696
  5.9904   6.0955   6.3950   6.5560   6.5896   7.1067   7.1215   7.2791
  7.2828   7.3208   7.3365   7.3544   7.3896   7.6239   7.6356   7.7996
  7.8033  24.2634  24.6276  24.7538  24.8029  24.8759  25.0889  25.3514
 50.5852  50.5961
 
 Beta MOs
 -- Occupied --
-19.3378 -19.3375 -10.4008 -10.3885 -10.3525 -10.3471 -10.3463 -10.3434
-10.3426  -1.1527  -1.1502  -0.9691  -0.8742  -0.8690  -0.7936  -0.7161
 -0.7017  -0.6270  -0.6170  -0.6146  -0.5747  -0.5671  -0.5321  -0.5205
 -0.5162  -0.4856  -0.4788  -0.4426  -0.4286  -0.4188  -0.3908  -0.3818
 -0.3474
 -- Virtual --
 -0.0215   0.0246   0.0319   0.0368   0.0517   0.0535   0.0560   0.0619
  0.0759   0.0783   0.0881   0.1009   0.1111   0.1217   0.1266   0.1339
  0.1422   0.1469   0.1556   0.1574   0.1602   0.1623   0.1641   0.1718
  0.1736   0.1845   0.1856   0.1972   0.2014   0.2045   0.2059   0.2123
  0.2228   0.2290   0.2397   0.2510   0.2561   0.2605   0.2692   0.2735
  0.2801   0.2841   0.2938   0.2977   0.3116   0.3175   0.3235   0.3258
  0.3355   0.3483   0.3538   0.3620   0.3698   0.3728   0.3809   0.3977
  0.3990   0.4083   0.4134   0.4234   0.4317   0.4486   0.4615   0.4669
  0.5411   0.5541   0.5680   0.5785   0.5868   0.5913   0.6000   0.6028
  0.6106   0.6138   0.6303   0.6361   0.6441   0.6476   0.6549   0.6743
  0.6854   0.6880   0.7020   0.7098   0.7147   0.7216   0.7353   0.7372
  0.7414   0.7483   0.7537   0.7652   0.7718   0.7845   0.8094   0.8213
  0.8286   0.8325   0.8381   0.8466   0.8640   0.8786   0.8948   0.9114
  0.9309   0.9459   0.9604   0.9745   0.9899   1.0235   1.0297   1.0407
  1.0600   1.0769   1.0848   1.1099   1.1135   1.1254   1.1395   1.1518
  1.1588   1.1618   1.1927   1.2034   1.2129   1.2206   1.2372   1.2400
  1.2716   1.2750   1.3042   1.3137   1.3318   1.3535   1.3571   1.3738
  1.3881   1.3914   1.4078   1.4100   1.4175   1.4325   1.4386   1.4431
  1.4703   1.4760   1.4929   1.5082   1.5215   1.5271   1.5412   1.5536
  1.5588   1.5605   1.5834   1.5989   1.6124   1.6315   1.6876   1.6924
  1.7206   1.7453   1.7638   1.8047   1.8129   1.8374   1.8600   1.8738
  1.9460   1.9555   2.0088   2.0407   2.0634   2.0770   2.1252   2.1365
  2.1619   2.2155   2.2907   2.3581   2.3679   2.4012   2.4411   2.5611
  2.5995   2.6363   2.6443   2.6646   2.6817   2.7406   2.7504   2.7821
  2.8109   2.8143   2.8327   2.8398   2.8423   2.8715   2.8789   2.8982
  2.9133   2.9265   2.9431   2.9529   2.9598   2.9735   2.9826   3.0013
  3.0300   3.0388   3.0454   3.0619   3.0699   3.1014   3.1218   3.1546
  3.1706   3.2204   3.2339   3.2445   3.2588   3.2766   3.2838   3.2962
  3.3058   3.3258   3.3301   3.3514   3.3567   3.3687   3.3856   3.3981
  3.4320   3.4535   3.4567   3.4600   3.4728   3.5112   3.5230   3.5501
  3.5544   3.5802   3.5938   3.6121   3.6240   3.6298   3.6519   3.6964
  3.7061   3.7297   3.7315   3.7520   3.7657   3.7743   3.7915   3.8117
  3.8230   3.8360   3.8447   3.8603   3.8736   3.8910   3.9009   3.9140
  3.9414   3.9657   3.9770   3.9989   4.0353   4.0482   4.0734   4.0883
  4.1237   4.1320   4.1398   4.1626   4.1765   4.2016   4.2181   4.2579
  4.2819   4.3021   4.3128   4.3269   4.3473   4.3603   4.3712   4.3938
  4.4064   4.4131   4.4590   4.4681   4.4876   4.5054   4.5171   4.5324
  4.5376   4.5906   4.6211   4.6312   4.6579   4.6923   4.7037   4.7254
  4.7861   4.8254   4.9304   4.9670   5.0275   5.0465   5.1549   5.1903
  5.2149   5.2679   5.2799   5.3066   5.3198   5.3316   5.3659   5.3730
  5.4294   5.4787   5.5075   5.5393   5.5718   5.6020   5.6245   5.6551
  5.6627   5.6773   5.6865   5.7765   5.8212   5.8630   5.9127   5.9402
  5.9748   5.9932   6.1021   6.4044   6.5605   6.5912   7.1074   7.1240
  7.2821   7.2840   7.3221   7.3405   7.3558   7.3942   7.6260   7.6382
  7.8014   7.8082  24.2650  24.6296  24.7543  24.8035  24.8806  25.0900
 25.3539  50.5856  50.5974
 --------------------------------------------------------------
 
          Ground-State Mulliken Net Atomic Charges

     Atom                 Charge (a.u.)    Spin (a.u.)
  --------------------------------------------------------
      1 C                     0.819157       0.455897
      2 C                    -0.602175       0.001330
      3 O                    -0.416099       0.002485
      4 C                    -0.806494      -0.125316
      5 C                    -0.030382       0.352727
      6 C                    -0.825272       0.025188
      7 O                    -0.408787       0.018161
      8 C                     0.098347       0.319729
      9 C                    -0.239815      -0.119031
     10 H                     0.234852       0.002715
     11 H                     0.168169       0.026184
     12 H                     0.325604       0.004818
     13 H                     0.271559       0.006276
     14 H                     0.310626      -0.011155
     15 H                     0.178860       0.041473
     16 H                     0.327227       0.002900
     17 H                     0.307025      -0.009154
     18 H                     0.287598       0.004773
  --------------------------------------------------------
  Sum of atomic charges =     0.000000
  Sum of spin   charges =     1.000000

 -----------------------------------------------------------------
                    Cartesian Multipole Moments
 -----------------------------------------------------------------
    Charge (ESU x 10^10)
                 0.0000
    Dipole Moment (Debye)
         X      -1.1765      Y      -2.2863      Z      -1.0802
       Tot       2.7889
    Quadrupole Moments (Debye-Ang)
        XX     -40.2129     XY      -9.0335     YY     -51.9301
        XZ      10.2244     YZ       1.9168     ZZ     -58.1329
    Octopole Moments (Debye-Ang^2)
       XXX     -40.3673    XXY     -22.2019    XYY      -7.3990
       YYY     -13.7521    XXZ     -26.6025    XYZ       1.6751
       YYZ     -21.0088    XZZ       5.6750    YZZ      -2.8549
       ZZZ     -67.7148
    Hexadecapole Moments (Debye-Ang^3)
      XXXX    -922.0080   XXXY    -121.9728   XXYY    -263.1998
      XYYY       8.5873   YYYY    -298.7464   XXXZ      29.4380
      XXYZ     -15.7963   XYYZ       1.3339   YYYZ     -37.2006
      XXZZ    -271.4923   XYZZ       7.7466   YYZZ     -85.5496
      XZZZ       8.6490   YZZZ     -56.9031   ZZZZ    -226.5710
 -----------------------------------------------------------------
 Calculating analytic gradient of the SCF energy
 Gradient of CDS energy
            1           2           3           4           5           6
    1  -0.0000895  -0.0007086   0.0003027  -0.0001988   0.0002325   0.0003190
    2   0.0001103  -0.0003876   0.0000379  -0.0002222  -0.0003059   0.0001083
    3   0.0000461  -0.0003436  -0.0000389  -0.0001195  -0.0000691  -0.0000008
            7           8           9          10          11          12
    1  -0.0002437   0.0001678  -0.0001981   0.0001986   0.0001162  -0.0004340
    2   0.0000076   0.0002892   0.0002176  -0.0001563   0.0002094   0.0002153
    3   0.0001067   0.0001760   0.0000306  -0.0000017  -0.0000459   0.0002060
           13          14          15          16          17          18
    1  -0.0001334   0.0000995   0.0000868   0.0004936   0.0001414  -0.0001521
    2  -0.0001261  -0.0001489  -0.0000646  -0.0000460   0.0001587   0.0001032
    3  -0.0000807  -0.0000428   0.0001810  -0.0001328   0.0000707   0.0000589
 Gradient of SCF Energy
            1           2           3           4           5           6
    1  -0.0025869   0.0018196   0.0206067  -0.0015172   0.0009205   0.0008648
    2   0.0024494   0.0064998  -0.0039019   0.0055754   0.0036974   0.0055619
    3  -0.0002947   0.0135397   0.0141987   0.0021915   0.0037474  -0.0071130
            7           8           9          10          11          12
    1  -0.0117902  -0.0026860   0.0001194  -0.0028903  -0.0023299  -0.0175124
    2   0.0205245  -0.0021915  -0.0048466  -0.0090258   0.0045400   0.0034637
    3  -0.0051512   0.0006799  -0.0021640  -0.0052777  -0.0083433  -0.0117328
           13          14          15          16          17          18
    1  -0.0044261   0.0067848   0.0035143   0.0108330   0.0009734  -0.0006974
    2  -0.0069576  -0.0077933  -0.0036487  -0.0172476   0.0016912   0.0016098
    3  -0.0042745  -0.0017430   0.0066773   0.0037558   0.0017077  -0.0004037
 Max gradient component =       2.061E-02
 RMS gradient           =       7.496E-03
 Computing fast CPCM-SWIG gradient
 Updating gradient with PCM contributions...
 -- total gradient after adding PCM contribution --
---------------------------------------------------
  Atom         X              Y              Z     
---------------------------------------------------
   1      -0.001638       0.000048      -0.000223
   2      -0.004111       0.002503       0.003653
   3       0.008519      -0.001135       0.004855
   4      -0.001593      -0.001033      -0.000737
   5       0.001942       0.000543       0.000844
   6       0.005332      -0.000239      -0.001902
   7      -0.005235       0.007523      -0.001385
   8       0.002527      -0.000227       0.000402
   9      -0.002671       0.000641      -0.000254
  10      -0.000977      -0.003568      -0.001979
  11      -0.000271       0.001299      -0.003343
  12      -0.005887       0.001152      -0.004198
  13      -0.001434      -0.002490      -0.001492
  14       0.001862      -0.002507      -0.000805
  15       0.000761      -0.001297       0.003341
  16       0.003624      -0.005989       0.001280
  17       0.001499       0.002485       0.001153
  18      -0.002248       0.002289       0.000791
---------------------------------------------------
 Number of fixed atoms: 0
 Gradient time:  CPU 325.01 s  wall 47.46 s
 Geometry Optimization Parameters
   NAtoms,    NIC,     NZ,  NCons,   NDum,   NFix, NCnnct, MaxDiis
       18     123       0       0       0       0       0       0


** GEOMETRY OPTIMIZATION IN DELOCALIZED INTERNAL COORDINATES **
   Searching for a Minimum

   Optimization Cycle:   1

                       Coordinates (Angstroms)
     ATOM                X               Y               Z
      1  C        -0.8591999942   -0.0390983043    0.1650081042
      2  C        -2.3154201813   -0.0100047004   -0.1896539291
      3  O        -3.0629693480    0.4505971624    0.9398157454
      4  C        -0.0446894558   -1.1525560386   -0.1678053865
      5  C         1.2861911199   -1.1747841497    0.1216970195
      6  C         1.9843565521   -0.0390895273    0.8087481837
      7  O         3.0753847979    0.4701488445    0.0030083830
      8  C         1.0686268219    1.1078624970    1.1033557949
      9  C        -0.2551087091    1.0854554295    0.8004948015
     10  H        -2.6450745343   -1.0117931907   -0.4975027191
     11  H        -2.4798748624    0.6644631023   -1.0437092355
     12  H        -3.9527444481    0.6627051860    0.6163438963
     13  H        -0.5045834447   -2.0037859226   -0.6659848927
     14  H         1.8953936864   -2.0376430858   -0.1380752836
     15  H         2.4182380545   -0.4030810351    1.7564931247
     16  H         3.7589327266   -0.2203176446    0.0035604338
     17  H         1.5165460306    1.9785755019    1.5754863765
     18  H        -0.8788755120    1.9431379755    1.0405192829
   Point Group: c1    Number of degrees of freedom:    48


   Energy is   -422.526466233


 Attempting to generate delocalized internal coordinates
 Initial Hessian constructed with Jon Baker's OPTIMIZE code

 48 Hessian modes will be used to form the next step
  Hessian Eigenvalues:
     0.009196    0.009302    0.010738    0.011594    0.015689    0.015923
     0.017564    0.020765    0.021172    0.023845    0.024226    0.054469
     0.064592    0.069071    0.075481    0.082135    0.113160    0.139026
     0.159994    0.159998    0.159999    0.160000    0.160000    0.160000
     0.163977    0.209800    0.219990    0.220136    0.233584    0.249747
     0.315087    0.321097    0.324752    0.332364    0.336137    0.338323
     0.350162    0.350774    0.351214    0.351557    0.384089    0.402665
     0.408998    0.415001    0.496885    0.529627    0.530539    0.533324

 Minimum search - taking simple RFO step
 Searching for Lamda that Minimizes Along All modes
 Value Taken    Lamda =  -0.00103464
 Step Taken.  Stepsize is  0.080088

                             Maximum     Tolerance    Cnvgd?
         Gradient           0.009571      0.000300      NO
         Displacement       0.043343      0.001200      NO
         Energy change     *********      0.000001      NO


 New Cartesian Coordinates Obtained by Inverse Iteration

 Displacement from previous Coordinates is:  0.131059
 ----------------------------------------------------------------
             Standard Nuclear Orientation (Angstroms)
    I     Atom           X                Y                Z
 ----------------------------------------------------------------
    1      C      -0.8540867935    -0.0325544642     0.1670358870
    2      C      -2.3043119991    -0.0059926155    -0.1925910033
    3      O      -3.0715443072     0.4281470090     0.9354882991
    4      C      -0.0462766223    -1.1448505841    -0.1627722600
    5      C       1.2780941324    -1.1723646125     0.1267422270
    6      C       1.9748337133    -0.0402828284     0.8088385242
    7      O       3.0736514249     0.4573762233     0.0049401844
    8      C       1.0680048818     1.1080306586     1.0993350909
    9      C      -0.2493041790     1.0891127444     0.7966139242
   10      H      -2.6241553758    -1.0007440414    -0.5107875175
   11      H      -2.4703880932     0.6791439242    -1.0307623854
   12      H      -3.9610083713     0.6328997553     0.6276378128
   13      H      -0.5068278437    -1.9922791352    -0.6561576417
   14      H       1.8815109939    -2.0349288029    -0.1271640158
   15      H       2.4074743251    -0.4009697685     1.7517773387
   16      H       3.7588312965    -0.2217972200    -0.0049164402
   17      H       1.5155682164     1.9743972438     1.5690897251
   18      H      -0.8649360992     1.9484486139     1.0294519505
 ----------------------------------------------------------------
 Nuclear Repulsion Energy =         429.76950802 hartrees
 There are       34 alpha and       33 beta electrons
 Discretize the solute cavity surface with Lebedev spheres
	Using 110 Lebedev grid points for each H atom
	Using 194 Lebedev grid points for other atoms
	Atomic van der Waals radii will be scaled by 1.20
 Remove points where switching function is < 1.0e-08
 Keep 1335 surface tesserae and discard 1401 interior tesserae
 Molecular Surface Area = 154.986 Angst**2
 Applying Cartesian multipole field
    Component          Value
    ---------          -----
     (2,0,0)        1.00000E-11
     (0,2,0)        2.00000E-11
     (0,0,2)       -3.00000E-11
 Nucleus-field energy     =     0.0000000104 hartrees
 Requested basis set is 6-311++G(2df,2p)
 There are 126 shells and 396 basis functions
 A cutoff of  1.0D-12 yielded   7088 shell pairs
 There are     70573 function pairs (     87438 Cartesian)
 Smallest overlap matrix eigenvalue = 1.29E-06
 Guess MOs from SCF MO coefficient file

 -----------------------------------------------------------------------
  General SCF calculation program by
  Eric Jon Sundstrom, Paul Horn, Yuezhi Mao, Dmitri Zuev, Alec White,
  David Stuck, Shaama M.S., Shane Yost, Joonho Lee, David Small,
  Daniel Levine, Susi Lehtola, Hugh Burton, Evgeny Epifanovsky,
  Bang C. Huynh
 -----------------------------------------------------------------------
 Exchange:     0.1500 Hartree-Fock + 1.0000 wB97M-V + LR-HF
 Correlation:  1.0000 wB97M-V
 Using SG-2 standard quadrature grid
 Nonlocal Correlation:  VV10 with C = 0.0100 and b = 6.00 and scale = 1.00000
 Grid used for NLC:  SG-1 standard quadrature
 
 Citation of the SMD model:
 Marenich, A.V.; Cramer, C.J.; Truhlar, D.G.
 J. Phys. Chem. B 2009, 113, 6378-6396.
 iSolventCode=           1
 Solvent: water                                                           
 
 vradii
            1           2           3           4           5           6
    1   1.8500000   1.8500000   1.5200000   1.8500000   1.8500000   1.8500000
            7           8           9          10          11          12
    1   1.5200000   1.8500000   1.8500000   1.2000000   1.2000000   1.2000000
           13          14          15          16          17          18
    1   1.2000000   1.2000000   1.2000000   1.2000000   1.2000000   1.2000000
 -------------------------------------------------------
 OpenMP BLAS3 based DFT computing Module                
 Release: version 1.0, May 2013, Q-Chem Inc. Pittsburgh 
 -------------------------------------------------------
 A unrestricted SCF calculation will be
 performed using Roothaan-Hall, DIIS, GDM
 SCF converges when RMS gradient is below 1.0e-07
 ---------------------------------------
  Cycle       Energy         DIIS error
 ---------------------------------------
    1    -422.5007944202      2.21e-04  Roothaan Step
 ---------------------------------------
  Cycle       Energy         DIIS error
 ---------------------------------------
    1    -422.5260489401      2.37e-04  
    2    -422.5308729058      1.80e-04  Done DIIS. Switching to GDM
 ---------------------------------------
  Cycle       Energy        RMS Gradient
 ---------------------------------------
    1    -422.5308729058      6.39e-03   Normal BFGS step
    2    -422.5311291731      5.69e-03   Normal BFGS step
    3    -422.5327429691      9.06e-04   Normal BFGS step
    4    -422.5327623592      4.39e-04   Normal BFGS step
    5    -422.5327706554      2.01e-04   Normal BFGS step
    6    -422.5327709906      6.96e-05   Normal BFGS step
    7    -422.5327710770      5.65e-05   Normal BFGS step
    8    -422.5327711011      3.71e-05   Normal BFGS step
    9    -422.5327711083      1.18e-05   Normal BFGS step
   10    -422.5327711097      8.26e-06   Normal BFGS step
   11    -422.5327711100      5.38e-06   Normal BFGS step
   12    -422.5327711101      2.47e-06   Normal BFGS step
   13    -422.5327711102      9.33e-07   Normal BFGS step
   14    -422.5327711102      4.32e-07   Normal BFGS step
   15    -422.5327711102      4.15e-07   Normal BFGS step
   16    -422.5327711102      2.29e-07   Normal BFGS step
   17    -422.5327711101      5.25e-08  Convergence criterion met
 ---------------------------------------
 SCF time:   CPU 2045.20s  wall 258.00s 
<S^2> =          0.787151056
(3)  G-ENP(liq) elect-nuc-pol free energy of system     -422.532771110 a.u.
(4)  G-CDS(liq) cavity-dispersion-solvent structure 
     free energy                                                3.6298 kcal/mol
(6)  G-S(liq) free energy of system                     -422.526986671 a.u.
 SCF   energy in the final basis set =     -422.5269866708
 Total energy in the final basis set =     -422.5269866708
 
 --------------------------------------------------------------
 
                    Orbital Energies (a.u.)
 --------------------------------------------------------------
 
 Alpha MOs
 -- Occupied --
-19.3376 -19.3369 -10.3985 -10.3863 -10.3587 -10.3466 -10.3462 -10.3423
-10.3421  -1.1540  -1.1536  -0.9790  -0.8857  -0.8765  -0.7972  -0.7225
 -0.7125  -0.6313  -0.6239  -0.6199  -0.5815  -0.5742  -0.5364  -0.5240
 -0.5206  -0.4887  -0.4832  -0.4544  -0.4410  -0.4262  -0.3965  -0.3872
 -0.3646  -0.2647
 -- Virtual --
  0.0243   0.0323   0.0370   0.0517   0.0529   0.0562   0.0618   0.0641
  0.0773   0.0882   0.1020   0.1123   0.1209   0.1262   0.1290   0.1415
  0.1469   0.1559   0.1578   0.1606   0.1622   0.1640   0.1693   0.1724
  0.1838   0.1863   0.1971   0.1999   0.2032   0.2044   0.2114   0.2199
  0.2301   0.2402   0.2505   0.2558   0.2618   0.2697   0.2736   0.2793
  0.2850   0.2938   0.2986   0.3108   0.3165   0.3220   0.3254   0.3350
  0.3468   0.3543   0.3618   0.3660   0.3724   0.3793   0.3984   0.3997
  0.4086   0.4121   0.4230   0.4304   0.4484   0.4600   0.4658   0.5401
  0.5531   0.5666   0.5761   0.5869   0.5900   0.5997   0.6017   0.6096
  0.6106   0.6286   0.6332   0.6439   0.6470   0.6537   0.6707   0.6806
  0.6869   0.7006   0.7076   0.7155   0.7196   0.7316   0.7334   0.7396
  0.7452   0.7530   0.7652   0.7702   0.7854   0.8106   0.8167   0.8263
  0.8300   0.8349   0.8448   0.8621   0.8787   0.8922   0.9123   0.9291
  0.9435   0.9601   0.9721   0.9895   1.0236   1.0290   1.0411   1.0593
  1.0750   1.0856   1.1093   1.1122   1.1260   1.1416   1.1515   1.1585
  1.1621   1.1927   1.2042   1.2127   1.2203   1.2374   1.2411   1.2719
  1.2737   1.3051   1.3146   1.3339   1.3536   1.3579   1.3745   1.3894
  1.3925   1.4058   1.4109   1.4153   1.4310   1.4384   1.4442   1.4687
  1.4769   1.4896   1.5090   1.5217   1.5280   1.5418   1.5527   1.5596
  1.5634   1.5838   1.6018   1.6140   1.6343   1.6862   1.6923   1.7185
  1.7432   1.7636   1.8051   1.8139   1.8347   1.8556   1.8733   1.9464
  1.9545   2.0102   2.0418   2.0634   2.0803   2.1263   2.1351   2.1617
  2.2152   2.2900   2.3566   2.3650   2.3985   2.4387   2.5523   2.5902
  2.6293   2.6361   2.6580   2.6761   2.7361   2.7428   2.7758   2.8072
  2.8125   2.8207   2.8342   2.8362   2.8591   2.8707   2.8914   2.9052
  2.9209   2.9333   2.9384   2.9394   2.9497   2.9756   2.9903   3.0124
  3.0284   3.0359   3.0481   3.0609   3.0966   3.1107   3.1537   3.1684
  3.2112   3.2340   3.2383   3.2512   3.2742   3.2776   3.2863   3.2957
  3.3183   3.3241   3.3473   3.3513   3.3697   3.3809   3.3951   3.4244
  3.4441   3.4563   3.4576   3.4709   3.5096   3.5149   3.5415   3.5497
  3.5694   3.5888   3.6061   3.6159   3.6325   3.6426   3.6945   3.7029
  3.7224   3.7282   3.7466   3.7652   3.7708   3.7926   3.8115   3.8198
  3.8347   3.8444   3.8585   3.8708   3.8905   3.8945   3.9146   3.9373
  3.9652   3.9761   4.0013   4.0338   4.0497   4.0716   4.0929   4.1226
  4.1364   4.1382   4.1624   4.1805   4.2057   4.2213   4.2614   4.2914
  4.3044   4.3225   4.3304   4.3486   4.3623   4.3753   4.3976   4.4086
  4.4197   4.4599   4.4709   4.4902   4.5078   4.5177   4.5344   4.5410
  4.5968   4.6257   4.6347   4.6600   4.6956   4.7113   4.7344   4.7925
  4.8319   4.9266   4.9737   5.0359   5.0512   5.1554   5.1909   5.2225
  5.2665   5.2785   5.3077   5.3174   5.3321   5.3686   5.3806   5.4293
  5.4822   5.5070   5.5519   5.5703   5.5995   5.6265   5.6598   5.6728
  5.6903   5.6958   5.7889   5.8342   5.8670   5.9233   5.9485   5.9924
  6.0109   6.1290   6.4302   6.5580   6.5917   7.1090   7.1258   7.3115
  7.3154   7.3202   7.3345   7.3551   7.3871   7.6396   7.6515   7.7974
  7.8022  24.2702  24.6437  24.7757  24.8250  24.8993  25.1232  25.3901
 50.5902  50.6004
 
 Beta MOs
 -- Occupied --
-19.3364 -19.3361 -10.3991 -10.3868 -10.3509 -10.3449 -10.3445 -10.3417
-10.3407  -1.1526  -1.1503  -0.9720  -0.8766  -0.8711  -0.7956  -0.7174
 -0.7035  -0.6280  -0.6185  -0.6165  -0.5764  -0.5681  -0.5326  -0.5220
 -0.5167  -0.4845  -0.4789  -0.4428  -0.4295  -0.4188  -0.3910  -0.3822
 -0.3484
 -- Virtual --
 -0.0215   0.0246   0.0320   0.0368   0.0517   0.0535   0.0561   0.0620
  0.0764   0.0788   0.0882   0.1011   0.1110   0.1214   0.1270   0.1345
  0.1426   0.1471   0.1561   0.1578   0.1607   0.1622   0.1643   0.1721
  0.1740   0.1846   0.1857   0.1971   0.2018   0.2046   0.2063   0.2127
  0.2238   0.2295   0.2396   0.2513   0.2563   0.2608   0.2696   0.2737
  0.2806   0.2858   0.2942   0.2986   0.3126   0.3190   0.3251   0.3273
  0.3370   0.3490   0.3553   0.3628   0.3709   0.3746   0.3814   0.3991
  0.4005   0.4097   0.4155   0.4256   0.4325   0.4498   0.4619   0.4682
  0.5412   0.5548   0.5710   0.5800   0.5897   0.5932   0.6013   0.6043
  0.6122   0.6148   0.6312   0.6368   0.6451   0.6495   0.6558   0.6750
  0.6871   0.6899   0.7036   0.7118   0.7175   0.7233   0.7374   0.7386
  0.7418   0.7495   0.7550   0.7671   0.7734   0.7869   0.8128   0.8217
  0.8311   0.8335   0.8404   0.8472   0.8661   0.8813   0.8973   0.9141
  0.9313   0.9455   0.9609   0.9741   0.9914   1.0253   1.0305   1.0429
  1.0619   1.0771   1.0868   1.1101   1.1141   1.1274   1.1425   1.1538
  1.1609   1.1636   1.1955   1.2057   1.2144   1.2228   1.2392   1.2424
  1.2735   1.2753   1.3072   1.3162   1.3367   1.3571   1.3612   1.3766
  1.3921   1.3955   1.4101   1.4141   1.4204   1.4349   1.4410   1.4484
  1.4724   1.4802   1.4937   1.5124   1.5258   1.5317   1.5452   1.5565
  1.5615   1.5647   1.5869   1.6049   1.6171   1.6354   1.6892   1.6942
  1.7229   1.7485   1.7696   1.8099   1.8172   1.8386   1.8589   1.8784
  1.9499   1.9583   2.0138   2.0460   2.0690   2.0848   2.1289   2.1389
  2.1655   2.2190   2.2937   2.3582   2.3671   2.3995   2.4402   2.5619
  2.5981   2.6334   2.6412   2.6647   2.6858   2.7426   2.7511   2.7839
  2.8143   2.8173   2.8337   2.8418   2.8443   2.8725   2.8803   2.8988
  2.9141   2.9284   2.9428   2.9557   2.9608   2.9723   2.9844   3.0047
  3.0337   3.0415   3.0469   3.0647   3.0746   3.1078   3.1231   3.1599
  3.1721   3.2231   3.2392   3.2463   3.2624   3.2788   3.2852   3.2967
  3.3082   3.3263   3.3321   3.3561   3.3585   3.3749   3.3877   3.4033
  3.4329   3.4559   3.4614   3.4680   3.4763   3.5148   3.5228   3.5525
  3.5582   3.5831   3.5996   3.6185   3.6288   3.6397   3.6506   3.7038
  3.7105   3.7314   3.7359   3.7542   3.7687   3.7781   3.7995   3.8166
  3.8276   3.8397   3.8513   3.8678   3.8835   3.9003   3.9035   3.9220
  3.9468   3.9727   3.9848   4.0069   4.0438   4.0547   4.0782   4.1008
  4.1301   4.1430   4.1471   4.1695   4.1854   4.2103   4.2273   4.2700
  4.2972   4.3131   4.3286   4.3366   4.3566   4.3709   4.3847   4.4081
  4.4154   4.4276   4.4683   4.4808   4.5013   4.5172   4.5283   4.5476
  4.5531   4.6035   4.6357   4.6488   4.6746   4.7078   4.7206   4.7424
  4.8016   4.8451   4.9404   4.9855   5.0460   5.0625   5.1681   5.2023
  5.2299   5.2696   5.2826   5.3128   5.3197   5.3341   5.3724   5.3834
  5.4375   5.4853   5.5117   5.5595   5.5770   5.6027   5.6398   5.6662
  5.6773   5.6934   5.7000   5.7988   5.8405   5.8715   5.9276   5.9542
  5.9977   6.0137   6.1356   6.4397   6.5626   6.5935   7.1098   7.1283
  7.3138   7.3170   7.3218   7.3387   7.3565   7.3918   7.6416   7.6542
  7.7992   7.8073  24.2718  24.6457  24.7762  24.8255  24.9041  25.1244
 25.3926  50.5906  50.6017
 --------------------------------------------------------------
 
          Ground-State Mulliken Net Atomic Charges

     Atom                 Charge (a.u.)    Spin (a.u.)
  --------------------------------------------------------
      1 C                     0.829922       0.451774
      2 C                    -0.613816       0.002861
      3 O                    -0.419082       0.002747
      4 C                    -0.819499      -0.120919
      5 C                    -0.018748       0.349226
      6 C                    -0.846632       0.026844
      7 O                    -0.410901       0.018519
      8 C                     0.116335       0.314332
      9 C                    -0.234181      -0.114408
     10 H                     0.237568       0.002187
     11 H                     0.169915       0.026004
     12 H                     0.324407       0.004933
     13 H                     0.270513       0.006237
     14 H                     0.311772      -0.010982
     15 H                     0.179777       0.041949
     16 H                     0.326493       0.002981
     17 H                     0.307944      -0.008931
     18 H                     0.288213       0.004645
  --------------------------------------------------------
  Sum of atomic charges =    -0.000000
  Sum of spin   charges =     1.000000

 -----------------------------------------------------------------
                    Cartesian Multipole Moments
 -----------------------------------------------------------------
    Charge (ESU x 10^10)
                -0.0000
    Dipole Moment (Debye)
         X      -1.1357      Y      -2.2586      Z      -1.0769
       Tot       2.7479
    Quadrupole Moments (Debye-Ang)
        XX     -40.4297     XY      -8.9596     YY     -51.8111
        XZ      10.1157     YZ       1.9134     ZZ     -58.0342
    Octopole Moments (Debye-Ang^2)
       XXX     -40.1168    XXY     -22.2251    XYY      -7.0879
       YYY     -13.4938    XXZ     -26.6523    XYZ       1.6012
       YYZ     -20.9197    XZZ       5.7224    YZZ      -2.7701
       ZZZ     -67.5694
    Hexadecapole Moments (Debye-Ang^3)
      XXXX    -916.9104   XXXY    -120.4052   XXYY    -262.7791
      XYYY       8.0245   YYYY    -295.8371   XXXZ      26.9248
      XXYZ     -15.2427   XYYZ       1.5120   YYYZ     -36.5780
      XXZZ    -270.3762   XYZZ       7.4041   YYZZ     -84.9619
      XZZZ       8.5632   YZZZ     -55.8651   ZZZZ    -224.9877
 -----------------------------------------------------------------
 Calculating analytic gradient of the SCF energy
 Gradient of CDS energy
            1           2           3           4           5           6
    1  -0.0000901  -0.0006654   0.0002950  -0.0001947   0.0002293   0.0003126
    2   0.0001070  -0.0003570   0.0000161  -0.0002183  -0.0003058   0.0001039
    3   0.0000509  -0.0003902  -0.0000459  -0.0001167  -0.0000678   0.0000003
            7           8           9          10          11          12
    1  -0.0002477   0.0001680  -0.0001976   0.0001773   0.0001156  -0.0004394
    2   0.0000067   0.0002884   0.0002153  -0.0001542   0.0002111   0.0002034
    3   0.0001106   0.0001743   0.0000281   0.0000304  -0.0000318   0.0002096
           13          14          15          16          17          18
    1  -0.0001330   0.0000961   0.0000868   0.0004946   0.0001387  -0.0001461
    2  -0.0001204  -0.0001456  -0.0000615  -0.0000463   0.0001544   0.0001028
    3  -0.0000787  -0.0000408   0.0001758  -0.0001354   0.0000689   0.0000583
 Gradient of SCF Energy
            1           2           3           4           5           6
    1  -0.0002518   0.0057033   0.0125772   0.0005776  -0.0014882  -0.0035513
    2   0.0018808   0.0047531  -0.0029801   0.0067620   0.0033189   0.0062733
    3  -0.0002772   0.0108977   0.0087686   0.0028241   0.0029912  -0.0056377
            7           8           9          10          11          12
    1  -0.0072686  -0.0060403   0.0027259  -0.0018773  -0.0020094  -0.0122967
    2   0.0130125  -0.0023588  -0.0053399  -0.0055771   0.0029158   0.0024656
    3  -0.0034053   0.0005484  -0.0018963  -0.0033213  -0.0052970  -0.0073629
           13          14          15          16          17          18
    1  -0.0028870   0.0048134   0.0025134   0.0078326  -0.0005294   0.0014564
    2  -0.0044438  -0.0053658  -0.0023696  -0.0115171  -0.0007063  -0.0007235
    3  -0.0027108  -0.0009294   0.0033003   0.0022484   0.0004927  -0.0012334
 Max gradient component =       1.301E-02
 RMS gradient           =       5.288E-03
 Computing fast CPCM-SWIG gradient
 Updating gradient with PCM contributions...
 -- total gradient after adding PCM contribution --
---------------------------------------------------
  Atom         X              Y              Z     
---------------------------------------------------
   1       0.000896      -0.000556      -0.000183
   2      -0.000206       0.000967       0.001175
   3       0.000450      -0.000327      -0.000466
   4       0.000537       0.000302      -0.000071
   5      -0.000796       0.000107       0.000062
   6       0.000864       0.000466      -0.000360
   7      -0.000668       0.000046       0.000263
   8      -0.001004      -0.000171       0.000078
   9       0.000124       0.000053       0.000231
  10      -0.000024      -0.000220      -0.000038
  11       0.000019      -0.000350      -0.000442
  12      -0.000674       0.000206      -0.000011
  13       0.000091       0.000053       0.000070
  14      -0.000065      -0.000025      -0.000002
  15      -0.000202      -0.000029      -0.000007
  16       0.000585      -0.000358      -0.000089
  17      -0.000021       0.000010      -0.000105
  18       0.000095      -0.000171      -0.000105
---------------------------------------------------
 Number of fixed atoms: 0
 Gradient time:  CPU 326.24 s  wall 47.74 s
 Geometry Optimization Parameters
   NAtoms,    NIC,     NZ,  NCons,   NDum,   NFix, NCnnct, MaxDiis
       18     123       0       0       0       0       0       0

 Cartesian Hessian Update
 Hessian updated using BFGS update


** GEOMETRY OPTIMIZATION IN DELOCALIZED INTERNAL COORDINATES **
   Searching for a Minimum

   Optimization Cycle:   2

                       Coordinates (Angstroms)
     ATOM                X               Y               Z
      1  C        -0.8540867935   -0.0325544642    0.1670358870
      2  C        -2.3043119991   -0.0059926155   -0.1925910033
      3  O        -3.0715443072    0.4281470090    0.9354882991
      4  C        -0.0462766223   -1.1448505841   -0.1627722600
      5  C         1.2780941324   -1.1723646125    0.1267422270
      6  C         1.9748337133   -0.0402828284    0.8088385242
      7  O         3.0736514249    0.4573762233    0.0049401844
      8  C         1.0680048818    1.1080306586    1.0993350909
      9  C        -0.2493041790    1.0891127444    0.7966139242
     10  H        -2.6241553758   -1.0007440414   -0.5107875175
     11  H        -2.4703880932    0.6791439242   -1.0307623854
     12  H        -3.9610083713    0.6328997553    0.6276378128
     13  H        -0.5068278437   -1.9922791352   -0.6561576417
     14  H         1.8815109939   -2.0349288029   -0.1271640158
     15  H         2.4074743251   -0.4009697685    1.7517773387
     16  H         3.7588312965   -0.2217972200   -0.0049164402
     17  H         1.5155682164    1.9743972438    1.5690897251
     18  H        -0.8649360992    1.9484486139    1.0294519505
   Point Group: c1    Number of degrees of freedom:    48


   Energy is   -422.526986671

 Hessian updated using BFGS update

 47 Hessian modes will be used to form the next step
  Hessian Eigenvalues:
     0.008984    0.009199    0.010738    0.011593    0.015691    0.015927
     0.017555    0.020767    0.021183    0.023849    0.024224    0.054473
     0.064769    0.068848    0.074853    0.082135    0.113094    0.139026
     0.159816    0.159995    0.159998    0.160000    0.163213    0.166275
     0.209099    0.219990    0.223645    0.233603    0.248427    0.312659
     0.320481    0.322997    0.332921    0.335219    0.337491    0.350349
     0.350646    0.351420    0.353655    0.383837    0.406437    0.408984
     0.417417    0.497066    0.515852    0.532044    0.548527

 Minimum search - taking simple RFO step
 Searching for Lamda that Minimizes Along All modes
 Value Taken    Lamda =  -0.00003394
 Step Taken.  Stepsize is  0.046489

                             Maximum     Tolerance    Cnvgd?
         Gradient           0.000703      0.000300      NO
         Displacement       0.021136      0.001200      NO
         Energy change     -0.000520      0.000001      NO


 New Cartesian Coordinates Obtained by Inverse Iteration

 Displacement from previous Coordinates is:  0.071436
 ----------------------------------------------------------------
             Standard Nuclear Orientation (Angstroms)
    I     Atom           X                Y                Z
 ----------------------------------------------------------------
    1      C      -0.8544600350    -0.0304383765     0.1656139833
    2      C      -2.3034960031    -0.0039701947    -0.1957348028
    3      O      -3.0705962899     0.4128008195     0.9394248765
    4      C      -0.0480265320    -1.1452843139    -0.1603486377
    5      C       1.2767680188    -1.1736926358     0.1296956111
    6      C       1.9735848927    -0.0406589009     0.8096242542
    7      O       3.0728330128     0.4549575624     0.0043538129
    8      C       1.0695346018     1.1100778487     1.0962157403
    9      C      -0.2480597912     1.0920268537     0.7929163228
   10      H      -2.6213106676    -0.9943350586    -0.5276089183
   11      H      -2.4713284393     0.6948943839    -1.0216660568
   12      H      -3.9596508778     0.6187005154     0.6338934129
   13      H      -0.5097010127    -1.9932519438    -0.6517805633
   14      H       1.8798893292    -2.0371482417    -0.1213066464
   15      H       2.4072679897    -0.3985797905     1.7530786319
   16      H       3.7563847825    -0.2246251380    -0.0033979296
   17      H       1.5180180394     1.9763412520     1.5651303346
   18      H      -0.8625217184     1.9529774587     1.0236962742
 ----------------------------------------------------------------
 Nuclear Repulsion Energy =         429.80977371 hartrees
 There are       34 alpha and       33 beta electrons
 Discretize the solute cavity surface with Lebedev spheres
	Using 110 Lebedev grid points for each H atom
	Using 194 Lebedev grid points for other atoms
	Atomic van der Waals radii will be scaled by 1.20
 Remove points where switching function is < 1.0e-08
 Keep 1331 surface tesserae and discard 1405 interior tesserae
 Molecular Surface Area = 154.959 Angst**2
 Applying Cartesian multipole field
    Component          Value
    ---------          -----
     (2,0,0)        1.00000E-11
     (0,2,0)        2.00000E-11
     (0,0,2)       -3.00000E-11
 Nucleus-field energy     =     0.0000000104 hartrees
 Requested basis set is 6-311++G(2df,2p)
 There are 126 shells and 396 basis functions
 A cutoff of  1.0D-12 yielded   7087 shell pairs
 There are     70561 function pairs (     87426 Cartesian)
 Smallest overlap matrix eigenvalue = 1.29E-06
 Guess MOs from SCF MO coefficient file

 -----------------------------------------------------------------------
  General SCF calculation program by
  Eric Jon Sundstrom, Paul Horn, Yuezhi Mao, Dmitri Zuev, Alec White,
  David Stuck, Shaama M.S., Shane Yost, Joonho Lee, David Small,
  Daniel Levine, Susi Lehtola, Hugh Burton, Evgeny Epifanovsky,
  Bang C. Huynh
 -----------------------------------------------------------------------
 Exchange:     0.1500 Hartree-Fock + 1.0000 wB97M-V + LR-HF
 Correlation:  1.0000 wB97M-V
 Using SG-2 standard quadrature grid
 Nonlocal Correlation:  VV10 with C = 0.0100 and b = 6.00 and scale = 1.00000
 Grid used for NLC:  SG-1 standard quadrature
 
 Citation of the SMD model:
 Marenich, A.V.; Cramer, C.J.; Truhlar, D.G.
 J. Phys. Chem. B 2009, 113, 6378-6396.
 iSolventCode=           1
 Solvent: water                                                           
 
 vradii
            1           2           3           4           5           6
    1   1.8500000   1.8500000   1.5200000   1.8500000   1.8500000   1.8500000
            7           8           9          10          11          12
    1   1.5200000   1.8500000   1.8500000   1.2000000   1.2000000   1.2000000
           13          14          15          16          17          18
    1   1.2000000   1.2000000   1.2000000   1.2000000   1.2000000   1.2000000
 -------------------------------------------------------
 OpenMP BLAS3 based DFT computing Module                
 Release: version 1.0, May 2013, Q-Chem Inc. Pittsburgh 
 -------------------------------------------------------
 A unrestricted SCF calculation will be
 performed using Roothaan-Hall, DIIS, GDM
 SCF converges when RMS gradient is below 1.0e-07
 ---------------------------------------
  Cycle       Energy         DIIS error
 ---------------------------------------
    1    -422.5008726498      2.14e-04  Roothaan Step
 ---------------------------------------
  Cycle       Energy         DIIS error
 ---------------------------------------
    1    -422.5259879388      2.40e-04  
    2    -422.5308454021      1.82e-04  Done DIIS. Switching to GDM
 ---------------------------------------
  Cycle       Energy        RMS Gradient
 ---------------------------------------
    1    -422.5308454021      6.22e-03   Normal BFGS step
    2    -422.5311288588      5.64e-03   Normal BFGS step
    3    -422.5327669829      8.98e-04   Normal BFGS step
    4    -422.5327861671      4.94e-04   Normal BFGS step
    5    -422.5327951626      2.00e-04   Normal BFGS step
    6    -422.5327955040      6.51e-05   Normal BFGS step
    7    -422.5327955783      5.43e-05   Normal BFGS step
    8    -422.5327955963      3.73e-05   Normal BFGS step
    9    -422.5327956010      8.06e-06   Normal BFGS step
   10    -422.5327956020      4.11e-06   Normal BFGS step
   11    -422.5327956022      3.64e-06   Normal BFGS step
   12    -422.5327956023      2.44e-06   Normal BFGS step
   13    -422.5327956023      1.03e-06   Normal BFGS step
   14    -422.5327956023      4.40e-07   Normal BFGS step
   15    -422.5327956023      2.24e-07   Normal BFGS step
   16    -422.5327956023      1.14e-07   Normal BFGS step
   17    -422.5327956023      4.65e-08  Convergence criterion met
 ---------------------------------------
 SCF time:   CPU 2019.33s  wall 256.00s 
<S^2> =          0.787260051
(3)  G-ENP(liq) elect-nuc-pol free energy of system     -422.532795602 a.u.
(4)  G-CDS(liq) cavity-dispersion-solvent structure 
     free energy                                                3.6288 kcal/mol
(6)  G-S(liq) free energy of system                     -422.527012687 a.u.
 SCF   energy in the final basis set =     -422.5270126868
 Total energy in the final basis set =     -422.5270126868
 
 --------------------------------------------------------------
 
                    Orbital Energies (a.u.)
 --------------------------------------------------------------
 
 Alpha MOs
 -- Occupied --
-19.3375 -19.3368 -10.3984 -10.3861 -10.3587 -10.3466 -10.3463 -10.3424
-10.3422  -1.1541  -1.1537  -0.9790  -0.8859  -0.8765  -0.7973  -0.7226
 -0.7124  -0.6311  -0.6241  -0.6200  -0.5818  -0.5743  -0.5361  -0.5240
 -0.5205  -0.4888  -0.4832  -0.4542  -0.4411  -0.4263  -0.3966  -0.3873
 -0.3646  -0.2649
 -- Virtual --
  0.0243   0.0323   0.0370   0.0518   0.0529   0.0562   0.0619   0.0640
  0.0773   0.0882   0.1020   0.1121   0.1207   0.1263   0.1290   0.1416
  0.1468   0.1560   0.1578   0.1605   0.1621   0.1639   0.1694   0.1724
  0.1837   0.1862   0.1968   0.2000   0.2034   0.2043   0.2114   0.2199
  0.2303   0.2402   0.2504   0.2558   0.2616   0.2697   0.2736   0.2793
  0.2851   0.2940   0.2988   0.3113   0.3168   0.3220   0.3254   0.3348
  0.3461   0.3544   0.3619   0.3658   0.3722   0.3790   0.3991   0.4001
  0.4088   0.4124   0.4234   0.4301   0.4484   0.4597   0.4656   0.5402
  0.5530   0.5668   0.5762   0.5872   0.5900   0.5999   0.6015   0.6097
  0.6106   0.6289   0.6333   0.6445   0.6463   0.6538   0.6708   0.6810
  0.6863   0.7006   0.7073   0.7155   0.7197   0.7319   0.7333   0.7396
  0.7453   0.7530   0.7652   0.7703   0.7852   0.8106   0.8167   0.8261
  0.8302   0.8352   0.8446   0.8620   0.8786   0.8920   0.9125   0.9290
  0.9437   0.9599   0.9722   0.9896   1.0239   1.0289   1.0415   1.0596
  1.0753   1.0861   1.1096   1.1115   1.1260   1.1414   1.1518   1.1575
  1.1620   1.1929   1.2042   1.2131   1.2210   1.2379   1.2415   1.2722
  1.2728   1.3046   1.3142   1.3347   1.3537   1.3575   1.3751   1.3893
  1.3925   1.4057   1.4106   1.4146   1.4306   1.4381   1.4442   1.4692
  1.4769   1.4896   1.5099   1.5222   1.5279   1.5411   1.5524   1.5601
  1.5636   1.5839   1.6020   1.6147   1.6346   1.6846   1.6934   1.7187
  1.7442   1.7635   1.8064   1.8138   1.8349   1.8558   1.8736   1.9468
  1.9549   2.0098   2.0420   2.0636   2.0802   2.1272   2.1350   2.1616
  2.2142   2.2891   2.3555   2.3645   2.3988   2.4385   2.5528   2.5901
  2.6300   2.6362   2.6576   2.6766   2.7366   2.7429   2.7759   2.8080
  2.8129   2.8209   2.8347   2.8363   2.8589   2.8711   2.8914   2.9050
  2.9212   2.9342   2.9388   2.9393   2.9498   2.9763   2.9901   3.0121
  3.0281   3.0360   3.0476   3.0612   3.0978   3.1110   3.1534   3.1681
  3.2109   3.2340   3.2386   3.2509   3.2742   3.2777   3.2868   3.2965
  3.3183   3.3244   3.3482   3.3513   3.3682   3.3814   3.3954   3.4244
  3.4443   3.4558   3.4574   3.4712   3.5097   3.5143   3.5416   3.5497
  3.5700   3.5900   3.6064   3.6163   3.6324   3.6410   3.6958   3.7026
  3.7223   3.7276   3.7465   3.7660   3.7714   3.7927   3.8115   3.8197
  3.8352   3.8448   3.8582   3.8705   3.8900   3.8941   3.9153   3.9373
  3.9653   3.9773   4.0012   4.0337   4.0491   4.0720   4.0922   4.1236
  4.1381   4.1388   4.1639   4.1806   4.2060   4.2220   4.2617   4.2910
  4.3052   4.3234   4.3316   4.3487   4.3615   4.3764   4.3988   4.4072
  4.4203   4.4598   4.4713   4.4907   4.5069   4.5171   4.5346   4.5422
  4.5965   4.6261   4.6350   4.6597   4.6954   4.7120   4.7336   4.7915
  4.8327   4.9262   4.9739   5.0360   5.0504   5.1558   5.1906   5.2238
  5.2659   5.2781   5.3080   5.3183   5.3329   5.3693   5.3812   5.4291
  5.4823   5.5070   5.5517   5.5708   5.6016   5.6275   5.6613   5.6740
  5.6907   5.6966   5.7899   5.8333   5.8667   5.9229   5.9483   5.9923
  6.0099   6.1285   6.4293   6.5572   6.5907   7.1090   7.1261   7.3143
  7.3177   7.3244   7.3355   7.3552   7.3870   7.6392   7.6514   7.7975
  7.8023  24.2707  24.6446  24.7764  24.8269  24.8983  25.1215  25.3888
 50.5912  50.6012
 
 Beta MOs
 -- Occupied --
-19.3362 -19.3359 -10.3991 -10.3866 -10.3509 -10.3450 -10.3447 -10.3418
-10.3408  -1.1527  -1.1504  -0.9720  -0.8767  -0.8710  -0.7956  -0.7175
 -0.7035  -0.6279  -0.6187  -0.6165  -0.5768  -0.5682  -0.5324  -0.5221
 -0.5167  -0.4846  -0.4789  -0.4428  -0.4296  -0.4188  -0.3910  -0.3824
 -0.3483
 -- Virtual --
 -0.0217   0.0246   0.0320   0.0368   0.0517   0.0536   0.0561   0.0620
  0.0764   0.0788   0.0882   0.1012   0.1109   0.1212   0.1272   0.1345
  0.1427   0.1470   0.1562   0.1579   0.1607   0.1622   0.1642   0.1722
  0.1740   0.1845   0.1857   0.1968   0.2020   0.2046   0.2063   0.2126
  0.2238   0.2298   0.2396   0.2512   0.2562   0.2607   0.2696   0.2737
  0.2806   0.2859   0.2943   0.2988   0.3131   0.3191   0.3251   0.3275
  0.3368   0.3483   0.3554   0.3628   0.3706   0.3745   0.3812   0.3992
  0.4016   0.4099   0.4156   0.4261   0.4323   0.4498   0.4616   0.4680
  0.5412   0.5547   0.5713   0.5801   0.5899   0.5932   0.6014   0.6043
  0.6124   0.6145   0.6315   0.6370   0.6457   0.6485   0.6560   0.6751
  0.6874   0.6892   0.7035   0.7116   0.7174   0.7234   0.7372   0.7390
  0.7417   0.7496   0.7550   0.7672   0.7735   0.7867   0.8128   0.8217
  0.8309   0.8336   0.8408   0.8470   0.8660   0.8811   0.8972   0.9143
  0.9312   0.9456   0.9608   0.9743   0.9915   1.0257   1.0304   1.0433
  1.0621   1.0774   1.0874   1.1102   1.1135   1.1274   1.1423   1.1538
  1.1600   1.1635   1.1958   1.2056   1.2149   1.2234   1.2396   1.2429
  1.2731   1.2751   1.3068   1.3158   1.3374   1.3573   1.3608   1.3771
  1.3920   1.3957   1.4101   1.4137   1.4197   1.4345   1.4407   1.4483
  1.4729   1.4804   1.4937   1.5133   1.5262   1.5315   1.5446   1.5562
  1.5619   1.5650   1.5871   1.6051   1.6177   1.6357   1.6875   1.6954
  1.7231   1.7497   1.7694   1.8113   1.8171   1.8388   1.8591   1.8786
  1.9503   1.9587   2.0133   2.0462   2.0692   2.0847   2.1297   2.1389
  2.1654   2.2180   2.2927   2.3572   2.3666   2.3999   2.4401   2.5624
  2.5981   2.6337   2.6418   2.6642   2.6863   2.7431   2.7511   2.7841
  2.8149   2.8178   2.8339   2.8422   2.8444   2.8725   2.8807   2.8988
  2.9140   2.9287   2.9438   2.9554   2.9608   2.9725   2.9852   3.0045
  3.0334   3.0412   3.0473   3.0639   3.0751   3.1090   3.1234   3.1596
  3.1719   3.2228   3.2393   3.2463   3.2622   3.2788   3.2851   3.2971
  3.3090   3.3265   3.3321   3.3570   3.3585   3.3736   3.3882   3.4035
  3.4329   3.4561   3.4610   3.4677   3.4763   3.5148   3.5222   3.5527
  3.5581   3.5834   3.6007   3.6188   3.6289   3.6397   3.6498   3.7048
  3.7103   3.7312   3.7353   3.7542   3.7697   3.7785   3.7995   3.8165
  3.8276   3.8401   3.8515   3.8677   3.8831   3.8994   3.9035   3.9227
  3.9466   3.9726   3.9863   4.0069   4.0436   4.0541   4.0786   4.1001
  4.1313   4.1449   4.1477   4.1707   4.1856   4.2107   4.2280   4.2702
  4.2971   4.3139   4.3295   4.3379   4.3565   4.3699   4.3859   4.4087
  4.4146   4.4282   4.4683   4.4812   4.5018   4.5163   4.5278   4.5480
  4.5539   4.6032   4.6363   4.6491   4.6742   4.7076   4.7212   4.7415
  4.8007   4.8459   4.9400   4.9857   5.0461   5.0617   5.1686   5.2021
  5.2311   5.2688   5.2824   5.3132   5.3205   5.3349   5.3731   5.3839
  5.4372   5.4855   5.5117   5.5594   5.5775   5.6046   5.6408   5.6674
  5.6785   5.6940   5.7006   5.7998   5.8396   5.8711   5.9272   5.9541
  5.9976   6.0128   6.1352   6.4388   6.5618   6.5925   7.1099   7.1286
  7.3160   7.3202   7.3260   7.3397   7.3568   7.3918   7.6413   7.6541
  7.7993   7.8075  24.2723  24.6466  24.7769  24.8274  24.9032  25.1226
 25.3914  50.5916  50.6025
 --------------------------------------------------------------
 
          Ground-State Mulliken Net Atomic Charges

     Atom                 Charge (a.u.)    Spin (a.u.)
  --------------------------------------------------------
      1 C                     0.832455       0.450939
      2 C                    -0.618757       0.003687
      3 O                    -0.418542       0.002900
      4 C                    -0.821481      -0.121070
      5 C                    -0.017856       0.350389
      6 C                    -0.845051       0.026493
      7 O                    -0.410404       0.018626
      8 C                     0.117546       0.314071
      9 C                    -0.234503      -0.114647
     10 H                     0.237919       0.001860
     11 H                     0.170527       0.025635
     12 H                     0.323674       0.005115
     13 H                     0.269904       0.006289
     14 H                     0.312030      -0.010993
     15 H                     0.179554       0.041999
     16 H                     0.326186       0.002976
     17 H                     0.308224      -0.008890
     18 H                     0.288576       0.004622
  --------------------------------------------------------
  Sum of atomic charges =     0.000000
  Sum of spin   charges =     1.000000

 -----------------------------------------------------------------
                    Cartesian Multipole Moments
 -----------------------------------------------------------------
    Charge (ESU x 10^10)
                -0.0000
    Dipole Moment (Debye)
         X      -1.1295      Y      -2.2295      Z      -1.0709
       Tot       2.7190
    Quadrupole Moments (Debye-Ang)
        XX     -40.4893     XY      -9.0014     YY     -51.7588
        XZ      10.1582     YZ       1.9455     ZZ     -58.0540
    Octopole Moments (Debye-Ang^2)
       XXX     -40.1231    XXY     -22.1029    XYY      -7.0295
       YYY     -13.2705    XXZ     -26.5092    XYZ       1.4927
       YYZ     -20.8947    XZZ       5.7820    YZZ      -2.6799
       ZZZ     -67.5384
    Hexadecapole Moments (Debye-Ang^3)
      XXXX    -917.7597   XXXY    -120.7010   XXYY    -262.6287
      XYYY       7.3020   YYYY    -295.6230   XXXZ      26.9574
      XXYZ     -14.7917   XYYZ       1.6098   YYYZ     -36.1130
      XXZZ    -270.1570   XYZZ       7.1192   YYZZ     -84.9846
      XZZZ       8.5885   YZZZ     -55.3693   ZZZZ    -224.8138
 -----------------------------------------------------------------
 Calculating analytic gradient of the SCF energy
 Gradient of CDS energy
            1           2           3           4           5           6
    1  -0.0000934  -0.0006625   0.0002963  -0.0001945   0.0002299   0.0003110
    2   0.0001052  -0.0003605   0.0000197  -0.0002185  -0.0003065   0.0001030
    3   0.0000580  -0.0004052  -0.0000465  -0.0001166  -0.0000672   0.0000007
            7           8           9          10          11          12
    1  -0.0002479   0.0001691  -0.0001987   0.0001783   0.0001141  -0.0004402
    2   0.0000074   0.0002886   0.0002162  -0.0001540   0.0002147   0.0001994
    3   0.0001110   0.0001730   0.0000252   0.0000309  -0.0000248   0.0002127
           13          14          15          16          17          18
    1  -0.0001339   0.0000961   0.0000874   0.0004948   0.0001389  -0.0001447
    2  -0.0001194  -0.0001455  -0.0000607  -0.0000471   0.0001543   0.0001040
    3  -0.0000794  -0.0000402   0.0001759  -0.0001353   0.0000688   0.0000590
 Gradient of SCF Energy
            1           2           3           4           5           6
    1  -0.0012143   0.0057678   0.0121702   0.0002698  -0.0009471  -0.0040640
    2   0.0026308   0.0037738  -0.0027321   0.0064457   0.0032037   0.0060060
    3   0.0000609   0.0102440   0.0085931   0.0026960   0.0028857  -0.0054478
            7           8           9          10          11          12
    1  -0.0067123  -0.0050282   0.0024823  -0.0018533  -0.0020086  -0.0113498
    2   0.0126417  -0.0022440  -0.0054598  -0.0053704   0.0031124   0.0022677
    3  -0.0034594   0.0004278  -0.0020502  -0.0032627  -0.0049282  -0.0072742
           13          14          15          16          17          18
    1  -0.0029044   0.0048359   0.0026564   0.0070897  -0.0005271   0.0013371
    2  -0.0044475  -0.0052870  -0.0022812  -0.0109641  -0.0007102  -0.0005856
    3  -0.0026925  -0.0008683   0.0032771   0.0023817   0.0005632  -0.0011462
 Max gradient component =       1.264E-02
 RMS gradient           =       5.069E-03
 Computing fast CPCM-SWIG gradient
 Updating gradient with PCM contributions...
 -- total gradient after adding PCM contribution --
---------------------------------------------------
  Atom         X              Y              Z     
---------------------------------------------------
   1       0.000034       0.000056       0.000128
   2      -0.000247       0.000195       0.000516
   3       0.000057      -0.000029      -0.000641
   4       0.000117       0.000069      -0.000196
   5      -0.000209       0.000029      -0.000036
   6       0.000360       0.000176      -0.000132
   7      -0.000147      -0.000308       0.000250
   8      -0.000048       0.000008      -0.000042
   9      -0.000056      -0.000063       0.000146
  10       0.000005      -0.000041       0.000084
  11       0.000035      -0.000240      -0.000139
  12       0.000251      -0.000057       0.000081
  13       0.000061       0.000031       0.000074
  14      -0.000052       0.000062       0.000041
  15      -0.000075       0.000052      -0.000051
  16      -0.000136       0.000194       0.000007
  17      -0.000032      -0.000029      -0.000055
  18       0.000082      -0.000106      -0.000035
---------------------------------------------------
 Number of fixed atoms: 0
 Gradient time:  CPU 320.03 s  wall 47.46 s
 Geometry Optimization Parameters
   NAtoms,    NIC,     NZ,  NCons,   NDum,   NFix, NCnnct, MaxDiis
       18     123       0       0       0       0       0       0

 Cartesian Hessian Update
 Hessian updated using BFGS update


** GEOMETRY OPTIMIZATION IN DELOCALIZED INTERNAL COORDINATES **
   Searching for a Minimum

   Optimization Cycle:   3

                       Coordinates (Angstroms)
     ATOM                X               Y               Z
      1  C        -0.8544600350   -0.0304383765    0.1656139833
      2  C        -2.3034960031   -0.0039701947   -0.1957348028
      3  O        -3.0705962899    0.4128008195    0.9394248765
      4  C        -0.0480265320   -1.1452843139   -0.1603486377
      5  C         1.2767680188   -1.1736926358    0.1296956111
      6  C         1.9735848927   -0.0406589009    0.8096242542
      7  O         3.0728330128    0.4549575624    0.0043538129
      8  C         1.0695346018    1.1100778487    1.0962157403
      9  C        -0.2480597912    1.0920268537    0.7929163228
     10  H        -2.6213106676   -0.9943350586   -0.5276089183
     11  H        -2.4713284393    0.6948943839   -1.0216660568
     12  H        -3.9596508778    0.6187005154    0.6338934129
     13  H        -0.5097010127   -1.9932519438   -0.6517805633
     14  H         1.8798893292   -2.0371482417   -0.1213066464
     15  H         2.4072679897   -0.3985797905    1.7530786319
     16  H         3.7563847825   -0.2246251380   -0.0033979296
     17  H         1.5180180394    1.9763412520    1.5651303346
     18  H        -0.8625217184    1.9529774587    1.0236962742
   Point Group: c1    Number of degrees of freedom:    48


   Energy is   -422.527012687

 Hessian updated using BFGS update

 48 Hessian modes will be used to form the next step
  Hessian Eigenvalues:
     0.002851    0.009198    0.010732    0.011592    0.015700    0.015922
     0.017805    0.020766    0.021209    0.023849    0.024219    0.055271
     0.065642    0.068904    0.075714    0.082442    0.113035    0.139030
     0.159837    0.159995    0.159999    0.160000    0.160093    0.163013
     0.169255    0.209819    0.219967    0.228399    0.233580    0.264785
     0.315128    0.321935    0.330234    0.332711    0.336236    0.337464
     0.350355    0.350767    0.351322    0.352531    0.382499    0.402430
     0.411932    0.418737    0.496433    0.531669    0.535489    0.645262

 Minimum search - taking simple RFO step
 Searching for Lamda that Minimizes Along All modes
 Value Taken    Lamda =  -0.00005815
 Step Taken.  Stepsize is  0.138514

                             Maximum     Tolerance    Cnvgd?
         Gradient           0.000438      0.000300      NO
         Displacement       0.071690      0.001200      NO
         Energy change     -0.000026      0.000001      NO


 New Cartesian Coordinates Obtained by Inverse Iteration

 Displacement from previous Coordinates is:  0.221600
 ----------------------------------------------------------------
             Standard Nuclear Orientation (Angstroms)
    I     Atom           X                Y                Z
 ----------------------------------------------------------------
    1      C      -0.8539814243    -0.0239488087     0.1599102017
    2      C      -2.3017711222     0.0050864421    -0.2034247087
    3      O      -3.0719869030     0.3646069922     0.9516452246
    4      C      -0.0514283957    -1.1457916700    -0.1537996741
    5      C       1.2735022706    -1.1774307613     0.1396986397
    6      C       1.9717199176    -0.0410789764     0.8117310786
    7      O       3.0738168679     0.4459487554     0.0022354605
    8      C       1.0731189450     1.1158488907     1.0875461221
    9      C      -0.2441706151     1.1007625857     0.7808749728
   10      H      -2.6124080478    -0.9712817386    -0.5783275084
   11      H      -2.4757016502     0.7424688813    -0.9932678781
   12      H      -3.9625203544     0.5740910945     0.6549353036
   13      H      -0.5159320664    -1.9955324841    -0.6397095709
   14      H       1.8749277239    -2.0445930388    -0.1022691111
   15      H       2.4060393867    -0.3917952257     1.7576724329
   16      H       3.7539450414    -0.2360563108     0.0001768570
   17      H       1.5238179032     1.9831025672     1.5524423987
   18      H      -0.8558581773     1.9663849052     1.0037294589
 ----------------------------------------------------------------
 Nuclear Repulsion Energy =         429.73301973 hartrees
 There are       34 alpha and       33 beta electrons
 Discretize the solute cavity surface with Lebedev spheres
	Using 110 Lebedev grid points for each H atom
	Using 194 Lebedev grid points for other atoms
	Atomic van der Waals radii will be scaled by 1.20
 Remove points where switching function is < 1.0e-08
 Keep 1327 surface tesserae and discard 1409 interior tesserae
 Molecular Surface Area = 155.062 Angst**2
 Applying Cartesian multipole field
    Component          Value
    ---------          -----
     (2,0,0)        1.00000E-11
     (0,2,0)        2.00000E-11
     (0,0,2)       -3.00000E-11
 Nucleus-field energy     =     0.0000000104 hartrees
 Requested basis set is 6-311++G(2df,2p)
 There are 126 shells and 396 basis functions
 A cutoff of  1.0D-12 yielded   7090 shell pairs
 There are     70614 function pairs (     87494 Cartesian)
 Smallest overlap matrix eigenvalue = 1.28E-06
 Guess MOs from SCF MO coefficient file

 -----------------------------------------------------------------------
  General SCF calculation program by
  Eric Jon Sundstrom, Paul Horn, Yuezhi Mao, Dmitri Zuev, Alec White,
  David Stuck, Shaama M.S., Shane Yost, Joonho Lee, David Small,
  Daniel Levine, Susi Lehtola, Hugh Burton, Evgeny Epifanovsky,
  Bang C. Huynh
 -----------------------------------------------------------------------
 Exchange:     0.1500 Hartree-Fock + 1.0000 wB97M-V + LR-HF
 Correlation:  1.0000 wB97M-V
 Using SG-2 standard quadrature grid
 Nonlocal Correlation:  VV10 with C = 0.0100 and b = 6.00 and scale = 1.00000
 Grid used for NLC:  SG-1 standard quadrature
 
 Citation of the SMD model:
 Marenich, A.V.; Cramer, C.J.; Truhlar, D.G.
 J. Phys. Chem. B 2009, 113, 6378-6396.
 iSolventCode=           1
 Solvent: water                                                           
 
 vradii
            1           2           3           4           5           6
    1   1.8500000   1.8500000   1.5200000   1.8500000   1.8500000   1.8500000
            7           8           9          10          11          12
    1   1.5200000   1.8500000   1.8500000   1.2000000   1.2000000   1.2000000
           13          14          15          16          17          18
    1   1.2000000   1.2000000   1.2000000   1.2000000   1.2000000   1.2000000
 -------------------------------------------------------
 OpenMP BLAS3 based DFT computing Module                
 Release: version 1.0, May 2013, Q-Chem Inc. Pittsburgh 
 -------------------------------------------------------
 A unrestricted SCF calculation will be
 performed using Roothaan-Hall, DIIS, GDM
 SCF converges when RMS gradient is below 1.0e-07
 ---------------------------------------
  Cycle       Energy         DIIS error
 ---------------------------------------
    1    -422.4995575621      2.35e-04  Roothaan Step
[...]
     18 H                     0.292566       0.004882
  --------------------------------------------------------
  Sum of atomic charges =    -0.000000
  Sum of spin   charges =     1.000000

 -----------------------------------------------------------------
                    Cartesian Multipole Moments
 -----------------------------------------------------------------
    Charge (ESU x 10^10)
                -0.0000
    Dipole Moment (Debye)
         X      -1.1422      Y      -1.7509      Z      -0.8484
       Tot       2.2561
    Quadrupole Moments (Debye-Ang)
        XX     -40.8658     XY      -9.5849     YY     -51.0277
        XZ      10.2442     YZ       2.2773     ZZ     -58.2918
    Octopole Moments (Debye-Ang^2)
       XXX     -46.9773    XXY     -22.8824    XYY      -4.5899
       YYY      -9.2536    XXZ     -20.6672    XYZ      -0.8837
       YYZ     -20.4869    XZZ       5.4931    YZZ      -1.8717
       ZZZ     -66.2402
    Hexadecapole Moments (Debye-Ang^3)
      XXXX    -917.9546   XXXY    -122.4276   XXYY    -264.2412
      XYYY      -6.2483   YYYY    -292.6380   XXXZ      16.2837
      XXYZ      -9.5055   XYYZ       3.2845   YYYZ     -26.8150
      XXZZ    -265.6317   XYZZ       1.8792   YYZZ     -86.0549
      XZZZ       7.0554   YZZZ     -45.2365   ZZZZ    -217.7716
 -----------------------------------------------------------------
 Calculating analytic gradient of the SCF energy
 Gradient of CDS energy
            1           2           3           4           5           6
    1  -0.0001297  -0.0005896   0.0002917  -0.0001965   0.0002249   0.0003153
    2   0.0000332  -0.0002145   0.0000385  -0.0001978  -0.0003175   0.0000920
    3   0.0001928  -0.0006586  -0.0000473  -0.0001465  -0.0000496   0.0000052
            7           8           9          10          11          12
    1  -0.0002514   0.0001740  -0.0001939   0.0001614   0.0001052  -0.0004464
    2   0.0000238   0.0002949   0.0002172  -0.0001818   0.0002495   0.0000765
    3   0.0001008   0.0001581  -0.0000067   0.0000411   0.0001015   0.0002771
           13          14          15          16          17          18
    1  -0.0001339   0.0000914   0.0000777   0.0004969   0.0001441  -0.0001415
    2  -0.0001166  -0.0001485  -0.0000549  -0.0000731   0.0001526   0.0001267
    3  -0.0000860  -0.0000316   0.0001829  -0.0001130   0.0000627   0.0000170
 Gradient of SCF Energy
            1           2           3           4           5           6
    1  -0.0008941   0.0062906   0.0126971   0.0006831  -0.0016011  -0.0041480
    2   0.0032939   0.0000337  -0.0027285   0.0044811   0.0026619   0.0058814
    3   0.0000081   0.0093589   0.0083844   0.0021433   0.0023452  -0.0057962
            7           8           9          10          11          12
    1  -0.0061198  -0.0032948   0.0016858  -0.0017485  -0.0022249  -0.0119147
    2   0.0130352  -0.0031661  -0.0038789  -0.0042316   0.0043395   0.0023707
    3  -0.0044404   0.0002810  -0.0022880  -0.0041571  -0.0034957  -0.0063548
           13          14          15          16          17          18
    1  -0.0024970   0.0047559   0.0025211   0.0068052  -0.0003762  -0.0006200
    2  -0.0039058  -0.0054360  -0.0022441  -0.0113411  -0.0001231   0.0009579
    3  -0.0024364  -0.0005464   0.0037066   0.0031667   0.0008517  -0.0007311
 Max gradient component =       1.304E-02
 RMS gradient           =       4.962E-03
 Computing fast CPCM-SWIG gradient
 Updating gradient with PCM contributions...
 -- total gradient after adding PCM contribution --
---------------------------------------------------
  Atom         X              Y              Z     
---------------------------------------------------
   1      -0.000041      -0.000085      -0.000034
   2       0.000007       0.000000      -0.000058
   3      -0.000040      -0.000024      -0.000033
   4      -0.000051       0.000025       0.000024
   5       0.000046      -0.000015       0.000005
   6       0.000070       0.000044      -0.000063
   7      -0.000021      -0.000069       0.000081
   8      -0.000007       0.000023      -0.000004
   9       0.000025       0.000015       0.000038
  10       0.000019      -0.000002       0.000004
  11       0.000002      -0.000003      -0.000008
  12       0.000043       0.000025      -0.000020
  13       0.000008      -0.000004       0.000001
  14       0.000016       0.000016       0.000006
  15      -0.000039      -0.000013       0.000051
  16      -0.000027       0.000047       0.000034
  17      -0.000002       0.000009      -0.000011
  18      -0.000009       0.000013      -0.000014
---------------------------------------------------
 Number of fixed atoms: 0
 Gradient time:  CPU 322.93 s  wall 47.51 s
 Geometry Optimization Parameters
   NAtoms,    NIC,     NZ,  NCons,   NDum,   NFix, NCnnct, MaxDiis
       18     123       0       0       0       0       0       0

 Cartesian Hessian Update
 Hessian updated using BFGS update


** GEOMETRY OPTIMIZATION IN DELOCALIZED INTERNAL COORDINATES **
   Searching for a Minimum

   Optimization Cycle:  12

                       Coordinates (Angstroms)
     ATOM                X               Y               Z
      1  C        -0.8449004139    0.0274036975    0.1053575599
      2  C        -2.3014371111    0.0690530884   -0.2180220699
      3  O        -3.0459823405    0.0870730091    1.0133565176
      4  C        -0.0691917048   -1.1277357420   -0.1454878271
      5  C         1.2482795821   -1.1817184149    0.1753518810
      6  C         1.9629601026   -0.0400161025    0.8220297296
      7  O         3.1110329962    0.3699296626    0.0390053045
      8  C         1.0958518069    1.1579448931    1.0155355892
      9  C        -0.2145904720    1.1636298001    0.6839271185
     10  H        -2.5816908607   -0.8025009717   -0.8114413304
     11  H        -2.5359368077    0.9688900405   -0.7923834012
     12  H        -3.9702529874    0.2441392798    0.7921559915
     13  H        -0.5468646916   -1.9822552710   -0.6096742598
     14  H         1.8317465859   -2.0719213789   -0.0237687694
     15  H         2.3435893641   -0.3645158988    1.8006060655
     16  H         3.7655398412   -0.3359262710    0.0911603945
     17  H         1.5648633890    2.0343051943    1.4438898160
     18  H        -0.8078869783    2.0550134853    0.8502013899
   Point Group: c1    Number of degrees of freedom:    48


   Energy is   -422.527165129

 Hessian updated using BFGS update

 48 Hessian modes will be used to form the next step
  Hessian Eigenvalues:
     0.000268    0.003514    0.005289    0.009469    0.015454    0.015945
     0.017599    0.020777    0.021394    0.023872    0.024255    0.052784
     0.067068    0.068622    0.077756    0.082399    0.113648    0.139392
     0.159034    0.159831    0.160002    0.160045    0.160244    0.162691
     0.168866    0.208884    0.219546    0.226200    0.233534    0.245922
     0.311181    0.321614    0.325458    0.332350    0.336394    0.337945
     0.350384    0.350689    0.351462    0.353378    0.363627    0.405410
     0.412563    0.422558    0.491059    0.531361    0.536098    0.633900

 Minimum search - taking simple RFO step
 Searching for Lamda that Minimizes Along All modes
 Value Taken    Lamda =  -0.00000112
 Step Taken.  Stepsize is  0.023778

                             Maximum     Tolerance    Cnvgd?
         Gradient           0.000063      0.000300     YES
         Displacement       0.012774      0.001200      NO
         Energy change     -0.000001      0.000001     YES

 Final energy is   -422.527165129371     


 ******************************
 **  OPTIMIZATION CONVERGED  **
 ******************************

                       Coordinates (Angstroms)
     ATOM                X               Y               Z
      1  C        -0.8449004139    0.0274036975    0.1053575599
      2  C        -2.3014371111    0.0690530884   -0.2180220699
      3  O        -3.0459823405    0.0870730091    1.0133565176
      4  C        -0.0691917048   -1.1277357420   -0.1454878271
      5  C         1.2482795821   -1.1817184149    0.1753518810
      6  C         1.9629601026   -0.0400161025    0.8220297296
      7  O         3.1110329962    0.3699296626    0.0390053045
      8  C         1.0958518069    1.1579448931    1.0155355892
      9  C        -0.2145904720    1.1636298001    0.6839271185
     10  H        -2.5816908607   -0.8025009717   -0.8114413304
     11  H        -2.5359368077    0.9688900405   -0.7923834012
     12  H        -3.9702529874    0.2441392798    0.7921559915
     13  H        -0.5468646916   -1.9822552710   -0.6096742598
     14  H         1.8317465859   -2.0719213789   -0.0237687694
     15  H         2.3435893641   -0.3645158988    1.8006060655
     16  H         3.7655398412   -0.3359262710    0.0911603945
     17  H         1.5648633890    2.0343051943    1.4438898160
     18  H        -0.8078869783    2.0550134853    0.8502013899

Z-matrix Print:
$molecule
0 2
C 
C  1 1.413858
H  2 1.083441 1 118.587980
C  2 1.357049 1 121.547130 3 179.690039 0
H  4 1.082841 2 120.819975 1 -179.883536 0
C  1 1.422337 2 118.796612 3 -178.448914 0
H  6 1.083611 1 118.484272 2 178.430952 0
C  6 1.351760 1 121.737883 2 -0.985874 0
H  8 1.082343 6 120.915088 1 179.238163 0
C  8 1.491453 6 122.355051 1 -1.098651 0
H  10 1.098995 8 108.844282 6 -118.590099 0
O  10 1.448880 8 107.670169 6 125.899144 0
H  12 0.964019 10 107.552055 8 166.751869 0
C  1 1.492584 2 121.315835 3 1.871272 0
H  14 1.091006 1 110.256609 2 -10.446363 0
H  14 1.092972 1 110.254971 2 -130.186591 0
O  14 1.439085 1 108.653335 2 110.212128 0
H  17 0.963263 14 107.576570 1 171.826941 0
$end

 
 --------------------------------------------------------------
 
                    Orbital Energies (a.u.)
 --------------------------------------------------------------
 
 Alpha MOs
 -- Occupied --
-19.3379 -19.3366 -10.3992 -10.3851 -10.3586 -10.3474 -10.3473 -10.3430
-10.3429  -1.1545  -1.1518  -0.9794  -0.8860  -0.8773  -0.7969  -0.7233
 -0.7121  -0.6284  -0.6263  -0.6199  -0.5848  -0.5744  -0.5314  -0.5245
 -0.5197  -0.4902  -0.4835  -0.4543  -0.4410  -0.4254  -0.3970  -0.3886
 -0.3648  -0.2676
 -- Virtual --
  0.0245   0.0324   0.0371   0.0512   0.0536   0.0567   0.0629   0.0643
  0.0778   0.0891   0.1020   0.1101   0.1181   0.1263   0.1320   0.1418
  0.1461   0.1530   0.1587   0.1607   0.1620   0.1636   0.1700   0.1756
  0.1835   0.1864   0.1906   0.1989   0.2036   0.2078   0.2112   0.2184
  0.2314   0.2434   0.2488   0.2548   0.2609   0.2689   0.2716   0.2759
  0.2854   0.2916   0.3016   0.3153   0.3183   0.3219   0.3302   0.3333
  0.3415   0.3512   0.3603   0.3632   0.3676   0.3768   0.3983   0.4029
  0.4156   0.4205   0.4281   0.4311   0.4486   0.4585   0.4651   0.5397
  0.5503   0.5665   0.5811   0.5839   0.5899   0.5947   0.6007   0.6047
  0.6136   0.6253   0.6294   0.6331   0.6502   0.6577   0.6744   0.6843
  0.6891   0.6999   0.7048   0.7077   0.7247   0.7258   0.7346   0.7414
  0.7503   0.7537   0.7673   0.7685   0.7861   0.8099   0.8104   0.8177
  0.8324   0.8446   0.8484   0.8615   0.8809   0.8918   0.9105   0.9236
  0.9378   0.9592   0.9744   0.9879   1.0234   1.0294   1.0342   1.0627
  1.0787   1.0960   1.1062   1.1162   1.1301   1.1367   1.1458   1.1517
  1.1677   1.2032   1.2134   1.2248   1.2306   1.2409   1.2527   1.2638
  1.2722   1.2891   1.3156   1.3334   1.3433   1.3489   1.3777   1.3837
  1.3906   1.3956   1.4060   1.4139   1.4274   1.4375   1.4444   1.4703
  1.4775   1.4840   1.5061   1.5209   1.5267   1.5380   1.5538   1.5649
  1.5697   1.5832   1.6074   1.6227   1.6384   1.6573   1.6989   1.7176
  1.7533   1.7612   1.8071   1.8321   1.8368   1.8563   1.8850   1.9422
  1.9597   1.9941   2.0280   2.0730   2.0778   2.1295   2.1475   2.1725
  2.2039   2.2842   2.3120   2.3590   2.4180   2.4399   2.5629   2.5678
  2.6181   2.6378   2.6700   2.6945   2.7374   2.7409   2.7821   2.8105
  2.8162   2.8208   2.8337   2.8411   2.8591   2.8683   2.8915   2.8973
  2.9213   2.9287   2.9382   2.9514   2.9550   2.9835   2.9937   3.0049
  3.0109   3.0382   3.0480   3.0763   3.1017   3.1181   3.1498   3.1607
  3.2055   3.2099   3.2358   3.2445   3.2690   3.2763   3.2897   3.3045
  3.3125   3.3286   3.3471   3.3511   3.3706   3.3722   3.3940   3.4328
  3.4427   3.4575   3.4584   3.4829   3.5053   3.5194   3.5461   3.5479
  3.5620   3.6033   3.6093   3.6207   3.6325   3.6362   3.6962   3.6988
  3.7218   3.7273   3.7438   3.7633   3.7722   3.7933   3.8107   3.8200
  3.8323   3.8483   3.8548   3.8717   3.8878   3.8999   3.9183   3.9322
  3.9647   3.9972   4.0028   4.0214   4.0268   4.0679   4.0853   4.1172
  4.1416   4.1498   4.1700   4.2015   4.2026   4.2182   4.2513   4.2872
  4.3032   4.3206   4.3421   4.3487   4.3603   4.3761   4.3991   4.4101
  4.4238   4.4378   4.4610   4.4784   4.5021   4.5197   4.5322   4.5601
  4.5972   4.6263   4.6344   4.6535   4.6876   4.7142   4.7387   4.7780
  4.8446   4.9087   5.0023   5.0268   5.0404   5.1533   5.1750   5.2369
  5.2636   5.2746   5.3081   5.3123   5.3313   5.3638   5.3842   5.4217
  5.4846   5.5067   5.5551   5.5711   5.6188   5.6340   5.6593   5.6744
  5.6777   5.6946   5.7972   5.8208   5.8660   5.9132   5.9395   5.9899
  5.9976   6.1339   6.4254   6.5594   6.5689   7.1045   7.1251   7.3140
  7.3160   7.3225   7.3364   7.3508   7.3878   7.6415   7.6488   7.7981
  7.8031  24.2712  24.6424  24.7715  24.8301  24.8982  25.1219  25.3883
 50.5929  50.6013
 
 Beta MOs
 -- Occupied --
-19.3364 -19.3357 -10.3998 -10.3855 -10.3508 -10.3455 -10.3454 -10.3425
-10.3417  -1.1511  -1.1499  -0.9723  -0.8766  -0.8719  -0.7953  -0.7181
 -0.7035  -0.6249  -0.6212  -0.6155  -0.5803  -0.5680  -0.5285  -0.5226
 -0.5158  -0.4860  -0.4790  -0.4426  -0.4303  -0.4164  -0.3906  -0.3860
 -0.3482
 -- Virtual --
 -0.0238   0.0248   0.0321   0.0369   0.0510   0.0542   0.0566   0.0633
  0.0772   0.0782   0.0894   0.1011   0.1100   0.1186   0.1294   0.1353
  0.1426   0.1461   0.1536   0.1591   0.1609   0.1624   0.1638   0.1734
  0.1766   0.1834   0.1864   0.1909   0.2001   0.2047   0.2084   0.2124
  0.2237   0.2310   0.2427   0.2492   0.2552   0.2601   0.2691   0.2724
  0.2768   0.2859   0.2921   0.3021   0.3170   0.3197   0.3241   0.3325
  0.3368   0.3431   0.3532   0.3617   0.3648   0.3703   0.3802   0.3983
  0.4056   0.4182   0.4216   0.4316   0.4331   0.4502   0.4601   0.4670
  0.5405   0.5516   0.5713   0.5838   0.5872   0.5925   0.5984   0.6015
  0.6093   0.6148   0.6289   0.6327   0.6352   0.6533   0.6598   0.6775
  0.6906   0.6924   0.7023   0.7081   0.7105   0.7280   0.7306   0.7396
  0.7437   0.7544   0.7569   0.7693   0.7707   0.7890   0.8121   0.8154
  0.8227   0.8349   0.8481   0.8526   0.8654   0.8840   0.8972   0.9123
  0.9260   0.9401   0.9607   0.9765   0.9897   1.0246   1.0315   1.0360
  1.0651   1.0804   1.0974   1.1077   1.1174   1.1312   1.1385   1.1469
  1.1537   1.1693   1.2055   1.2156   1.2253   1.2331   1.2421   1.2548
  1.2654   1.2741   1.2921   1.3185   1.3373   1.3463   1.3509   1.3797
  1.3872   1.3945   1.3978   1.4093   1.4174   1.4316   1.4419   1.4465
  1.4744   1.4812   1.4884   1.5092   1.5243   1.5310   1.5432   1.5565
  1.5660   1.5714   1.5852   1.6105   1.6250   1.6404   1.6598   1.7019
  1.7223   1.7595   1.7676   1.8109   1.8361   1.8409   1.8598   1.8890
  1.9461   1.9634   1.9967   2.0318   2.0773   2.0852   2.1332   2.1505
  2.1767   2.2071   2.2877   2.3137   2.3608   2.4193   2.4416   2.5706
  2.5787   2.6211   2.6443   2.6753   2.7037   2.7461   2.7481   2.7896
  2.8168   2.8207   2.8330   2.8425   2.8477   2.8728   2.8793   2.9002
  2.9063   2.9283   2.9365   2.9593   2.9667   2.9761   2.9948   3.0065
  3.0247   3.0284   3.0549   3.0599   3.0912   3.1145   3.1288   3.1554
  3.1650   3.2123   3.2196   3.2422   3.2557   3.2745   3.2824   3.3011
  3.3154   3.3183   3.3369   3.3553   3.3577   3.3797   3.3807   3.4027
  3.4449   3.4459   3.4672   3.4684   3.4858   3.5153   3.5257   3.5550
  3.5577   3.5715   3.6130   3.6195   3.6323   3.6408   3.6535   3.7026
  3.7058   3.7291   3.7366   3.7514   3.7673   3.7802   3.7992   3.8186
  3.8249   3.8351   3.8609   3.8618   3.8799   3.8962   3.9109   3.9276
  3.9398   3.9731   4.0041   4.0102   4.0288   4.0353   4.0755   4.0940
  4.1262   4.1491   4.1571   4.1759   4.2055   4.2083   4.2252   4.2623
  4.2937   4.3085   4.3267   4.3491   4.3550   4.3653   4.3869   4.4085
  4.4189   4.4290   4.4450   4.4696   4.4895   4.5149   4.5318   4.5452
  4.5692   4.6052   4.6377   4.6461   4.6676   4.7007   4.7233   4.7464
  4.7874   4.8576   4.9224   5.0143   5.0366   5.0518   5.1656   5.1873
  5.2447   5.2654   5.2803   5.3117   5.3160   5.3327   5.3674   5.3867
  5.4287   5.4887   5.5113   5.5637   5.5772   5.6222   5.6466   5.6637
  5.6762   5.6870   5.6973   5.8076   5.8274   5.8693   5.9162   5.9460
  5.9948   6.0019   6.1408   6.4349   6.5637   6.5717   7.1058   7.1276
  7.3164   7.3188   7.3242   7.3406   7.3532   7.3924   7.6440   7.6518
  7.8009   7.8082  24.2728  24.6444  24.7720  24.8306  24.9030  25.1231
 25.3909  50.5937  50.6026
 --------------------------------------------------------------
 
          Ground-State Mulliken Net Atomic Charges

     Atom                 Charge (a.u.)    Spin (a.u.)
  --------------------------------------------------------
      1 C                     0.805846       0.428976
      2 C                    -0.663015       0.021293
      3 O                    -0.410631       0.006174
      4 C                    -0.776696      -0.112097
      5 C                     0.045406       0.349990
      6 C                    -0.834250       0.028865
      7 O                    -0.409124       0.017906
      8 C                     0.176318       0.308394
      9 C                    -0.345482      -0.109948
     10 H                     0.202070      -0.000514
     11 H                     0.200740       0.014398
     12 H                     0.318962       0.008379
     13 H                     0.270986       0.006903
     14 H                     0.311643      -0.011122
     15 H                     0.179475       0.044000
     16 H                     0.327111       0.002557
     17 H                     0.308074      -0.009037
     18 H                     0.292566       0.004882
  --------------------------------------------------------
  Sum of atomic charges =    -0.000000
  Sum of spin   charges =     1.000000

 -----------------------------------------------------------------
                    Cartesian Multipole Moments
 -----------------------------------------------------------------
    Charge (ESU x 10^10)
                -0.0000
    Dipole Moment (Debye)
         X      -1.1422      Y      -1.7509      Z      -0.8484
       Tot       2.2561
    Quadrupole Moments (Debye-Ang)
        XX     -40.8658     XY      -9.5849     YY     -51.0277
        XZ      10.2442     YZ       2.2773     ZZ     -58.2918
    Octopole Moments (Debye-Ang^2)
       XXX     -46.9773    XXY     -22.8824    XYY      -4.5899
       YYY      -9.2536    XXZ     -20.6672    XYZ      -0.8837
       YYZ     -20.4869    XZZ       5.4931    YZZ      -1.8717
       ZZZ     -66.2402
    Hexadecapole Moments (Debye-Ang^3)
      XXXX    -917.9546   XXXY    -122.4276   XXYY    -264.2412
      XYYY      -6.2483   YYYY    -292.6380   XXXZ      16.2837
      XXYZ      -9.5055   XYYZ       3.2845   YYYZ     -26.8150
      XXZZ    -265.6317   XYZZ       1.8792   YYZZ     -86.0549
      XZZZ       7.0554   YZZZ     -45.2365   ZZZZ    -217.7716
 -----------------------------------------------------------------
 Total job time:  3560.25s(wall), 27471.92s(cpu) 
 Thu Apr 20 22:38:00 2023

        *************************************************************
        *                                                           *
        *  Thank you very much for using Q-Chem.  Have a nice day.  *
        *                                                           *
        *************************************************************


