
Running Job 1 of 1 Q_in.in
qchem Q_in.in_79873.0 /scratch/ari.fischer/qChem1516514.hpc-mn1/qchem79873/ 0
/usr/local/qchem-5.4.1/exe/qcprog.exe_s Q_in.in_79873.0 /scratch/ari.fischer/qChem1516514.hpc-mn1/qchem79873/
                  Welcome to Q-Chem
     A Quantum Leap Into The Future Of Chemistry


 Q-Chem 5.4, Q-Chem, Inc., Pleasanton, CA (2021)

 License issued to: Nanyang Technological University (site)

 E. Epifanovsky,  A. T. B. Gilbert,  Xintian Feng,  Joonho Lee,  Yuezhi Mao,  
 N. Mardirossian,  P. Pokhilko,  A. White,  M. Wormit,  M. P. Coons,  
 A. L. Dempwolff,  Zhengting Gan,  D. Hait,  P. R. Horn,  L. D. Jacobson,  
 I. Kaliman,  J. Kussmann,  A. W. Lange,  Ka Un Lao,  D. S. Levine,  Jie Liu,  
 S. C. McKenzie,  A. F. Morrison,  K. Nanda,  F. Plasser,  D. R. Rehn,  
 M. L. Vidal,  Zhi-Qiang You,  Ying Zhu,  B. Alam,  B. Albrecht,  
 A. Aldossary,  E. Alguire,  J. H. Andersen,  D. Barton,  K. Begam,  A. Behn,  
 Y. A. Bernard,  E. J. Berquist,  H. Burton,  A. Carreras,  K. Carter-Fenk,  
 R. Chakraborty,  A. D. Chien,  K. D. Closser,  V. Cofer-Shabica,  
 S. Dasgupta,  Jia Deng,  M. de Wergifosse,  M. Diedenhofen,  Hainam Do,  
 S. Ehlert,  Po-Tung Fang,  S. Fatehi,  Qingguo Feng,  T. Friedhoff,  
 J. Gayvert,  Qinghui Ge,  G. Gidofalvi,  M. Goldey,  J. Gomes,  
 C. Gonzalez-Espinoza,  S. Gulania,  A. Gunina,  M. W. D. Hanson-Heine,  
 P. H. P. Harbach,  A. W. Hauser,  M. F. Herbst,  M. Hernandez Vera,  
 M. Hodecker,  Z. C. Holden,  S. Houck,  Xunkun Huang,  Kerwin Hui,  
 B. C. Huynh,  M. Ivanov,  Hyunjun Ji,  Hanjie Jiang,  B. Kaduk,  S. Kaehler,  
 K. Khistyaev,  Jaehoon Kim,  P. Klunzinger,  Z. Koczor-Benda,  
 Joong Hoon Koh,  D. Kosenkov,  L. Koulias,  T. Kowalczyk,  C. M. Krauter,  
 K. Kue,  A. Kunitsa,  T. Kus,  A. Landau,  K. V. Lawler,  D. Lefrancois,  
 S. Lehtola,  Rain Li,  Yi-Pei Li,  Jiashu Liang,  M. Liebenthal,  
 Hung-Hsuan Lin,  You-Sheng Lin,  Fenglai Liu,  Kuan-Yu Liu,  
 M. Loipersberger,  A. Luenser,  A. Manjanath,  P. Manohar,  E. Mansoor,  
 S. F. Manzer,  Shan-Ping Mao,  A. V. Marenich,  T. Markovich,  S. Mason,  
 S. A. Maurer,  P. F. McLaughlin,  M. F. S. J. Menger,  J.-M. Mewes,  
 S. A. Mewes,  P. Morgante,  J. W. Mullinax,  K. J. Oosterbaan,  G. Paran,  
 Alexander C. Paul,  Suranjan K. Paul,  F. Pavosevic,  Zheng Pei,  S. Prager,  
 E. I. Proynov,  E. Ramos,  B. Rana,  A. E. Rask,  A. Rettig,  R. M. Richard,  
 F. Rob,  E. Rossomme,  T. Scheele,  M. Scheurer,  M. Schneider,  
 N. Sergueev,  S. M. Sharada,  W. Skomorowski,  D. W. Small,  C. J. Stein,  
 Yu-Chuan Su,  E. J. Sundstrom,  Zhen Tao,  J. Thirman,  T. Tsuchimochi,  
 N. M. Tubman,  S. P. Veccham,  O. Vydrov,  J. Wenzel,  J. Witte,  A. Yamada,  
 Kun Yao,  S. Yeganeh,  S. R. Yost,  A. Zech,  Igor Ying Zhang,  Xing Zhang,  
 Yu Zhang,  D. Zuev,  A. Aspuru-Guzik,  A. T. Bell,  N. A. Besley,  
 K. B. Bravaya,  B. R. Brooks,  D. Casanova,  Jeng-Da Chai,  S. Coriani,  
 C. J. Cramer,  A. E. DePrince, III,  R. A. DiStasio Jr.,  A. Dreuw,  
 B. D. Dunietz,  T. R. Furlani,  W. A. Goddard III,  S. Grimme,  
 S. Hammes-Schiffer,  T. Head-Gordon,  W. J. Hehre,  Chao-Ping Hsu,  
 T.-C. Jagau,  Yousung Jung,  A. Klamt,  Jing Kong,  D. S. Lambrecht,  
 WanZhen Liang,  N. J. Mayhall,  C. W. McCurdy,  J. B. Neaton,  
 C. Ochsenfeld,  J. A. Parkhill,  R. Peverati,  V. A. Rassolov,  Yihan Shao,  
 L. V. Slipchenko,  T. Stauch,  R. P. Steele,  J. E. Subotnik,  
 A. J. W. Thom,  A. Tkatchenko,  D. G. Truhlar,  T. Van Voorhis,  
 T. A. Wesolowski,  K. B. Whaley,  H. L. Woodcock III,  P. M. Zimmerman,  
 S. Faraji,  P. M. W. Gill,  M. Head-Gordon,  J. M. Herbert,  A. I. Krylov

 Additional authors for Version 5.4.1: 
 S. Kotaru,  Shaozhi Li,  Xiangyuan Li,  F. Matz,  A. Molle,  Haisheng Ren,  
 Yingli Su,  Hung-Yi Tsai,  C. Utku,  Fang Wang

 Contributors to earlier versions of Q-Chem not listed above: 
 R. D. Adamson,  B. Austin,  R. Baer,  J. Baker,  G. J. O. Beran,  
 K. Brandhorst,  S. T. Brown,  E. F. C. Byrd,  A. K. Chakraborty,  
 G. K. L. Chan,  Chun-Min Chang,  Yunqing Chen,  C.-L. Cheng,  
 Siu Hung Chien,  D. M. Chipman,  D. L. Crittenden,  H. Dachsel,  
 R. J. Doerksen,  A. D. Dutoi,  R. G. Edgar,  J. Fosso-Tande,  
 L. Fusti-Molnar,  D. Ghosh,  A. Ghysels,  A. Golubeva-Zadorozhnaya,  
 J. Gonthier,  M. S. Gordon,  S. R. Gwaltney,  G. Hawkins,  J. E. Herr,  
 A. Heyden,  S. Hirata,  E. G. Hohenstein,  G. Kedziora,  F. J. Keil,  
 C. Kelley,  Jihan Kim,  R. A. King,  R. Z. Khaliullin,  P. P. Korambath,  
 W. Kurlancheek,  A. Laurent,  A. M. Lee,  M. S. Lee,  S. V. Levchenko,  
 Ching Yeh Lin,  D. Liotard,  E. Livshits,  R. C. Lochan,  I. Lotan,  
 L. A. Martinez-Martinez,  P. E. Maslen,  N. Nair,  D. P. O'Neill,  
 D. Neuhauser,  E. Neuscamman,  C. M. Oana,  R. Olivares-Amaya,  R. Olson,  
 T. M. Perrine,  B. Peters,  P. A. Pieniazek,  A. Prociuk,  Y. M. Rhee,  
 J. Ritchie,  M. A. Rohrdanz,  E. Rosta,  N. J. Russ,  H. F. Schaefer III,  
 M. W. Schmidt,  N. E. Schultz,  S. Sharma,  N. Shenvi,  C. D. Sherrill,  
 A. C. Simmonett,  A. Sodt,  T. Stein,  D. Stuck,  K. S. Thanthiriwatte,  
 V. Vanovschi,  L. Vogt,  Tao Wang,  A. Warshel,  M. A. Watson,  
 C. F. Williams,  Q. Wu,  X. Xu,  Jun Yang,  W. Zhang,  Yan Zhao

 Please cite Q-Chem as follows:
 Y. Shao et al., Mol. Phys. 113, 184-215 (2015)
 DOI: 10.1080/00268976.2014.952696

 Q-Chem 5.4.1 for Intel X86 EM64T Linux

 Parts of Q-Chem use Armadillo 9.800.1 (Horizon Scraper).
 http://arma.sourceforge.net/

 Q-Chem begins on Fri Apr 21 23:19:29 2023  

 Host: 
0

     Scratch files written to /scratch/ari.fischer/qChem1516514.hpc-mn1/qchem79873//
 Aug1521 |scratch|qcdevops|jenkins|workspace|build_RNUM 8249   
 Processing $rem in /usr/local/qchem-5.4.1/config/preferences:
 Processing $rem in /home/ari.fischer/.qchemrc:
 Symmetry turned off for PCM/SM12/SMD calculation


!!********************************************.
!!******************Warning*******************.
!!Desired Analytical derivatives not available.
!!Finite difference job might take a long time.
!!********************************************.
!!********************************************.


 2-order derivative to be evaluated numerically with 1-order analytical derivatives

 Checking the input file for inconsistencies... 	...done.

--------------------------------------------------------------
User input:
--------------------------------------------------------------
$molecule
0 1
H         1.1047836344    0.9043962068    2.1250145854
C         0.5670162773    0.8308412759    1.1892824583
C         1.2625685887    0.7488710411   -0.0096736849
H         2.3436953030    0.7581839072   -0.0152055982
C         0.5552246068    0.6544687572   -1.2026534696
H         1.0860429895    0.5899063224   -2.1430175011
C        -0.8314541116    0.6417541604   -1.2033120223
H        -1.3912243979    0.5684798649   -2.1259694812
C        -1.5137173589    0.7246646210    0.0035742645
C        -0.8210916620    0.8191573225    1.2031540196
H        -1.3693810719    0.8819328264    2.1348347953
O        -2.8881561630    0.7088040416   -0.0411343372
H        -3.2385630344    0.7724179525    0.8552059713
$end

$rem
BASIS = 6-311++G(2df,2p)
GUI = 2
JOB_TYPE = Frequency
METHOD = wB97M-V
SOLVENT_METHOD = SMD
SCF_ALGORITHM = DIIS_GDM
MAX_SCF_CYCLES = 400
SCF_CONVERGENCE = 7
THRESH = 12
SYMMETRY_IGNORE = 1
$end
--------------------------------------------------------------
 ----------------------------------------------------------------
             Standard Nuclear Orientation (Angstroms)
    I     Atom           X                Y                Z
 ----------------------------------------------------------------
    1      H       1.1047836344     0.9043962068     2.1250145854
    2      C       0.5670162773     0.8308412759     1.1892824583
    3      C       1.2625685887     0.7488710411    -0.0096736849
    4      H       2.3436953030     0.7581839072    -0.0152055982
    5      C       0.5552246068     0.6544687572    -1.2026534696
    6      H       1.0860429895     0.5899063224    -2.1430175011
    7      C      -0.8314541116     0.6417541604    -1.2033120223
    8      H      -1.3912243979     0.5684798649    -2.1259694812
    9      C      -1.5137173589     0.7246646210     0.0035742645
   10      C      -0.8210916620     0.8191573225     1.2031540196
   11      H      -1.3693810719     0.8819328264     2.1348347953
   12      O      -2.8881561630     0.7088040416    -0.0411343372
   13      H      -3.2385630344     0.7724179525     0.8552059713
 ----------------------------------------------------------------
 Nuclear Repulsion Energy =         271.93656086 hartrees
 There are       25 alpha and       25 beta electrons
 Requested basis set is 6-311++G(2df,2p)
 There are 92 shells and 298 basis functions

 Total QAlloc Memory Limit 288000 MB
 Mega-Array Size       188 MB
 MEM_STATIC part       192 MB
 
 Citation of the SMD model:
 Marenich, A.V.; Cramer, C.J.; Truhlar, D.G.
 J. Phys. Chem. B 2009, 113, 6378-6396.
 iSolventCode=           1
 Solvent: water                                                           
 
 vradii
            1           2           3           4           5           6
    1   1.2000000   1.8500000   1.8500000   1.2000000   1.8500000   1.2000000
            7           8           9          10          11          12
    1   1.8500000   1.2000000   1.8500000   1.8500000   1.2000000   1.5200000
           13
    1   1.2000000
 Changing PCM_VDW_RADII to SMD_RADIUS
 Discretize the solute cavity surface with Lebedev spheres
	Using 110 Lebedev grid points for each H atom
	Using 194 Lebedev grid points for other atoms
	Atomic van der Waals radii will be scaled by 1.20
 Remove points where switching function is < 1.0e-08
 Keep 990 surface tesserae and discard 1028 interior tesserae
 Molecular Surface Area = 121.301 Angst**2

                       Distance Matrix (Angstroms)
             H (  1)   C (  2)   C (  3)   H (  4)   C (  5)   H (  6)
   C (  2)  1.081757
   C (  3)  2.146154  1.388527
   H (  4)  2.477261  2.147710  1.081181
   C (  5)  3.381990  2.398459  1.390125  2.149283
   H (  6)  4.279644  3.381074  2.146529  2.477416  1.081768
   C (  7)  3.859502  2.777766  2.412712  3.392157  1.386737  2.136008
   H (  8)  4.941028  3.859331  3.399098  4.294291  2.156054  2.477419
   C (  9)  3.374813  2.397213  2.776423  3.857604  2.395920  3.374132
   C ( 10)  2.136841  1.388226  2.411956  3.391754  2.776559  3.858313
   H ( 11)  2.474286  2.155531  3.397614  4.292426  3.859362  4.941094
   O ( 12)  4.546870  3.669746  4.151037  5.232149  3.634412  4.497367
   H ( 13)  4.527084  3.820661  4.583531  5.649728  4.317583  5.265441
             C (  7)   H (  8)   C (  9)   C ( 10)   H ( 11)   O ( 12)
   H (  8)  1.081669
   C (  9)  1.388860  2.138774
   C ( 10)  2.413018  3.386880  1.388399
   H ( 11)  3.389731  4.272374  2.141924  1.082862
   O ( 12)  2.363298  2.570415  1.375257  2.415199  2.659228
   H ( 13)  3.169975  3.513070  1.924227  2.442830  2.267881  0.964499

 
 A cutoff of  1.0D-12 yielded   4049 shell pairs
 There are     43165 function pairs (     54026 Cartesian)
 Smallest overlap matrix eigenvalue = 9.65E-07
 Linear dependence detected in AO basis
 Tighter screening thresholds may be required for diffuse basis sets
 Use S2THRESH > 14 and THRESH = 14 in case of SCF convergence issues
 Number of orthogonalized atomic orbitals = 297
 Maximum deviation from orthogonality = 2.165E-11
 Guess from superposition of atomic densities
 Warning:  Energy on first SCF cycle will be non-variational
 SAD guess density has 50.000000 electrons

 -----------------------------------------------------------------------
  General SCF calculation program by
  Eric Jon Sundstrom, Paul Horn, Yuezhi Mao, Dmitri Zuev, Alec White,
  David Stuck, Shaama M.S., Shane Yost, Joonho Lee, David Small,
  Daniel Levine, Susi Lehtola, Hugh Burton, Evgeny Epifanovsky,
  Bang C. Huynh
 -----------------------------------------------------------------------
 Exchange:     0.1500 Hartree-Fock + 1.0000 wB97M-V + LR-HF
 Correlation:  1.0000 wB97M-V
 Using SG-2 standard quadrature grid
 Nonlocal Correlation:  VV10 with C = 0.0100 and b = 6.00 and scale = 1.00000
 Grid used for NLC:  SG-1 standard quadrature
 using 8 threads for integral computing
 -------------------------------------------------------
 OpenMP Integral computing Module                
 Release: version 1.0, May 2013, Q-Chem Inc. Pittsburgh 
 -------------------------------------------------------
 
 Citation of the SMD model:
 Marenich, A.V.; Cramer, C.J.; Truhlar, D.G.
 J. Phys. Chem. B 2009, 113, 6378-6396.
 iSolventCode=           1
 Solvent: water                                                           
 
 vradii
            1           2           3           4           5           6
    1   1.2000000   1.8500000   1.8500000   1.2000000   1.8500000   1.2000000
            7           8           9          10          11          12
    1   1.8500000   1.2000000   1.8500000   1.8500000   1.2000000   1.5200000
           13
    1   1.2000000
 -------------------------------------------------------
 OpenMP BLAS3 based DFT computing Module                
 Release: version 1.0, May 2013, Q-Chem Inc. Pittsburgh 
 -------------------------------------------------------
 A restricted SCF calculation will be
 performed using DIIS, GDM
 SCF converges when RMS gradient is below 1.0e-07
 ---------------------------------------
  Cycle       Energy         DIIS error
 ---------------------------------------
    1    -309.6868717172      3.07e-02  
    2    -307.3968653299      2.49e-03  Done DIIS. Switching to GDM
 ---------------------------------------
  Cycle       Energy        RMS Gradient
 ---------------------------------------
    1    -307.3968653299      6.11e-02   Normal BFGS step
    2    -307.4325390655      4.26e-02   Normal BFGS step
    3    -307.4621766941      6.09e-03   Normal BFGS step
    4    -307.4625761237      6.39e-03   Normal BFGS step
    5    -307.4630216485      6.08e-04   Normal BFGS step
    6    -307.4630268515      7.99e-04   Normal BFGS step
    7    -307.4630289724      8.88e-05   Normal BFGS step
    8    -307.4630290688      4.67e-05   Normal BFGS step
    9    -307.4630290847      2.21e-05   Normal BFGS step
   10    -307.4630290872      3.70e-06   Normal BFGS step
   11    -307.4630290875      1.71e-06   Normal BFGS step
   12    -307.4630290876      8.29e-07   Normal BFGS step
   13    -307.4630290876      3.16e-07   Normal BFGS step
   14    -307.4630290876      5.61e-08  Convergence criterion met
 ---------------------------------------
 SCF time:   CPU 615.59s  wall 79.00s 
(3)  G-ENP(liq) elect-nuc-pol free energy of system     -307.463029088 a.u.
(4)  G-CDS(liq) cavity-dispersion-solvent structure 
     free energy                                                3.1923 kcal/mol
(6)  G-S(liq) free energy of system                     -307.457941859 a.u.
 SCF   energy in the final basis set =     -307.4579418586
 Total energy in the final basis set =     -307.4579418586
 
 --------------------------------------------------------------
 
                    Orbital Energies (a.u.)
 --------------------------------------------------------------
 
 Alpha MOs
 -- Occupied --
-19.3604 -10.4082 -10.3460 -10.3457 -10.3411 -10.3395 -10.3364  -1.1875
 -0.9819  -0.8736  -0.8620  -0.7387  -0.7172  -0.6533  -0.6062  -0.5739
 -0.5398  -0.5283  -0.5243  -0.4984  -0.4569  -0.4522  -0.4362  -0.3495
 -0.3195
 -- Virtual --
  0.0259   0.0365   0.0386   0.0565   0.0580   0.0606   0.0713   0.0882
  0.0887   0.0999   0.1171   0.1193   0.1319   0.1514   0.1587   0.1606
  0.1625   0.1638   0.1679   0.1730   0.1778   0.1835   0.1851   0.1881
  0.2007   0.2205   0.2232   0.2293   0.2476   0.2509   0.2684   0.2700
  0.2813   0.2850   0.3036   0.3340   0.3446   0.3499   0.3616   0.3677
  0.3708   0.3906   0.4203   0.4286   0.4366   0.4572   0.4710   0.5306
  0.5498   0.5504   0.5959   0.5981   0.6011   0.6067   0.6105   0.6155
  0.6198   0.6347   0.6610   0.6784   0.6829   0.6894   0.7017   0.7109
  0.7181   0.7346   0.7359   0.7384   0.7632   0.7754   0.7828   0.8024
  0.8128   0.8278   0.8338   0.8457   0.8556   0.8831   0.8870   0.8978
  0.9150   0.9202   0.9279   0.9411   1.0253   1.0373   1.0507   1.0614
  1.0992   1.1160   1.1187   1.1446   1.1642   1.1712   1.1943   1.2036
  1.2264   1.2484   1.2695   1.2887   1.3371   1.3569   1.3739   1.3751
  1.3866   1.3998   1.4062   1.4335   1.4416   1.4586   1.4632   1.4714
  1.5108   1.5446   1.5674   1.5769   1.5948   1.6280   1.6368   1.7054
  1.7700   1.7954   1.7997   1.8119   1.8663   1.9272   1.9750   1.9796
  2.0699   2.0790   2.0802   2.1003   2.2111   2.4181   2.4415   2.5017
  2.5528   2.5955   2.6230   2.6609   2.6690   2.7375   2.7805   2.7926
  2.7942   2.8109   2.8283   2.8284   2.8594   2.8610   2.8639   2.8884
  2.9078   2.9121   2.9251   2.9520   2.9532   2.9733   3.0153   3.0262
  3.0286   3.0533   3.0542   3.0820   3.1715   3.1825   3.1920   3.2002
  3.2265   3.2310   3.2349   3.2579   3.2603   3.3349   3.3410   3.3788
  3.3977   3.4009   3.4161   3.4291   3.4713   3.4742   3.4800   3.4803
  3.4966   3.5069   3.5136   3.5584   3.5803   3.5995   3.6452   3.6471
  3.6743   3.7623   3.7789   3.8110   3.8178   3.8216   3.8340   3.8587
  3.9208   3.9266   3.9284   3.9384   3.9487   3.9661   4.0132   4.0270
  4.0952   4.1129   4.1172   4.1364   4.1647   4.1896   4.2367   4.2816
  4.3388   4.3452   4.3641   4.4071   4.4484   4.4895   4.5161   4.5382
  4.5514   4.5606   4.5710   4.5754   4.5976   4.6602   4.7042   4.7719
  4.7797   4.8091   4.8208   5.0277   5.0477   5.1170   5.1483   5.1869
  5.1976   5.2136   5.3224   5.3422   5.3657   5.4140   5.5212   5.6746
  5.6835   5.7574   5.8117   5.8707   5.8904   5.9141   5.9285   6.2092
  6.3968   6.7428   6.8910   7.0593   7.2779   7.3656   7.4520   7.7406
  7.8342  24.1633  24.7832  24.8067  25.0562  25.0623  25.5424  50.6458
 --------------------------------------------------------------
 
          Ground-State Mulliken Net Atomic Charges

     Atom                 Charge (a.u.)
  ----------------------------------------
      1 H                     0.281688
      2 C                    -0.191780
      3 C                    -0.481065
      4 H                     0.264760
      5 C                    -0.188013
      6 H                     0.282230
      7 C                    -0.303953
      8 H                     0.270868
      9 C                    -0.113287
     10 C                    -0.021131
     11 H                     0.257335
     12 O                    -0.404001
     13 H                     0.346349
  ----------------------------------------
  Sum of atomic charges =     0.000000

 -----------------------------------------------------------------
                    Cartesian Multipole Moments
 -----------------------------------------------------------------
    Charge (ESU x 10^10)
                -0.0000
    Dipole Moment (Debye)
         X       0.1844      Y       0.1475      Z       1.9822
       Tot       1.9962
    Quadrupole Moments (Debye-Ang)
        XX     -38.0493     XY      -0.2860     YY     -45.8438
        XZ      -6.6657     YZ       2.2668     ZZ     -34.2798
    Octopole Moments (Debye-Ang^2)
       XXX      61.9046    XXY     -26.2401    XYY      20.6027
       YYY    -101.1409    XXZ      22.4055    XYZ      -5.2289
       YYZ       2.3964    XZZ      14.2383    YZZ     -25.0608
       ZZZ       1.8530
    Hexadecapole Moments (Debye-Ang^3)
      XXXX    -555.3160   XXXY      38.3155   XXYY    -134.9438
      XYYY      43.4824   YYYY    -205.5190   XXXZ     -74.0562
      XXYZ      15.6577   XYYZ      -4.0482   YYYZ      -8.2968
      XXZZ    -119.6379   XYZZ       9.6841   YYZZ     -84.9790
      XZZZ      -4.6940   YZZZ      -3.5453   ZZZZ    -265.8977
 -----------------------------------------------------------------
 Calculating analytic gradient of the SCF energy
 Gradient of CDS energy
            1           2           3           4           5           6
    1   0.0001032   0.0002496   0.0005289   0.0002067   0.0002453   0.0001019
    2   0.0000141   0.0000350   0.0000048   0.0000018  -0.0000307  -0.0000124
    3   0.0001796   0.0004430  -0.0000015  -0.0000011  -0.0004466  -0.0001805
            7           8           9          10          11          12
    1  -0.0002606  -0.0001524  -0.0062209  -0.0002185  -0.0000689   0.0058845
    2  -0.0000297  -0.0000124  -0.0000707   0.0000251   0.0000087   0.0000536
    3  -0.0003696  -0.0001492  -0.0001888   0.0003685   0.0001278  -0.0000008
           13
    1  -0.0003989
    2   0.0000128
    3   0.0002193
 Gradient of SCF Energy
            1           2           3           4           5           6
    1   0.0022986  -0.0019195  -0.0050428   0.0034477  -0.0033474   0.0016664
    2   0.0003885  -0.0003973  -0.0001151   0.0000293   0.0002527  -0.0002127
    3   0.0048361  -0.0057857  -0.0016137   0.0000635   0.0049265  -0.0028495
            7           8           9          10          11          12
    1   0.0063138   0.0006065   0.0020814   0.0015595  -0.0059017   0.0028570
    2   0.0001775  -0.0000774   0.0002529  -0.0007004   0.0005201  -0.0012069
    3   0.0026323  -0.0009765   0.0020747  -0.0101708   0.0080940  -0.0164182
           13
    1  -0.0046197
    2   0.0010888
    3   0.0151873
 Max gradient component =       1.642E-02
 RMS gradient           =       4.932E-03
 Computing fast CPCM-SWIG gradient
 Updating gradient with PCM contributions...
 -- total gradient after adding PCM contribution --
---------------------------------------------------
  Atom         X              Y              Z     
---------------------------------------------------
   1      -0.000027       0.000011       0.000008
   2       0.000059       0.000001      -0.000049
   3       0.000045       0.000007       0.000106
   4      -0.000019      -0.000002       0.000016
   5      -0.000109      -0.000011      -0.000051
   6      -0.000004      -0.000012       0.000017
   7       0.000214      -0.000014      -0.000072
   8      -0.000029      -0.000010       0.000019
   9      -0.000262       0.000002       0.000116
  10      -0.000008       0.000008      -0.000049
  11       0.000004       0.000011      -0.000007
  12       0.000137       0.000013      -0.000032
  13      -0.000002      -0.000003      -0.000022
---------------------------------------------------
 Number of fixed atoms: 0
 Gradient time:  CPU 134.55 s  wall 19.24 s
 ######################################################
 ######################################################
 # Starting finite difference calculation for IDERIV  #
 Finite diff step size:  1.88973e-03 a.u.
 ----------------------------------------------------------------
             Standard Nuclear Orientation (Angstroms)
    I     Atom           X                Y                Z
 ----------------------------------------------------------------
    1      H       1.1057836344     0.9043962068     2.1250145854
    2      C       0.5670162773     0.8308412759     1.1892824583
    3      C       1.2625685887     0.7488710411    -0.0096736849
    4      H       2.3436953030     0.7581839072    -0.0152055982
    5      C       0.5552246068     0.6544687572    -1.2026534696
    6      H       1.0860429895     0.5899063224    -2.1430175011
    7      C      -0.8314541116     0.6417541604    -1.2033120223
    8      H      -1.3912243979     0.5684798649    -2.1259694812
    9      C      -1.5137173589     0.7246646210     0.0035742645
   10      C      -0.8210916620     0.8191573225     1.2031540196
   11      H      -1.3693810719     0.8819328264     2.1348347953
   12      O      -2.8881561630     0.7088040416    -0.0411343372
   13      H      -3.2385630344     0.7724179525     0.8552059713
 ----------------------------------------------------------------
 Nuclear Repulsion Energy =         271.93400848 hartrees
 There are       25 alpha and       25 beta electrons
 Discretize the solute cavity surface with Lebedev spheres
	Using 110 Lebedev grid points for each H atom
	Using 194 Lebedev grid points for other atoms
	Atomic van der Waals radii will be scaled by 1.20
 Remove points where switching function is < 1.0e-08
 Keep 990 surface tesserae and discard 1028 interior tesserae
 Molecular Surface Area = 121.304 Angst**2

                       Distance Matrix (Angstroms)
             H (  1)   C (  2)   C (  3)   H (  4)   C (  5)   H (  6)
   C (  2)  1.082255
   C (  3)  2.146081  1.388527
   H (  4)  2.476761  2.147710  1.081181
   C (  5)  3.382152  2.398459  1.390125  2.149283
   H (  6)  4.279649  3.381074  2.146529  2.477416  1.081768
   C (  7)  3.860004  2.777766  2.412712  3.392157  1.386737  2.136008
   H (  8)  4.941534  3.859331  3.399098  4.294291  2.156054  2.477419
   C (  9)  3.375589  2.397213  2.776423  3.857604  2.395920  3.374132
   C ( 10)  2.137742  1.388226  2.411956  3.391754  2.776559  3.858313
   H ( 11)  2.475286  2.155531  3.397614  4.292426  3.859362  4.941094
   O ( 12)  4.547748  3.669746  4.151037  5.232149  3.634412  4.497367
   H ( 13)  4.528044  3.820661  4.583531  5.649728  4.317583  5.265441
             C (  7)   H (  8)   C (  9)   C ( 10)   H ( 11)   O ( 12)
   H (  8)  1.081669
   C (  9)  1.388860  2.138774
   C ( 10)  2.413018  3.386880  1.388399
   H ( 11)  3.389731  4.272374  2.141924  1.082862
   O ( 12)  2.363298  2.570415  1.375257  2.415199  2.659228
   H ( 13)  3.169975  3.513070  1.924227  2.442830  2.267881  0.964499

 
 Requested basis set is 6-311++G(2df,2p)
 There are 92 shells and 298 basis functions
 A cutoff of  1.0D-12 yielded   4049 shell pairs
 There are     43165 function pairs (     54026 Cartesian)
 Smallest overlap matrix eigenvalue = 9.65E-07
 Linear dependence detected in AO basis
 Tighter screening thresholds may be required for diffuse basis sets
 Use S2THRESH > 14 and THRESH = 14 in case of SCF convergence issues
 Number of orthogonalized atomic orbitals = 297
 Maximum deviation from orthogonality = 2.507E-11
 Guess MOs from SCF MO coefficient file

 -----------------------------------------------------------------------
  General SCF calculation program by
  Eric Jon Sundstrom, Paul Horn, Yuezhi Mao, Dmitri Zuev, Alec White,
  David Stuck, Shaama M.S., Shane Yost, Joonho Lee, David Small,
  Daniel Levine, Susi Lehtola, Hugh Burton, Evgeny Epifanovsky,
  Bang C. Huynh
 -----------------------------------------------------------------------
 Exchange:     0.1500 Hartree-Fock + 1.0000 wB97M-V + LR-HF
 Correlation:  1.0000 wB97M-V
 Using SG-2 standard quadrature grid
 Nonlocal Correlation:  VV10 with C = 0.0100 and b = 6.00 and scale = 1.00000
 Grid used for NLC:  SG-1 standard quadrature
 
 Citation of the SMD model:
 Marenich, A.V.; Cramer, C.J.; Truhlar, D.G.
 J. Phys. Chem. B 2009, 113, 6378-6396.
 iSolventCode=           1
 Solvent: water                                                           
 
 vradii
            1           2           3           4           5           6
    1   1.2000000   1.8500000   1.8500000   1.2000000   1.8500000   1.2000000
            7           8           9          10          11          12
    1   1.8500000   1.2000000   1.8500000   1.8500000   1.2000000   1.5200000
           13
    1   1.2000000
 -------------------------------------------------------
 OpenMP BLAS3 based DFT computing Module                
 Release: version 1.0, May 2013, Q-Chem Inc. Pittsburgh 
 -------------------------------------------------------
 A restricted SCF calculation will be
 performed using Roothaan-Hall, DIIS, GDM
 SCF converges when RMS gradient is below 1.0e-07
 ---------------------------------------
  Cycle       Energy         DIIS error
 ---------------------------------------
    1    -307.4457653943      3.81e-04  Roothaan Step
 ---------------------------------------
  Cycle       Energy         DIIS error
 ---------------------------------------
    1    -307.4598832816      4.27e-04  
    2    -307.4622897119      2.78e-04  Done DIIS. Switching to GDM
 ---------------------------------------
  Cycle       Energy        RMS Gradient
 ---------------------------------------
    1    -307.4622897119      5.83e-03   Normal BFGS step
    2    -307.4625942501      4.66e-03   Normal BFGS step
    3    -307.4630176121      5.76e-04   Normal BFGS step
    4    -307.4630236139      6.48e-04   Normal BFGS step
    5    -307.4630289457      1.54e-04   Normal BFGS step
    6    -307.4630290616      4.19e-05   Normal BFGS step
    7    -307.4630290953      2.41e-05   Normal BFGS step
    8    -307.4630290975      8.91e-06   Normal BFGS step
    9    -307.4630290979      3.25e-06   Normal BFGS step
   10    -307.4630290980      1.62e-06   Normal BFGS step
   11    -307.4630290980      5.19e-07   Normal BFGS step
   12    -307.4630290980      1.22e-07   Normal BFGS step
   13    -307.4630290980      2.28e-08  Convergence criterion met
 ---------------------------------------
 SCF time:   CPU 627.17s  wall 80.00s 
(3)  G-ENP(liq) elect-nuc-pol free energy of system     -307.463029098 a.u.
(4)  G-CDS(liq) cavity-dispersion-solvent structure 
     free energy                                                3.1924 kcal/mol
(6)  G-S(liq) free energy of system                     -307.457941673 a.u.
 SCF   energy in the final basis set =     -307.4579416734
 Total energy in the final basis set =     -307.4579416734
 
 --------------------------------------------------------------
 
                    Orbital Energies (a.u.)
 --------------------------------------------------------------
 
 Alpha MOs
 -- Occupied --
-19.3605 -10.4082 -10.3460 -10.3457 -10.3411 -10.3395 -10.3364  -1.1875
 -0.9819  -0.8736  -0.8620  -0.7387  -0.7172  -0.6533  -0.6062  -0.5739
 -0.5397  -0.5283  -0.5243  -0.4984  -0.4569  -0.4522  -0.4362  -0.3495
 -0.3195
 -- Virtual --
  0.0259   0.0365   0.0386   0.0565   0.0580   0.0606   0.0713   0.0882
  0.0887   0.0999   0.1171   0.1193   0.1319   0.1514   0.1587   0.1606
  0.1625   0.1638   0.1679   0.1730   0.1778   0.1835   0.1851   0.1881
  0.2007   0.2205   0.2232   0.2293   0.2476   0.2509   0.2684   0.2700
  0.2813   0.2850   0.3036   0.3340   0.3446   0.3499   0.3616   0.3677
  0.3708   0.3907   0.4203   0.4286   0.4366   0.4573   0.4710   0.5306
  0.5498   0.5504   0.5958   0.5981   0.6011   0.6066   0.6105   0.6155
  0.6198   0.6347   0.6610   0.6784   0.6829   0.6894   0.7017   0.7109
  0.7181   0.7346   0.7359   0.7384   0.7632   0.7754   0.7828   0.8024
  0.8128   0.8277   0.8338   0.8456   0.8556   0.8831   0.8871   0.8978
  0.9150   0.9201   0.9279   0.9411   1.0252   1.0373   1.0507   1.0614
  1.0992   1.1160   1.1187   1.1445   1.1641   1.1711   1.1943   1.2036
  1.2265   1.2484   1.2695   1.2889   1.3370   1.3568   1.3740   1.3749
  1.3865   1.3998   1.4062   1.4335   1.4417   1.4586   1.4632   1.4714
  1.5108   1.5445   1.5672   1.5769   1.5947   1.6280   1.6367   1.7054
  1.7701   1.7953   1.7997   1.8119   1.8663   1.9272   1.9750   1.9795
  2.0699   2.0788   2.0802   2.1004   2.2111   2.4181   2.4415   2.5017
  2.5528   2.5955   2.6231   2.6609   2.6690   2.7375   2.7805   2.7926
  2.7942   2.8109   2.8282   2.8286   2.8594   2.8609   2.8638   2.8883
  2.9078   2.9121   2.9250   2.9520   2.9531   2.9733   3.0152   3.0262
  3.0286   3.0533   3.0540   3.0820   3.1715   3.1826   3.1920   3.2002
  3.2265   3.2311   3.2349   3.2579   3.2603   3.3348   3.3410   3.3787
  3.3978   3.4008   3.4161   3.4291   3.4713   3.4742   3.4800   3.4802
  3.4966   3.5069   3.5136   3.5584   3.5803   3.5994   3.6452   3.6468
  3.6744   3.7622   3.7789   3.8110   3.8178   3.8216   3.8340   3.8587
  3.9209   3.9266   3.9285   3.9382   3.9487   3.9662   4.0131   4.0269
  4.0951   4.1127   4.1173   4.1362   4.1647   4.1893   4.2367   4.2816
  4.3387   4.3452   4.3639   4.4071   4.4483   4.4895   4.5161   4.5382
  4.5514   4.5604   4.5710   4.5754   4.5975   4.6599   4.7042   4.7717
  4.7797   4.8089   4.8206   5.0276   5.0473   5.1168   5.1481   5.1867
  5.1975   5.2136   5.3224   5.3422   5.3657   5.4139   5.5211   5.6746
  5.6832   5.7571   5.8115   5.8706   5.8903   5.9141   5.9285   6.2085
  6.3968   6.7428   6.8910   7.0593   7.2779   7.3656   7.4520   7.7406
  7.8342  24.1630  24.7831  24.8066  25.0560  25.0622  25.5423  50.6458
 --------------------------------------------------------------
 
          Ground-State Mulliken Net Atomic Charges

     Atom                 Charge (a.u.)
  ----------------------------------------
      1 H                     0.281584
      2 C                    -0.191606
      3 C                    -0.480711
      4 H                     0.264785
      5 C                    -0.188091
      6 H                     0.282226
      7 C                    -0.303882
      8 H                     0.270870
      9 C                    -0.113270
     10 C                    -0.021611
     11 H                     0.257350
     12 O                    -0.403995
     13 H                     0.346351
  ----------------------------------------
  Sum of atomic charges =     0.000000

 -----------------------------------------------------------------
                    Cartesian Multipole Moments
 -----------------------------------------------------------------
    Charge (ESU x 10^10)
                -0.0000
    Dipole Moment (Debye)
         X       0.1847      Y       0.1475      Z       1.9817
       Tot       1.9958
    Quadrupole Moments (Debye-Ang)
        XX     -38.0472     XY      -0.2857     YY     -45.8444
        XZ      -6.6645     YZ       2.2664     ZZ     -34.2820
    Octopole Moments (Debye-Ang^2)
       XXX      61.9024    XXY     -26.2383    XYY      20.6014
       YYY    -101.1426    XXZ      22.4086    XYZ      -5.2278
       YYZ       2.3945    XZZ      14.2393    YZZ     -25.0627
       ZZZ       1.8454
    Hexadecapole Moments (Debye-Ang^3)
      XXXX    -555.3142   XXXY      38.3140   XXYY    -134.9443
      XYYY      43.4785   YYYY    -205.5228   XXXZ     -74.0556
      XXYZ      15.6606   XYYZ      -4.0503   YYYZ      -8.3011
      XXZZ    -119.6322   XYZZ       9.6852   YYZZ     -84.9840
      XZZZ      -4.6957   YZZZ      -3.5522   ZZZZ    -265.9247
 -----------------------------------------------------------------
 Calculating analytic gradient of the SCF energy
 Gradient of CDS energy
            1           2           3           4           5           6
    1   0.0001037   0.0002491   0.0005289   0.0002067   0.0002453   0.0001019
    2   0.0000142   0.0000349   0.0000048   0.0000018  -0.0000307  -0.0000124
    3   0.0001801   0.0004425  -0.0000015  -0.0000011  -0.0004466  -0.0001805
            7           8           9          10          11          12
    1  -0.0002606  -0.0001524  -0.0062209  -0.0002184  -0.0000689   0.0058845
    2  -0.0000297  -0.0000124  -0.0000707   0.0000251   0.0000087   0.0000536
    3  -0.0003696  -0.0001492  -0.0001888   0.0003685   0.0001278  -0.0000008
           13
    1  -0.0003989
    2   0.0000128
    3   0.0002193
 Gradient of SCF Energy
            1           2           3           4           5           6
    1   0.0025554  -0.0021700  -0.0050208   0.0034508  -0.0033486   0.0016673
    2   0.0004081  -0.0004154  -0.0001127   0.0000293   0.0002530  -0.0002126
    3   0.0050776  -0.0060107  -0.0015830   0.0000625   0.0049321  -0.0028482
            7           8           9          10          11          12
    1   0.0063111   0.0006064   0.0020733   0.0015394  -0.0058984   0.0028536
    2   0.0001775  -0.0000774   0.0002530  -0.0007044   0.0005200  -0.0012072
    3   0.0026330  -0.0009771   0.0020782  -0.0102228   0.0080923  -0.0164209
           13
    1  -0.0046194
    2   0.0010888
    3   0.0151870
 Max gradient component =       1.642E-02
 RMS gradient           =       4.953E-03
 Computing fast CPCM-SWIG gradient
 Updating gradient with PCM contributions...
 -- total gradient after adding PCM contribution --
---------------------------------------------------
  Atom         X              Y              Z     
---------------------------------------------------
   1       0.000223       0.000031       0.000254
   2      -0.000185      -0.000018      -0.000278
   3       0.000068       0.000009       0.000133
   4      -0.000017      -0.000002       0.000014
   5      -0.000110      -0.000011      -0.000044
   6      -0.000003      -0.000012       0.000018
   7       0.000212      -0.000014      -0.000071
   8      -0.000029      -0.000010       0.000019
   9      -0.000270       0.000002       0.000118
  10      -0.000028       0.000004      -0.000101
  11       0.000007       0.000011      -0.000006
  12       0.000134       0.000013      -0.000035
  13      -0.000001      -0.000003      -0.000022
---------------------------------------------------
 Number of fixed atoms: 0
 Gradient time:  CPU 135.77 s  wall 19.29 s
 ----------------------------------------------------------------
             Standard Nuclear Orientation (Angstroms)
    I     Atom           X                Y                Z
 ----------------------------------------------------------------
    1      H       1.1037836344     0.9043962068     2.1250145854
    2      C       0.5670162773     0.8308412759     1.1892824583
    3      C       1.2625685887     0.7488710411    -0.0096736849
    4      H       2.3436953030     0.7581839072    -0.0152055982
    5      C       0.5552246068     0.6544687572    -1.2026534696
    6      H       1.0860429895     0.5899063224    -2.1430175011
    7      C      -0.8314541116     0.6417541604    -1.2033120223
    8      H      -1.3912243979     0.5684798649    -2.1259694812
    9      C      -1.5137173589     0.7246646210     0.0035742645
   10      C      -0.8210916620     0.8191573225     1.2031540196
   11      H      -1.3693810719     0.8819328264     2.1348347953
   12      O      -2.8881561630     0.7088040416    -0.0411343372
   13      H      -3.2385630344     0.7724179525     0.8552059713
 ----------------------------------------------------------------
 Nuclear Repulsion Energy =         271.93911284 hartrees
 There are       25 alpha and       25 beta electrons
 Discretize the solute cavity surface with Lebedev spheres
	Using 110 Lebedev grid points for each H atom
	Using 194 Lebedev grid points for other atoms
	Atomic van der Waals radii will be scaled by 1.20
 Remove points where switching function is < 1.0e-08
 Keep 990 surface tesserae and discard 1028 interior tesserae
 Molecular Surface Area = 121.298 Angst**2

                       Distance Matrix (Angstroms)
             H (  1)   C (  2)   C (  3)   H (  4)   C (  5)   H (  6)
   C (  2)  1.081260
   C (  3)  2.146228  1.388527
   H (  4)  2.477761  2.147710  1.081181
   C (  5)  3.381827  2.398459  1.390125  2.149283
   H (  6)  4.279640  3.381074  2.146529  2.477416  1.081768
   C (  7)  3.859000  2.777766  2.412712  3.392157  1.386737  2.136008
   H (  8)  4.940523  3.859331  3.399098  4.294291  2.156054  2.477419
   C (  9)  3.374037  2.397213  2.776423  3.857604  2.395920  3.374132
   C ( 10)  2.135939  1.388226  2.411956  3.391754  2.776559  3.858313
   H ( 11)  2.473286  2.155531  3.397614  4.292426  3.859362  4.941094
   O ( 12)  4.545992  3.669746  4.151037  5.232149  3.634412  4.497367
   H ( 13)  4.526125  3.820661  4.583531  5.649728  4.317583  5.265441
             C (  7)   H (  8)   C (  9)   C ( 10)   H ( 11)   O ( 12)
   H (  8)  1.081669
   C (  9)  1.388860  2.138774
   C ( 10)  2.413018  3.386880  1.388399
   H ( 11)  3.389731  4.272374  2.141924  1.082862
   O ( 12)  2.363298  2.570415  1.375257  2.415199  2.659228
   H ( 13)  3.169975  3.513070  1.924227  2.442830  2.267881  0.964499

 
 Requested basis set is 6-311++G(2df,2p)
 There are 92 shells and 298 basis functions
 A cutoff of  1.0D-12 yielded   4049 shell pairs
 There are     43165 function pairs (     54026 Cartesian)
 Smallest overlap matrix eigenvalue = 9.65E-07
 Linear dependence detected in AO basis
 Tighter screening thresholds may be required for diffuse basis sets
 Use S2THRESH > 14 and THRESH = 14 in case of SCF convergence issues
 Number of orthogonalized atomic orbitals = 297
 Maximum deviation from orthogonality = 2.497E-11
 Guess MOs from SCF MO coefficient file

 -----------------------------------------------------------------------
  General SCF calculation program by
  Eric Jon Sundstrom, Paul Horn, Yuezhi Mao, Dmitri Zuev, Alec White,
  David Stuck, Shaama M.S., Shane Yost, Joonho Lee, David Small,
  Daniel Levine, Susi Lehtola, Hugh Burton, Evgeny Epifanovsky,
  Bang C. Huynh
 -----------------------------------------------------------------------
 Exchange:     0.1500 Hartree-Fock + 1.0000 wB97M-V + LR-HF
 Correlation:  1.0000 wB97M-V
 Using SG-2 standard quadrature grid
 Nonlocal Correlation:  VV10 with C = 0.0100 and b = 6.00 and scale = 1.00000
 Grid used for NLC:  SG-1 standard quadrature
 
 Citation of the SMD model:
 Marenich, A.V.; Cramer, C.J.; Truhlar, D.G.
 J. Phys. Chem. B 2009, 113, 6378-6396.
 iSolventCode=           1
 Solvent: water                                                           
 
 vradii
            1           2           3           4           5           6
    1   1.2000000   1.8500000   1.8500000   1.2000000   1.8500000   1.2000000
            7           8           9          10          11          12
    1   1.8500000   1.2000000   1.8500000   1.8500000   1.2000000   1.5200000
           13
    1   1.2000000
 -------------------------------------------------------
 OpenMP BLAS3 based DFT computing Module                
 Release: version 1.0, May 2013, Q-Chem Inc. Pittsburgh 
 -------------------------------------------------------
 A restricted SCF calculation will be
 performed using Roothaan-Hall, DIIS, GDM
 SCF converges when RMS gradient is below 1.0e-07
 ---------------------------------------
  Cycle       Energy         DIIS error
 ---------------------------------------
    1    -307.4457682773      3.81e-04  Roothaan Step
 ---------------------------------------
  Cycle       Energy         DIIS error
 ---------------------------------------
    1    -307.4598821673      4.27e-04  
    2    -307.4622886916      2.78e-04  Done DIIS. Switching to GDM
 ---------------------------------------
  Cycle       Energy        RMS Gradient
 ---------------------------------------
    1    -307.4622886916      5.82e-03   Normal BFGS step
    2    -307.4625927671      4.72e-03   Normal BFGS step
    3    -307.4630171123      5.76e-04   Normal BFGS step
    4    -307.4630231312      6.48e-04   Normal BFGS step
    5    -307.4630284530      1.55e-04   Normal BFGS step
    6    -307.4630285690      4.23e-05   Normal BFGS step
    7    -307.4630286031      2.42e-05   Normal BFGS step
    8    -307.4630286053      9.02e-06   Normal BFGS step
    9    -307.4630286057      3.23e-06   Normal BFGS step
   10    -307.4630286058      1.62e-06   Normal BFGS step
   11    -307.4630286058      5.21e-07   Normal BFGS step
   12    -307.4630286058      1.22e-07   Normal BFGS step
   13    -307.4630286058      2.28e-08  Convergence criterion met
 ---------------------------------------
 SCF time:   CPU 640.08s  wall 81.00s 
(3)  G-ENP(liq) elect-nuc-pol free energy of system     -307.463028606 a.u.
(4)  G-CDS(liq) cavity-dispersion-solvent structure 
     free energy                                                3.1922 kcal/mol
(6)  G-S(liq) free energy of system                     -307.457941571 a.u.
 SCF   energy in the final basis set =     -307.4579415714
 Total energy in the final basis set =     -307.4579415714
 
 --------------------------------------------------------------
 
                    Orbital Energies (a.u.)
 --------------------------------------------------------------
 
 Alpha MOs
 -- Occupied --
-19.3604 -10.4082 -10.3459 -10.3457 -10.3411 -10.3395 -10.3364  -1.1875
 -0.9819  -0.8736  -0.8620  -0.7387  -0.7173  -0.6533  -0.6062  -0.5739
 -0.5398  -0.5283  -0.5243  -0.4984  -0.4569  -0.4522  -0.4363  -0.3495
 -0.3195
 -- Virtual --
  0.0259   0.0365   0.0386   0.0565   0.0580   0.0606   0.0713   0.0882
  0.0887   0.0998   0.1171   0.1193   0.1319   0.1514   0.1587   0.1606
  0.1625   0.1638   0.1679   0.1730   0.1778   0.1835   0.1851   0.1881
  0.2007   0.2205   0.2232   0.2293   0.2476   0.2509   0.2684   0.2700
  0.2813   0.2850   0.3036   0.3340   0.3447   0.3499   0.3617   0.3677
  0.3709   0.3906   0.4203   0.4286   0.4366   0.4572   0.4710   0.5306
  0.5499   0.5504   0.5959   0.5982   0.6010   0.6067   0.6105   0.6155
  0.6198   0.6347   0.6611   0.6784   0.6830   0.6894   0.7017   0.7109
  0.7181   0.7346   0.7360   0.7384   0.7632   0.7754   0.7828   0.8024
  0.8127   0.8278   0.8337   0.8457   0.8556   0.8831   0.8870   0.8978
  0.9150   0.9203   0.9279   0.9411   1.0253   1.0374   1.0507   1.0614
  1.0992   1.1160   1.1187   1.1446   1.1642   1.1712   1.1943   1.2037
  1.2264   1.2484   1.2696   1.2886   1.3371   1.3569   1.3739   1.3754
  1.3866   1.3999   1.4063   1.4335   1.4416   1.4587   1.4632   1.4714
  1.5108   1.5447   1.5675   1.5769   1.5948   1.6280   1.6369   1.7054
  1.7700   1.7954   1.7998   1.8119   1.8662   1.9272   1.9750   1.9796
  2.0699   2.0791   2.0802   2.1002   2.2111   2.4181   2.4415   2.5018
  2.5528   2.5954   2.6229   2.6609   2.6690   2.7376   2.7805   2.7926
  2.7943   2.8110   2.8283   2.8283   2.8594   2.8611   2.8639   2.8885
  2.9078   2.9121   2.9251   2.9520   2.9532   2.9733   3.0153   3.0263
  3.0286   3.0533   3.0543   3.0821   3.1715   3.1825   3.1921   3.2002
  3.2264   3.2310   3.2348   3.2579   3.2602   3.3351   3.3410   3.3788
  3.3977   3.4010   3.4161   3.4291   3.4713   3.4741   3.4800   3.4804
  3.4966   3.5069   3.5136   3.5584   3.5803   3.5995   3.6451   3.6474
  3.6743   3.7624   3.7789   3.8110   3.8178   3.8217   3.8340   3.8587
  3.9208   3.9267   3.9282   3.9385   3.9487   3.9660   4.0134   4.0271
  4.0953   4.1132   4.1172   4.1366   4.1647   4.1898   4.2367   4.2816
  4.3388   4.3452   4.3643   4.4071   4.4486   4.4895   4.5161   4.5382
  4.5514   4.5608   4.5710   4.5755   4.5976   4.6604   4.7041   4.7721
  4.7797   4.8093   4.8209   5.0277   5.0480   5.1172   5.1485   5.1870
  5.1976   5.2136   5.3224   5.3423   5.3657   5.4141   5.5214   5.6746
  5.6838   5.7577   5.8118   5.8708   5.8905   5.9141   5.9285   6.2098
  6.3968   6.7429   6.8910   7.0593   7.2779   7.3656   7.4521   7.7406
  7.8342  24.1635  24.7834  24.8068  25.0563  25.0623  25.5425  50.6458
 --------------------------------------------------------------
 
          Ground-State Mulliken Net Atomic Charges

     Atom                 Charge (a.u.)
  ----------------------------------------
      1 H                     0.281793
      2 C                    -0.191953
      3 C                    -0.481420
      4 H                     0.264735
      5 C                    -0.187935
      6 H                     0.282233
      7 C                    -0.304024
      8 H                     0.270866
      9 C                    -0.113304
     10 C                    -0.020651
     11 H                     0.257321
     12 O                    -0.404008
     13 H                     0.346346
  ----------------------------------------
  Sum of atomic charges =     0.000000

 -----------------------------------------------------------------
                    Cartesian Multipole Moments
 -----------------------------------------------------------------
    Charge (ESU x 10^10)
                -0.0000
    Dipole Moment (Debye)
         X       0.1842      Y       0.1475      Z       1.9826
       Tot       1.9966
    Quadrupole Moments (Debye-Ang)
        XX     -38.0513     XY      -0.2862     YY     -45.8432
        XZ      -6.6669     YZ       2.2673     ZZ     -34.2777
    Octopole Moments (Debye-Ang^2)
       XXX      61.9067    XXY     -26.2418    XYY      20.6039
       YYY    -101.1393    XXZ      22.4024    XYZ      -5.2300
       YYZ       2.3982    XZZ      14.2373    YZZ     -25.0588
       ZZZ       1.8605
    Hexadecapole Moments (Debye-Ang^3)
      XXXX    -555.3177   XXXY      38.3170   XXYY    -134.9432
      XYYY      43.4863   YYYY    -205.5151   XXXZ     -74.0567
      XXYZ      15.6548   XYYZ      -4.0462   YYYZ      -8.2925
      XXZZ    -119.6436   XYZZ       9.6830   YYZZ     -84.9741
      XZZZ      -4.6923   YZZZ      -3.5383   ZZZZ    -265.8708
 -----------------------------------------------------------------
 Calculating analytic gradient of the SCF energy
 Gradient of CDS energy
            1           2           3           4           5           6
    1   0.0001028   0.0002501   0.0005289   0.0002067   0.0002453   0.0001019
    2   0.0000141   0.0000350   0.0000048   0.0000018  -0.0000307  -0.0000124
    3   0.0001791   0.0004436  -0.0000015  -0.0000011  -0.0004466  -0.0001805
            7           8           9          10          11          12
    1  -0.0002606  -0.0001524  -0.0062209  -0.0002185  -0.0000689   0.0058845
    2  -0.0000297  -0.0000124  -0.0000707   0.0000251   0.0000087   0.0000536
    3  -0.0003696  -0.0001492  -0.0001888   0.0003685   0.0001278  -0.0000008
           13
    1  -0.0003989
    2   0.0000128
    3   0.0002193
 Gradient of SCF Energy
            1           2           3           4           5           6
    1   0.0020418  -0.0016690  -0.0050648   0.0034447  -0.0033461   0.0016655
    2   0.0003688  -0.0003792  -0.0001174   0.0000293   0.0002524  -0.0002128
    3   0.0045938  -0.0055600  -0.0016444   0.0000644   0.0049209  -0.0028508
            7           8           9          10          11          12
    1   0.0063166   0.0006066   0.0020896   0.0015797  -0.0059049   0.0028604
    2   0.0001775  -0.0000774   0.0002529  -0.0006963   0.0005201  -0.0012067
    3   0.0026315  -0.0009759   0.0020712  -0.0101186   0.0080957  -0.0164154
           13
    1  -0.0046201
    2   0.0010888
    3   0.0151876
 Max gradient component =       1.642E-02
 RMS gradient           =       4.912E-03
 Computing fast CPCM-SWIG gradient
 Updating gradient with PCM contributions...
 -- total gradient after adding PCM contribution --
---------------------------------------------------
  Atom         X              Y              Z     
---------------------------------------------------
   1      -0.000277      -0.000010      -0.000239
   2       0.000303       0.000019       0.000180
   3       0.000023       0.000005       0.000079
   4      -0.000020      -0.000002       0.000017
   5      -0.000108      -0.000012      -0.000057
   6      -0.000004      -0.000012       0.000015
   7       0.000216      -0.000014      -0.000073
   8      -0.000029      -0.000010       0.000019
   9      -0.000254       0.000002       0.000113
  10       0.000013       0.000012       0.000004
  11       0.000001       0.000011      -0.000007
  12       0.000141       0.000014      -0.000029
  13      -0.000003      -0.000003      -0.000022
---------------------------------------------------
 Number of fixed atoms: 0
 Gradient time:  CPU 137.95 s  wall 19.67 s
 ----------------------------------------------------------------
             Standard Nuclear Orientation (Angstroms)
    I     Atom           X                Y                Z
 ----------------------------------------------------------------
    1      H       1.1047836344     0.9053962068     2.1250145854
    2      C       0.5670162773     0.8308412759     1.1892824583
    3      C       1.2625685887     0.7488710411    -0.0096736849
    4      H       2.3436953030     0.7581839072    -0.0152055982
    5      C       0.5552246068     0.6544687572    -1.2026534696
    6      H       1.0860429895     0.5899063224    -2.1430175011
    7      C      -0.8314541116     0.6417541604    -1.2033120223
    8      H      -1.3912243979     0.5684798649    -2.1259694812
    9      C      -1.5137173589     0.7246646210     0.0035742645
   10      C      -0.8210916620     0.8191573225     1.2031540196
   11      H      -1.3693810719     0.8819328264     2.1348347953
   12      O      -2.8881561630     0.7088040416    -0.0411343372
   13      H      -3.2385630344     0.7724179525     0.8552059713
 ----------------------------------------------------------------
 Nuclear Repulsion Energy =         271.93622805 hartrees
 There are       25 alpha and       25 beta electrons
 Discretize the solute cavity surface with Lebedev spheres
	Using 110 Lebedev grid points for each H atom
	Using 194 Lebedev grid points for other atoms
	Atomic van der Waals radii will be scaled by 1.20
 Remove points where switching function is < 1.0e-08
 Keep 990 surface tesserae and discard 1028 interior tesserae
 Molecular Surface Area = 121.302 Angst**2

                       Distance Matrix (Angstroms)
             H (  1)   C (  2)   C (  3)   H (  4)   C (  5)   H (  6)
   C (  2)  1.081826
   C (  3)  2.146227  1.388527
   H (  4)  2.477320  2.147710  1.081181
   C (  5)  3.382064  2.398459  1.390125  2.149283
   H (  6)  4.279718  3.381074  2.146529  2.477416  1.081768
   C (  7)  3.859570  2.777766  2.412712  3.392157  1.386737  2.136008
   H (  8)  4.941096  3.859331  3.399098  4.294291  2.156054  2.477419
   C (  9)  3.374866  2.397213  2.776423  3.857604  2.395920  3.374132
   C ( 10)  2.136881  1.388226  2.411956  3.391754  2.776559  3.858313
   H ( 11)  2.474295  2.155531  3.397614  4.292426  3.859362  4.941094
   O ( 12)  4.546913  3.669746  4.151037  5.232149  3.634412  4.497367
   H ( 13)  4.527114  3.820661  4.583531  5.649728  4.317583  5.265441
             C (  7)   H (  8)   C (  9)   C ( 10)   H ( 11)   O ( 12)
   H (  8)  1.081669
   C (  9)  1.388860  2.138774
   C ( 10)  2.413018  3.386880  1.388399
   H ( 11)  3.389731  4.272374  2.141924  1.082862
   O ( 12)  2.363298  2.570415  1.375257  2.415199  2.659228
   H ( 13)  3.169975  3.513070  1.924227  2.442830  2.267881  0.964499

 
 Requested basis set is 6-311++G(2df,2p)
 There are 92 shells and 298 basis functions
 A cutoff of  1.0D-12 yielded   4049 shell pairs
 There are     43165 function pairs (     54026 Cartesian)
 Smallest overlap matrix eigenvalue = 9.65E-07
 Linear dependence detected in AO basis
 Tighter screening thresholds may be required for diffuse basis sets
 Use S2THRESH > 14 and THRESH = 14 in case of SCF convergence issues
 Number of orthogonalized atomic orbitals = 297
 Maximum deviation from orthogonality = 2.425E-11
 Guess MOs from SCF MO coefficient file

 -----------------------------------------------------------------------
  General SCF calculation program by
  Eric Jon Sundstrom, Paul Horn, Yuezhi Mao, Dmitri Zuev, Alec White,
  David Stuck, Shaama M.S., Shane Yost, Joonho Lee, David Small,
  Daniel Levine, Susi Lehtola, Hugh Burton, Evgeny Epifanovsky,
  Bang C. Huynh
 -----------------------------------------------------------------------
 Exchange:     0.1500 Hartree-Fock + 1.0000 wB97M-V + LR-HF
 Correlation:  1.0000 wB97M-V
 Using SG-2 standard quadrature grid
 Nonlocal Correlation:  VV10 with C = 0.0100 and b = 6.00 and scale = 1.00000
 Grid used for NLC:  SG-1 standard quadrature
 
 Citation of the SMD model:
 Marenich, A.V.; Cramer, C.J.; Truhlar, D.G.
 J. Phys. Chem. B 2009, 113, 6378-6396.
 iSolventCode=           1
 Solvent: water                                                           
 
 vradii
            1           2           3           4           5           6
    1   1.2000000   1.8500000   1.8500000   1.2000000   1.8500000   1.2000000
            7           8           9          10          11          12
    1   1.8500000   1.2000000   1.8500000   1.8500000   1.2000000   1.5200000
           13
    1   1.2000000
 -------------------------------------------------------
 OpenMP BLAS3 based DFT computing Module                
 Release: version 1.0, May 2013, Q-Chem Inc. Pittsburgh 
 -------------------------------------------------------
 A restricted SCF calculation will be
 performed using Roothaan-Hall, DIIS, GDM
 SCF converges when RMS gradient is below 1.0e-07
 ---------------------------------------
  Cycle       Energy         DIIS error
 ---------------------------------------
    1    -307.4457647970      3.81e-04  Roothaan Step
 ---------------------------------------
  Cycle       Energy         DIIS error
 ---------------------------------------
    1    -307.4598829274      4.27e-04  
    2    -307.4622894807      2.78e-04  Done DIIS. Switching to GDM
 ---------------------------------------
  Cycle       Energy        RMS Gradient
 ---------------------------------------
    1    -307.4622894807      5.83e-03   Normal BFGS step
    2    -307.4625940159      4.65e-03   Normal BFGS step
    3    -307.4630175564      5.76e-04   Normal BFGS step
    4    -307.4630235593      6.48e-04   Normal BFGS step
    5    -307.4630288911      1.54e-04   Normal BFGS step
    6    -307.4630290070      4.18e-05   Normal BFGS step
    7    -307.4630290408      2.41e-05   Normal BFGS step
    8    -307.4630290430      8.90e-06   Normal BFGS step
    9    -307.4630290434      3.25e-06   Normal BFGS step
   10    -307.4630290435      1.62e-06   Normal BFGS step
   11    -307.4630290435      5.19e-07   Normal BFGS step
   12    -307.4630290435      1.22e-07   Normal BFGS step
   13    -307.4630290435      2.28e-08  Convergence criterion met
 ---------------------------------------
 SCF time:   CPU 627.55s  wall 80.00s 
(3)  G-ENP(liq) elect-nuc-pol free energy of system     -307.463029044 a.u.
(4)  G-CDS(liq) cavity-dispersion-solvent structure 
     free energy                                                3.1923 kcal/mol
(6)  G-S(liq) free energy of system                     -307.457941788 a.u.
 SCF   energy in the final basis set =     -307.4579417876
 Total energy in the final basis set =     -307.4579417876
 
 --------------------------------------------------------------
 
                    Orbital Energies (a.u.)
 --------------------------------------------------------------
 
 Alpha MOs
 -- Occupied --
-19.3604 -10.4082 -10.3460 -10.3457 -10.3411 -10.3395 -10.3364  -1.1875
 -0.9819  -0.8736  -0.8620  -0.7387  -0.7172  -0.6533  -0.6062  -0.5739
 -0.5398  -0.5283  -0.5243  -0.4984  -0.4569  -0.4522  -0.4362  -0.3495
 -0.3195
 -- Virtual --
  0.0259   0.0365   0.0386   0.0565   0.0580   0.0606   0.0713   0.0882
  0.0887   0.0999   0.1171   0.1193   0.1319   0.1514   0.1587   0.1606
  0.1625   0.1638   0.1679   0.1730   0.1778   0.1835   0.1851   0.1881
  0.2007   0.2205   0.2232   0.2293   0.2476   0.2509   0.2684   0.2700
  0.2813   0.2850   0.3036   0.3340   0.3446   0.3499   0.3616   0.3677
  0.3708   0.3906   0.4203   0.4286   0.4366   0.4572   0.4710   0.5306
  0.5498   0.5504   0.5959   0.5981   0.6011   0.6067   0.6105   0.6155
  0.6198   0.6347   0.6610   0.6784   0.6829   0.6894   0.7017   0.7109
  0.7181   0.7346   0.7359   0.7384   0.7632   0.7754   0.7828   0.8024
  0.8128   0.8278   0.8338   0.8457   0.8556   0.8831   0.8870   0.8978
  0.9150   0.9202   0.9279   0.9411   1.0253   1.0373   1.0507   1.0614
  1.0992   1.1160   1.1187   1.1446   1.1642   1.1712   1.1943   1.2036
  1.2264   1.2484   1.2695   1.2887   1.3371   1.3569   1.3739   1.3751
  1.3866   1.3998   1.4062   1.4335   1.4416   1.4586   1.4632   1.4714
  1.5108   1.5446   1.5673   1.5769   1.5948   1.6280   1.6368   1.7054
  1.7700   1.7953   1.7997   1.8119   1.8663   1.9272   1.9750   1.9796
  2.0699   2.0789   2.0802   2.1003   2.2111   2.4181   2.4415   2.5017
  2.5528   2.5955   2.6230   2.6609   2.6690   2.7375   2.7805   2.7926
  2.7942   2.8109   2.8283   2.8284   2.8594   2.8610   2.8639   2.8884
  2.9078   2.9121   2.9251   2.9520   2.9531   2.9733   3.0153   3.0262
  3.0286   3.0533   3.0542   3.0820   3.1715   3.1825   3.1920   3.2002
  3.2265   3.2310   3.2349   3.2579   3.2603   3.3349   3.3410   3.3788
  3.3977   3.4009   3.4161   3.4291   3.4713   3.4742   3.4800   3.4803
  3.4966   3.5069   3.5136   3.5584   3.5803   3.5995   3.6452   3.6471
  3.6744   3.7623   3.7789   3.8110   3.8178   3.8216   3.8340   3.8587
  3.9208   3.9266   3.9284   3.9384   3.9487   3.9661   4.0132   4.0270
  4.0952   4.1129   4.1172   4.1364   4.1647   4.1895   4.2367   4.2816
  4.3388   4.3452   4.3641   4.4071   4.4484   4.4895   4.5161   4.5382
  4.5514   4.5606   4.5710   4.5754   4.5976   4.6601   4.7041   4.7719
  4.7797   4.8091   4.8207   5.0277   5.0476   5.1170   5.1483   5.1868
  5.1975   5.2136   5.3224   5.3422   5.3657   5.4140   5.5212   5.6746
  5.6835   5.7574   5.8116   5.8707   5.8903   5.9141   5.9285   6.2091
  6.3968   6.7428   6.8910   7.0593   7.2779   7.3656   7.4520   7.7406
  7.8342  24.1632  24.7832  24.8067  25.0561  25.0623  25.5424  50.6458
 --------------------------------------------------------------
 
          Ground-State Mulliken Net Atomic Charges

     Atom                 Charge (a.u.)
  ----------------------------------------
      1 H                     0.281676
      2 C                    -0.191759
      3 C                    -0.481085
      4 H                     0.264761
      5 C                    -0.188022
      6 H                     0.282230
      7 C                    -0.303935
      8 H                     0.270868
      9 C                    -0.113299
     10 C                    -0.021120
     11 H                     0.257338
     12 O                    -0.404001
     13 H                     0.346349
  ----------------------------------------
  Sum of atomic charges =     0.000000

 -----------------------------------------------------------------
                    Cartesian Multipole Moments
 -----------------------------------------------------------------
    Charge (ESU x 10^10)
                -0.0000
    Dipole Moment (Debye)
         X       0.1844      Y       0.1484      Z       1.9821
       Tot       1.9962
    Quadrupole Moments (Debye-Ang)
        XX     -38.0494     XY      -0.2848     YY     -45.8422
        XZ      -6.6659     YZ       2.2690     ZZ     -34.2801
    Octopole Moments (Debye-Ang^2)
       XXX      61.9042    XXY     -26.2395    XYY      20.6048
       YYY    -101.1402    XXZ      22.4052    XYZ      -5.2262
       YYZ       2.4002    XZZ      14.2378    YZZ     -25.0563
       ZZZ       1.8518
    Hexadecapole Moments (Debye-Ang^3)
      XXXX    -555.3163   XXXY      38.3152   XXYY    -134.9426
      XYYY      43.4837   YYYY    -205.5216   XXXZ     -74.0570
      XXYZ      15.6597   XYYZ      -4.0433   YYYZ      -8.2948
      XXZZ    -119.6387   XYZZ       9.6899   YYZZ     -84.9711
      XZZZ      -4.6955   YZZZ      -3.5376   ZZZZ    -265.9012
 -----------------------------------------------------------------
 Calculating analytic gradient of the SCF energy
 Gradient of CDS energy
            1           2           3           4           5           6
    1   0.0001033   0.0002496   0.0005289   0.0002067   0.0002453   0.0001019
    2   0.0000143   0.0000348   0.0000048   0.0000018  -0.0000307  -0.0000124
    3   0.0001797   0.0004430  -0.0000015  -0.0000011  -0.0004466  -0.0001805
            7           8           9          10          11          12
    1  -0.0002606  -0.0001524  -0.0062209  -0.0002185  -0.0000689   0.0058845
    2  -0.0000297  -0.0000124  -0.0000707   0.0000251   0.0000087   0.0000536
    3  -0.0003696  -0.0001492  -0.0001888   0.0003685   0.0001278  -0.0000008
           13
    1  -0.0003989
    2   0.0000128
    3   0.0002193
 Gradient of SCF Energy
            1           2           3           4           5           6
    1   0.0023183  -0.0019378  -0.0050447   0.0034477  -0.0033469   0.0016663
    2   0.0004481  -0.0004783  -0.0001087   0.0000214   0.0002644  -0.0002129
    3   0.0048736  -0.0058198  -0.0016162   0.0000642   0.0049254  -0.0028497
            7           8           9          10          11          12
    1   0.0063138   0.0006065   0.0020815   0.0015598  -0.0059016   0.0028570
    2   0.0001799  -0.0000787   0.0002652  -0.0006944   0.0005122  -0.0012071
    3   0.0026320  -0.0009765   0.0020741  -0.0101710   0.0080947  -0.0164182
           13
    1  -0.0046198
    2   0.0010889
    3   0.0151873
 Max gradient component =       1.642E-02
 RMS gradient           =       4.935E-03
 Computing fast CPCM-SWIG gradient
 Updating gradient with PCM contributions...
 -- total gradient after adding PCM contribution --
---------------------------------------------------
  Atom         X              Y              Z     
---------------------------------------------------
   1      -0.000007       0.000065       0.000046
   2       0.000040      -0.000078      -0.000083
   3       0.000043       0.000016       0.000103
   4      -0.000019      -0.000010       0.000017
   5      -0.000108       0.000002      -0.000052
   6      -0.000004      -0.000012       0.000017
   7       0.000214      -0.000016      -0.000072
   8      -0.000029      -0.000012       0.000019
   9      -0.000262       0.000016       0.000115
  10      -0.000008       0.000016      -0.000049
  11       0.000004       0.000003      -0.000006
  12       0.000137       0.000013      -0.000032
  13      -0.000002      -0.000003      -0.000022
---------------------------------------------------
 Number of fixed atoms: 0
 Gradient time:  CPU 138.45 s  wall 19.74 s
 ----------------------------------------------------------------
             Standard Nuclear Orientation (Angstroms)
    I     Atom           X                Y                Z
 ----------------------------------------------------------------
    1      H       1.1047836344     0.9033962068     2.1250145854
    2      C       0.5670162773     0.8308412759     1.1892824583
    3      C       1.2625685887     0.7488710411    -0.0096736849
    4      H       2.3436953030     0.7581839072    -0.0152055982
    5      C       0.5552246068     0.6544687572    -1.2026534696
    6      H       1.0860429895     0.5899063224    -2.1430175011
    7      C      -0.8314541116     0.6417541604    -1.2033120223
    8      H      -1.3912243979     0.5684798649    -2.1259694812
    9      C      -1.5137173589     0.7246646210     0.0035742645
   10      C      -0.8210916620     0.8191573225     1.2031540196
   11      H      -1.3693810719     0.8819328264     2.1348347953
   12      O      -2.8881561630     0.7088040416    -0.0411343372
   13      H      -3.2385630344     0.7724179525     0.8552059713
 ----------------------------------------------------------------
 Nuclear Repulsion Energy =         271.93689021 hartrees
 There are       25 alpha and       25 beta electrons
 Discretize the solute cavity surface with Lebedev spheres
	Using 110 Lebedev grid points for each H atom
	Using 194 Lebedev grid points for other atoms
	Atomic van der Waals radii will be scaled by 1.20
 Remove points where switching function is < 1.0e-08
 Keep 990 surface tesserae and discard 1028 interior tesserae
 Molecular Surface Area = 121.300 Angst**2

                       Distance Matrix (Angstroms)
             H (  1)   C (  2)   C (  3)   H (  4)   C (  5)   H (  6)
   C (  2)  1.081690
   C (  3)  2.146082  1.388527
   H (  4)  2.477202  2.147710  1.081181
   C (  5)  3.381916  2.398459  1.390125  2.149283
   H (  6)  4.279571  3.381074  2.146529  2.477416  1.081768
   C (  7)  3.859434  2.777766  2.412712  3.392157  1.386737  2.136008
   H (  8)  4.940960  3.859331  3.399098  4.294291  2.156054  2.477419
   C (  9)  3.374759  2.397213  2.776423  3.857604  2.395920  3.374132
   C ( 10)  2.136801  1.388226  2.411956  3.391754  2.776559  3.858313
   H ( 11)  2.474277  2.155531  3.397614  4.292426  3.859362  4.941094
   O ( 12)  4.546827  3.669746  4.151037  5.232149  3.634412  4.497367
   H ( 13)  4.527055  3.820661  4.583531  5.649728  4.317583  5.265441
             C (  7)   H (  8)   C (  9)   C ( 10)   H ( 11)   O ( 12)
   H (  8)  1.081669
   C (  9)  1.388860  2.138774
   C ( 10)  2.413018  3.386880  1.388399
   H ( 11)  3.389731  4.272374  2.141924  1.082862
   O ( 12)  2.363298  2.570415  1.375257  2.415199  2.659228
   H ( 13)  3.169975  3.513070  1.924227  2.442830  2.267881  0.964499

 
 Requested basis set is 6-311++G(2df,2p)
 There are 92 shells and 298 basis functions
 A cutoff of  1.0D-12 yielded   4049 shell pairs
 There are     43165 function pairs (     54026 Cartesian)
 Smallest overlap matrix eigenvalue = 9.65E-07
 Linear dependence detected in AO basis
 Tighter screening thresholds may be required for diffuse basis sets
 Use S2THRESH > 14 and THRESH = 14 in case of SCF convergence issues
 Number of orthogonalized atomic orbitals = 297
 Maximum deviation from orthogonality = 2.194E-11
 Guess MOs from SCF MO coefficient file

 -----------------------------------------------------------------------
  General SCF calculation program by
  Eric Jon Sundstrom, Paul Horn, Yuezhi Mao, Dmitri Zuev, Alec White,
  David Stuck, Shaama M.S., Shane Yost, Joonho Lee, David Small,
  Daniel Levine, Susi Lehtola, Hugh Burton, Evgeny Epifanovsky,
  Bang C. Huynh
 -----------------------------------------------------------------------
 Exchange:     0.1500 Hartree-Fock + 1.0000 wB97M-V + LR-HF
 Correlation:  1.0000 wB97M-V
 Using SG-2 standard quadrature grid
 Nonlocal Correlation:  VV10 with C = 0.0100 and b = 6.00 and scale = 1.00000
 Grid used for NLC:  SG-1 standard quadrature
 
 Citation of the SMD model:
 Marenich, A.V.; Cramer, C.J.; Truhlar, D.G.
 J. Phys. Chem. B 2009, 113, 6378-6396.
 iSolventCode=           1
 Solvent: water                                                           
 
 vradii
            1           2           3           4           5           6
    1   1.2000000   1.8500000   1.8500000   1.2000000   1.8500000   1.2000000
            7           8           9          10          11          12
    1   1.8500000   1.2000000   1.8500000   1.8500000   1.2000000   1.5200000
           13
    1   1.2000000
 -------------------------------------------------------
 OpenMP BLAS3 based DFT computing Module                
 Release: version 1.0, May 2013, Q-Chem Inc. Pittsburgh 
 -------------------------------------------------------
 A restricted SCF calculation will be
 performed using Roothaan-Hall, DIIS, GDM
 SCF converges when RMS gradient is below 1.0e-07
 ---------------------------------------
  Cycle       Energy         DIIS error
 ---------------------------------------
    1    -307.4457666765      3.81e-04  Roothaan Step
 ---------------------------------------
  Cycle       Energy         DIIS error
 ---------------------------------------
    1    -307.4598829429      4.27e-04  
    2    -307.4622894190      2.78e-04  Done DIIS. Switching to GDM
 ---------------------------------------
  Cycle       Energy        RMS Gradient
 ---------------------------------------
    1    -307.4622894190      5.83e-03   Normal BFGS step
    2    -307.4625937485      4.70e-03   Normal BFGS step
    3    -307.4630175412      5.76e-04   Normal BFGS step
    4    -307.4630235504      6.48e-04   Normal BFGS step
    5    -307.4630288777      1.54e-04   Normal BFGS step
    6    -307.4630289936      4.21e-05   Normal BFGS step
    7    -307.4630290275      2.41e-05   Normal BFGS step
    8    -307.4630290297      8.95e-06   Normal BFGS step
    9    -307.4630290301      3.24e-06   Normal BFGS step
   10    -307.4630290302      1.62e-06   Normal BFGS step
   11    -307.4630290302      5.19e-07   Normal BFGS step
   12    -307.4630290302      1.22e-07   Normal BFGS step
   13    -307.4630290302      2.28e-08  Convergence criterion met
 ---------------------------------------
 SCF time:   CPU 629.59s  wall 81.00s 
(3)  G-ENP(liq) elect-nuc-pol free energy of system     -307.463029030 a.u.
(4)  G-CDS(liq) cavity-dispersion-solvent structure 
     free energy                                                3.1923 kcal/mol
(6)  G-S(liq) free energy of system                     -307.457941828 a.u.
 SCF   energy in the final basis set =     -307.4579418277
 Total energy in the final basis set =     -307.4579418277
 
 --------------------------------------------------------------
 
                    Orbital Energies (a.u.)
 --------------------------------------------------------------
 
 Alpha MOs
 -- Occupied --
-19.3604 -10.4082 -10.3460 -10.3457 -10.3411 -10.3395 -10.3364  -1.1875
 -0.9819  -0.8736  -0.8620  -0.7387  -0.7172  -0.6533  -0.6062  -0.5739
 -0.5398  -0.5283  -0.5243  -0.4984  -0.4569  -0.4522  -0.4362  -0.3495
 -0.3195
 -- Virtual --
  0.0259   0.0365   0.0386   0.0565   0.0580   0.0606   0.0713   0.0882
  0.0887   0.0999   0.1171   0.1193   0.1319   0.1514   0.1587   0.1606
  0.1625   0.1638   0.1679   0.1730   0.1778   0.1835   0.1851   0.1881
  0.2007   0.2205   0.2232   0.2293   0.2476   0.2509   0.2684   0.2700
  0.2813   0.2850   0.3036   0.3340   0.3446   0.3499   0.3616   0.3677
  0.3708   0.3906   0.4203   0.4286   0.4366   0.4572   0.4710   0.5306
  0.5498   0.5504   0.5958   0.5981   0.6011   0.6067   0.6105   0.6155
  0.6198   0.6347   0.6610   0.6784   0.6829   0.6894   0.7017   0.7109
  0.7181   0.7346   0.7359   0.7384   0.7632   0.7754   0.7828   0.8024
  0.8128   0.8278   0.8338   0.8457   0.8556   0.8831   0.8870   0.8978
  0.9150   0.9202   0.9279   0.9411   1.0253   1.0373   1.0507   1.0614
  1.0992   1.1160   1.1187   1.1446   1.1642   1.1712   1.1943   1.2036
  1.2264   1.2484   1.2695   1.2887   1.3371   1.3569   1.3739   1.3751
  1.3866   1.3998   1.4062   1.4335   1.4416   1.4586   1.4632   1.4714
  1.5108   1.5446   1.5674   1.5769   1.5948   1.6280   1.6368   1.7054
  1.7700   1.7954   1.7997   1.8119   1.8663   1.9272   1.9750   1.9796
  2.0699   2.0790   2.0802   2.1003   2.2111   2.4181   2.4415   2.5017
  2.5528   2.5954   2.6230   2.6609   2.6690   2.7375   2.7805   2.7926
  2.7942   2.8109   2.8283   2.8285   2.8594   2.8610   2.8639   2.8884
  2.9078   2.9121   2.9251   2.9520   2.9532   2.9733   3.0153   3.0262
  3.0286   3.0533   3.0542   3.0820   3.1715   3.1825   3.1920   3.2002
  3.2265   3.2310   3.2349   3.2579   3.2603   3.3349   3.3410   3.3788
  3.3977   3.4009   3.4161   3.4291   3.4713   3.4742   3.4800   3.4804
  3.4966   3.5069   3.5136   3.5585   3.5803   3.5995   3.6452   3.6471
  3.6743   3.7623   3.7789   3.8110   3.8178   3.8216   3.8340   3.8587
  3.9209   3.9266   3.9284   3.9384   3.9487   3.9661   4.0132   4.0270
  4.0952   4.1129   4.1172   4.1365   4.1647   4.1896   4.2367   4.2816
  4.3388   4.3452   4.3641   4.4071   4.4485   4.4895   4.5161   4.5382
  4.5514   4.5607   4.5710   4.5754   4.5976   4.6602   4.7042   4.7720
  4.7797   4.8091   4.8208   5.0277   5.0477   5.1170   5.1483   5.1869
  5.1976   5.2136   5.3224   5.3422   5.3657   5.4140   5.5213   5.6746
  5.6835   5.7574   5.8117   5.8707   5.8904   5.9141   5.9285   6.2092
  6.3968   6.7428   6.8910   7.0593   7.2779   7.3656   7.4520   7.7406
  7.8342  24.1633  24.7833  24.8068  25.0562  25.0623  25.5424  50.6458
 --------------------------------------------------------------
 
          Ground-State Mulliken Net Atomic Charges

     Atom                 Charge (a.u.)
  ----------------------------------------
      1 H                     0.281698
      2 C                    -0.191803
      3 C                    -0.481042
      4 H                     0.264759
      5 C                    -0.188003
      6 H                     0.282229
      7 C                    -0.303973
      8 H                     0.270868
      9 C                    -0.113274
     10 C                    -0.021139
     11 H                     0.257333
     12 O                    -0.404002
     13 H                     0.346349
  ----------------------------------------
  Sum of atomic charges =     0.000000

 -----------------------------------------------------------------
                    Cartesian Multipole Moments
 -----------------------------------------------------------------
    Charge (ESU x 10^10)
                -0.0000
    Dipole Moment (Debye)
         X       0.1845      Y       0.1466      Z       1.9823
       Tot       1.9962
    Quadrupole Moments (Debye-Ang)
        XX     -38.0492     XY      -0.2871     YY     -45.8454
        XZ      -6.6656     YZ       2.2646     ZZ     -34.2796
    Octopole Moments (Debye-Ang^2)
       XXX      61.9049    XXY     -26.2407    XYY      20.6005
       YYY    -101.1417    XXZ      22.4058    XYZ      -5.2316
       YYZ       2.3925    XZZ      14.2387    YZZ     -25.0652
       ZZZ       1.8542
    Hexadecapole Moments (Debye-Ang^3)
      XXXX    -555.3156   XXXY      38.3158   XXYY    -134.9450
      XYYY      43.4812   YYYY    -205.5163   XXXZ     -74.0553
      XXYZ      15.6557   XYYZ      -4.0532   YYYZ      -8.2988
      XXZZ    -119.6370   XYZZ       9.6783   YYZZ     -84.9870
      XZZZ      -4.6924   YZZZ      -3.5530   ZZZZ    -265.8943
 -----------------------------------------------------------------
 Calculating analytic gradient of the SCF energy
 Gradient of CDS energy
            1           2           3           4           5           6
    1   0.0001032   0.0002497   0.0005289   0.0002067   0.0002453   0.0001019
    2   0.0000139   0.0000352   0.0000048   0.0000018  -0.0000307  -0.0000124
    3   0.0001796   0.0004431  -0.0000015  -0.0000011  -0.0004466  -0.0001805
            7           8           9          10          11          12
    1  -0.0002606  -0.0001524  -0.0062209  -0.0002185  -0.0000689   0.0058845
    2  -0.0000297  -0.0000124  -0.0000707   0.0000251   0.0000087   0.0000536
    3  -0.0003696  -0.0001492  -0.0001888   0.0003685   0.0001278  -0.0000008
           13
    1  -0.0003989
    2   0.0000128
    3   0.0002193
 Gradient of SCF Energy
            1           2           3           4           5           6
    1   0.0022792  -0.0019015  -0.0050408   0.0034478  -0.0033478   0.0016665
    2   0.0003289  -0.0003164  -0.0001214   0.0000373   0.0002411  -0.0002125
    3   0.0047990  -0.0057521  -0.0016112   0.0000628   0.0049276  -0.0028493
            7           8           9          10          11          12
    1   0.0063138   0.0006065   0.0020814   0.0015593  -0.0059017   0.0028571
    2   0.0001750  -0.0000761   0.0002407  -0.0007064   0.0005279  -0.0012067
    3   0.0026325  -0.0009765   0.0020753  -0.0101705   0.0080933  -0.0164181
           13
    1  -0.0046197
    2   0.0010887
    3   0.0151873
 Max gradient component =       1.642E-02
 RMS gradient           =       4.930E-03
 Computing fast CPCM-SWIG gradient
 Updating gradient with PCM contributions...
 -- total gradient after adding PCM contribution --
---------------------------------------------------
  Atom         X              Y              Z     
---------------------------------------------------
   1      -0.000047      -0.000043      -0.000030
   2       0.000077       0.000079      -0.000015
   3       0.000047      -0.000001       0.000109
   4      -0.000019       0.000006       0.000015
   5      -0.000109      -0.000025      -0.000049
   6      -0.000004      -0.000012       0.000017
   7       0.000214      -0.000012      -0.000072
   8      -0.000029      -0.000009       0.000019
   9      -0.000262      -0.000012       0.000116
  10      -0.000008      -0.000001      -0.000048
  11       0.000004       0.000019      -0.000007
  12       0.000137       0.000014      -0.000032
  13      -0.000002      -0.000003      -0.000022
---------------------------------------------------
 Number of fixed atoms: 0
 Gradient time:  CPU 138.13 s  wall 19.62 s
 ----------------------------------------------------------------
             Standard Nuclear Orientation (Angstroms)
    I     Atom           X                Y                Z
 ----------------------------------------------------------------
    1      H       1.1047836344     0.9043962068     2.1260145854
    2      C       0.5670162773     0.8308412759     1.1892824583
    3      C       1.2625685887     0.7488710411    -0.0096736849
[...]
 Raman Active:       YES                    YES                    YES
               X      Y      Z        X      Y      Z        X      Y      Z
 H         -0.002  0.053 -0.003   -0.004 -0.010  0.003   -0.217  0.032  0.096
 C         -0.001 -0.003  0.000   -0.002 -0.003  0.001   -0.092  0.014  0.027
 C         -0.002  0.259 -0.018   -0.000 -0.003  0.002   -0.000  0.005  0.083
 H         -0.005  0.576 -0.041   -0.000 -0.001  0.003   -0.000  0.008  0.157
 C          0.001 -0.002  0.000    0.001  0.009 -0.000    0.090 -0.011  0.030
 H          0.001  0.054 -0.003    0.004  0.032 -0.000    0.213 -0.023  0.099
 C          0.003 -0.255  0.017    0.001  0.018 -0.005    0.049 -0.001 -0.189
 H          0.004 -0.343  0.023    0.003  0.058 -0.010    0.203  0.002 -0.283
 C          0.001 -0.139  0.009    0.000 -0.000 -0.004   -0.003 -0.011 -0.197
 C          0.002 -0.258  0.017   -0.001 -0.012 -0.003   -0.052 -0.025 -0.188
 H          0.000 -0.349  0.023   -0.006 -0.035 -0.004   -0.186 -0.046 -0.263
 O         -0.003  0.277 -0.018    0.000 -0.071  0.011   -0.020  0.026  0.307
 H          0.001  0.352 -0.022   -0.002  0.992 -0.064    0.409 -0.040  0.480
 TransDip   0.001  0.024 -0.001    0.001  0.459 -0.035    0.126 -0.019 -0.007

 Mode:                 4                      5                      6
 Frequency:       421.57                 521.78                 531.80
 Force Cnst:      0.3120                 0.4436                 1.2165
 Red. Mass:       2.9794                 2.7654                 7.3005
 IR Active:          YES                    YES                    YES
 IR Intens:        0.325                 23.274                  5.665
 Raman Active:       YES                    YES                    YES
               X      Y      Z        X      Y      Z        X      Y      Z
 H          0.005  0.468 -0.039    0.006 -0.504  0.036    0.065  0.013  0.036
 C          0.002  0.209 -0.017    0.000 -0.127  0.010   -0.133  0.013  0.152
 C         -0.000 -0.001 -0.004   -0.005  0.187 -0.014   -0.367 -0.007  0.002
 H         -0.000  0.002 -0.007   -0.005  0.208 -0.015   -0.368 -0.008  0.005
 C         -0.002 -0.210  0.014    0.000 -0.126  0.008   -0.131 -0.010 -0.156
 H         -0.006 -0.467  0.030    0.004 -0.506  0.036    0.068  0.009 -0.042
 C         -0.004  0.212 -0.007   -0.001  0.010 -0.001   -0.063 -0.013 -0.166
 H         -0.013  0.432 -0.019    0.000 -0.377  0.029   -0.326  0.004 -0.005
 C          0.000  0.002  0.009   -0.001  0.288 -0.020    0.272 -0.004  0.000
 C          0.004 -0.211  0.024   -0.001  0.010  0.001   -0.067  0.012  0.167
 H          0.011 -0.434  0.043    0.001 -0.373  0.028   -0.312  0.004  0.022
 O          0.001  0.003 -0.014    0.004 -0.080  0.005    0.399  0.005  0.000
 H         -0.016 -0.059 -0.016    0.003 -0.057  0.003    0.365  0.001 -0.019
 TransDip  -0.007 -0.017  0.002   -0.000 -0.154  0.012   -0.076  0.000 -0.005

 Mode:                 7                      8                      9
 Frequency:       625.31                 715.04                 784.35
 Force Cnst:      1.4767                 0.5713                 0.6209
 Red. Mass:       6.4101                 1.8967                 1.7130
 IR Active:          YES                    YES                    YES
 IR Intens:        0.928                 62.393                112.889
 Raman Active:       YES                    YES                    YES
               X      Y      Z        X      Y      Z        X      Y      Z
 H          0.158  0.024  0.312   -0.000  0.055 -0.003   -0.006  0.535 -0.039
 C          0.273  0.021  0.245    0.002 -0.150  0.012   -0.000 -0.016  0.001
 C         -0.003  0.009  0.128   -0.001  0.105 -0.007    0.001 -0.117  0.008
 H         -0.005 -0.026 -0.321   -0.006  0.582 -0.042   -0.005  0.606 -0.044
 C         -0.271  0.016  0.242    0.001 -0.150  0.011    0.000 -0.012  0.001
 H         -0.148  0.021  0.313    0.000  0.049 -0.003   -0.005  0.513 -0.038
 C         -0.246 -0.016 -0.176   -0.001  0.080 -0.007    0.001 -0.076  0.006
 H         -0.123 -0.023 -0.247   -0.005  0.528 -0.040   -0.001  0.060 -0.004
 C          0.002 -0.007 -0.119    0.001 -0.109  0.008   -0.002  0.191 -0.014
 C          0.245 -0.011 -0.174   -0.000  0.078 -0.006    0.001 -0.079  0.006
 H          0.116 -0.020 -0.246   -0.003  0.539 -0.039   -0.000  0.091 -0.007
 O          0.002 -0.007 -0.091    0.000 -0.000  0.000    0.001 -0.030  0.002
 H         -0.040 -0.012 -0.107   -0.001 -0.004  0.000    0.001 -0.044  0.003
 TransDip  -0.015 -0.003 -0.027   -0.002  0.252 -0.019   -0.004  0.339 -0.024

 Mode:                10                     11                     12
 Frequency:       822.51                 852.02                 924.88
 Force Cnst:      2.3674                 0.5342                 0.7509
 Red. Mass:       5.9393                 1.2490                 1.4899
 IR Active:          YES                    YES                    YES
 IR Intens:       70.182                  0.048                 14.067
 Raman Active:       YES                    YES                    YES
               X      Y      Z        X      Y      Z        X      Y      Z
 H         -0.472 -0.008 -0.086   -0.003  0.377 -0.027    0.000 -0.079  0.006
 C         -0.164 -0.021 -0.256    0.001 -0.057  0.005   -0.000  0.019 -0.001
 C          0.187  0.002  0.000   -0.001  0.003 -0.000   -0.001  0.090 -0.006
 H          0.182 -0.001 -0.003   -0.001 -0.028  0.002    0.004 -0.555  0.041
 C         -0.166  0.018  0.259   -0.000  0.061 -0.005    0.000  0.009 -0.001
 H         -0.470 -0.004  0.095    0.005 -0.403  0.030    0.001 -0.024  0.002
 C         -0.095  0.014  0.182   -0.000  0.084 -0.007    0.001 -0.113  0.008
 H         -0.024  0.008  0.151    0.005 -0.565  0.042   -0.006  0.572 -0.042
 C         -0.039 -0.001  0.001    0.000 -0.001  0.000   -0.001  0.096 -0.007
 C         -0.096 -0.015 -0.187    0.001 -0.088  0.007    0.001 -0.112  0.008
 H         -0.021 -0.005 -0.153   -0.004  0.590 -0.042   -0.002  0.556 -0.040
 O          0.318  0.003  0.003   -0.000 -0.002  0.000    0.000 -0.019  0.001
 H          0.212 -0.002 -0.045   -0.002  0.028 -0.002   -0.000 -0.027  0.002
 TransDip  -0.268 -0.003  0.001    0.001  0.007 -0.000   -0.001  0.120 -0.009

 Mode:                13                     14                     15
 Frequency:      1003.69                1016.57                1025.56
 Force Cnst:      0.8025                 3.4987                 0.8144
 Red. Mass:       1.3521                 5.7462                 1.3142
 IR Active:          YES                    YES                    YES
 IR Intens:        0.001                  0.381                  0.457
 Raman Active:       YES                    YES                    YES
               X      Y      Z        X      Y      Z        X      Y      Z
 H         -0.006  0.601 -0.043   -0.065  0.016  0.124    0.006 -0.499  0.035
 C          0.001 -0.106  0.008    0.028  0.005  0.086   -0.001  0.083 -0.007
 C          0.003  0.008 -0.001   -0.326 -0.004 -0.000    0.001 -0.100  0.007
 H          0.003 -0.044  0.002   -0.337  0.003 -0.006   -0.005  0.563 -0.039
 C         -0.001  0.097 -0.007    0.030 -0.002 -0.082   -0.001  0.092 -0.006
 H          0.003 -0.551  0.039   -0.062 -0.028 -0.119    0.004 -0.553  0.041
 C         -0.000 -0.073  0.004    0.162  0.026  0.359   -0.000 -0.038  0.002
 H         -0.005  0.388 -0.031    0.017  0.047  0.462   -0.002  0.238 -0.019
 C          0.000  0.002 -0.000   -0.027 -0.001 -0.004    0.000  0.001 -0.000
 C         -0.002  0.072 -0.003    0.161 -0.022 -0.356    0.000 -0.030  0.003
 H         -0.001 -0.382  0.029    0.044 -0.041 -0.440   -0.000  0.194 -0.012
 O         -0.000 -0.000 -0.000    0.001 -0.000 -0.004    0.000 -0.002  0.000
 H          0.001 -0.001  0.000    0.050 -0.001  0.017   -0.000 -0.003  0.000
 TransDip  -0.000  0.001 -0.001    0.019  0.000  0.005   -0.000  0.022 -0.001

 Mode:                16                     17                     18
 Frequency:      1050.66                1095.73                1154.05
 Force Cnst:      1.3406                 1.0332                 0.9316
 Red. Mass:       2.0612                 1.4606                 1.1873
 IR Active:          YES                    YES                    YES
 IR Intens:       22.950                 25.294                 30.164
 Raman Active:       YES                    YES                    YES
               X      Y      Z        X      Y      Z        X      Y      Z
 H          0.319 -0.019 -0.367   -0.233  0.002  0.028    0.350 -0.010 -0.199
 C         -0.019 -0.013 -0.159   -0.053 -0.005 -0.066    0.045 -0.001 -0.023
 C         -0.169 -0.002 -0.010   -0.012  0.006  0.078   -0.004  0.006  0.075
 H         -0.186 -0.006 -0.045   -0.011  0.036  0.503   -0.001  0.048  0.675
 C         -0.027  0.013  0.171    0.054 -0.002 -0.035   -0.041 -0.004 -0.043
 H          0.264  0.026  0.349    0.330  0.011  0.112   -0.387 -0.020 -0.240
 C          0.069 -0.002 -0.028   -0.089 -0.005 -0.050    0.009 -0.002 -0.027
 H          0.456 -0.013 -0.253   -0.473  0.008  0.171    0.246 -0.011 -0.171
 C          0.014 -0.000 -0.004    0.001  0.003  0.042   -0.025  0.003  0.037
 C          0.056  0.004  0.042    0.097 -0.002 -0.045   -0.004 -0.002 -0.026
 H          0.350  0.013  0.208    0.471  0.011  0.161   -0.125 -0.009 -0.097
 O         -0.020 -0.000 -0.003    0.005 -0.000 -0.001    0.022  0.001  0.013
 H          0.024  0.003  0.015   -0.151 -0.005 -0.064   -0.191 -0.008 -0.072
 TransDip   0.153  0.001 -0.009   -0.065  0.010  0.147   -0.166 -0.006 -0.058

 Mode:                19                     20                     21
 Frequency:      1177.27                1189.66                1251.94
 Force Cnst:      0.9272                 1.2422                 2.5663
 Red. Mass:       1.1355                 1.4897                 2.7790
 IR Active:          YES                    YES                    YES
 IR Intens:       50.914                295.074                102.841
 Raman Active:       YES                    YES                    YES
               X      Y      Z        X      Y      Z        X      Y      Z
 H          0.472 -0.017 -0.292    0.011 -0.002 -0.034   -0.505  0.006  0.157
 C          0.035 -0.003 -0.042   -0.039 -0.001 -0.003   -0.039 -0.007 -0.097
 C          0.011  0.001  0.006    0.010  0.000  0.001    0.001  0.002  0.029
 H          0.010  0.006  0.080    0.010  0.021  0.290   -0.006 -0.006 -0.093
 C          0.021  0.004  0.045   -0.028  0.002  0.029   -0.092  0.002  0.039
 H          0.291  0.017  0.198   -0.417 -0.016 -0.185   -0.201 -0.002 -0.013
 C         -0.029  0.001  0.022   -0.001  0.003  0.039    0.082 -0.003 -0.054
 H         -0.440  0.016  0.269   -0.136  0.008  0.128   -0.008  0.001  0.012
 C          0.041 -0.001 -0.013    0.110 -0.006 -0.092    0.306  0.011  0.108
 C         -0.043 -0.002 -0.015    0.037  0.004  0.047    0.040 -0.002 -0.032
 H         -0.460 -0.021 -0.255    0.189  0.013  0.136   -0.357 -0.024 -0.284
 O         -0.024 -0.001 -0.004   -0.089 -0.005 -0.054   -0.122  0.001  0.028
 H          0.074  0.002  0.035    0.710  0.028  0.267   -0.536 -0.017 -0.136
 TransDip   0.228  0.001 -0.017    0.549  0.008  0.037    0.323 -0.000 -0.034

 Mode:                22                     23                     24
 Frequency:      1329.58                1366.53                1505.49
 Force Cnst:      3.6862                 1.4273                 3.1977
 Red. Mass:       3.5391                 1.2973                 2.3946
 IR Active:          YES                    YES                    YES
 IR Intens:       14.165                 34.645                 49.144
 Raman Active:       YES                    YES                    YES
               X      Y      Z        X      Y      Z        X      Y      Z
 H          0.014  0.001  0.010   -0.327  0.010  0.189   -0.344  0.019  0.305
 C          0.162 -0.004 -0.077    0.063 -0.002 -0.036    0.155  0.001  0.001
 C          0.001  0.017  0.225    0.006 -0.002 -0.030   -0.038 -0.012 -0.164
 H         -0.001 -0.028 -0.400    0.009  0.023  0.316   -0.043  0.043  0.590
 C         -0.152 -0.008 -0.091   -0.057 -0.004 -0.055   -0.092  0.005  0.079
 H          0.059  0.002  0.027    0.436  0.020  0.220    0.025  0.013  0.172
 C          0.188 -0.005 -0.089   -0.048  0.002  0.032    0.150  0.000 -0.012
 H         -0.304  0.012  0.204    0.342 -0.011 -0.200   -0.304  0.017  0.275
 C         -0.030  0.009  0.133   -0.016  0.006  0.086   -0.047 -0.011 -0.143
 C         -0.210 -0.009 -0.095    0.017  0.001  0.014   -0.078  0.004  0.069
 H          0.418  0.023  0.274   -0.302 -0.013 -0.165    0.022  0.011  0.151
 O         -0.009 -0.002 -0.022   -0.012 -0.003 -0.040    0.021  0.003  0.039
 H          0.440  0.018  0.162    0.442  0.014  0.145   -0.285 -0.009 -0.089
 TransDip   0.086 -0.005 -0.084    0.185  0.004  0.036   -0.223  0.000  0.029

 Mode:                25                     26                     27
 Frequency:      1529.66                1662.13                1674.96
 Force Cnst:      3.2490                10.1454                10.1342
 Red. Mass:       2.3567                 6.2329                 6.1310
 IR Active:          YES                    YES                    YES
 IR Intens:      108.303                132.376                 26.728
 Raman Active:       YES                    YES                    YES
               X      Y      Z        X      Y      Z        X      Y      Z
 H          0.365 -0.004 -0.105   -0.142  0.016  0.235    0.314 -0.001 -0.064
 C         -0.067  0.008  0.124    0.250  0.002 -0.007   -0.193  0.014  0.212
 C          0.102 -0.004 -0.066   -0.143 -0.011 -0.127    0.050 -0.022 -0.309
 H          0.125  0.015  0.191   -0.163  0.008  0.133    0.061  0.022  0.304
 C         -0.136 -0.007 -0.078    0.325  0.014  0.156   -0.014  0.011  0.155
 H          0.441  0.022  0.245   -0.339 -0.019 -0.220   -0.158  0.006  0.096
 C         -0.033  0.007  0.104   -0.262 -0.002 -0.000    0.183 -0.015 -0.231
 H          0.302 -0.002 -0.071    0.124 -0.018 -0.251   -0.314  0.000  0.042
 C          0.157 -0.002 -0.049    0.178  0.012  0.136   -0.088  0.026  0.366
 C         -0.118 -0.008 -0.097   -0.321 -0.014 -0.152    0.042 -0.011 -0.161
 H          0.471  0.019  0.230    0.328  0.019  0.223    0.112 -0.010 -0.145
 O         -0.022  0.001  0.020   -0.012 -0.001 -0.012   -0.011 -0.004 -0.047
 H         -0.223 -0.006 -0.065    0.065  0.002  0.015    0.388  0.013  0.129
 TransDip   0.333  0.004  0.012    0.365  0.007  0.048   -0.089  0.010  0.139

 Mode:                28                     29                     30
 Frequency:      3186.18                3192.03                3200.11
 Force Cnst:      6.5051                 6.5320                 6.5894
 Red. Mass:       1.0876                 1.0881                 1.0921
 IR Active:          YES                    YES                    YES
 IR Intens:        7.849                  0.787                 17.071
 Raman Active:       YES                    YES                    YES
               X      Y      Z        X      Y      Z        X      Y      Z
 H         -0.263 -0.036 -0.461   -0.007 -0.001 -0.009    0.283  0.038  0.486
 C          0.021  0.003  0.040    0.002  0.000 -0.000   -0.027 -0.003 -0.041
 C         -0.023 -0.000 -0.000   -0.033 -0.000  0.002    0.041  0.001  0.002
 H          0.279  0.002 -0.001    0.391  0.003 -0.003   -0.473 -0.004 -0.000
 C          0.009 -0.001 -0.017    0.029 -0.004 -0.052    0.009 -0.001 -0.021
 H         -0.111  0.014  0.197   -0.341  0.042  0.603   -0.126  0.016  0.227
 C          0.003  0.001  0.007    0.017  0.003  0.032    0.018  0.003  0.033
 H         -0.049 -0.007 -0.084   -0.220 -0.030 -0.371   -0.224 -0.030 -0.379
 C          0.002  0.000  0.002   -0.000 -0.000 -0.002    0.003  0.000  0.000
 C          0.032 -0.004 -0.057   -0.018  0.002  0.031    0.021 -0.002 -0.033
 H         -0.377  0.045  0.654    0.207 -0.024 -0.358   -0.217  0.025  0.374
 O         -0.000 -0.000 -0.000    0.000  0.000  0.000   -0.000 -0.000 -0.000
 H         -0.005 -0.000  0.002    0.002  0.000 -0.002   -0.004 -0.000  0.002
 TransDip   0.090  0.000 -0.001   -0.003 -0.002 -0.028    0.103 -0.006 -0.083

 Mode:                31                     32                     33
 Frequency:      3206.96                3215.89                3817.07
 Force Cnst:      6.6366                 6.6954                 9.1525
 Red. Mass:       1.0952                 1.0988                 1.0662
 IR Active:          YES                    YES                    YES
 IR Intens:       24.086                 10.327                193.428
 Raman Active:       YES                    YES                    YES
               X      Y      Z        X      Y      Z        X      Y      Z
 H          0.232  0.032  0.404    0.206  0.029  0.362   -0.001 -0.000 -0.001
 C         -0.021 -0.003 -0.036   -0.017 -0.003 -0.034    0.000 -0.000 -0.000
 C         -0.026  0.000  0.003   -0.061 -0.001  0.000   -0.000 -0.000  0.000
 H          0.294  0.002 -0.005    0.673  0.006 -0.003    0.000 -0.000  0.000
 C          0.020 -0.002 -0.029   -0.021  0.003  0.039    0.000 -0.000 -0.000
 H         -0.197  0.023  0.341    0.237 -0.029 -0.423   -0.000  0.000  0.001
 C         -0.033 -0.004 -0.053    0.017  0.002  0.025   -0.001  0.000  0.001
 H          0.361  0.048  0.602   -0.169 -0.022 -0.279    0.000  0.000  0.001
 C         -0.001  0.000  0.003    0.002 -0.000 -0.001    0.001 -0.000 -0.002
 C          0.011 -0.001 -0.014    0.008 -0.001 -0.011   -0.001  0.000  0.001
 H         -0.098  0.011  0.165   -0.076  0.009  0.127    0.004 -0.000 -0.003
 O          0.000 -0.000 -0.000   -0.000 -0.000 -0.000    0.024 -0.004 -0.057
 H          0.001 -0.000  0.001   -0.002  0.000  0.001   -0.375  0.064  0.923
 TransDip  -0.075 -0.012 -0.138   -0.101  0.001  0.019   -0.307  0.021  0.322

 STANDARD THERMODYNAMIC QUANTITIES AT   298.15 K  AND     1.00 ATM

   This Molecule has  0 Imaginary Frequencies
   Zero point vibrational energy:       65.842 kcal/mol

   Atom    1 Element H  Has Mass    1.00783
   Atom    2 Element C  Has Mass   12.00000
   Atom    3 Element C  Has Mass   12.00000
   Atom    4 Element H  Has Mass    1.00783
   Atom    5 Element C  Has Mass   12.00000
   Atom    6 Element H  Has Mass    1.00783
   Atom    7 Element C  Has Mass   12.00000
   Atom    8 Element H  Has Mass    1.00783
   Atom    9 Element C  Has Mass   12.00000
   Atom   10 Element C  Has Mass   12.00000
   Atom   11 Element H  Has Mass    1.00783
   Atom   12 Element O  Has Mass   15.99491
   Atom   13 Element H  Has Mass    1.00783
   Molecular Mass:    94.041890 amu
   Principal axes and moments of inertia in amu*Bohr^2:
                             1           2           3
    Eigenvalues --      316.54282   684.81573  1001.35853
          X               0.99993     0.00739    -0.00905
          Y               0.00848     0.07354     0.99726
          Z              -0.00803     0.99727    -0.07347
   Rotational Symmetry Number is   1
   The Molecule is an Asymmetric Top
   Translational Enthalpy:        0.889 kcal/mol
   Rotational Enthalpy:           0.889 kcal/mol
   Vibrational Enthalpy:         67.499 kcal/mol
   gas constant (RT):             0.592 kcal/mol
   Translational Entropy:        39.535  cal/mol.K
   Rotational Entropy:           26.876  cal/mol.K
   Vibrational Entropy:           8.026  cal/mol.K

   Total Enthalpy:               69.869 kcal/mol
   Total Entropy:                74.437  cal/mol.K
 Total job time:  7983.56s(wall), 61048.69s(cpu) 
 Sat Apr 22 01:32:33 2023

        *************************************************************
        *                                                           *
        *  Thank you very much for using Q-Chem.  Have a nice day.  *
        *                                                           *
        *************************************************************


