
Running Job 1 of 1 Q_in.in
qchem Q_in.in_213521.0 /scratch/ari.fischer/qChem1472759.hpc-mn1/qchem213521/ 0
/usr/local/qchem-5.4.1/exe/qcprog.exe_s Q_in.in_213521.0 /scratch/ari.fischer/qChem1472759.hpc-mn1/qchem213521/
                  Welcome to Q-Chem
     A Quantum Leap Into The Future Of Chemistry


 Q-Chem 5.4, Q-Chem, Inc., Pleasanton, CA (2021)

 License issued to: Nanyang Technological University (site)

 E. Epifanovsky,  A. T. B. Gilbert,  Xintian Feng,  Joonho Lee,  Yuezhi Mao,  
 N. Mardirossian,  P. Pokhilko,  A. White,  M. Wormit,  M. P. Coons,  
 A. L. Dempwolff,  Zhengting Gan,  D. Hait,  P. R. Horn,  L. D. Jacobson,  
 I. Kaliman,  J. Kussmann,  A. W. Lange,  Ka Un Lao,  D. S. Levine,  Jie Liu,  
 S. C. McKenzie,  A. F. Morrison,  K. Nanda,  F. Plasser,  D. R. Rehn,  
 M. L. Vidal,  Zhi-Qiang You,  Ying Zhu,  B. Alam,  B. Albrecht,  
 A. Aldossary,  E. Alguire,  J. H. Andersen,  D. Barton,  K. Begam,  A. Behn,  
 Y. A. Bernard,  E. J. Berquist,  H. Burton,  A. Carreras,  K. Carter-Fenk,  
 R. Chakraborty,  A. D. Chien,  K. D. Closser,  V. Cofer-Shabica,  
 S. Dasgupta,  Jia Deng,  M. de Wergifosse,  M. Diedenhofen,  Hainam Do,  
 S. Ehlert,  Po-Tung Fang,  S. Fatehi,  Qingguo Feng,  T. Friedhoff,  
 J. Gayvert,  Qinghui Ge,  G. Gidofalvi,  M. Goldey,  J. Gomes,  
 C. Gonzalez-Espinoza,  S. Gulania,  A. Gunina,  M. W. D. Hanson-Heine,  
 P. H. P. Harbach,  A. W. Hauser,  M. F. Herbst,  M. Hernandez Vera,  
 M. Hodecker,  Z. C. Holden,  S. Houck,  Xunkun Huang,  Kerwin Hui,  
 B. C. Huynh,  M. Ivanov,  Hyunjun Ji,  Hanjie Jiang,  B. Kaduk,  S. Kaehler,  
 K. Khistyaev,  Jaehoon Kim,  P. Klunzinger,  Z. Koczor-Benda,  
 Joong Hoon Koh,  D. Kosenkov,  L. Koulias,  T. Kowalczyk,  C. M. Krauter,  
 K. Kue,  A. Kunitsa,  T. Kus,  A. Landau,  K. V. Lawler,  D. Lefrancois,  
 S. Lehtola,  Rain Li,  Yi-Pei Li,  Jiashu Liang,  M. Liebenthal,  
 Hung-Hsuan Lin,  You-Sheng Lin,  Fenglai Liu,  Kuan-Yu Liu,  
 M. Loipersberger,  A. Luenser,  A. Manjanath,  P. Manohar,  E. Mansoor,  
 S. F. Manzer,  Shan-Ping Mao,  A. V. Marenich,  T. Markovich,  S. Mason,  
 S. A. Maurer,  P. F. McLaughlin,  M. F. S. J. Menger,  J.-M. Mewes,  
 S. A. Mewes,  P. Morgante,  J. W. Mullinax,  K. J. Oosterbaan,  G. Paran,  
 Alexander C. Paul,  Suranjan K. Paul,  F. Pavosevic,  Zheng Pei,  S. Prager,  
 E. I. Proynov,  E. Ramos,  B. Rana,  A. E. Rask,  A. Rettig,  R. M. Richard,  
 F. Rob,  E. Rossomme,  T. Scheele,  M. Scheurer,  M. Schneider,  
 N. Sergueev,  S. M. Sharada,  W. Skomorowski,  D. W. Small,  C. J. Stein,  
 Yu-Chuan Su,  E. J. Sundstrom,  Zhen Tao,  J. Thirman,  T. Tsuchimochi,  
 N. M. Tubman,  S. P. Veccham,  O. Vydrov,  J. Wenzel,  J. Witte,  A. Yamada,  
 Kun Yao,  S. Yeganeh,  S. R. Yost,  A. Zech,  Igor Ying Zhang,  Xing Zhang,  
 Yu Zhang,  D. Zuev,  A. Aspuru-Guzik,  A. T. Bell,  N. A. Besley,  
 K. B. Bravaya,  B. R. Brooks,  D. Casanova,  Jeng-Da Chai,  S. Coriani,  
 C. J. Cramer,  A. E. DePrince, III,  R. A. DiStasio Jr.,  A. Dreuw,  
 B. D. Dunietz,  T. R. Furlani,  W. A. Goddard III,  S. Grimme,  
 S. Hammes-Schiffer,  T. Head-Gordon,  W. J. Hehre,  Chao-Ping Hsu,  
 T.-C. Jagau,  Yousung Jung,  A. Klamt,  Jing Kong,  D. S. Lambrecht,  
 WanZhen Liang,  N. J. Mayhall,  C. W. McCurdy,  J. B. Neaton,  
 C. Ochsenfeld,  J. A. Parkhill,  R. Peverati,  V. A. Rassolov,  Yihan Shao,  
 L. V. Slipchenko,  T. Stauch,  R. P. Steele,  J. E. Subotnik,  
 A. J. W. Thom,  A. Tkatchenko,  D. G. Truhlar,  T. Van Voorhis,  
 T. A. Wesolowski,  K. B. Whaley,  H. L. Woodcock III,  P. M. Zimmerman,  
 S. Faraji,  P. M. W. Gill,  M. Head-Gordon,  J. M. Herbert,  A. I. Krylov

 Additional authors for Version 5.4.1: 
 S. Kotaru,  Shaozhi Li,  Xiangyuan Li,  F. Matz,  A. Molle,  Haisheng Ren,  
 Yingli Su,  Hung-Yi Tsai,  C. Utku,  Fang Wang

 Contributors to earlier versions of Q-Chem not listed above: 
 R. D. Adamson,  B. Austin,  R. Baer,  J. Baker,  G. J. O. Beran,  
 K. Brandhorst,  S. T. Brown,  E. F. C. Byrd,  A. K. Chakraborty,  
 G. K. L. Chan,  Chun-Min Chang,  Yunqing Chen,  C.-L. Cheng,  
 Siu Hung Chien,  D. M. Chipman,  D. L. Crittenden,  H. Dachsel,  
 R. J. Doerksen,  A. D. Dutoi,  R. G. Edgar,  J. Fosso-Tande,  
 L. Fusti-Molnar,  D. Ghosh,  A. Ghysels,  A. Golubeva-Zadorozhnaya,  
 J. Gonthier,  M. S. Gordon,  S. R. Gwaltney,  G. Hawkins,  J. E. Herr,  
 A. Heyden,  S. Hirata,  E. G. Hohenstein,  G. Kedziora,  F. J. Keil,  
 C. Kelley,  Jihan Kim,  R. A. King,  R. Z. Khaliullin,  P. P. Korambath,  
 W. Kurlancheek,  A. Laurent,  A. M. Lee,  M. S. Lee,  S. V. Levchenko,  
 Ching Yeh Lin,  D. Liotard,  E. Livshits,  R. C. Lochan,  I. Lotan,  
 L. A. Martinez-Martinez,  P. E. Maslen,  N. Nair,  D. P. O'Neill,  
 D. Neuhauser,  E. Neuscamman,  C. M. Oana,  R. Olivares-Amaya,  R. Olson,  
 T. M. Perrine,  B. Peters,  P. A. Pieniazek,  A. Prociuk,  Y. M. Rhee,  
 J. Ritchie,  M. A. Rohrdanz,  E. Rosta,  N. J. Russ,  H. F. Schaefer III,  
 M. W. Schmidt,  N. E. Schultz,  S. Sharma,  N. Shenvi,  C. D. Sherrill,  
 A. C. Simmonett,  A. Sodt,  T. Stein,  D. Stuck,  K. S. Thanthiriwatte,  
 V. Vanovschi,  L. Vogt,  Tao Wang,  A. Warshel,  M. A. Watson,  
 C. F. Williams,  Q. Wu,  X. Xu,  Jun Yang,  W. Zhang,  Yan Zhao

 Please cite Q-Chem as follows:
 Y. Shao et al., Mol. Phys. 113, 184-215 (2015)
 DOI: 10.1080/00268976.2014.952696

 Q-Chem 5.4.1 for Intel X86 EM64T Linux

 Parts of Q-Chem use Armadillo 9.800.1 (Horizon Scraper).
 http://arma.sourceforge.net/

 Q-Chem begins on Sat Feb 18 12:33:46 2023  

 Host: 
0

     Scratch files written to /scratch/ari.fischer/qChem1472759.hpc-mn1/qchem213521//
 Aug1521 |scratch|qcdevops|jenkins|workspace|build_RNUM 8249   
 Processing $rem in /usr/local/qchem-5.4.1/config/preferences:
 Processing $rem in /home/ari.fischer/.qchemrc:
 Symmetry turned off for PCM/SM12/SMD calculation

 Checking the input file for inconsistencies... 	...done.

--------------------------------------------------------------
User input:
--------------------------------------------------------------
$molecule
0 1
H         1.1087125568    0.9052134473    2.1335568418
C         0.5693171498    0.8312246408    1.1932446604
C         1.2680568993    0.7487878899   -0.0096328159
H         2.3539876157    0.7579018801   -0.0149691649
C         0.5580535204    0.6541500899   -1.2069534996
H         1.0910430831    0.5890640518   -2.1516124308
C        -0.8334746300    0.6416557885   -1.2079424456
H        -1.3968897827    0.5681868748   -2.1336433774
C        -1.5211194624    0.7248588878    0.0033807358
C        -0.8237613728    0.8196748707    1.2073029846
H        -1.3733730313    0.8829141504    2.1436806870
O        -2.8955474953    0.7086815977   -0.0466186041
H        -3.2392614506    0.7715641302    0.8603064288
$end

$rem
BASIS = 6-311++G(2df,2p)
GUI = 2
JOB_TYPE = Optimization
METHOD = wB97M-V
SCF_ALGORITHM = DIIS_GDM
MAX_SCF_CYCLES = 400
GEOM_OPT_MAX_CYCLES = 150
SCF_CONVERGENCE = 7
THRESH = 12
Solvent_method = SMD
$end
--------------------------------------------------------------
 ----------------------------------------------------------------
             Standard Nuclear Orientation (Angstroms)
    I     Atom           X                Y                Z
 ----------------------------------------------------------------
    1      H       1.1087125568     0.9052134473     2.1335568418
    2      C       0.5693171498     0.8312246408     1.1932446604
    3      C       1.2680568993     0.7487878899    -0.0096328159
    4      H       2.3539876157     0.7579018801    -0.0149691649
    5      C       0.5580535204     0.6541500899    -1.2069534996
    6      H       1.0910430831     0.5890640518    -2.1516124308
    7      C      -0.8334746300     0.6416557885    -1.2079424456
    8      H      -1.3968897827     0.5681868748    -2.1336433774
    9      C      -1.5211194624     0.7248588878     0.0033807358
   10      C      -0.8237613728     0.8196748707     1.2073029846
   11      H      -1.3733730313     0.8829141504     2.1436806870
   12      O      -2.8955474953     0.7086815977    -0.0466186041
   13      H      -3.2392614506     0.7715641302     0.8603064288
 ----------------------------------------------------------------
 Nuclear Repulsion Energy =         270.99489442 hartrees
 There are       25 alpha and       25 beta electrons
 Requested basis set is 6-311++G(2df,2p)
 There are 92 shells and 298 basis functions

 Total QAlloc Memory Limit 288000 MB
 Mega-Array Size       188 MB
 MEM_STATIC part       192 MB
 
 Citation of the SMD model:
 Marenich, A.V.; Cramer, C.J.; Truhlar, D.G.
 J. Phys. Chem. B 2009, 113, 6378-6396.
 iSolventCode=           1
 Solvent: water                                                           
 
 vradii
            1           2           3           4           5           6
    1   1.2000000   1.8500000   1.8500000   1.2000000   1.8500000   1.2000000
            7           8           9          10          11          12
    1   1.8500000   1.2000000   1.8500000   1.8500000   1.2000000   1.5200000
           13
    1   1.2000000
 Changing PCM_VDW_RADII to SMD_RADIUS
 Discretize the solute cavity surface with Lebedev spheres
	Using 110 Lebedev grid points for each H atom
	Using 194 Lebedev grid points for other atoms
	Atomic van der Waals radii will be scaled by 1.20
 Remove points where switching function is < 1.0e-08
 Keep 990 surface tesserae and discard 1028 interior tesserae
 Molecular Surface Area = 121.772 Angst**2
 A cutoff of  1.0D-12 yielded   4047 shell pairs
 There are     43160 function pairs (     54021 Cartesian)
 Smallest overlap matrix eigenvalue = 9.93E-07
 Linear dependence detected in AO basis
 Tighter screening thresholds may be required for diffuse basis sets
 Use S2THRESH > 14 and THRESH = 14 in case of SCF convergence issues
 Number of orthogonalized atomic orbitals = 297
 Maximum deviation from orthogonality = 2.362E-11

 Scale SEOQF with 1.000000e-01/1.000000e-01/1.000000e-01

 Standard Electronic Orientation quadrupole field applied
 Nucleus-field energy     =     0.0000000006 hartrees
 Guess from superposition of atomic densities
 Warning:  Energy on first SCF cycle will be non-variational
 SAD guess density has 50.000000 electrons

 -----------------------------------------------------------------------
  General SCF calculation program by
  Eric Jon Sundstrom, Paul Horn, Yuezhi Mao, Dmitri Zuev, Alec White,
  David Stuck, Shaama M.S., Shane Yost, Joonho Lee, David Small,
  Daniel Levine, Susi Lehtola, Hugh Burton, Evgeny Epifanovsky,
  Bang C. Huynh
 -----------------------------------------------------------------------
 Exchange:     0.1500 Hartree-Fock + 1.0000 wB97M-V + LR-HF
 Correlation:  1.0000 wB97M-V
 Using SG-2 standard quadrature grid
 Nonlocal Correlation:  VV10 with C = 0.0100 and b = 6.00 and scale = 1.00000
 Grid used for NLC:  SG-1 standard quadrature
 
 Citation of the SMD model:
 Marenich, A.V.; Cramer, C.J.; Truhlar, D.G.
 J. Phys. Chem. B 2009, 113, 6378-6396.
 iSolventCode=           1
 Solvent: water                                                           
 
 vradii
            1           2           3           4           5           6
    1   1.2000000   1.8500000   1.8500000   1.2000000   1.8500000   1.2000000
            7           8           9          10          11          12
    1   1.8500000   1.2000000   1.8500000   1.8500000   1.2000000   1.5200000
           13
    1   1.2000000
 using 8 threads for integral computing
 -------------------------------------------------------
 OpenMP Integral computing Module                
 Release: version 1.0, May 2013, Q-Chem Inc. Pittsburgh 
 -------------------------------------------------------
 -------------------------------------------------------
 OpenMP BLAS3 based DFT computing Module                
 Release: version 1.0, May 2013, Q-Chem Inc. Pittsburgh 
 -------------------------------------------------------
 A restricted SCF calculation will be
 performed using DIIS, GDM
 SCF converges when RMS gradient is below 1.0e-07
 ---------------------------------------
  Cycle       Energy         DIIS error
 ---------------------------------------
    1    -309.6135099805      3.04e-02  
    2    -307.3977975349      2.47e-03  Done DIIS. Switching to GDM
 ---------------------------------------
  Cycle       Energy        RMS Gradient
 ---------------------------------------
    1    -307.3977975349      5.96e-02   Normal BFGS step
    2    -307.4325454959      4.37e-02   Normal BFGS step
    3    -307.4619157004      5.99e-03   Normal BFGS step
    4    -307.4623179122      6.22e-03   Normal BFGS step
    5    -307.4627608864      6.19e-04   Normal BFGS step
    6    -307.4627661166      8.23e-04   Normal BFGS step
    7    -307.4627683608      9.87e-05   Normal BFGS step
    8    -307.4627684590      4.87e-05   Normal BFGS step
    9    -307.4627684754      2.33e-05   Normal BFGS step
   10    -307.4627684780      4.11e-06   Normal BFGS step
   11    -307.4627684784      1.67e-06   Normal BFGS step
   12    -307.4627684784      8.12e-07   Normal BFGS step
   13    -307.4627684784      3.50e-07   Normal BFGS step
   14    -307.4627684785      6.75e-08  Convergence criterion met
 ---------------------------------------
 SCF time:   CPU 617.81s  wall 78.00s 
(3)  G-ENP(liq) elect-nuc-pol free energy of system     -307.462768479 a.u.
(4)  G-CDS(liq) cavity-dispersion-solvent structure 
     free energy                                                3.2230 kcal/mol
(6)  G-S(liq) free energy of system                     -307.457632268 a.u.
 SCF   energy in the final basis set =     -307.4576322681
 Total energy in the final basis set =     -307.4576322681
 
 --------------------------------------------------------------
 
                    Orbital Energies (a.u.)
 --------------------------------------------------------------
 
 Alpha MOs
 -- Occupied --
-19.3620 -10.4101 -10.3482 -10.3478 -10.3434 -10.3416 -10.3386  -1.1870
 -0.9793  -0.8721  -0.8604  -0.7373  -0.7159  -0.6511  -0.6052  -0.5733
 -0.5387  -0.5276  -0.5232  -0.4988  -0.4569  -0.4515  -0.4358  -0.3490
 -0.3190
 -- Virtual --
  0.0259   0.0364   0.0386   0.0564   0.0569   0.0605   0.0703   0.0881
  0.0886   0.0998   0.1171   0.1193   0.1317   0.1511   0.1583   0.1603
  0.1624   0.1638   0.1676   0.1727   0.1777   0.1831   0.1850   0.1880
  0.2002   0.2201   0.2228   0.2291   0.2476   0.2506   0.2667   0.2698
  0.2810   0.2836   0.3026   0.3319   0.3428   0.3483   0.3588   0.3657
  0.3686   0.3900   0.4204   0.4270   0.4350   0.4546   0.4698   0.5291
  0.5482   0.5504   0.5953   0.5962   0.6000   0.6070   0.6082   0.6131
  0.6202   0.6324   0.6585   0.6779   0.6785   0.6889   0.6997   0.7089
  0.7170   0.7336   0.7343   0.7371   0.7616   0.7733   0.7814   0.8003
  0.8102   0.8287   0.8346   0.8440   0.8535   0.8795   0.8848   0.8931
  0.9112   0.9169   0.9257   0.9386   1.0246   1.0360   1.0493   1.0588
  1.0991   1.1131   1.1159   1.1413   1.1622   1.1679   1.1938   1.2024
  1.2240   1.2453   1.2661   1.2854   1.3331   1.3548   1.3700   1.3704
  1.3837   1.3957   1.4035   1.4281   1.4368   1.4527   1.4589   1.4664
  1.5069   1.5395   1.5626   1.5731   1.5901   1.6247   1.6334   1.7041
  1.7642   1.7911   1.7982   1.8114   1.8617   1.9248   1.9705   1.9733
  2.0674   2.0710   2.0737   2.0958   2.2118   2.4169   2.4416   2.5014
  2.5498   2.5979   2.6262   2.6623   2.6628   2.7344   2.7771   2.7884
  2.7901   2.8109   2.8222   2.8278   2.8597   2.8609   2.8639   2.8891
  2.9102   2.9105   2.9240   2.9527   2.9537   2.9725   3.0093   3.0215
  3.0253   3.0454   3.0551   3.0788   3.1710   3.1789   3.1911   3.1965
  3.2302   3.2345   3.2364   3.2553   3.2626   3.3233   3.3351   3.3755
  3.3933   3.3980   3.4068   3.4251   3.4687   3.4763   3.4774   3.4839
  3.4909   3.5039   3.5080   3.5500   3.5803   3.5994   3.6341   3.6391
  3.6737   3.7532   3.7754   3.8034   3.8096   3.8131   3.8375   3.8491
  3.9105   3.9156   3.9257   3.9289   3.9394   3.9585   4.0050   4.0207
  4.0848   4.0997   4.1052   4.1290   4.1588   4.1811   4.2258   4.2726
  4.3326   4.3334   4.3559   4.3958   4.4347   4.4731   4.5006   4.5249
  4.5333   4.5411   4.5555   4.5596   4.5818   4.6423   4.6885   4.7554
  4.7633   4.7936   4.8027   5.0080   5.0335   5.0972   5.1337   5.1718
  5.1810   5.2110   5.3219   5.3234   5.3589   5.4001   5.5010   5.6548
  5.6711   5.7443   5.8001   5.8425   5.8633   5.9054   5.9110   6.1762
  6.3712   6.7064   6.8796   7.0566   7.2760   7.3248   7.4522   7.7280
  7.8344  24.1595  24.7627  24.7891  25.0259  25.0327  25.5046  50.6403
 --------------------------------------------------------------
 
          Ground-State Mulliken Net Atomic Charges

     Atom                 Charge (a.u.)
  ----------------------------------------
      1 H                     0.281673
      2 C                    -0.192770
      3 C                    -0.478536
      4 H                     0.265105
      5 C                    -0.190792
      6 H                     0.282158
      7 C                    -0.306827
      8 H                     0.270960
      9 C                    -0.118417
     10 C                    -0.016981
     11 H                     0.257472
     12 O                    -0.401449
     13 H                     0.348405
  ----------------------------------------
  Sum of atomic charges =     0.000000

 -----------------------------------------------------------------
                    Cartesian Multipole Moments
 -----------------------------------------------------------------
    Charge (ESU x 10^10)
                -0.0000
    Dipole Moment (Debye)
         X       0.1690      Y       0.1451      Z       1.9982
       Tot       2.0105
    Quadrupole Moments (Debye-Ang)
        XX     -38.0152     XY      -0.2886     YY     -45.9792
        XZ      -6.7047     YZ       2.2876     ZZ     -34.2555
    Octopole Moments (Debye-Ang^2)
       XXX      62.1666    XXY     -26.2477    XYY      20.6602
       YYY    -101.4467    XXZ      22.5548    XYZ      -5.2501
       YYZ       2.4469    XZZ      14.2308    YZZ     -25.0425
       ZZZ       1.9990
    Hexadecapole Moments (Debye-Ang^3)
      XXXX    -559.4176   XXXY      38.6053   XXYY    -135.8032
      XYYY      43.6112   YYYY    -206.3366   XXXZ     -74.6569
      XXYZ      15.7509   XYYZ      -4.1206   YYYZ      -8.3280
      XXZZ    -120.2121   XYZZ       9.6821   YYZZ     -85.5787
      XZZZ      -4.9737   YZZZ      -3.4277   ZZZZ    -267.5921
 -----------------------------------------------------------------
 Calculating analytic gradient of the SCF energy
 Gradient of CDS energy
            1           2           3           4           5           6
    1   0.0001059   0.0002507   0.0005326   0.0002124   0.0002467   0.0001047
    2   0.0000145   0.0000352   0.0000047   0.0000018  -0.0000309  -0.0000128
    3   0.0001847   0.0004452  -0.0000012  -0.0000010  -0.0004490  -0.0001856
            7           8           9          10          11          12
    1  -0.0002610  -0.0001555  -0.0062502  -0.0002193  -0.0000713   0.0059023
    2  -0.0000299  -0.0000127  -0.0000722   0.0000255   0.0000090   0.0000556
    3  -0.0003742  -0.0001527  -0.0002126   0.0003717   0.0001323   0.0000241
           13
    1  -0.0003979
    2   0.0000122
    3   0.0002184
 Gradient of SCF Energy
            1           2           3           4           5           6
    1   0.0039337  -0.0012225  -0.0033167   0.0067966  -0.0024792   0.0032756
    2   0.0006232  -0.0002875  -0.0001084   0.0000535   0.0001761  -0.0004186
    3   0.0077443  -0.0043683  -0.0017251   0.0000385   0.0037541  -0.0057496
            7           8           9          10          11          12
    1   0.0060164  -0.0012157  -0.0038954   0.0019145  -0.0075255   0.0034373
    2   0.0000093  -0.0002785   0.0003134  -0.0005580   0.0007124  -0.0017802
    3   0.0001979  -0.0034883   0.0036916  -0.0082210   0.0109160  -0.0248872
           13
    1  -0.0057192
    2   0.0015434
    3   0.0220971
 Max gradient component =       2.489E-02
 RMS gradient           =       6.613E-03
 Computing fast CPCM-SWIG gradient
 Updating gradient with PCM contributions...
 -- total gradient after adding PCM contribution --
---------------------------------------------------
  Atom         X              Y              Z     
---------------------------------------------------
   1       0.001608       0.000245       0.002898
   2       0.000802       0.000115       0.001466
   3       0.001858       0.000015      -0.000000
   4       0.003330       0.000023      -0.000011
   5       0.000822      -0.000091      -0.001296
   6       0.001608      -0.000219      -0.002893
   7      -0.000108      -0.000186      -0.002494
   8      -0.001827      -0.000212      -0.002486
   9      -0.006395       0.000075       0.001822
  10       0.000255       0.000148       0.001875
  11      -0.001569       0.000203       0.002762
  12       0.000807      -0.000579      -0.008401
  13      -0.001191       0.000463       0.006760
---------------------------------------------------
 Number of fixed atoms: 0
 Gradient time:  CPU 137.81 s  wall 19.66 s
 Geometry Optimization Parameters
   NAtoms,    NIC,     NZ,  NCons,   NDum,   NFix, NCnnct, MaxDiis
       13      84       0       0       0       0       0       0


** GEOMETRY OPTIMIZATION IN DELOCALIZED INTERNAL COORDINATES **
   Searching for a Minimum

   Optimization Cycle:   1

                       Coordinates (Angstroms)
     ATOM                X               Y               Z
      1  H         1.1087125568    0.9052134473    2.1335568418
      2  C         0.5693171498    0.8312246408    1.1932446604
      3  C         1.2680568993    0.7487878899   -0.0096328159
      4  H         2.3539876157    0.7579018801   -0.0149691649
      5  C         0.5580535204    0.6541500899   -1.2069534996
      6  H         1.0910430831    0.5890640518   -2.1516124308
      7  C        -0.8334746300    0.6416557885   -1.2079424456
      8  H        -1.3968897827    0.5681868748   -2.1336433774
      9  C        -1.5211194624    0.7248588878    0.0033807358
     10  C        -0.8237613728    0.8196748707    1.2073029846
     11  H        -1.3733730313    0.8829141504    2.1436806870
     12  O        -2.8955474953    0.7086815977   -0.0466186041
     13  H        -3.2392614506    0.7715641302    0.8603064288
   Point Group: c1    Number of degrees of freedom:    33


   Energy is   -307.457632268


 Attempting to generate delocalized internal coordinates
 Initial Hessian constructed with Jon Baker's OPTIMIZE code

 33 Hessian modes will be used to form the next step
  Hessian Eigenvalues:
     0.018895    0.022340    0.023082    0.023136    0.023208    0.023213
     0.023262    0.023278    0.023285    0.023359    0.160000    0.160000
     0.160000    0.160000    0.160000    0.160000    0.220000    0.220000
     0.234905    0.250000    0.350914    0.352088    0.352134    0.352595
     0.352811    0.423352    0.423725    0.464673    0.465071    0.466870
     0.469346    0.499468    0.529889

 Minimum search - taking simple RFO step
 Searching for Lamda that Minimizes Along All modes
 Value Taken    Lamda =  -0.00064518
 Step Taken.  Stepsize is  0.040396

                             Maximum     Tolerance    Cnvgd?
         Gradient           0.010495      0.000300      NO
         Displacement       0.024257      0.001200      NO
         Energy change     *********      0.000001      NO


 New Cartesian Coordinates Obtained by Inverse Iteration

 Displacement from previous Coordinates is:  0.056500
 ----------------------------------------------------------------
             Standard Nuclear Orientation (Angstroms)
    I     Atom           X                Y                Z
 ----------------------------------------------------------------
    1      H       1.1039407747     0.9043455770     2.1242454079
    2      C       0.5666198237     0.8307994633     1.1884662531
    3      C       1.2621533323     0.7488349528    -0.0097570408
    4      H       2.3430966416     0.7581023564    -0.0151502209
    5      C       0.5551729901     0.6544760811    -1.2022568359
    6      H       1.0858242087     0.5899123767    -2.1425455500
    7      C      -0.8306963505     0.6418065571    -1.2027926763
    8      H      -1.3908422581     0.5686075318    -2.1250863194
    9      C      -1.5134388465     0.7247205002     0.0036961260
   10      C      -0.8208196944     0.8191985886     1.2025677821
   11      H      -1.3688374986     0.8819869966     2.1343483145
   12      O      -2.8875813587     0.7089716002    -0.0411903727
   13      H      -3.2388481642     0.7721157182     0.8555551325
 ----------------------------------------------------------------
 Nuclear Repulsion Energy =         272.02021005 hartrees
 There are       25 alpha and       25 beta electrons
 Discretize the solute cavity surface with Lebedev spheres
	Using 110 Lebedev grid points for each H atom
	Using 194 Lebedev grid points for other atoms
	Atomic van der Waals radii will be scaled by 1.20
 Remove points where switching function is < 1.0e-08
 Keep 991 surface tesserae and discard 1027 interior tesserae
 Molecular Surface Area = 121.269 Angst**2
 Applying Cartesian multipole field
    Component          Value
    ---------          -----
     (2,0,0)        1.00000E-11
     (0,2,0)        2.00000E-11
     (0,0,2)       -3.00000E-11
 Nucleus-field energy     =     0.0000000007 hartrees
 Requested basis set is 6-311++G(2df,2p)
 There are 92 shells and 298 basis functions
 A cutoff of  1.0D-12 yielded   4049 shell pairs
 There are     43165 function pairs (     54026 Cartesian)
 Smallest overlap matrix eigenvalue = 9.61E-07
 Linear dependence detected in AO basis
 Tighter screening thresholds may be required for diffuse basis sets
 Use S2THRESH > 14 and THRESH = 14 in case of SCF convergence issues
 Number of orthogonalized atomic orbitals = 297
 Maximum deviation from orthogonality = 2.634E-11
 Guess MOs from SCF MO coefficient file

 -----------------------------------------------------------------------
  General SCF calculation program by
  Eric Jon Sundstrom, Paul Horn, Yuezhi Mao, Dmitri Zuev, Alec White,
  David Stuck, Shaama M.S., Shane Yost, Joonho Lee, David Small,
  Daniel Levine, Susi Lehtola, Hugh Burton, Evgeny Epifanovsky,
  Bang C. Huynh
 -----------------------------------------------------------------------
 Exchange:     0.1500 Hartree-Fock + 1.0000 wB97M-V + LR-HF
 Correlation:  1.0000 wB97M-V
 Using SG-2 standard quadrature grid
 Nonlocal Correlation:  VV10 with C = 0.0100 and b = 6.00 and scale = 1.00000
 Grid used for NLC:  SG-1 standard quadrature
 
 Citation of the SMD model:
 Marenich, A.V.; Cramer, C.J.; Truhlar, D.G.
 J. Phys. Chem. B 2009, 113, 6378-6396.
 iSolventCode=           1
 Solvent: water                                                           
 
 vradii
            1           2           3           4           5           6
    1   1.2000000   1.8500000   1.8500000   1.2000000   1.8500000   1.2000000
            7           8           9          10          11          12
    1   1.8500000   1.2000000   1.8500000   1.8500000   1.2000000   1.5200000
           13
    1   1.2000000
 -------------------------------------------------------
 OpenMP BLAS3 based DFT computing Module                
 Release: version 1.0, May 2013, Q-Chem Inc. Pittsburgh 
 -------------------------------------------------------
 A restricted SCF calculation will be
 performed using Roothaan-Hall, DIIS, GDM
 SCF converges when RMS gradient is below 1.0e-07
 ---------------------------------------
  Cycle       Energy         DIIS error
 ---------------------------------------
    1    -307.4457278126      3.94e-04  Roothaan Step
 ---------------------------------------
  Cycle       Energy         DIIS error
 ---------------------------------------
    1    -307.4599686188      4.19e-04  
    2    -307.4623240703      2.72e-04  Done DIIS. Switching to GDM
 ---------------------------------------
  Cycle       Energy        RMS Gradient
 ---------------------------------------
    1    -307.4623240703      5.29e-03   Normal BFGS step
    2    -307.4625982481      4.72e-03   Normal BFGS step
    3    -307.4630136401      5.64e-04   Normal BFGS step
    4    -307.4630198865      6.26e-04   Normal BFGS step
    5    -307.4630248852      1.52e-04   Normal BFGS step
    6    -307.4630249986      4.18e-05   Normal BFGS step
    7    -307.4630250321      2.46e-05   Normal BFGS step
    8    -307.4630250344      9.00e-06   Normal BFGS step
    9    -307.4630250349      2.97e-06   Normal BFGS step
   10    -307.4630250349      1.62e-06   Normal BFGS step
   11    -307.4630250349      5.20e-07   Normal BFGS step
   12    -307.4630250349      1.24e-07   Normal BFGS step
   13    -307.4630250349      2.38e-08  Convergence criterion met
 ---------------------------------------
 SCF time:   CPU 631.66s  wall 80.00s 
(3)  G-ENP(liq) elect-nuc-pol free energy of system     -307.463025035 a.u.
(4)  G-CDS(liq) cavity-dispersion-solvent structure 
     free energy                                                3.1917 kcal/mol
(6)  G-S(liq) free energy of system                     -307.457938687 a.u.
 SCF   energy in the final basis set =     -307.4579386868
 Total energy in the final basis set =     -307.4579386868
 
 --------------------------------------------------------------
 
                    Orbital Energies (a.u.)
 --------------------------------------------------------------
 
 Alpha MOs
 -- Occupied --
-19.3605 -10.4080 -10.3458 -10.3454 -10.3409 -10.3393 -10.3362  -1.1874
 -0.9822  -0.8737  -0.8621  -0.7387  -0.7173  -0.6534  -0.6062  -0.5739
 -0.5397  -0.5284  -0.5243  -0.4984  -0.4570  -0.4524  -0.4361  -0.3496
 -0.3195
 -- Virtual --
  0.0259   0.0365   0.0386   0.0565   0.0582   0.0606   0.0714   0.0882
  0.0887   0.0999   0.1171   0.1193   0.1319   0.1514   0.1587   0.1606
  0.1625   0.1638   0.1679   0.1731   0.1778   0.1836   0.1851   0.1881
  0.2007   0.2206   0.2232   0.2294   0.2476   0.2509   0.2686   0.2701
  0.2813   0.2850   0.3038   0.3341   0.3447   0.3500   0.3619   0.3678
  0.3711   0.3907   0.4203   0.4287   0.4367   0.4575   0.4713   0.5307
  0.5500   0.5504   0.5958   0.5984   0.6011   0.6066   0.6104   0.6157
  0.6198   0.6349   0.6611   0.6784   0.6832   0.6894   0.7018   0.7109
  0.7182   0.7346   0.7361   0.7386   0.7634   0.7756   0.7829   0.8026
  0.8129   0.8277   0.8337   0.8458   0.8559   0.8835   0.8871   0.8982
  0.9154   0.9205   0.9281   0.9413   1.0253   1.0375   1.0508   1.0615
  1.0993   1.1162   1.1189   1.1448   1.1643   1.1715   1.1943   1.2038
  1.2266   1.2486   1.2697   1.2888   1.3374   1.3572   1.3743   1.3755
  1.3869   1.4002   1.4065   1.4337   1.4421   1.4592   1.4636   1.4718
  1.5111   1.5448   1.5676   1.5772   1.5945   1.6282   1.6371   1.7056
  1.7704   1.7955   1.8000   1.8121   1.8665   1.9276   1.9751   1.9801
  2.0703   2.0797   2.0808   2.1007   2.2114   2.4186   2.4419   2.5020
  2.5531   2.5955   2.6229   2.6607   2.6696   2.7377   2.7802   2.7930
  2.7947   2.8109   2.8282   2.8291   2.8594   2.8611   2.8639   2.8882
  2.9075   2.9122   2.9251   2.9520   2.9531   2.9733   3.0160   3.0264
  3.0289   3.0535   3.0541   3.0824   3.1715   3.1829   3.1919   3.2005
  3.2260   3.2307   3.2350   3.2582   3.2601   3.3360   3.3415   3.3792
  3.3980   3.4012   3.4168   3.4293   3.4717   3.4739   3.4797   3.4808
  3.4969   3.5072   3.5139   3.5589   3.5803   3.5995   3.6454   3.6479
  3.6746   3.7627   3.7789   3.8117   3.8185   3.8225   3.8339   3.8597
  3.9217   3.9276   3.9287   3.9393   3.9498   3.9669   4.0138   4.0275
  4.0960   4.1139   4.1182   4.1366   4.1650   4.1899   4.2369   4.2817
  4.3390   4.3456   4.3650   4.4070   4.4492   4.4910   4.5180   4.5391
  4.5528   4.5619   4.5724   4.5776   4.5993   4.6615   4.7054   4.7732
  4.7816   4.8099   4.8222   5.0297   5.0490   5.1185   5.1494   5.1879
  5.1990   5.2138   5.3226   5.3431   5.3664   5.4148   5.5228   5.6737
  5.6841   5.7586   5.8121   5.8726   5.8923   5.9151   5.9300   6.2117
  6.3990   6.7462   6.8930   7.0592   7.2781   7.3625   7.4516   7.7409
  7.8346  24.1630  24.7847  24.8087  25.0593  25.0650  25.5462  50.6458
 --------------------------------------------------------------
 
          Ground-State Mulliken Net Atomic Charges

     Atom                 Charge (a.u.)
  ----------------------------------------
      1 H                     0.281595
      2 C                    -0.191120
      3 C                    -0.481810
      4 H                     0.264672
      5 C                    -0.188123
      6 H                     0.282151
      7 C                    -0.303321
      8 H                     0.270758
      9 C                    -0.113385
     10 C                    -0.020797
     11 H                     0.257206
     12 O                    -0.404427
     13 H                     0.346602
  ----------------------------------------
  Sum of atomic charges =     0.000000

 -----------------------------------------------------------------
                    Cartesian Multipole Moments
 -----------------------------------------------------------------
    Charge (ESU x 10^10)
                -0.0000
    Dipole Moment (Debye)
         X       0.1802      Y       0.1465      Z       1.9836
       Tot       1.9971
    Quadrupole Moments (Debye-Ang)
        XX     -38.0364     XY      -0.2862     YY     -45.8352
        XZ      -6.6730     YZ       2.2655     ZZ     -34.2883
    Octopole Moments (Debye-Ang^2)
       XXX      61.8152    XXY     -26.2441    XYY      20.6008
       YYY    -101.1244    XXZ      22.4186    XYZ      -5.2313
       YYZ       2.3966    XZZ      14.2337    YZZ     -25.0680
       ZZZ       1.8677
    Hexadecapole Moments (Debye-Ang^3)
      XXXX    -554.7998   XXXY      38.2994   XXYY    -134.8972
      XYYY      43.4919   YYYY    -205.4696   XXXZ     -74.0880
      XXYZ      15.6573   XYYZ      -4.0399   YYYZ      -8.2863
      XXZZ    -119.5780   XYZZ       9.6842   YYZZ     -84.9311
      XZZZ      -4.6956   YZZZ      -3.5399   ZZZZ    -265.7650
 -----------------------------------------------------------------
 Calculating analytic gradient of the SCF energy
 Gradient of CDS energy
            1           2           3           4           5           6
    1   0.0001031   0.0002489   0.0005280   0.0002066   0.0002447   0.0001018
    2   0.0000141   0.0000349   0.0000048   0.0000018  -0.0000306  -0.0000124
    3   0.0001796   0.0004419  -0.0000013  -0.0000010  -0.0004457  -0.0001805
            7           8           9          10          11          12
    1  -0.0002593  -0.0001522  -0.0062131  -0.0002177  -0.0000688   0.0058762
    2  -0.0000297  -0.0000124  -0.0000701   0.0000251   0.0000087   0.0000531
    3  -0.0003693  -0.0001490  -0.0001890   0.0003676   0.0001279  -0.0000003
           13
    1  -0.0003984
    2   0.0000126
    3   0.0002193
 Gradient of SCF Energy
            1           2           3           4           5           6
    1   0.0021842  -0.0022501  -0.0054894   0.0033067  -0.0036530   0.0016036
    2   0.0003788  -0.0004340  -0.0001196   0.0000263   0.0002791  -0.0002049
    3   0.0047253  -0.0062613  -0.0016357   0.0000559   0.0053354  -0.0027492
            7           8           9          10          11          12
    1   0.0070438   0.0006149   0.0021483   0.0019710  -0.0058743   0.0033243
    2   0.0001938  -0.0000652   0.0002575  -0.0007196   0.0005138  -0.0012240
    3   0.0028025  -0.0008455   0.0022718  -0.0105899   0.0080490  -0.0169467
           13
    1  -0.0049300
    2   0.0011180
    3   0.0157884
 Max gradient component =       1.695E-02
 RMS gradient           =       5.131E-03
 Computing fast CPCM-SWIG gradient
 Updating gradient with PCM contributions...
 -- total gradient after adding PCM contribution --
---------------------------------------------------
  Atom         X              Y              Z     
---------------------------------------------------
   1      -0.000132       0.000002      -0.000096
   2      -0.000275      -0.000037      -0.000531
   3      -0.000409       0.000002       0.000082
   4      -0.000152      -0.000005       0.000009
   5      -0.000416       0.000015       0.000365
   6      -0.000063      -0.000005       0.000111
   7       0.000949       0.000003       0.000123
   8      -0.000025       0.000001       0.000141
   9      -0.000195       0.000008       0.000303
  10       0.000404      -0.000011      -0.000482
  11       0.000027       0.000005      -0.000050
  12       0.000586      -0.000012      -0.000544
  13      -0.000297       0.000032       0.000570
---------------------------------------------------
 Number of fixed atoms: 0
 Gradient time:  CPU 139.11 s  wall 19.87 s
 Geometry Optimization Parameters
   NAtoms,    NIC,     NZ,  NCons,   NDum,   NFix, NCnnct, MaxDiis
       13      84       0       0       0       0       0       0

 Cartesian Hessian Update
 Hessian updated using BFGS update


** GEOMETRY OPTIMIZATION IN DELOCALIZED INTERNAL COORDINATES **
   Searching for a Minimum

   Optimization Cycle:   2

                       Coordinates (Angstroms)
     ATOM                X               Y               Z
      1  H         1.1039407747    0.9043455770    2.1242454079
      2  C         0.5666198237    0.8307994633    1.1884662531
      3  C         1.2621533323    0.7488349528   -0.0097570408
      4  H         2.3430966416    0.7581023564   -0.0151502209
      5  C         0.5551729901    0.6544760811   -1.2022568359
      6  H         1.0858242087    0.5899123767   -2.1425455500
      7  C        -0.8306963505    0.6418065571   -1.2027926763
      8  H        -1.3908422581    0.5686075318   -2.1250863194
      9  C        -1.5134388465    0.7247205002    0.0036961260
     10  C        -0.8208196944    0.8191985886    1.2025677821
     11  H        -1.3688374986    0.8819869966    2.1343483145
     12  O        -2.8875813587    0.7089716002   -0.0411903727
     13  H        -3.2388481642    0.7721157182    0.8555551325
   Point Group: c1    Number of degrees of freedom:    33


   Energy is   -307.457938687

 Hessian updated using BFGS update

 29 Hessian modes will be used to form the next step
  Hessian Eigenvalues:
     0.018894    0.022340    0.023082    0.023136    0.023208    0.023213
     0.023262    0.023278    0.023285    0.023359    0.159362    0.160683
     0.219970    0.220009    0.234175    0.249855    0.350307    0.352073
     0.352329    0.352552    0.353222    0.422454    0.423550    0.463557
     0.465893    0.467009    0.496357    0.511239    0.521012

 Minimum search - taking simple RFO step
 Searching for Lamda that Minimizes Along All modes
 Value Taken    Lamda =  -0.00000599
 Step Taken.  Stepsize is  0.003746

                             Maximum     Tolerance    Cnvgd?
         Gradient           0.001066      0.000300      NO
         Displacement       0.002257      0.001200      NO
         Energy change     -0.000306      0.000001      NO


 New Cartesian Coordinates Obtained by Inverse Iteration

 Displacement from previous Coordinates is:  0.004856
 ----------------------------------------------------------------
             Standard Nuclear Orientation (Angstroms)
    I     Atom           X                Y                Z
 ----------------------------------------------------------------
    1      H       1.1047836344     0.9043962068     2.1250145854
    2      C       0.5670162773     0.8308412759     1.1892824583
    3      C       1.2625685887     0.7488710411    -0.0096736849
    4      H       2.3436953030     0.7581839072    -0.0152055982
    5      C       0.5552246068     0.6544687572    -1.2026534696
    6      H       1.0860429895     0.5899063224    -2.1430175011
    7      C      -0.8314541116     0.6417541604    -1.2033120223
    8      H      -1.3912243979     0.5684798649    -2.1259694812
    9      C      -1.5137173589     0.7246646210     0.0035742645
   10      C      -0.8210916620     0.8191573225     1.2031540196
   11      H      -1.3693810719     0.8819328264     2.1348347953
   12      O      -2.8881561630     0.7088040416    -0.0411343372
   13      H      -3.2385630344     0.7724179525     0.8552059713
 ----------------------------------------------------------------
 Nuclear Repulsion Energy =         271.93656086 hartrees
 There are       25 alpha and       25 beta electrons
 Discretize the solute cavity surface with Lebedev spheres
	Using 110 Lebedev grid points for each H atom
	Using 194 Lebedev grid points for other atoms
	Atomic van der Waals radii will be scaled by 1.20
 Remove points where switching function is < 1.0e-08
 Keep 990 surface tesserae and discard 1028 interior tesserae
 Molecular Surface Area = 121.301 Angst**2
 Applying Cartesian multipole field
    Component          Value
    ---------          -----
     (2,0,0)        1.00000E-11
     (0,2,0)        2.00000E-11
     (0,0,2)       -3.00000E-11
 Nucleus-field energy     =     0.0000000006 hartrees
 Requested basis set is 6-311++G(2df,2p)
 There are 92 shells and 298 basis functions
 A cutoff of  1.0D-12 yielded   4049 shell pairs
 There are     43165 function pairs (     54026 Cartesian)
 Smallest overlap matrix eigenvalue = 9.65E-07
 Linear dependence detected in AO basis
 Tighter screening thresholds may be required for diffuse basis sets
 Use S2THRESH > 14 and THRESH = 14 in case of SCF convergence issues
 Number of orthogonalized atomic orbitals = 297
 Maximum deviation from orthogonality = 2.384E-11
 Guess MOs from SCF MO coefficient file

 -----------------------------------------------------------------------
  General SCF calculation program by
  Eric Jon Sundstrom, Paul Horn, Yuezhi Mao, Dmitri Zuev, Alec White,
  David Stuck, Shaama M.S., Shane Yost, Joonho Lee, David Small,
  Daniel Levine, Susi Lehtola, Hugh Burton, Evgeny Epifanovsky,
  Bang C. Huynh
 -----------------------------------------------------------------------
 Exchange:     0.1500 Hartree-Fock + 1.0000 wB97M-V + LR-HF
 Correlation:  1.0000 wB97M-V
 Using SG-2 standard quadrature grid
 Nonlocal Correlation:  VV10 with C = 0.0100 and b = 6.00 and scale = 1.00000
 Grid used for NLC:  SG-1 standard quadrature
 
 Citation of the SMD model:
 Marenich, A.V.; Cramer, C.J.; Truhlar, D.G.
 J. Phys. Chem. B 2009, 113, 6378-6396.
 iSolventCode=           1
 Solvent: water                                                           
 
 vradii
            1           2           3           4           5           6
    1   1.2000000   1.8500000   1.8500000   1.2000000   1.8500000   1.2000000
            7           8           9          10          11          12
    1   1.8500000   1.2000000   1.8500000   1.8500000   1.2000000   1.5200000
           13
    1   1.2000000
 -------------------------------------------------------
 OpenMP BLAS3 based DFT computing Module                
 Release: version 1.0, May 2013, Q-Chem Inc. Pittsburgh 
 -------------------------------------------------------
 A restricted SCF calculation will be
 performed using Roothaan-Hall, DIIS, GDM
 SCF converges when RMS gradient is below 1.0e-07
 ---------------------------------------
  Cycle       Energy         DIIS error
 ---------------------------------------
    1    -307.4457741053      3.81e-04  Roothaan Step
 ---------------------------------------
  Cycle       Energy         DIIS error
 ---------------------------------------
    1    -307.4598722381      4.28e-04  
    2    -307.4622882561      2.78e-04  Done DIIS. Switching to GDM
 ---------------------------------------
  Cycle       Energy        RMS Gradient
 ---------------------------------------
    1    -307.4622882561      5.88e-03   Normal BFGS step
    2    -307.4625962932      4.62e-03   Normal BFGS step
    3    -307.4630176015      5.76e-04   Normal BFGS step
    4    -307.4630235929      6.48e-04   Normal BFGS step
    5    -307.4630289341      1.57e-04   Normal BFGS step
    6    -307.4630290507      4.27e-05   Normal BFGS step
    7    -307.4630290849      2.48e-05   Normal BFGS step
    8    -307.4630290872      9.33e-06   Normal BFGS step
    9    -307.4630290877      3.26e-06   Normal BFGS step
   10    -307.4630290878      1.64e-06   Normal BFGS step
   11    -307.4630290878      5.18e-07   Normal BFGS step
   12    -307.4630290878      1.24e-07   Normal BFGS step
   13    -307.4630290878      2.26e-08  Convergence criterion met
 ---------------------------------------
 SCF time:   CPU 632.08s  wall 81.00s 
(3)  G-ENP(liq) elect-nuc-pol free energy of system     -307.463029088 a.u.
(4)  G-CDS(liq) cavity-dispersion-solvent structure 
     free energy                                                3.1923 kcal/mol
(6)  G-S(liq) free energy of system                     -307.457941859 a.u.
 SCF   energy in the final basis set =     -307.4579418587
 Total energy in the final basis set =     -307.4579418587
 
 --------------------------------------------------------------
 
                    Orbital Energies (a.u.)
 --------------------------------------------------------------
 
 Alpha MOs
 -- Occupied --
-19.3604 -10.4082 -10.3460 -10.3457 -10.3411 -10.3395 -10.3364  -1.1875
 -0.9819  -0.8736  -0.8620  -0.7387  -0.7172  -0.6533  -0.6062  -0.5739
 -0.5398  -0.5283  -0.5243  -0.4984  -0.4569  -0.4522  -0.4362  -0.3495
 -0.3195
 -- Virtual --
  0.0259   0.0365   0.0386   0.0565   0.0580   0.0606   0.0713   0.0882
  0.0887   0.0999   0.1171   0.1193   0.1319   0.1514   0.1587   0.1606
  0.1625   0.1638   0.1679   0.1730   0.1778   0.1835   0.1851   0.1881
  0.2007   0.2205   0.2232   0.2293   0.2476   0.2509   0.2684   0.2700
  0.2813   0.2850   0.3036   0.3340   0.3446   0.3499   0.3616   0.3677
  0.3708   0.3906   0.4203   0.4286   0.4366   0.4572   0.4710   0.5306
  0.5498   0.5504   0.5959   0.5981   0.6011   0.6067   0.6105   0.6155
  0.6198   0.6347   0.6610   0.6784   0.6829   0.6894   0.7017   0.7109
  0.7181   0.7346   0.7359   0.7384   0.7632   0.7754   0.7828   0.8024
  0.8128   0.8278   0.8338   0.8457   0.8556   0.8831   0.8870   0.8978
  0.9150   0.9202   0.9279   0.9411   1.0253   1.0373   1.0507   1.0614
  1.0992   1.1160   1.1187   1.1446   1.1642   1.1712   1.1943   1.2036
  1.2264   1.2484   1.2695   1.2887   1.3371   1.3569   1.3739   1.3751
  1.3866   1.3998   1.4062   1.4335   1.4416   1.4586   1.4632   1.4714
  1.5108   1.5446   1.5674   1.5769   1.5948   1.6280   1.6368   1.7054
  1.7700   1.7954   1.7997   1.8119   1.8663   1.9272   1.9750   1.9796
  2.0699   2.0790   2.0802   2.1003   2.2111   2.4181   2.4415   2.5017
  2.5528   2.5955   2.6230   2.6609   2.6690   2.7375   2.7805   2.7926
  2.7942   2.8109   2.8283   2.8284   2.8594   2.8610   2.8639   2.8884
  2.9078   2.9121   2.9251   2.9520   2.9532   2.9733   3.0153   3.0262
  3.0286   3.0533   3.0542   3.0820   3.1715   3.1825   3.1920   3.2002
  3.2265   3.2310   3.2349   3.2579   3.2603   3.3349   3.3410   3.3788
  3.3977   3.4009   3.4161   3.4291   3.4713   3.4742   3.4800   3.4803
  3.4966   3.5069   3.5136   3.5584   3.5803   3.5995   3.6452   3.6471
  3.6743   3.7623   3.7789   3.8110   3.8178   3.8216   3.8340   3.8587
  3.9208   3.9266   3.9284   3.9384   3.9487   3.9661   4.0132   4.0270
  4.0952   4.1129   4.1172   4.1364   4.1647   4.1896   4.2367   4.2816
  4.3388   4.3452   4.3641   4.4071   4.4484   4.4895   4.5161   4.5382
  4.5514   4.5606   4.5710   4.5754   4.5976   4.6602   4.7042   4.7719
  4.7797   4.8091   4.8208   5.0277   5.0477   5.1170   5.1483   5.1869
  5.1976   5.2136   5.3224   5.3422   5.3657   5.4140   5.5212   5.6746
  5.6835   5.7574   5.8117   5.8707   5.8904   5.9141   5.9285   6.2092
  6.3968   6.7428   6.8910   7.0593   7.2779   7.3656   7.4520   7.7406
  7.8342  24.1633  24.7832  24.8067  25.0562  25.0623  25.5424  50.6458
 --------------------------------------------------------------
 
          Ground-State Mulliken Net Atomic Charges

     Atom                 Charge (a.u.)
  ----------------------------------------
      1 H                     0.281688
      2 C                    -0.191780
      3 C                    -0.481065
      4 H                     0.264760
      5 C                    -0.188013
      6 H                     0.282230
      7 C                    -0.303953
      8 H                     0.270868
      9 C                    -0.113287
     10 C                    -0.021131
     11 H                     0.257335
     12 O                    -0.404001
     13 H                     0.346349
  ----------------------------------------
  Sum of atomic charges =     0.000000

 -----------------------------------------------------------------
                    Cartesian Multipole Moments
 -----------------------------------------------------------------
    Charge (ESU x 10^10)
                 0.0000
    Dipole Moment (Debye)
         X       0.1844      Y       0.1475      Z       1.9822
       Tot       1.9962
    Quadrupole Moments (Debye-Ang)
        XX     -38.0493     XY      -0.2860     YY     -45.8438
        XZ      -6.6657     YZ       2.2668     ZZ     -34.2798
    Octopole Moments (Debye-Ang^2)
       XXX      61.9046    XXY     -26.2401    XYY      20.6027
       YYY    -101.1409    XXZ      22.4055    XYZ      -5.2289
       YYZ       2.3964    XZZ      14.2383    YZZ     -25.0608
       ZZZ       1.8530
    Hexadecapole Moments (Debye-Ang^3)
      XXXX    -555.3160   XXXY      38.3155   XXYY    -134.9438
      XYYY      43.4824   YYYY    -205.5190   XXXZ     -74.0562
      XXYZ      15.6577   XYYZ      -4.0482   YYYZ      -8.2968
      XXZZ    -119.6379   XYZZ       9.6841   YYZZ     -84.9790
      XZZZ      -4.6940   YZZZ      -3.5453   ZZZZ    -265.8977
 -----------------------------------------------------------------
 Calculating analytic gradient of the SCF energy
 Gradient of CDS energy
            1           2           3           4           5           6
    1   0.0001032   0.0002496   0.0005289   0.0002067   0.0002453   0.0001019
    2   0.0000141   0.0000350   0.0000048   0.0000018  -0.0000307  -0.0000124
    3   0.0001796   0.0004430  -0.0000015  -0.0000011  -0.0004466  -0.0001805
            7           8           9          10          11          12
    1  -0.0002606  -0.0001524  -0.0062209  -0.0002185  -0.0000689   0.0058845
    2  -0.0000297  -0.0000124  -0.0000707   0.0000251   0.0000087   0.0000536
    3  -0.0003696  -0.0001492  -0.0001888   0.0003685   0.0001278  -0.0000008
           13
    1  -0.0003989
    2   0.0000128
    3   0.0002193
 Gradient of SCF Energy
            1           2           3           4           5           6
    1   0.0022986  -0.0019195  -0.0050428   0.0034477  -0.0033474   0.0016664
    2   0.0003885  -0.0003973  -0.0001151   0.0000293   0.0002527  -0.0002127
    3   0.0048361  -0.0057857  -0.0016137   0.0000635   0.0049265  -0.0028495
            7           8           9          10          11          12
    1   0.0063138   0.0006065   0.0020814   0.0015595  -0.0059017   0.0028570
    2   0.0001775  -0.0000774   0.0002529  -0.0007004   0.0005201  -0.0012069
    3   0.0026323  -0.0009765   0.0020747  -0.0101707   0.0080940  -0.0164182
           13
    1  -0.0046197
    2   0.0010888
    3   0.0151873
 Max gradient component =       1.642E-02
 RMS gradient           =       4.932E-03
 Computing fast CPCM-SWIG gradient
 Updating gradient with PCM contributions...
 -- total gradient after adding PCM contribution --
---------------------------------------------------
  Atom         X              Y              Z     
---------------------------------------------------
   1      -0.000027       0.000011       0.000008
   2       0.000059       0.000001      -0.000049
   3       0.000045       0.000007       0.000106
   4      -0.000019      -0.000002       0.000016
   5      -0.000109      -0.000011      -0.000051
   6      -0.000004      -0.000012       0.000017
   7       0.000214      -0.000014      -0.000072
   8      -0.000029      -0.000010       0.000019
   9      -0.000262       0.000002       0.000116
  10      -0.000008       0.000008      -0.000049
  11       0.000004       0.000011      -0.000007
  12       0.000137       0.000013      -0.000032
  13      -0.000002      -0.000003      -0.000022
---------------------------------------------------
 Number of fixed atoms: 0
 Gradient time:  CPU 139.17 s  wall 19.88 s
 Geometry Optimization Parameters
   NAtoms,    NIC,     NZ,  NCons,   NDum,   NFix, NCnnct, MaxDiis
       13      84       0       0       0       0       0       0

 Cartesian Hessian Update
 Hessian updated using BFGS update


** GEOMETRY OPTIMIZATION IN DELOCALIZED INTERNAL COORDINATES **
   Searching for a Minimum

   Optimization Cycle:   3

                       Coordinates (Angstroms)
     ATOM                X               Y               Z
      1  H         1.1047836344    0.9043962068    2.1250145854
      2  C         0.5670162773    0.8308412759    1.1892824583
      3  C         1.2625685887    0.7488710411   -0.0096736849
      4  H         2.3436953030    0.7581839072   -0.0152055982
      5  C         0.5552246068    0.6544687572   -1.2026534696
      6  H         1.0860429895    0.5899063224   -2.1430175011
      7  C        -0.8314541116    0.6417541604   -1.2033120223
      8  H        -1.3912243979    0.5684798649   -2.1259694812
      9  C        -1.5137173589    0.7246646210    0.0035742645
     10  C        -0.8210916620    0.8191573225    1.2031540196
     11  H        -1.3693810719    0.8819328264    2.1348347953
     12  O        -2.8881561630    0.7088040416   -0.0411343372
     13  H        -3.2385630344    0.7724179525    0.8552059713
   Point Group: c1    Number of degrees of freedom:    33


   Energy is   -307.457941859

 Hessian updated using BFGS update

 30 Hessian modes will be used to form the next step
  Hessian Eigenvalues:
     0.018834    0.022338    0.023082    0.023135    0.023208    0.023213
     0.023262    0.023278    0.023285    0.023359    0.154988    0.159957
     0.160386    0.218111    0.220065    0.227961    0.249690    0.350216
     0.351889    0.352251    0.352583    0.352722    0.417706    0.423529
     0.444407    0.465105    0.466897    0.489411    0.507747    0.567717

 Minimum search - taking simple RFO step
 Searching for Lamda that Minimizes Along All modes
 Value Taken    Lamda =  -0.00000020
 Step Taken.  Stepsize is  0.001075

                             Maximum     Tolerance    Cnvgd?
         Gradient           0.000151      0.000300     YES
         Displacement       0.000469      0.001200     YES
         Energy change     -0.000003      0.000001      NO


                       Distance Matrix (Angstroms)
             H (  1)   C (  2)   C (  3)   H (  4)   C (  5)   H (  6)
   C (  2)  1.081757
   C (  3)  2.146154  1.388527
   H (  4)  2.477261  2.147710  1.081181
   C (  5)  3.381990  2.398459  1.390125  2.149283
   H (  6)  4.279644  3.381074  2.146529  2.477416  1.081768
   C (  7)  3.859502  2.777766  2.412712  3.392157  1.386737  2.136008
   H (  8)  4.941028  3.859331  3.399098  4.294291  2.156054  2.477419
   C (  9)  3.374813  2.397213  2.776423  3.857604  2.395920  3.374132
   C ( 10)  2.136841  1.388226  2.411956  3.391754  2.776559  3.858313
   H ( 11)  2.474286  2.155531  3.397614  4.292426  3.859362  4.941094
   O ( 12)  4.546870  3.669746  4.151037  5.232149  3.634412  4.497367
   H ( 13)  4.527084  3.820661  4.583531  5.649728  4.317583  5.265441
             C (  7)   H (  8)   C (  9)   C ( 10)   H ( 11)   O ( 12)
   H (  8)  1.081669
   C (  9)  1.388860  2.138774
   C ( 10)  2.413018  3.386880  1.388399
   H ( 11)  3.389731  4.272374  2.141924  1.082862
   O ( 12)  2.363298  2.570415  1.375257  2.415199  2.659228
   H ( 13)  3.169975  3.513070  1.924227  2.442830  2.267881  0.964499

 
 Final energy is   -307.457941858734     


 ******************************
 **  OPTIMIZATION CONVERGED  **
 ******************************

                       Coordinates (Angstroms)
     ATOM                X               Y               Z
      1  H         1.1047836344    0.9043962068    2.1250145854
      2  C         0.5670162773    0.8308412759    1.1892824583
      3  C         1.2625685887    0.7488710411   -0.0096736849
      4  H         2.3436953030    0.7581839072   -0.0152055982
      5  C         0.5552246068    0.6544687572   -1.2026534696
      6  H         1.0860429895    0.5899063224   -2.1430175011
      7  C        -0.8314541116    0.6417541604   -1.2033120223
      8  H        -1.3912243979    0.5684798649   -2.1259694812
      9  C        -1.5137173589    0.7246646210    0.0035742645
     10  C        -0.8210916620    0.8191573225    1.2031540196
     11  H        -1.3693810719    0.8819328264    2.1348347953
     12  O        -2.8881561630    0.7088040416   -0.0411343372
     13  H        -3.2385630344    0.7724179525    0.8552059713

Z-matrix Print:
$molecule
0 1
C 
O  1 1.375257
H  2 0.964499 1 109.397252
C  1 1.388399 2 121.832831 3 0.059594 0
H  4 1.082862 1 119.651889 2 0.041060 0
C  4 1.388226 1 119.390774 2 -180.000000 0
H  6 1.081757 4 119.275553 1 -179.992063 0
C  6 1.388527 4 120.598345 1 -0.010869 0
H  8 1.081181 6 120.318904 4 -179.989250 0
C  1 1.388860 2 117.516834 3 -179.961742 0
H  10 1.081669 1 119.410012 2 -0.000000 0
C  10 1.386737 1 119.357611 2 -180.000000 0
H  12 1.081768 10 119.321833 1 -179.997236 0
$end

 
 --------------------------------------------------------------
 
                    Orbital Energies (a.u.)
 --------------------------------------------------------------
 
 Alpha MOs
 -- Occupied --
-19.3604 -10.4082 -10.3460 -10.3457 -10.3411 -10.3395 -10.3364  -1.1875
 -0.9819  -0.8736  -0.8620  -0.7387  -0.7172  -0.6533  -0.6062  -0.5739
 -0.5398  -0.5283  -0.5243  -0.4984  -0.4569  -0.4522  -0.4362  -0.3495
 -0.3195
 -- Virtual --
  0.0259   0.0365   0.0386   0.0565   0.0580   0.0606   0.0713   0.0882
  0.0887   0.0999   0.1171   0.1193   0.1319   0.1514   0.1587   0.1606
  0.1625   0.1638   0.1679   0.1730   0.1778   0.1835   0.1851   0.1881
  0.2007   0.2205   0.2232   0.2293   0.2476   0.2509   0.2684   0.2700
  0.2813   0.2850   0.3036   0.3340   0.3446   0.3499   0.3616   0.3677
  0.3708   0.3906   0.4203   0.4286   0.4366   0.4572   0.4710   0.5306
  0.5498   0.5504   0.5959   0.5981   0.6011   0.6067   0.6105   0.6155
  0.6198   0.6347   0.6610   0.6784   0.6829   0.6894   0.7017   0.7109
  0.7181   0.7346   0.7359   0.7384   0.7632   0.7754   0.7828   0.8024
  0.8128   0.8278   0.8338   0.8457   0.8556   0.8831   0.8870   0.8978
  0.9150   0.9202   0.9279   0.9411   1.0253   1.0373   1.0507   1.0614
  1.0992   1.1160   1.1187   1.1446   1.1642   1.1712   1.1943   1.2036
  1.2264   1.2484   1.2695   1.2887   1.3371   1.3569   1.3739   1.3751
  1.3866   1.3998   1.4062   1.4335   1.4416   1.4586   1.4632   1.4714
  1.5108   1.5446   1.5674   1.5769   1.5948   1.6280   1.6368   1.7054
  1.7700   1.7954   1.7997   1.8119   1.8663   1.9272   1.9750   1.9796
  2.0699   2.0790   2.0802   2.1003   2.2111   2.4181   2.4415   2.5017
  2.5528   2.5955   2.6230   2.6609   2.6690   2.7375   2.7805   2.7926
  2.7942   2.8109   2.8283   2.8284   2.8594   2.8610   2.8639   2.8884
  2.9078   2.9121   2.9251   2.9520   2.9532   2.9733   3.0153   3.0262
  3.0286   3.0533   3.0542   3.0820   3.1715   3.1825   3.1920   3.2002
  3.2265   3.2310   3.2349   3.2579   3.2603   3.3349   3.3410   3.3788
  3.3977   3.4009   3.4161   3.4291   3.4713   3.4742   3.4800   3.4803
  3.4966   3.5069   3.5136   3.5584   3.5803   3.5995   3.6452   3.6471
  3.6743   3.7623   3.7789   3.8110   3.8178   3.8216   3.8340   3.8587
  3.9208   3.9266   3.9284   3.9384   3.9487   3.9661   4.0132   4.0270
  4.0952   4.1129   4.1172   4.1364   4.1647   4.1896   4.2367   4.2816
  4.3388   4.3452   4.3641   4.4071   4.4484   4.4895   4.5161   4.5382
  4.5514   4.5606   4.5710   4.5754   4.5976   4.6602   4.7042   4.7719
  4.7797   4.8091   4.8208   5.0277   5.0477   5.1170   5.1483   5.1869
  5.1976   5.2136   5.3224   5.3422   5.3657   5.4140   5.5212   5.6746
  5.6835   5.7574   5.8117   5.8707   5.8904   5.9141   5.9285   6.2092
  6.3968   6.7428   6.8910   7.0593   7.2779   7.3656   7.4520   7.7406
  7.8342  24.1633  24.7832  24.8067  25.0562  25.0623  25.5424  50.6458
 --------------------------------------------------------------
 
          Ground-State Mulliken Net Atomic Charges

     Atom                 Charge (a.u.)
  ----------------------------------------
      1 H                     0.281688
      2 C                    -0.191780
      3 C                    -0.481065
      4 H                     0.264760
      5 C                    -0.188013
      6 H                     0.282230
      7 C                    -0.303953
      8 H                     0.270868
      9 C                    -0.113287
     10 C                    -0.021131
     11 H                     0.257335
     12 O                    -0.404001
     13 H                     0.346349
  ----------------------------------------
  Sum of atomic charges =     0.000000

 -----------------------------------------------------------------
                    Cartesian Multipole Moments
 -----------------------------------------------------------------
    Charge (ESU x 10^10)
                 0.0000
    Dipole Moment (Debye)
         X       0.1844      Y       0.1475      Z       1.9822
       Tot       1.9962
    Quadrupole Moments (Debye-Ang)
        XX     -38.0493     XY      -0.2860     YY     -45.8438
        XZ      -6.6657     YZ       2.2668     ZZ     -34.2798
    Octopole Moments (Debye-Ang^2)
       XXX      61.9046    XXY     -26.2401    XYY      20.6027
       YYY    -101.1409    XXZ      22.4055    XYZ      -5.2289
       YYZ       2.3964    XZZ      14.2383    YZZ     -25.0608
       ZZZ       1.8530
    Hexadecapole Moments (Debye-Ang^3)
      XXXX    -555.3160   XXXY      38.3155   XXYY    -134.9438
      XYYY      43.4824   YYYY    -205.5190   XXXZ     -74.0562
      XXYZ      15.6577   XYYZ      -4.0482   YYYZ      -8.2968
      XXZZ    -119.6379   XYZZ       9.6841   YYZZ     -84.9790
      XZZZ      -4.6940   YZZZ      -3.5453   ZZZZ    -265.8977
 -----------------------------------------------------------------
 Total job time:  300.59s(wall), 2314.02s(cpu) 
 Sat Feb 18 12:38:47 2023

        *************************************************************
        *                                                           *
        *  Thank you very much for using Q-Chem.  Have a nice day.  *
        *                                                           *
        *************************************************************


