
Running Job 1 of 2 Q_in.in
qchem Q_in.in_14992.0 /scratch/ari.fischer/qChem1789178.hpc-mn1/qchem14992/ 0
/usr/local/qchem-5.4.1/exe/qcprog.exe_s Q_in.in_14992.0 /scratch/ari.fischer/qChem1789178.hpc-mn1/qchem14992/
                  Welcome to Q-Chem
     A Quantum Leap Into The Future Of Chemistry


 Q-Chem 5.4, Q-Chem, Inc., Pleasanton, CA (2021)

 License issued to: Nanyang Technological University (site)

 E. Epifanovsky,  A. T. B. Gilbert,  Xintian Feng,  Joonho Lee,  Yuezhi Mao,  
 N. Mardirossian,  P. Pokhilko,  A. White,  M. Wormit,  M. P. Coons,  
 A. L. Dempwolff,  Zhengting Gan,  D. Hait,  P. R. Horn,  L. D. Jacobson,  
 I. Kaliman,  J. Kussmann,  A. W. Lange,  Ka Un Lao,  D. S. Levine,  Jie Liu,  
 S. C. McKenzie,  A. F. Morrison,  K. Nanda,  F. Plasser,  D. R. Rehn,  
 M. L. Vidal,  Zhi-Qiang You,  Ying Zhu,  B. Alam,  B. Albrecht,  
 A. Aldossary,  E. Alguire,  J. H. Andersen,  D. Barton,  K. Begam,  A. Behn,  
 Y. A. Bernard,  E. J. Berquist,  H. Burton,  A. Carreras,  K. Carter-Fenk,  
 R. Chakraborty,  A. D. Chien,  K. D. Closser,  V. Cofer-Shabica,  
 S. Dasgupta,  Jia Deng,  M. de Wergifosse,  M. Diedenhofen,  Hainam Do,  
 S. Ehlert,  Po-Tung Fang,  S. Fatehi,  Qingguo Feng,  T. Friedhoff,  
 J. Gayvert,  Qinghui Ge,  G. Gidofalvi,  M. Goldey,  J. Gomes,  
 C. Gonzalez-Espinoza,  S. Gulania,  A. Gunina,  M. W. D. Hanson-Heine,  
 P. H. P. Harbach,  A. W. Hauser,  M. F. Herbst,  M. Hernandez Vera,  
 M. Hodecker,  Z. C. Holden,  S. Houck,  Xunkun Huang,  Kerwin Hui,  
 B. C. Huynh,  M. Ivanov,  Hyunjun Ji,  Hanjie Jiang,  B. Kaduk,  S. Kaehler,  
 K. Khistyaev,  Jaehoon Kim,  P. Klunzinger,  Z. Koczor-Benda,  
 Joong Hoon Koh,  D. Kosenkov,  L. Koulias,  T. Kowalczyk,  C. M. Krauter,  
 K. Kue,  A. Kunitsa,  T. Kus,  A. Landau,  K. V. Lawler,  D. Lefrancois,  
 S. Lehtola,  Rain Li,  Yi-Pei Li,  Jiashu Liang,  M. Liebenthal,  
 Hung-Hsuan Lin,  You-Sheng Lin,  Fenglai Liu,  Kuan-Yu Liu,  
 M. Loipersberger,  A. Luenser,  A. Manjanath,  P. Manohar,  E. Mansoor,  
 S. F. Manzer,  Shan-Ping Mao,  A. V. Marenich,  T. Markovich,  S. Mason,  
 S. A. Maurer,  P. F. McLaughlin,  M. F. S. J. Menger,  J.-M. Mewes,  
 S. A. Mewes,  P. Morgante,  J. W. Mullinax,  K. J. Oosterbaan,  G. Paran,  
 Alexander C. Paul,  Suranjan K. Paul,  F. Pavosevic,  Zheng Pei,  S. Prager,  
 E. I. Proynov,  E. Ramos,  B. Rana,  A. E. Rask,  A. Rettig,  R. M. Richard,  
 F. Rob,  E. Rossomme,  T. Scheele,  M. Scheurer,  M. Schneider,  
 N. Sergueev,  S. M. Sharada,  W. Skomorowski,  D. W. Small,  C. J. Stein,  
 Yu-Chuan Su,  E. J. Sundstrom,  Zhen Tao,  J. Thirman,  T. Tsuchimochi,  
 N. M. Tubman,  S. P. Veccham,  O. Vydrov,  J. Wenzel,  J. Witte,  A. Yamada,  
 Kun Yao,  S. Yeganeh,  S. R. Yost,  A. Zech,  Igor Ying Zhang,  Xing Zhang,  
 Yu Zhang,  D. Zuev,  A. Aspuru-Guzik,  A. T. Bell,  N. A. Besley,  
 K. B. Bravaya,  B. R. Brooks,  D. Casanova,  Jeng-Da Chai,  S. Coriani,  
 C. J. Cramer,  A. E. DePrince, III,  R. A. DiStasio Jr.,  A. Dreuw,  
 B. D. Dunietz,  T. R. Furlani,  W. A. Goddard III,  S. Grimme,  
 S. Hammes-Schiffer,  T. Head-Gordon,  W. J. Hehre,  Chao-Ping Hsu,  
 T.-C. Jagau,  Yousung Jung,  A. Klamt,  Jing Kong,  D. S. Lambrecht,  
 WanZhen Liang,  N. J. Mayhall,  C. W. McCurdy,  J. B. Neaton,  
 C. Ochsenfeld,  J. A. Parkhill,  R. Peverati,  V. A. Rassolov,  Yihan Shao,  
 L. V. Slipchenko,  T. Stauch,  R. P. Steele,  J. E. Subotnik,  
 A. J. W. Thom,  A. Tkatchenko,  D. G. Truhlar,  T. Van Voorhis,  
 T. A. Wesolowski,  K. B. Whaley,  H. L. Woodcock III,  P. M. Zimmerman,  
 S. Faraji,  P. M. W. Gill,  M. Head-Gordon,  J. M. Herbert,  A. I. Krylov

 Additional authors for Version 5.4.1: 
 S. Kotaru,  Shaozhi Li,  Xiangyuan Li,  F. Matz,  A. Molle,  Haisheng Ren,  
 Yingli Su,  Hung-Yi Tsai,  C. Utku,  Fang Wang

 Contributors to earlier versions of Q-Chem not listed above: 
 R. D. Adamson,  B. Austin,  R. Baer,  J. Baker,  G. J. O. Beran,  
 K. Brandhorst,  S. T. Brown,  E. F. C. Byrd,  A. K. Chakraborty,  
 G. K. L. Chan,  Chun-Min Chang,  Yunqing Chen,  C.-L. Cheng,  
 Siu Hung Chien,  D. M. Chipman,  D. L. Crittenden,  H. Dachsel,  
 R. J. Doerksen,  A. D. Dutoi,  R. G. Edgar,  J. Fosso-Tande,  
 L. Fusti-Molnar,  D. Ghosh,  A. Ghysels,  A. Golubeva-Zadorozhnaya,  
 J. Gonthier,  M. S. Gordon,  S. R. Gwaltney,  G. Hawkins,  J. E. Herr,  
 A. Heyden,  S. Hirata,  E. G. Hohenstein,  G. Kedziora,  F. J. Keil,  
 C. Kelley,  Jihan Kim,  R. A. King,  R. Z. Khaliullin,  P. P. Korambath,  
 W. Kurlancheek,  A. Laurent,  A. M. Lee,  M. S. Lee,  S. V. Levchenko,  
 Ching Yeh Lin,  D. Liotard,  E. Livshits,  R. C. Lochan,  I. Lotan,  
 L. A. Martinez-Martinez,  P. E. Maslen,  N. Nair,  D. P. O'Neill,  
 D. Neuhauser,  E. Neuscamman,  C. M. Oana,  R. Olivares-Amaya,  R. Olson,  
 T. M. Perrine,  B. Peters,  P. A. Pieniazek,  A. Prociuk,  Y. M. Rhee,  
 J. Ritchie,  M. A. Rohrdanz,  E. Rosta,  N. J. Russ,  H. F. Schaefer III,  
 M. W. Schmidt,  N. E. Schultz,  S. Sharma,  N. Shenvi,  C. D. Sherrill,  
 A. C. Simmonett,  A. Sodt,  T. Stein,  D. Stuck,  K. S. Thanthiriwatte,  
 V. Vanovschi,  L. Vogt,  Tao Wang,  A. Warshel,  M. A. Watson,  
 C. F. Williams,  Q. Wu,  X. Xu,  Jun Yang,  W. Zhang,  Yan Zhao

 Please cite Q-Chem as follows:
 Y. Shao et al., Mol. Phys. 113, 184-215 (2015)
 DOI: 10.1080/00268976.2014.952696

 Q-Chem 5.4.1 for Intel X86 EM64T Linux

 Parts of Q-Chem use Armadillo 9.800.1 (Horizon Scraper).
 http://arma.sourceforge.net/

 Q-Chem begins on Mon Oct  2 18:24:38 2023  

 Host: 
0

     Scratch files written to /scratch/ari.fischer/qChem1789178.hpc-mn1/qchem14992//
 Aug1521 |scratch|qcdevops|jenkins|workspace|build_RNUM 8249   
 Processing $rem in /usr/local/qchem-5.4.1/config/preferences:
 Processing $rem in /home/ari.fischer/.qchemrc:
 Symmetry turned off for PCM/SM12/SMD calculation


!!********************************************.
!!******************Warning*******************.
!!Desired Analytical derivatives not available.
!!Finite difference job might take a long time.
!!********************************************.
!!********************************************.


 2-order derivative to be evaluated numerically with 1-order analytical derivatives

 Checking the input file for inconsistencies... 	...done.

--------------------------------------------------------------
User input:
--------------------------------------------------------------
$molecule
0 2
C         0.6642922021   -0.0547177182   -2.3665670228
O         0.1304266244   -1.0853847930   -1.5784577202
O         1.2742548623   -0.5408228672   -3.5417681276
H        -0.7411558880   -1.3085706675   -1.9237641629
H         0.5985796815   -0.6251143924   -4.2237176451
H        -0.1018716528    0.6794560493   -2.6172841762
C         1.7877148741    0.6103282194   -1.5909520804
H         2.1918397173    1.4998475857   -2.0795177746
O         2.5355092476   -0.0818580588   -0.8238757351
H         2.0469072535    0.3613948197    0.3221973599
O         0.7898115089    1.5022374482   -0.3526865446
O         1.2778900692    1.0629547747    0.7462767297
$end

$rem
BASIS = 6-311++G(2df,2p)
GUI = 2
JOB_TYPE = Frequency
METHOD = wB97M-V
SOLVENT_METHOD = SMD
SCF_ALGORITHM = DIIS_GDM
MAX_SCF_CYCLES = 400
SCF_CONVERGENCE = 7
THRESH = 12
$end

--------------------------------------------------------------
 ----------------------------------------------------------------
             Standard Nuclear Orientation (Angstroms)
    I     Atom           X                Y                Z
 ----------------------------------------------------------------
    1      C       0.6642922021    -0.0547177182    -2.3665670228
    2      O       0.1304266244    -1.0853847930    -1.5784577202
    3      O       1.2742548623    -0.5408228672    -3.5417681276
    4      H      -0.7411558880    -1.3085706675    -1.9237641629
    5      H       0.5985796815    -0.6251143924    -4.2237176451
    6      H      -0.1018716528     0.6794560493    -2.6172841762
    7      C       1.7877148741     0.6103282194    -1.5909520804
    8      H       2.1918397173     1.4998475857    -2.0795177746
    9      O       2.5355092476    -0.0818580588    -0.8238757351
   10      H       2.0469072535     0.3613948197     0.3221973599
   11      O       0.7898115089     1.5022374482    -0.3526865446
   12      O       1.2778900692     1.0629547747     0.7462767297
 ----------------------------------------------------------------
 Nuclear Repulsion Energy =         338.46631762 hartrees
 There are       29 alpha and       28 beta electrons
 Requested basis set is 6-311++G(2df,2p)
 There are 86 shells and 288 basis functions

 Total QAlloc Memory Limit 288000 MB
 Mega-Array Size       188 MB
 MEM_STATIC part       192 MB
 
 Citation of the SMD model:
 Marenich, A.V.; Cramer, C.J.; Truhlar, D.G.
 J. Phys. Chem. B 2009, 113, 6378-6396.
 iSolventCode=           1
 Solvent: water                                                           
 
 vradii
            1           2           3           4           5           6
    1   1.8500000   1.5200000   1.5200000   1.2000000   1.2000000   1.2000000
            7           8           9          10          11          12
    1   1.8500000   1.2000000   1.5200000   1.2000000   1.5200000   1.5200000
 Changing PCM_VDW_RADII to SMD_RADIUS
 Discretize the solute cavity surface with Lebedev spheres
	Using 110 Lebedev grid points for each H atom
	Using 194 Lebedev grid points for other atoms
	Atomic van der Waals radii will be scaled by 1.20
 Remove points where switching function is < 1.0e-08
 Keep 1007 surface tesserae and discard 901 interior tesserae
 Molecular Surface Area = 115.618 Angst**2

                       Distance Matrix (Angstroms)
             C (  1)   O (  2)   O (  3)   H (  4)   H (  5)   H (  6)
   O (  2)  1.402998
   O (  3)  1.410479  2.336553
   H (  4)  1.934814  0.963693  2.696155
   H (  5)  1.943882  2.725512  0.963689  2.748052
   H (  6)  1.090356  2.061016  2.058513  2.200433  2.184757
   C (  7)  1.518533  2.371119  2.322601  3.191884  3.141945  2.151435
   H (  8)  2.198288  3.344236  2.672915  4.063734  3.413434  2.494664
   O (  9)  2.425301  2.713095  3.031229  3.667576  3.950411  3.278977
   H ( 10)  3.051922  3.062443  4.042427  3.950497  4.871981  3.654992
   O ( 11)  2.548643  2.938212  3.818249  3.565500  4.421208  2.569138
   O ( 12)  3.363851  3.366961  4.578149  4.102414  5.292625  3.655729
             C (  7)   H (  8)   O (  9)   H ( 10)   O ( 11)
   H (  8)  1.092364
   O (  9)  1.275431  2.048545
   H ( 10)  1.946610  2.661826  1.322380
   O ( 11)  1.823353  2.224328  2.403921  1.826822
   O ( 12)  2.434632  3.001882  2.314645  1.124018  1.280199
 
 A cutoff of  1.0D-12 yielded   3479 shell pairs
 There are     39335 function pairs (     49457 Cartesian)
 Smallest overlap matrix eigenvalue = 5.08E-05
 Guess from superposition of atomic densities
 Warning:  Energy on first SCF cycle will be non-variational
 SAD guess density has 57.000000 electrons

 -----------------------------------------------------------------------
  General SCF calculation program by
  Eric Jon Sundstrom, Paul Horn, Yuezhi Mao, Dmitri Zuev, Alec White,
  David Stuck, Shaama M.S., Shane Yost, Joonho Lee, David Small,
  Daniel Levine, Susi Lehtola, Hugh Burton, Evgeny Epifanovsky,
  Bang C. Huynh
 -----------------------------------------------------------------------
 Exchange:     0.1500 Hartree-Fock + 1.0000 wB97M-V + LR-HF
 Correlation:  1.0000 wB97M-V
 Using SG-2 standard quadrature grid
 Nonlocal Correlation:  VV10 with C = 0.0100 and b = 6.00 and scale = 1.00000
 Grid used for NLC:  SG-1 standard quadrature
 using 8 threads for integral computing
 -------------------------------------------------------
 OpenMP Integral computing Module                
 Release: version 1.0, May 2013, Q-Chem Inc. Pittsburgh 
 -------------------------------------------------------
 
 Citation of the SMD model:
 Marenich, A.V.; Cramer, C.J.; Truhlar, D.G.
 J. Phys. Chem. B 2009, 113, 6378-6396.
 iSolventCode=           1
 Solvent: water                                                           
 
 vradii
            1           2           3           4           5           6
    1   1.8500000   1.5200000   1.5200000   1.2000000   1.2000000   1.2000000
            7           8           9          10          11          12
    1   1.8500000   1.2000000   1.5200000   1.2000000   1.5200000   1.5200000
 -------------------------------------------------------
 OpenMP BLAS3 based DFT computing Module                
 Release: version 1.0, May 2013, Q-Chem Inc. Pittsburgh 
 -------------------------------------------------------
 A unrestricted SCF calculation will be
 performed using DIIS, GDM
 SCF converges when RMS gradient is below 1.0e-07
 ---------------------------------------
  Cycle       Energy         DIIS error
 ---------------------------------------
    1    -456.3727720112      1.44e-02  
    2    -455.0725722652      2.19e-03  Done DIIS. Switching to GDM
 ---------------------------------------
  Cycle       Energy        RMS Gradient
 ---------------------------------------
    1    -455.0725722652      9.14e-02   Descent step
    2    -455.2096030304      3.75e-02   Normal BFGS step
    3    -455.2239201468      1.75e-02   Normal BFGS step
    4    -455.2256395055      1.79e-02   Normal BFGS step
    5    -455.2265599288      8.85e-03   Normal BFGS step
    6    -455.2266891484      4.07e-03   Normal BFGS step
    7    -455.2267474094      1.60e-03   Normal BFGS step
    8    -455.2267574265      3.65e-04   Normal BFGS step
    9    -455.2267583359      1.83e-04   Normal BFGS step
   10    -455.2267584802      8.08e-05   Normal BFGS step
   11    -455.2267585095      4.65e-05   Normal BFGS step
   12    -455.2267585200      1.41e-05   Normal BFGS step
   13    -455.2267585217      7.82e-06   Normal BFGS step
   14    -455.2267585226      6.15e-06   Normal BFGS step
   15    -455.2267585227      4.05e-06   Normal BFGS step
   16    -455.2267585227      1.82e-06   Normal BFGS step
   17    -455.2267585227      5.37e-07   Normal BFGS step
   18    -455.2267585227      2.92e-07   Normal BFGS step
   19    -455.2267585228      1.20e-07   Normal BFGS step
   20    -455.2267585228      4.07e-08  Convergence criterion met
 ---------------------------------------
 SCF time:   CPU 742.50s  wall 94.00s 
<S^2> =          0.754811863
(3)  G-ENP(liq) elect-nuc-pol free energy of system     -455.226758523 a.u.
(4)  G-CDS(liq) cavity-dispersion-solvent structure 
     free energy                                                2.8464 kcal/mol
(6)  G-S(liq) free energy of system                     -455.222222522 a.u.
 SCF   energy in the final basis set =     -455.2222225215
 Total energy in the final basis set =     -455.2222225215
 
 --------------------------------------------------------------
 
                    Orbital Energies (a.u.)
 --------------------------------------------------------------
 
 Alpha MOs
 -- Occupied --
-19.4694 -19.4674 -19.3511 -19.3497 -19.3347 -10.4568 -10.4535  -1.3848
 -1.2114  -1.1730  -1.1416  -1.0042  -0.8516  -0.7371  -0.7101  -0.6637
 -0.6536  -0.6416  -0.6348  -0.5842  -0.5655  -0.5106  -0.4931  -0.4667
 -0.4501  -0.4282  -0.4240  -0.4149  -0.3798
 -- Virtual --
  0.0256   0.0459   0.0484   0.0543   0.0688   0.0865   0.0995   0.1086
  0.1243   0.1336   0.1431   0.1584   0.1596   0.1703   0.1832   0.1982
  0.2261   0.2352   0.2399   0.2595   0.2635   0.2684   0.2734   0.2885
  0.2910   0.2971   0.3056   0.3174   0.3239   0.3383   0.3424   0.3479
  0.3582   0.3658   0.3681   0.3833   0.3851   0.3933   0.4013   0.4334
  0.4509   0.4597   0.4915   0.5163   0.5604   0.5777   0.5964   0.6148
  0.6179   0.6329   0.6726   0.6832   0.6944   0.7339   0.7478   0.7525
  0.8195   0.8220   0.8741   0.8943   0.8992   0.9145   0.9609   0.9939
  1.0021   1.0199   1.0661   1.0763   1.0866   1.1095   1.1374   1.1445
  1.1566   1.1653   1.1706   1.1860   1.1950   1.2147   1.2192   1.2403
  1.2486   1.2628   1.2869   1.3028   1.3203   1.3458   1.3788   1.4073
  1.4179   1.4586   1.4623   1.4977   1.5021   1.5207   1.5497   1.5856
  1.5931   1.6022   1.6300   1.6761   1.7118   1.7461   1.7578   1.7927
  1.8521   1.8850   1.9248   1.9454   2.0064   2.0435   2.0744   2.0949
  2.1407   2.2033   2.2397   2.2561   2.2808   2.3039   2.3262   2.3937
  2.4199   2.4440   2.4835   2.5255   2.5388   2.6466   2.6631   2.6652
  2.7055   2.8085   2.8430   2.8901   2.9586   2.9863   3.0286   3.1424
  3.2192   3.2354   3.2735   3.2956   3.3449   3.3705   3.4076   3.4270
  3.4852   3.5003   3.5637   3.6013   3.6460   3.6589   3.6910   3.7257
  3.7708   3.7955   3.8063   3.8484   3.8626   3.8878   3.9170   3.9743
  4.0090   4.0481   4.0821   4.1139   4.1660   4.2057   4.2221   4.2964
  4.3077   4.3202   4.3764   4.4613   4.5229   4.5379   4.6104   4.6853
  4.6951   4.7530   4.8038   4.9089   5.0377   5.0771   5.1249   5.1541
  5.1691   5.2047   5.2139   5.2266   5.2326   5.2448   5.2560   5.2679
  5.2955   5.3086   5.3301   5.3412   5.3609   5.3755   5.4076   5.4375
  5.4563   5.4769   5.5331   5.5498   5.5648   5.5870   5.6192   5.6390
  5.6684   5.6786   5.7320   5.7840   5.8387   6.0392   6.0624   6.1647
  6.2153   6.4095   6.4334   6.5004   6.5240   6.7085   6.7307   6.8179
  6.9336   6.9949   7.0488   7.0660   7.0846   7.1033   7.1241   7.1318
  7.2280   7.2560   7.2723   7.2927   7.3289   7.3633   7.3806   7.4112
  7.4858   7.5029   7.5315   7.5521   7.6425   7.6967   7.7668   7.7811
  7.8789   7.9758   8.0260   8.1329  24.7297  24.9009  50.4506  50.4969
 50.5881  50.6088  50.7205
 
 Beta MOs
 -- Occupied --
-19.4535 -19.4528 -19.3511 -19.3497 -19.3346 -10.4570 -10.4533  -1.3567
 -1.2112  -1.1724  -1.1415  -0.9664  -0.8484  -0.7285  -0.7059  -0.6607
 -0.6465  -0.6162  -0.5990  -0.5687  -0.5393  -0.5104  -0.4925  -0.4614
 -0.4358  -0.4226  -0.4145  -0.3852
 -- Virtual --
 -0.0483   0.0258   0.0461   0.0487   0.0551   0.0691   0.0893   0.1000
  0.1093   0.1252   0.1344   0.1438   0.1591   0.1599   0.1714   0.1866
  0.2023   0.2282   0.2360   0.2420   0.2620   0.2654   0.2699   0.2757
  0.2897   0.2933   0.3026   0.3061   0.3194   0.3244   0.3396   0.3436
  0.3499   0.3587   0.3675   0.3713   0.3840   0.3865   0.3943   0.4042
  0.4345   0.4512   0.4604   0.4922   0.5174   0.5607   0.5783   0.5972
  0.6157   0.6194   0.6333   0.6728   0.6837   0.6953   0.7341   0.7480
  0.7526   0.8202   0.8266   0.8743   0.8949   0.8993   0.9149   0.9623
  0.9977   1.0044   1.0218   1.0687   1.0790   1.0900   1.1312   1.1419
  1.1475   1.1597   1.1703   1.1735   1.1936   1.1955   1.2176   1.2241
  1.2498   1.2564   1.2677   1.2885   1.3053   1.3224   1.3465   1.3804
  1.4118   1.4224   1.4634   1.4684   1.4999   1.5088   1.5269   1.5509
  1.5966   1.5988   1.6052   1.6346   1.6892   1.7151   1.7476   1.7612
  1.8003   1.8573   1.8890   1.9306   1.9482   2.0123   2.0520   2.0827
  2.0966   2.1495   2.2057   2.2471   2.2625   2.2896   2.3208   2.3276
  2.3941   2.4213   2.4454   2.4848   2.5266   2.5459   2.6494   2.6659
  2.6719   2.7066   2.8095   2.8436   2.8900   2.9583   2.9859   3.0286
  3.1417   3.2191   3.2354   3.2732   3.2955   3.3460   3.3708   3.4072
  3.4271   3.4859   3.5003   3.5623   3.6025   3.6465   3.6583   3.6909
  3.7259   3.7707   3.7956   3.8070   3.8485   3.8630   3.8880   3.9190
  3.9746   4.0086   4.0484   4.0820   4.1137   4.1662   4.2059   4.2222
  4.2969   4.3079   4.3202   4.3772   4.4615   4.5308   4.5695   4.6137
  4.7048   4.7191   4.7583   4.8185   4.9207   5.0928   5.1134   5.1591
  5.1760   5.2134   5.2154   5.2323   5.2414   5.2475   5.2567   5.2739
  5.2767   5.3041   5.3260   5.3394   5.3450   5.3700   5.3906   5.4107
  5.4428   5.4577   5.4877   5.5360   5.5595   5.5668   5.5905   5.6392
  5.6433   5.6700   5.6814   5.7345   5.8010   5.8393   6.0396   6.0626
  6.1648   6.2170   6.4146   6.4397   6.5013   6.5738   6.7121   6.7416
  6.8666   6.9911   7.0058   7.0592   7.1184   7.1294   7.1327   7.1367
  7.1448   7.2331   7.2564   7.2748   7.3238   7.3469   7.3791   7.3996
  7.4289   7.4936   7.5243   7.5340   7.5587   7.6427   7.6989   7.7729
  7.7830   7.8791   7.9802   8.0383   8.1523  24.7298  24.9008  50.4617
 50.5089  50.5882  50.6093  50.7207
 --------------------------------------------------------------
 
          Ground-State Mulliken Net Atomic Charges

     Atom                 Charge (a.u.)    Spin (a.u.)
  --------------------------------------------------------
      1 C                    -0.030143       0.012902
      2 O                    -0.434167      -0.000148
      3 O                    -0.436557       0.000017
      4 H                     0.347305      -0.000080
      5 H                     0.341154      -0.000011
      6 H                     0.259436      -0.000039
      7 C                    -0.108470      -0.026065
      8 H                     0.274478       0.006300
      9 O                    -0.499573       0.001218
     10 H                     0.368127      -0.008733
     11 O                    -0.025704       0.553131
     12 O                    -0.055885       0.461509
  --------------------------------------------------------
  Sum of atomic charges =     0.000000
  Sum of spin   charges =     1.000000

 -----------------------------------------------------------------
                    Cartesian Multipole Moments
 -----------------------------------------------------------------
    Charge (ESU x 10^10)
                 0.0000
    Dipole Moment (Debye)
         X      -4.5655      Y       2.2279      Z      -3.2192
       Tot       6.0142
    Quadrupole Moments (Debye-Ang)
        XX     -48.8055     XY       8.2128     YY     -42.2242
        XZ      10.8401     YZ      -4.0092     ZZ     -26.5346
    Octopole Moments (Debye-Ang^2)
       XXX    -176.6026    XXY       4.2179    XYY     -51.8704
       YYY     -19.4784    XXZ      74.8680    XYZ     -16.2774
       YYZ      54.9132    XZZ     -75.5139    YZZ      -6.2345
       ZZZ     113.3345
    Hexadecapole Moments (Debye-Ang^3)
      XXXX    -628.9186   XXXY     -16.7321   XXYY    -120.8325
      XYYY     -32.3363   YYYY    -231.0821   XXXZ     232.9774
      XXYZ     -38.7583   XYYZ      66.1073   YYYZ     -62.8554
      XXZZ    -288.1177   XYZZ      18.1165   YYZZ    -188.8488
      XZZZ     271.5648   YZZZ     -33.9342   ZZZZ    -681.7344
 -----------------------------------------------------------------
 Calculating analytic gradient of the SCF energy
 Gradient of CDS energy
            1           2           3           4           5           6
    1  -0.0006320   0.0014079  -0.0007659  -0.0004014  -0.0000124  -0.0000981
    2  -0.0027239   0.0023772   0.0004596  -0.0002997  -0.0000982   0.0001076
    3   0.0001698  -0.0017909   0.0015833   0.0001503  -0.0005176   0.0000992
            7           8           9          10          11          12
    1   0.0020390  -0.0001302  -0.0012920   0.0001482  -0.0000281  -0.0002350
    2  -0.0010046   0.0001854   0.0009864  -0.0001068  -0.0000463   0.0001633
    3   0.0013477  -0.0000589  -0.0012973   0.0002945   0.0000897  -0.0000698
 Gradient of SCF Energy
            1           2           3           4           5           6
    1   0.0099471   0.0218185   0.0192454  -0.0178055  -0.0168650  -0.0116887
    2  -0.0059846   0.0005166  -0.0023936  -0.0008640   0.0009338   0.0089874
    3   0.0030330   0.0100515   0.0146921  -0.0093877  -0.0120944  -0.0052565
            7           8           9          10          11          12
    1  -0.0058397   0.0006204   0.0023112   0.0000300  -0.0000141  -0.0017597
    2  -0.0061193   0.0068587  -0.0062712   0.0024327   0.0004415   0.0014620
    3   0.0044370  -0.0033193  -0.0042506   0.0009290  -0.0003736   0.0015396
 Max gradient component =       2.182E-02
 RMS gradient           =       8.536E-03
 Computing fast CPCM-SWIG gradient
 Updating gradient with PCM contributions...
 -- total gradient after adding PCM contribution --
---------------------------------------------------
  Atom         X              Y              Z     
---------------------------------------------------
   1       0.000026      -0.000005      -0.000036
   2       0.000017      -0.000019       0.000007
   3       0.000006       0.000027       0.000008
   4       0.000025      -0.000025      -0.000013
   5       0.000013       0.000011      -0.000002
   6      -0.000005      -0.000007       0.000001
   7      -0.000010       0.000009       0.000007
   8      -0.000024       0.000026       0.000015
   9       0.000002       0.000013      -0.000001
  10      -0.000002      -0.000001       0.000004
  11      -0.000026      -0.000020       0.000008
  12      -0.000022      -0.000008       0.000003
---------------------------------------------------
 Number of fixed atoms: 0
 Gradient time:  CPU 100.51 s  wall 15.26 s
 ######################################################
 ######################################################
 # Starting finite difference calculation for IDERIV  #
 Finite diff step size:  1.88973e-03 a.u.
 ----------------------------------------------------------------
             Standard Nuclear Orientation (Angstroms)
    I     Atom           X                Y                Z
 ----------------------------------------------------------------
    1      C       0.6652922021    -0.0547177182    -2.3665670228
    2      O       0.1304266244    -1.0853847930    -1.5784577202
    3      O       1.2742548623    -0.5408228672    -3.5417681276
    4      H      -0.7411558880    -1.3085706675    -1.9237641629
    5      H       0.5985796815    -0.6251143924    -4.2237176451
    6      H      -0.1018716528     0.6794560493    -2.6172841762
    7      C       1.7877148741     0.6103282194    -1.5909520804
    8      H       2.1918397173     1.4998475857    -2.0795177746
    9      O       2.5355092476    -0.0818580588    -0.8238757351
   10      H       2.0469072535     0.3613948197     0.3221973599
   11      O       0.7898115089     1.5022374482    -0.3526865446
   12      O       1.2778900692     1.0629547747     0.7462767297
 ----------------------------------------------------------------
 Nuclear Repulsion Energy =         338.47506162 hartrees
 There are       29 alpha and       28 beta electrons
 Discretize the solute cavity surface with Lebedev spheres
	Using 110 Lebedev grid points for each H atom
	Using 194 Lebedev grid points for other atoms
	Atomic van der Waals radii will be scaled by 1.20
 Remove points where switching function is < 1.0e-08
 Keep 1007 surface tesserae and discard 901 interior tesserae
 Molecular Surface Area = 115.619 Angst**2

                       Distance Matrix (Angstroms)
             C (  1)   O (  2)   O (  3)   H (  4)   H (  5)   H (  6)
   O (  2)  1.403379
   O (  3)  1.410047  2.336553
   H (  4)  1.935541  0.963693  2.696155
   H (  5)  1.943917  2.725512  0.963689  2.748052
   H (  6)  1.091059  2.061016  2.058513  2.200433  2.184757
   C (  7)  1.517794  2.371119  2.322601  3.191884  3.141945  2.151435
   H (  8)  2.197594  3.344236  2.672915  4.063734  3.413434  2.494664
   O (  9)  2.424530  2.713095  3.031229  3.667576  3.950411  3.278977
   H ( 10)  3.051469  3.062443  4.042427  3.950497  4.871981  3.654992
   O ( 11)  2.548594  2.938212  3.818249  3.565500  4.421208  2.569138
   O ( 12)  3.363668  3.366961  4.578149  4.102414  5.292625  3.655729
             C (  7)   H (  8)   O (  9)   H ( 10)   O ( 11)
   H (  8)  1.092364
   O (  9)  1.275431  2.048545
   H ( 10)  1.946610  2.661826  1.322380
   O ( 11)  1.823353  2.224328  2.403921  1.826822
   O ( 12)  2.434632  3.001882  2.314645  1.124018  1.280199
 
 Requested basis set is 6-311++G(2df,2p)
 There are 86 shells and 288 basis functions
 A cutoff of  1.0D-12 yielded   3479 shell pairs
 There are     39335 function pairs (     49457 Cartesian)
 Smallest overlap matrix eigenvalue = 5.07E-05
 Guess MOs from SCF MO coefficient file

 -----------------------------------------------------------------------
  General SCF calculation program by
  Eric Jon Sundstrom, Paul Horn, Yuezhi Mao, Dmitri Zuev, Alec White,
  David Stuck, Shaama M.S., Shane Yost, Joonho Lee, David Small,
  Daniel Levine, Susi Lehtola, Hugh Burton, Evgeny Epifanovsky,
  Bang C. Huynh
 -----------------------------------------------------------------------
 Exchange:     0.1500 Hartree-Fock + 1.0000 wB97M-V + LR-HF
 Correlation:  1.0000 wB97M-V
 Using SG-2 standard quadrature grid
 Nonlocal Correlation:  VV10 with C = 0.0100 and b = 6.00 and scale = 1.00000
 Grid used for NLC:  SG-1 standard quadrature
 
 Citation of the SMD model:
 Marenich, A.V.; Cramer, C.J.; Truhlar, D.G.
 J. Phys. Chem. B 2009, 113, 6378-6396.
 iSolventCode=           1
 Solvent: water                                                           
 
 vradii
            1           2           3           4           5           6
    1   1.8500000   1.5200000   1.5200000   1.2000000   1.2000000   1.2000000
            7           8           9          10          11          12
    1   1.8500000   1.2000000   1.5200000   1.2000000   1.5200000   1.5200000
 -------------------------------------------------------
 OpenMP BLAS3 based DFT computing Module                
 Release: version 1.0, May 2013, Q-Chem Inc. Pittsburgh 
 -------------------------------------------------------
 A unrestricted SCF calculation will be
 performed using Roothaan-Hall, DIIS, GDM
 SCF converges when RMS gradient is below 1.0e-07
 ---------------------------------------
  Cycle       Energy         DIIS error
 ---------------------------------------
    1    -455.1838537784      3.71e-04  Roothaan Step
 ---------------------------------------
  Cycle       Energy         DIIS error
 ---------------------------------------
    1    -455.2157280693      4.36e-04  
    2    -455.2225417353      3.87e-04  Done DIIS. Switching to GDM
 ---------------------------------------
  Cycle       Energy        RMS Gradient
 ---------------------------------------
    1    -455.2225417353      1.79e-02   Normal BFGS step
    2    -455.2213150173      2.79e-02  Line search: overstep
    3    -455.2264824019      4.42e-03   Normal BFGS step
    4    -455.2266868004      3.84e-03   Normal BFGS step
    5    -455.2267409533      2.11e-03   Normal BFGS step
    6    -455.2267545512      2.80e-04   Normal BFGS step
    7    -455.2267558258      1.08e-04   Normal BFGS step
    8    -455.2267561909      7.15e-05   Normal BFGS step
    9    -455.2267562331      5.24e-05   Normal BFGS step
   10    -455.2267562430      2.76e-05   Normal BFGS step
   11    -455.2267562462      1.31e-05   Normal BFGS step
   12    -455.2267562470      3.76e-06   Normal BFGS step
   13    -455.2267562471      3.66e-06   Normal BFGS step
   14    -455.2267562471      1.66e-06   Normal BFGS step
   15    -455.2267562471      7.94e-07   Normal BFGS step
   16    -455.2267562471      4.31e-07   Normal BFGS step
   17    -455.2267562471      2.17e-07   Normal BFGS step
   18    -455.2267562471      1.24e-07   Normal BFGS step
   19    -455.2267562471      8.54e-08  Convergence criterion met
 ---------------------------------------
 SCF time:   CPU 753.02s  wall 95.00s 
<S^2> =          0.754812453
(3)  G-ENP(liq) elect-nuc-pol free energy of system     -455.226756247 a.u.
(4)  G-CDS(liq) cavity-dispersion-solvent structure 
     free energy                                                2.8457 kcal/mol
(6)  G-S(liq) free energy of system                     -455.222221369 a.u.
 SCF   energy in the final basis set =     -455.2222213692
 Total energy in the final basis set =     -455.2222213692
 
 --------------------------------------------------------------
 
                    Orbital Energies (a.u.)
 --------------------------------------------------------------
 
 Alpha MOs
 -- Occupied --
-19.4695 -19.4674 -19.3512 -19.3496 -19.3346 -10.4568 -10.4535  -1.3848
 -1.2114  -1.1730  -1.1415  -1.0042  -0.8518  -0.7371  -0.7101  -0.6636
 -0.6537  -0.6416  -0.6348  -0.5843  -0.5655  -0.5105  -0.4931  -0.4667
 -0.4501  -0.4282  -0.4239  -0.4149  -0.3799
 -- Virtual --
  0.0256   0.0459   0.0484   0.0543   0.0688   0.0864   0.0995   0.1086
  0.1242   0.1336   0.1431   0.1583   0.1595   0.1703   0.1832   0.1981
  0.2261   0.2352   0.2399   0.2595   0.2635   0.2685   0.2734   0.2885
  0.2909   0.2971   0.3057   0.3175   0.3239   0.3383   0.3424   0.3479
  0.3583   0.3658   0.3681   0.3834   0.3851   0.3933   0.4013   0.4333
  0.4509   0.4597   0.4915   0.5163   0.5606   0.5777   0.5964   0.6147
  0.6179   0.6329   0.6726   0.6832   0.6944   0.7339   0.7478   0.7525
  0.8195   0.8221   0.8741   0.8943   0.8992   0.9145   0.9609   0.9939
  1.0021   1.0199   1.0661   1.0763   1.0866   1.1095   1.1374   1.1446
  1.1566   1.1653   1.1706   1.1860   1.1950   1.2147   1.2192   1.2403
  1.2486   1.2628   1.2868   1.3029   1.3203   1.3459   1.3788   1.4074
  1.4179   1.4586   1.4623   1.4977   1.5021   1.5207   1.5497   1.5857
  1.5931   1.6021   1.6300   1.6761   1.7119   1.7460   1.7578   1.7927
  1.8521   1.8851   1.9248   1.9454   2.0065   2.0436   2.0745   2.0951
  2.1407   2.2033   2.2396   2.2561   2.2807   2.3039   2.3262   2.3938
  2.4202   2.4438   2.4836   2.5256   2.5390   2.6468   2.6632   2.6653
  2.7057   2.8086   2.8430   2.8901   2.9585   2.9866   3.0288   3.1425
  3.2192   3.2357   3.2737   3.2956   3.3450   3.3704   3.4073   3.4268
  3.4854   3.5007   3.5639   3.6012   3.6461   3.6587   3.6910   3.7254
  3.7706   3.7955   3.8064   3.8486   3.8626   3.8878   3.9169   3.9745
  4.0090   4.0482   4.0823   4.1141   4.1663   4.2061   4.2223   4.2968
  4.3080   4.3202   4.3766   4.4608   4.5228   4.5378   4.6106   4.6853
  4.6952   4.7531   4.8038   4.9089   5.0377   5.0771   5.1249   5.1541
  5.1688   5.2047   5.2139   5.2265   5.2326   5.2448   5.2560   5.2678
  5.2955   5.3086   5.3301   5.3413   5.3609   5.3755   5.4076   5.4374
  5.4563   5.4769   5.5331   5.5498   5.5644   5.5870   5.6191   5.6391
  5.6685   5.6783   5.7319   5.7840   5.8386   6.0402   6.0626   6.1642
  6.2155   6.4095   6.4336   6.5003   6.5239   6.7085   6.7308   6.8179
  6.9336   6.9950   7.0489   7.0660   7.0846   7.1033   7.1242   7.1319
  7.2280   7.2559   7.2722   7.2927   7.3288   7.3633   7.3806   7.4112
  7.4857   7.5028   7.5315   7.5522   7.6428   7.6970   7.7669   7.7811
  7.8789   7.9759   8.0260   8.1329  24.7291  24.9018  50.4505  50.4969
 50.5882  50.6087  50.7206
 
 Beta MOs
 -- Occupied --
-19.4535 -19.4528 -19.3512 -19.3496 -19.3346 -10.4570 -10.4533  -1.3567
 -1.2112  -1.1724  -1.1415  -0.9664  -0.8485  -0.7285  -0.7059  -0.6606
 -0.6466  -0.6162  -0.5990  -0.5687  -0.5393  -0.5103  -0.4926  -0.4615
 -0.4358  -0.4225  -0.4145  -0.3853
 -- Virtual --
 -0.0483   0.0258   0.0461   0.0487   0.0551   0.0691   0.0892   0.1000
  0.1093   0.1252   0.1344   0.1438   0.1591   0.1599   0.1714   0.1866
  0.2023   0.2282   0.2360   0.2420   0.2620   0.2654   0.2699   0.2757
  0.2897   0.2933   0.3026   0.3061   0.3194   0.3245   0.3396   0.3435
  0.3500   0.3587   0.3675   0.3714   0.3840   0.3865   0.3943   0.4042
  0.4344   0.4512   0.4604   0.4922   0.5174   0.5609   0.5783   0.5972
  0.6156   0.6194   0.6333   0.6728   0.6837   0.6953   0.7342   0.7480
  0.7526   0.8203   0.8267   0.8743   0.8948   0.8994   0.9149   0.9622
  0.9976   1.0044   1.0217   1.0687   1.0789   1.0900   1.1313   1.1419
  1.1475   1.1596   1.1703   1.1736   1.1936   1.1956   1.2176   1.2241
  1.2497   1.2564   1.2677   1.2884   1.3053   1.3223   1.3466   1.3804
  1.4118   1.4225   1.4634   1.4683   1.4999   1.5088   1.5269   1.5509
  1.5964   1.5989   1.6052   1.6346   1.6892   1.7152   1.7475   1.7612
  1.8003   1.8574   1.8891   1.9306   1.9482   2.0124   2.0520   2.0827
  2.0967   2.1495   2.2056   2.2470   2.2625   2.2896   2.3208   2.3276
  2.3942   2.4216   2.4453   2.4848   2.5267   2.5461   2.6496   2.6661
  2.6719   2.7068   2.8095   2.8436   2.8901   2.9582   2.9862   3.0288
  3.1418   3.2192   3.2357   3.2734   3.2954   3.3460   3.3707   3.4069
  3.4269   3.4862   3.5007   3.5624   3.6024   3.6466   3.6581   3.6909
  3.7256   3.7706   3.7956   3.8071   3.8486   3.8630   3.8880   3.9189
  3.9749   4.0087   4.0484   4.0822   4.1138   4.1665   4.2063   4.2225
  4.2972   4.3081   4.3202   4.3774   4.4609   4.5306   4.5695   4.6139
  4.7048   4.7192   4.7585   4.8185   4.9207   5.0928   5.1134   5.1591
  5.1757   5.2133   5.2154   5.2323   5.2413   5.2475   5.2567   5.2738
  5.2767   5.3041   5.3260   5.3394   5.3450   5.3700   5.3906   5.4107
  5.4427   5.4577   5.4877   5.5360   5.5595   5.5664   5.5904   5.6392
  5.6433   5.6701   5.6811   5.7345   5.8010   5.8391   6.0407   6.0628
  6.1643   6.2172   6.4147   6.4398   6.5011   6.5737   6.7120   6.7416
  6.8666   6.9911   7.0059   7.0593   7.1184   7.1295   7.1327   7.1368
  7.1448   7.2331   7.2563   7.2748   7.3238   7.3468   7.3790   7.3996
  7.4290   7.4935   7.5243   7.5339   7.5588   7.6430   7.6992   7.7730
  7.7830   7.8790   7.9803   8.0383   8.1523  24.7291  24.9017  50.4617
 50.5089  50.5883  50.6091  50.7207
 --------------------------------------------------------------
 
          Ground-State Mulliken Net Atomic Charges

     Atom                 Charge (a.u.)    Spin (a.u.)
  --------------------------------------------------------
      1 C                    -0.030041       0.012900
      2 O                    -0.434543      -0.000145
      3 O                    -0.436372       0.000013
      4 H                     0.347327      -0.000081
      5 H                     0.341237      -0.000011
      6 H                     0.259179      -0.000039
      7 C                    -0.108303      -0.026085
      8 H                     0.274477       0.006298
      9 O                    -0.499604       0.001210
     10 H                     0.368128      -0.008732
     11 O                    -0.025664       0.553123
     12 O                    -0.055820       0.461549
  --------------------------------------------------------
  Sum of atomic charges =     0.000000
  Sum of spin   charges =     1.000000

 -----------------------------------------------------------------
                    Cartesian Multipole Moments
 -----------------------------------------------------------------
    Charge (ESU x 10^10)
                -0.0000
    Dipole Moment (Debye)
         X      -4.5619      Y       2.2291      Z      -3.2211
       Tot       6.0129
    Quadrupole Moments (Debye-Ang)
        XX     -48.8014     XY       8.2133     YY     -42.2264
        XZ      10.8307     YZ      -4.0071     ZZ     -26.5204
    Octopole Moments (Debye-Ang^2)
       XXX    -176.6091    XXY       4.2190    XYY     -51.8727
       YYY     -19.4723    XXZ      74.8565    XYZ     -16.2759
       YYZ      54.9166    XZZ     -75.4880    YZZ      -6.2449
       ZZZ     113.2683
    Hexadecapole Moments (Debye-Ang^3)
      XXXX    -628.9448   XXXY     -16.7282   XXYY    -120.8351
      XYYY     -32.3313   YYYY    -231.0952   XXXZ     232.9887
      XXYZ     -38.7581   XYYZ      66.1129   YYYZ     -62.8532
      XXZZ    -288.0873   XYZZ      18.1124   YYZZ    -188.8467
      XZZZ     271.4987   YZZZ     -33.8839   ZZZZ    -681.4219
 -----------------------------------------------------------------
 Calculating analytic gradient of the SCF energy
 Gradient of CDS energy
            1           2           3           4           5           6
    1  -0.0005562   0.0013815  -0.0008125  -0.0004017  -0.0000127  -0.0000995
    2  -0.0027081   0.0023234   0.0004977  -0.0002996  -0.0000981   0.0001077
    3   0.0000365  -0.0017492   0.0016748   0.0001505  -0.0005174   0.0000988
            7           8           9          10          11          12
    1   0.0020383  -0.0001301  -0.0012920   0.0001482  -0.0000283  -0.0002350
    2  -0.0010048   0.0001854   0.0009864  -0.0001068  -0.0000464   0.0001633
    3   0.0013477  -0.0000588  -0.0012972   0.0002945   0.0000896  -0.0000698
 Gradient of SCF Energy
            1           2           3           4           5           6
    1   0.0111283   0.0215897   0.0189653  -0.0178249  -0.0168418  -0.0120504
    2  -0.0060449   0.0004336  -0.0022813  -0.0009266   0.0009114   0.0091770
    3   0.0030691   0.0100564   0.0148996  -0.0093366  -0.0121526  -0.0053596
            7           8           9          10          11          12
    1  -0.0061169   0.0006217   0.0022711   0.0000222  -0.0000102  -0.0017542
    2  -0.0062018   0.0068514  -0.0062743   0.0024416   0.0004628   0.0014513
    3   0.0043374  -0.0033365  -0.0043022   0.0009356  -0.0003674   0.0015570
 Max gradient component =       2.159E-02
 RMS gradient           =       8.582E-03
 Computing fast CPCM-SWIG gradient
 Updating gradient with PCM contributions...
 -- total gradient after adding PCM contribution --
---------------------------------------------------
  Atom         X              Y              Z     
---------------------------------------------------
   1       0.001194      -0.000088       0.000009
   2      -0.000200      -0.000102       0.000016
   3      -0.000264       0.000135       0.000198
   4      -0.000005      -0.000090       0.000038
   5       0.000039      -0.000010      -0.000049
   6      -0.000366       0.000209      -0.000105
   7      -0.000283      -0.000071      -0.000094
   8      -0.000027       0.000015       0.000001
   9      -0.000039       0.000014      -0.000059
  10      -0.000011       0.000006       0.000010
  11      -0.000022       0.000002       0.000015
  12      -0.000017      -0.000019       0.000020
---------------------------------------------------
 Number of fixed atoms: 0
 Gradient time:  CPU 100.16 s  wall 14.72 s
 ----------------------------------------------------------------
             Standard Nuclear Orientation (Angstroms)
    I     Atom           X                Y                Z
 ----------------------------------------------------------------
    1      C       0.6632922021    -0.0547177182    -2.3665670228
    2      O       0.1304266244    -1.0853847930    -1.5784577202
    3      O       1.2742548623    -0.5408228672    -3.5417681276
    4      H      -0.7411558880    -1.3085706675    -1.9237641629
    5      H       0.5985796815    -0.6251143924    -4.2237176451
    6      H      -0.1018716528     0.6794560493    -2.6172841762
    7      C       1.7877148741     0.6103282194    -1.5909520804
    8      H       2.1918397173     1.4998475857    -2.0795177746
    9      O       2.5355092476    -0.0818580588    -0.8238757351
   10      H       2.0469072535     0.3613948197     0.3221973599
   11      O       0.7898115089     1.5022374482    -0.3526865446
   12      O       1.2778900692     1.0629547747     0.7462767297
 ----------------------------------------------------------------
 Nuclear Repulsion Energy =         338.45756830 hartrees
 There are       29 alpha and       28 beta electrons
 Discretize the solute cavity surface with Lebedev spheres
	Using 110 Lebedev grid points for each H atom
	Using 194 Lebedev grid points for other atoms
	Atomic van der Waals radii will be scaled by 1.20
 Remove points where switching function is < 1.0e-08
 Keep 1007 surface tesserae and discard 901 interior tesserae
 Molecular Surface Area = 115.617 Angst**2

                       Distance Matrix (Angstroms)
             C (  1)   O (  2)   O (  3)   H (  4)   H (  5)   H (  6)
   O (  2)  1.402618
   O (  3)  1.410911  2.336553
   H (  4)  1.934088  0.963693  2.696155
   H (  5)  1.943849  2.725512  0.963689  2.748052
   H (  6)  1.089654  2.061016  2.058513  2.200433  2.184757
   C (  7)  1.519273  2.371119  2.322601  3.191884  3.141945  2.151435
   H (  8)  2.198983  3.344236  2.672915  4.063734  3.413434  2.494664
   O (  9)  2.426073  2.713095  3.031229  3.667576  3.950411  3.278977
   H ( 10)  3.052375  3.062443  4.042427  3.950497  4.871981  3.654992
   O ( 11)  2.548692  2.938212  3.818249  3.565500  4.421208  2.569138
   O ( 12)  3.364033  3.366961  4.578149  4.102414  5.292625  3.655729
             C (  7)   H (  8)   O (  9)   H ( 10)   O ( 11)
   H (  8)  1.092364
   O (  9)  1.275431  2.048545
   H ( 10)  1.946610  2.661826  1.322380
   O ( 11)  1.823353  2.224328  2.403921  1.826822
   O ( 12)  2.434632  3.001882  2.314645  1.124018  1.280199
 
 Requested basis set is 6-311++G(2df,2p)
 There are 86 shells and 288 basis functions
 A cutoff of  1.0D-12 yielded   3479 shell pairs
 There are     39335 function pairs (     49457 Cartesian)
 Smallest overlap matrix eigenvalue = 5.09E-05
 Guess MOs from SCF MO coefficient file

 -----------------------------------------------------------------------
  General SCF calculation program by
  Eric Jon Sundstrom, Paul Horn, Yuezhi Mao, Dmitri Zuev, Alec White,
  David Stuck, Shaama M.S., Shane Yost, Joonho Lee, David Small,
  Daniel Levine, Susi Lehtola, Hugh Burton, Evgeny Epifanovsky,
  Bang C. Huynh
 -----------------------------------------------------------------------
 Exchange:     0.1500 Hartree-Fock + 1.0000 wB97M-V + LR-HF
 Correlation:  1.0000 wB97M-V
 Using SG-2 standard quadrature grid
 Nonlocal Correlation:  VV10 with C = 0.0100 and b = 6.00 and scale = 1.00000
 Grid used for NLC:  SG-1 standard quadrature
 
 Citation of the SMD model:
 Marenich, A.V.; Cramer, C.J.; Truhlar, D.G.
 J. Phys. Chem. B 2009, 113, 6378-6396.
 iSolventCode=           1
 Solvent: water                                                           
 
 vradii
            1           2           3           4           5           6
    1   1.8500000   1.5200000   1.5200000   1.2000000   1.2000000   1.2000000
            7           8           9          10          11          12
    1   1.8500000   1.2000000   1.5200000   1.2000000   1.5200000   1.5200000
 -------------------------------------------------------
 OpenMP BLAS3 based DFT computing Module                
 Release: version 1.0, May 2013, Q-Chem Inc. Pittsburgh 
 -------------------------------------------------------
 A unrestricted SCF calculation will be
 performed using Roothaan-Hall, DIIS, GDM
 SCF converges when RMS gradient is below 1.0e-07
 ---------------------------------------
  Cycle       Energy         DIIS error
 ---------------------------------------
    1    -455.1838420100      3.71e-04  Roothaan Step
 ---------------------------------------
  Cycle       Energy         DIIS error
 ---------------------------------------
    1    -455.2157220036      4.36e-04  
    2    -455.2225482904      3.87e-04  Done DIIS. Switching to GDM
 ---------------------------------------
  Cycle       Energy        RMS Gradient
 ---------------------------------------
    1    -455.2225482904      1.79e-02   Normal BFGS step
    2    -455.2213263080      2.78e-02  Line search: overstep
    3    -455.2264846837      4.44e-03   Normal BFGS step
    4    -455.2266892525      3.83e-03   Normal BFGS step
    5    -455.2267434212      2.12e-03   Normal BFGS step
    6    -455.2267570442      2.81e-04   Normal BFGS step
    7    -455.2267583115      1.10e-04   Normal BFGS step
    8    -455.2267586771      7.02e-05   Normal BFGS step
    9    -455.2267587192      5.36e-05   Normal BFGS step
   10    -455.2267587291      2.84e-05   Normal BFGS step
   11    -455.2267587322      1.35e-05   Normal BFGS step
   12    -455.2267587330      3.76e-06   Normal BFGS step
   13    -455.2267587331      3.31e-06   Normal BFGS step
   14    -455.2267587331      1.46e-06   Normal BFGS step
   15    -455.2267587331      3.70e-07   Normal BFGS step
   16    -455.2267587331      2.36e-07   Normal BFGS step
   17    -455.2267587331      1.63e-07   Normal BFGS step
   18    -455.2267587332      9.81e-08  Convergence criterion met
 ---------------------------------------
 SCF time:   CPU 720.46s  wall 92.00s 
<S^2> =          0.754811275
(3)  G-ENP(liq) elect-nuc-pol free energy of system     -455.226758733 a.u.
(4)  G-CDS(liq) cavity-dispersion-solvent structure 
     free energy                                                2.8472 kcal/mol
(6)  G-S(liq) free energy of system                     -455.222221468 a.u.
 SCF   energy in the final basis set =     -455.2222214675
 Total energy in the final basis set =     -455.2222214675
 
 --------------------------------------------------------------
 
                    Orbital Energies (a.u.)
 --------------------------------------------------------------
 
 Alpha MOs
 -- Occupied --
-19.4694 -19.4674 -19.3511 -19.3498 -19.3347 -10.4568 -10.4535  -1.3848
 -1.2114  -1.1730  -1.1416  -1.0042  -0.8515  -0.7371  -0.7101  -0.6637
 -0.6536  -0.6415  -0.6348  -0.5842  -0.5655  -0.5107  -0.4931  -0.4667
 -0.4500  -0.4282  -0.4242  -0.4149  -0.3798
 -- Virtual --
  0.0256   0.0459   0.0484   0.0543   0.0688   0.0865   0.0995   0.1086
  0.1243   0.1335   0.1431   0.1584   0.1596   0.1703   0.1832   0.1982
  0.2260   0.2351   0.2399   0.2595   0.2635   0.2684   0.2734   0.2886
  0.2910   0.2971   0.3056   0.3174   0.3238   0.3382   0.3424   0.3478
  0.3582   0.3658   0.3680   0.3832   0.3851   0.3933   0.4013   0.4334
  0.4509   0.4598   0.4915   0.5162   0.5603   0.5777   0.5965   0.6149
  0.6179   0.6329   0.6727   0.6832   0.6944   0.7338   0.7478   0.7524
  0.8195   0.8220   0.8741   0.8944   0.8992   0.9144   0.9610   0.9939
  1.0021   1.0200   1.0661   1.0764   1.0866   1.1095   1.1373   1.1445
  1.1566   1.1653   1.1706   1.1860   1.1949   1.2147   1.2192   1.2404
  1.2486   1.2628   1.2870   1.3028   1.3203   1.3457   1.3788   1.4073
  1.4179   1.4586   1.4623   1.4977   1.5022   1.5207   1.5498   1.5856
  1.5932   1.6022   1.6301   1.6761   1.7118   1.7462   1.7578   1.7928
  1.8521   1.8849   1.9247   1.9455   2.0063   2.0435   2.0744   2.0948
  2.1408   2.2033   2.2398   2.2560   2.2808   2.3040   2.3262   2.3935
  2.4197   2.4441   2.4834   2.5254   2.5385   2.6465   2.6630   2.6650
  2.7053   2.8084   2.8430   2.8900   2.9588   2.9861   3.0284   3.1422
  3.2191   3.2351   3.2732   3.2956   3.3449   3.3705   3.4079   3.4272
  3.4849   3.4999   3.5636   3.6014   3.6458   3.6591   3.6910   3.7259
  3.7709   3.7956   3.8063   3.8483   3.8627   3.8878   3.9170   3.9741
  4.0089   4.0481   4.0819   4.1138   4.1657   4.2054   4.2218   4.2961
  4.3075   4.3202   4.3762   4.4619   4.5230   4.5381   4.6102   4.6853
  4.6951   4.7528   4.8038   4.9089   5.0377   5.0772   5.1249   5.1541
  5.1694   5.2048   5.2139   5.2267   5.2326   5.2449   5.2560   5.2680
  5.2956   5.3086   5.3301   5.3412   5.3610   5.3755   5.4077   5.4376
  5.4562   5.4768   5.5332   5.5498   5.5651   5.5871   5.6192   5.6389
  5.6682   5.6789   5.7320   5.7840   5.8388   6.0381   6.0622   6.1652
  6.2151   6.4094   6.4333   6.5005   6.5240   6.7086   6.7307   6.8179
  6.9336   6.9949   7.0488   7.0661   7.0846   7.1033   7.1241   7.1318
  7.2280   7.2560   7.2723   7.2927   7.3290   7.3634   7.3806   7.4112
  7.4859   7.5029   7.5316   7.5520   7.6422   7.6964   7.7667   7.7811
  7.8790   7.9758   8.0260   8.1329  24.7304  24.9000  50.4506  50.4970
 50.5880  50.6090  50.7205
 
 Beta MOs
 -- Occupied --
-19.4535 -19.4528 -19.3511 -19.3497 -19.3346 -10.4570 -10.4533  -1.3567
 -1.2112  -1.1723  -1.1416  -0.9664  -0.8482  -0.7284  -0.7059  -0.6608
 -0.6463  -0.6162  -0.5989  -0.5687  -0.5393  -0.5104  -0.4925  -0.4614
 -0.4358  -0.4227  -0.4145  -0.3852
 -- Virtual --
 -0.0483   0.0258   0.0461   0.0487   0.0551   0.0691   0.0893   0.1000
  0.1093   0.1252   0.1344   0.1438   0.1591   0.1599   0.1714   0.1866
  0.2024   0.2282   0.2360   0.2420   0.2620   0.2654   0.2699   0.2757
  0.2898   0.2934   0.3026   0.3060   0.3193   0.3244   0.3395   0.3436
  0.3499   0.3586   0.3675   0.3712   0.3839   0.3865   0.3943   0.4042
  0.4345   0.4512   0.4604   0.4922   0.5173   0.5606   0.5783   0.5972
  0.6158   0.6194   0.6333   0.6728   0.6837   0.6953   0.7341   0.7480
  0.7525   0.8202   0.8266   0.8743   0.8949   0.8993   0.9149   0.9623
  0.9977   1.0044   1.0218   1.0687   1.0791   1.0901   1.1312   1.1419
  1.1475   1.1597   1.1703   1.1735   1.1935   1.1955   1.2176   1.2241
  1.2499   1.2563   1.2676   1.2886   1.3053   1.3224   1.3464   1.3804
  1.4117   1.4224   1.4633   1.4684   1.4999   1.5089   1.5268   1.5510
  1.5967   1.5988   1.6052   1.6347   1.6892   1.7150   1.7477   1.7612
  1.8004   1.8573   1.8890   1.9305   1.9482   2.0122   2.0519   2.0826
  2.0965   2.1495   2.2057   2.2472   2.2624   2.2896   2.3208   2.3276
  2.3940   2.4211   2.4455   2.4847   2.5265   2.5457   2.6493   2.6657
  2.6720   2.7064   2.8094   2.8436   2.8899   2.9585   2.9857   3.0284
  3.1416   3.2191   3.2351   3.2729   3.2955   3.3459   3.3709   3.4075
  3.4274   3.4857   3.4999   3.5621   3.6025   3.6463   3.6585   3.6909
  3.7261   3.7708   3.7957   3.8070   3.8483   3.8631   3.8880   3.9190
  3.9744   4.0085   4.0483   4.0818   4.1136   4.1659   4.2056   4.2220
  4.2966   4.3076   4.3202   4.3771   4.4621   4.5310   4.5695   4.6135
  4.7048   4.7191   4.7582   4.8185   4.9207   5.0928   5.1134   5.1591
  5.1763   5.2135   5.2154   5.2323   5.2414   5.2476   5.2567   5.2739
  5.2767   5.3041   5.3261   5.3394   5.3450   5.3701   5.3906   5.4107
  5.4429   5.4577   5.4877   5.5360   5.5595   5.5672   5.5905   5.6392
  5.6433   5.6698   5.6817   5.7346   5.8010   5.8394   6.0385   6.0624
  6.1653   6.2168   6.4145   6.4396   6.5014   6.5738   6.7121   6.7416
  6.8666   6.9911   7.0058   7.0592   7.1184   7.1294   7.1326   7.1367
  7.1447   7.2331   7.2564   7.2749   7.3238   7.3469   7.3792   7.3995
  7.4289   7.4937   7.5243   7.5341   7.5586   7.6424   7.6986   7.7728
  7.7830   7.8791   7.9802   8.0384   8.1523  24.7304  24.8999  50.4617
 50.5090  50.5881  50.6094  50.7206
 --------------------------------------------------------------
 
          Ground-State Mulliken Net Atomic Charges

     Atom                 Charge (a.u.)    Spin (a.u.)
  --------------------------------------------------------
      1 C                    -0.030244       0.012904
      2 O                    -0.433792      -0.000150
      3 O                    -0.436741       0.000021
      4 H                     0.347282      -0.000080
      5 H                     0.341072      -0.000011
      6 H                     0.259693      -0.000038
      7 C                    -0.108638      -0.026046
      8 H                     0.274478       0.006302
      9 O                    -0.499541       0.001226
     10 H                     0.368125      -0.008734
     11 O                    -0.025743       0.553139
     12 O                    -0.055949       0.461468
  --------------------------------------------------------
  Sum of atomic charges =     0.000000
  Sum of spin   charges =     1.000000

 -----------------------------------------------------------------
                    Cartesian Multipole Moments
 -----------------------------------------------------------------
    Charge (ESU x 10^10)
                 0.0000
    Dipole Moment (Debye)
         X      -4.5691      Y       2.2267      Z      -3.2173
       Tot       6.0155
    Quadrupole Moments (Debye-Ang)
        XX     -48.8095     XY       8.2124     YY     -42.2221
        XZ      10.8495     YZ      -4.0112     ZZ     -26.5488
    Octopole Moments (Debye-Ang^2)
       XXX    -176.5961    XXY       4.2169    XYY     -51.8682
       YYY     -19.4845    XXZ      74.8794    XYZ     -16.2789
       YYZ      54.9099    XZZ     -75.5397    YZZ      -6.2242
       ZZZ     113.4007
    Hexadecapole Moments (Debye-Ang^3)
      XXXX    -628.8923   XXXY     -16.7359   XXYY    -120.8299
      XYYY     -32.3413   YYYY    -231.0691   XXXZ     232.9660
      XXYZ     -38.7584   XYYZ      66.1018   YYYZ     -62.8575
      XXZZ    -288.1480   XYZZ      18.1205   YYZZ    -188.8509
      XZZZ     271.6308   YZZZ     -33.9844   ZZZZ    -682.0468
 -----------------------------------------------------------------
 Calculating analytic gradient of the SCF energy
 Gradient of CDS energy
            1           2           3           4           5           6
    1  -0.0007060   0.0014332  -0.0007196  -0.0004010  -0.0000121  -0.0000970
    2  -0.0027389   0.0024301   0.0004218  -0.0002999  -0.0000983   0.0001073
    3   0.0003011  -0.0018318   0.0014927   0.0001502  -0.0005177   0.0000998
            7           8           9          10          11          12
    1   0.0020396  -0.0001302  -0.0012921   0.0001482  -0.0000279  -0.0002349
    2  -0.0010043   0.0001854   0.0009863  -0.0001068  -0.0000461   0.0001634
    3   0.0013477  -0.0000590  -0.0012974   0.0002945   0.0000898  -0.0000697
 Gradient of SCF Energy
            1           2           3           4           5           6
    1   0.0087675   0.0220464   0.0195250  -0.0177859  -0.0168881  -0.0113264
    2  -0.0059218   0.0005989  -0.0025055  -0.0008014   0.0009562   0.0087963
    3   0.0029952   0.0100473   0.0144858  -0.0094389  -0.0120362  -0.0051527
            7           8           9          10          11          12
    1  -0.0055634   0.0006191   0.0023512   0.0000377  -0.0000180  -0.0017652
    2  -0.0060375   0.0068660  -0.0062680   0.0024237   0.0004203   0.0014728
    3   0.0045360  -0.0033021  -0.0041992   0.0009225  -0.0003798   0.0015221
 Max gradient component =       2.205E-02
 RMS gradient           =       8.496E-03
 Computing fast CPCM-SWIG gradient
 Updating gradient with PCM contributions...
 -- total gradient after adding PCM contribution --
---------------------------------------------------
  Atom         X              Y              Z     
---------------------------------------------------
   1      -0.001141       0.000080      -0.000082
   2       0.000234       0.000062      -0.000002
   3       0.000274      -0.000079      -0.000181
   4       0.000056       0.000041      -0.000064
   5      -0.000013       0.000031       0.000045
   6       0.000357      -0.000226       0.000107
   7       0.000262       0.000088       0.000106
   8      -0.000022       0.000037       0.000029
   9       0.000043       0.000013       0.000057
  10       0.000008      -0.000009      -0.000003
  11      -0.000031      -0.000041       0.000000
  12      -0.000028       0.000003      -0.000014
---------------------------------------------------
 Number of fixed atoms: 0
 Gradient time:  CPU 100.81 s  wall 14.89 s
 ----------------------------------------------------------------
             Standard Nuclear Orientation (Angstroms)
    I     Atom           X                Y                Z
 ----------------------------------------------------------------
    1      C       0.6642922021    -0.0537177182    -2.3665670228
    2      O       0.1304266244    -1.0853847930    -1.5784577202
    3      O       1.2742548623    -0.5408228672    -3.5417681276
    4      H      -0.7411558880    -1.3085706675    -1.9237641629
    5      H       0.5985796815    -0.6251143924    -4.2237176451
    6      H      -0.1018716528     0.6794560493    -2.6172841762
    7      C       1.7877148741     0.6103282194    -1.5909520804
    8      H       2.1918397173     1.4998475857    -2.0795177746
    9      O       2.5355092476    -0.0818580588    -0.8238757351
   10      H       2.0469072535     0.3613948197     0.3221973599
   11      O       0.7898115089     1.5022374482    -0.3526865446
   12      O       1.2778900692     1.0629547747     0.7462767297
 ----------------------------------------------------------------
 Nuclear Repulsion Energy =         338.46065357 hartrees
 There are       29 alpha and       28 beta electrons
 Discretize the solute cavity surface with Lebedev spheres
	Using 110 Lebedev grid points for each H atom
	Using 194 Lebedev grid points for other atoms
	Atomic van der Waals radii will be scaled by 1.20
 Remove points where switching function is < 1.0e-08
 Keep 1007 surface tesserae and discard 901 interior tesserae
 Molecular Surface Area = 115.620 Angst**2

                       Distance Matrix (Angstroms)
             C (  1)   O (  2)   O (  3)   H (  4)   H (  5)   H (  6)
   O (  2)  1.403733
   O (  3)  1.410824  2.336553
   H (  4)  1.935462  0.963693  2.696155
   H (  5)  1.944176  2.725512  0.963689  2.748052
   H (  6)  1.089683  2.061016  2.058513  2.200433  2.184757
   C (  7)  1.518096  2.371119  2.322601  3.191884  3.141945  2.151435
   H (  8)  2.197581  3.344236  2.672915  4.063734  3.413434  2.494664
   O (  9)  2.425313  2.713095  3.031229  3.667576  3.950411  3.278977
   H ( 10)  3.051786  3.062443  4.042427  3.950497  4.871981  3.654992
   O ( 11)  2.548032  2.938212  3.818249  3.565500  4.421208  2.569138
   O ( 12)  3.363518  3.366961  4.578149  4.102414  5.292625  3.655729
             C (  7)   H (  8)   O (  9)   H ( 10)   O ( 11)
   H (  8)  1.092364
   O (  9)  1.275431  2.048545
   H ( 10)  1.946610  2.661826  1.322380
   O ( 11)  1.823353  2.224328  2.403921  1.826822
   O ( 12)  2.434632  3.001882  2.314645  1.124018  1.280199
 
 Requested basis set is 6-311++G(2df,2p)
 There are 86 shells and 288 basis functions
 A cutoff of  1.0D-12 yielded   3479 shell pairs
 There are     39335 function pairs (     49457 Cartesian)
 Smallest overlap matrix eigenvalue = 5.08E-05
 Guess MOs from SCF MO coefficient file

 -----------------------------------------------------------------------
  General SCF calculation program by
  Eric Jon Sundstrom, Paul Horn, Yuezhi Mao, Dmitri Zuev, Alec White,
  David Stuck, Shaama M.S., Shane Yost, Joonho Lee, David Small,
  Daniel Levine, Susi Lehtola, Hugh Burton, Evgeny Epifanovsky,
  Bang C. Huynh
 -----------------------------------------------------------------------
 Exchange:     0.1500 Hartree-Fock + 1.0000 wB97M-V + LR-HF
 Correlation:  1.0000 wB97M-V
 Using SG-2 standard quadrature grid
 Nonlocal Correlation:  VV10 with C = 0.0100 and b = 6.00 and scale = 1.00000
 Grid used for NLC:  SG-1 standard quadrature
 
 Citation of the SMD model:
 Marenich, A.V.; Cramer, C.J.; Truhlar, D.G.
 J. Phys. Chem. B 2009, 113, 6378-6396.
 iSolventCode=           1
 Solvent: water                                                           
 
 vradii
            1           2           3           4           5           6
    1   1.8500000   1.5200000   1.5200000   1.2000000   1.2000000   1.2000000
            7           8           9          10          11          12
    1   1.8500000   1.2000000   1.5200000   1.2000000   1.5200000   1.5200000
 -------------------------------------------------------
 OpenMP BLAS3 based DFT computing Module                
 Release: version 1.0, May 2013, Q-Chem Inc. Pittsburgh 
 -------------------------------------------------------
 A unrestricted SCF calculation will be
 performed using Roothaan-Hall, DIIS, GDM
 SCF converges when RMS gradient is below 1.0e-07
 ---------------------------------------
  Cycle       Energy         DIIS error
 ---------------------------------------
    1    -455.1838300179      3.71e-04  Roothaan Step
 ---------------------------------------
  Cycle       Energy         DIIS error
 ---------------------------------------
    1    -455.2157047953      4.36e-04  
    2    -455.2225221292      3.88e-04  Done DIIS. Switching to GDM
 ---------------------------------------
  Cycle       Energy        RMS Gradient
 ---------------------------------------
    1    -455.2225221292      1.79e-02   Normal BFGS step
    2    -455.2212896151      2.79e-02  Line search: overstep
    3    -455.2264782943      4.43e-03   Normal BFGS step
    4    -455.2266828357      3.84e-03   Normal BFGS step
    5    -455.2267370617      2.11e-03   Normal BFGS step
    6    -455.2267506965      2.80e-04   Normal BFGS step
    7    -455.2267519651      1.08e-04   Normal BFGS step
    8    -455.2267523310      7.18e-05   Normal BFGS step
    9    -455.2267523730      5.24e-05   Normal BFGS step
   10    -455.2267523830      2.77e-05   Normal BFGS step
   11    -455.2267523861      1.31e-05   Normal BFGS step
   12    -455.2267523869      3.76e-06   Normal BFGS step
   13    -455.2267523870      3.64e-06   Normal BFGS step
   14    -455.2267523871      1.65e-06   Normal BFGS step
   15    -455.2267523871      7.71e-07   Normal BFGS step
   16    -455.2267523871      4.22e-07   Normal BFGS step
   17    -455.2267523871      2.18e-07   Normal BFGS step
   18    -455.2267523871      1.21e-07   Normal BFGS step
   19    -455.2267523871      8.45e-08  Convergence criterion met
 ---------------------------------------
 SCF time:   CPU 749.78s  wall 95.00s 
<S^2> =          0.754812206
(3)  G-ENP(liq) elect-nuc-pol free energy of system     -455.226752387 a.u.
(4)  G-CDS(liq) cavity-dispersion-solvent structure 
     free energy                                                2.8432 kcal/mol
(6)  G-S(liq) free energy of system                     -455.222221405 a.u.
 SCF   energy in the final basis set =     -455.2222214050
 Total energy in the final basis set =     -455.2222214050
 
 --------------------------------------------------------------
 
                    Orbital Energies (a.u.)
 --------------------------------------------------------------
 
 Alpha MOs
 -- Occupied --
-19.4694 -19.4674 -19.3511 -19.3496 -19.3347 -10.4568 -10.4535  -1.3848
 -1.2113  -1.1730  -1.1414  -1.0042  -0.8518  -0.7371  -0.7101  -0.6637
 -0.6536  -0.6415  -0.6348  -0.5842  -0.5655  -0.5105  -0.4931  -0.4667
 -0.4501  -0.4282  -0.4242  -0.4148  -0.3799
 -- Virtual --
  0.0256   0.0459   0.0484   0.0543   0.0687   0.0865   0.0995   0.1086
  0.1243   0.1336   0.1431   0.1584   0.1595   0.1703   0.1832   0.1981
  0.2261   0.2351   0.2399   0.2595   0.2635   0.2685   0.2734   0.2885
  0.2909   0.2971   0.3057   0.3174   0.3239   0.3383   0.3424   0.3478
  0.3582   0.3658   0.3681   0.3833   0.3852   0.3933   0.4013   0.4334
  0.4509   0.4597   0.4915   0.5162   0.5605   0.5777   0.5964   0.6148
  0.6179   0.6330   0.6726   0.6832   0.6944   0.7339   0.7478   0.7525
  0.8195   0.8222   0.8741   0.8944   0.8992   0.9144   0.9609   0.9939
  1.0021   1.0200   1.0661   1.0763   1.0866   1.1095   1.1374   1.1445
  1.1567   1.1653   1.1706   1.1860   1.1949   1.2147   1.2192   1.2404
  1.2486   1.2629   1.2869   1.3028   1.3203   1.3458   1.3789   1.4074
  1.4179   1.4586   1.4623   1.4976   1.5022   1.5207   1.5498   1.5856
  1.5932   1.6024   1.6300   1.6762   1.7118   1.7463   1.7578   1.7928
  1.8521   1.8848   1.9247   1.9453   2.0064   2.0434   2.0744   2.0948
  2.1407   2.2032   2.2397   2.2560   2.2806   2.3040   2.3262   2.3934
  2.4196   2.4440   2.4833   2.5255   2.5387   2.6466   2.6630   2.6652
  2.7054   2.8081   2.8431   2.8902   2.9587   2.9863   3.0288   3.1423
  3.2192   3.2351   3.2731   3.2955   3.3450   3.3702   3.4072   3.4270
  3.4849   3.5002   3.5637   3.6013   3.6461   3.6589   3.6910   3.7257
  3.7709   3.7956   3.8063   3.8486   3.8627   3.8874   3.9170   3.9744
  4.0088   4.0488   4.0822   4.1141   4.1664   4.2058   4.2222   4.2967
  4.3079   4.3203   4.3765   4.4621   4.5234   4.5388   4.6104   4.6853
  4.6952   4.7532   4.8039   4.9089   5.0377   5.0771   5.1250   5.1542
  5.1694   5.2047   5.2138   5.2266   5.2328   5.2449   5.2560   5.2679
  5.2955   5.3086   5.3301   5.3413   5.3609   5.3753   5.4077   5.4378
  5.4562   5.4768   5.5330   5.5498   5.5645   5.5871   5.6192   5.6392
  5.6683   5.6783   5.7320   5.7840   5.8386   6.0385   6.0612   6.1627
  6.2149   6.4096   6.4336   6.5001   6.5240   6.7072   6.7302   6.8179
  6.9336   6.9950   7.0488   7.0660   7.0846   7.1033   7.1241   7.1317
  7.2280   7.2559   7.2723   7.2927   7.3288   7.3632   7.3805   7.4112
  7.4858   7.5028   7.5315   7.5520   7.6424   7.6964   7.7667   7.7808
  7.8788   7.9759   8.0260   8.1329  24.7291  24.9012  50.4506  50.4969
 50.5880  50.6086  50.7205
 
 Beta MOs
 -- Occupied --
-19.4535 -19.4528 -19.3511 -19.3496 -19.3347 -10.4571 -10.4533  -1.3567
 -1.2110  -1.1724  -1.1414  -0.9664  -0.8485  -0.7285  -0.7059  -0.6608
 -0.6464  -0.6162  -0.5989  -0.5687  -0.5393  -0.5103  -0.4926  -0.4615
 -0.4358  -0.4227  -0.4144  -0.3853
 -- Virtual --
 -0.0483   0.0258   0.0461   0.0487   0.0551   0.0691   0.0893   0.1000
  0.1093   0.1252   0.1344   0.1438   0.1591   0.1599   0.1714   0.1866
  0.2023   0.2282   0.2360   0.2419   0.2620   0.2654   0.2699   0.2757
  0.2897   0.2932   0.3026   0.3061   0.3194   0.3245   0.3396   0.3436
  0.3499   0.3586   0.3675   0.3713   0.3840   0.3865   0.3943   0.4042
  0.4345   0.4512   0.4603   0.4922   0.5174   0.5608   0.5782   0.5971
  0.6157   0.6193   0.6334   0.6727   0.6837   0.6953   0.7342   0.7479
  0.7526   0.8203   0.8267   0.8743   0.8949   0.8993   0.9148   0.9622
  0.9977   1.0044   1.0218   1.0687   1.0790   1.0901   1.1312   1.1419
  1.1475   1.1597   1.1703   1.1736   1.1935   1.1955   1.2176   1.2241
  1.2499   1.2564   1.2677   1.2886   1.3052   1.3224   1.3466   1.3805
  1.4118   1.4224   1.4634   1.4683   1.4999   1.5089   1.5269   1.5510
  1.5967   1.5988   1.6054   1.6346   1.6892   1.7151   1.7479   1.7613
  1.8004   1.8573   1.8889   1.9305   1.9480   2.0124   2.0519   2.0827
  2.0965   2.1495   2.2056   2.2471   2.2623   2.2895   2.3208   2.3276
  2.3938   2.4210   2.4454   2.4846   2.5266   2.5458   2.6493   2.6659
  2.6719   2.7065   2.8091   2.8437   2.8901   2.9584   2.9859   3.0288
  3.1416   3.2191   3.2351   3.2728   3.2954   3.3461   3.3705   3.4068
  3.4272   3.4857   3.5002   3.5623   3.6025   3.6466   3.6583   3.6909
  3.7259   3.7709   3.7957   3.8070   3.8486   3.8630   3.8876   3.9190
  3.9747   4.0084   4.0490   4.0821   4.1138   4.1665   4.2060   4.2223
  4.2972   4.3080   4.3203   4.3773   4.4622   4.5320   4.5696   4.6137
  4.7047   4.7192   4.7586   4.8185   4.9207   5.0928   5.1134   5.1591
  5.1763   5.2135   5.2153   5.2323   5.2414   5.2475   5.2570   5.2738
  5.2767   5.3041   5.3260   5.3394   5.3450   5.3699   5.3905   5.4108
  5.4431   5.4576   5.4876   5.5359   5.5594   5.5667   5.5905   5.6393
  5.6433   5.6700   5.6810   5.7346   5.8010   5.8392   6.0389   6.0614
  6.1628   6.2167   6.4148   6.4398   6.5010   6.5738   6.7105   6.7414
  6.8666   6.9912   7.0059   7.0593   7.1184   7.1293   7.1326   7.1367
  7.1447   7.2331   7.2563   7.2748   7.3237   7.3467   7.3790   7.3996
  7.4289   7.4936   7.5243   7.5339   7.5586   7.6426   7.6987   7.7727
  7.7828   7.8789   7.9803   8.0383   8.1523  24.7292  24.9011  50.4617
 50.5089  50.5881  50.6090  50.7207
 --------------------------------------------------------------
 
          Ground-State Mulliken Net Atomic Charges

     Atom                 Charge (a.u.)    Spin (a.u.)
  --------------------------------------------------------
      1 C                    -0.029983       0.012908
      2 O                    -0.434534      -0.000147
      3 O                    -0.436650       0.000017
      4 H                     0.347236      -0.000081
      5 H                     0.341123      -0.000012
      6 H                     0.259799      -0.000038
      7 C                    -0.108523      -0.026082
      8 H                     0.274496       0.006307
      9 O                    -0.499559       0.001218
     10 H                     0.368125      -0.008734
     11 O                    -0.025668       0.553125
     12 O                    -0.055864       0.461519
  --------------------------------------------------------
  Sum of atomic charges =     0.000000
  Sum of spin   charges =     1.000000

 -----------------------------------------------------------------
                    Cartesian Multipole Moments
 -----------------------------------------------------------------
    Charge (ESU x 10^10)
                 0.0000
    Dipole Moment (Debye)
         X      -4.5647      Y       2.2331      Z      -3.2194
       Tot       6.0157
    Quadrupole Moments (Debye-Ang)
        XX     -48.8030     XY       8.2135     YY     -42.2257
        XZ      10.8419     YZ      -4.0195     ZZ     -26.5321
    Octopole Moments (Debye-Ang^2)
       XXX    -176.5931    XXY       4.2156    XYY     -51.8705
       YYY     -19.4838    XXZ      74.8690    XYZ     -16.2778
       YYZ      54.9159    XZZ     -75.5200    YZZ      -6.2146
       ZZZ     113.3286
    Hexadecapole Moments (Debye-Ang^3)
      XXXX    -628.8862   XXXY     -16.7447   XXYY    -120.8323
      XYYY     -32.3460   YYYY    -231.0786   XXXZ     232.9810
      XXYZ     -38.7495   XYYZ      66.1086   YYYZ     -62.8360
      XXZZ    -288.1210   XYZZ      18.1121   YYZZ    -188.8468
      XZZZ     271.5929   YZZZ     -33.9552   ZZZZ    -681.7292
 -----------------------------------------------------------------
 Calculating analytic gradient of the SCF energy
 Gradient of CDS energy
            1           2           3           4           5           6
    1  -0.0006153   0.0013535  -0.0007279  -0.0004016  -0.0000123  -0.0000979
    2  -0.0025874   0.0022735   0.0004295  -0.0003003  -0.0000982   0.0001067
    3   0.0001593  -0.0017099   0.0015114   0.0001508  -0.0005177   0.0001001
            7           8           9          10          11          12
    1   0.0020391  -0.0001302  -0.0012922   0.0001482  -0.0000282  -0.0002351
    2  -0.0010051   0.0001854   0.0009860  -0.0001068  -0.0000464   0.0001632
    3   0.0013481  -0.0000590  -0.0012974   0.0002945   0.0000897  -0.0000698
 Gradient of SCF Energy
            1           2           3           4           5           6
    1   0.0098906   0.0216549   0.0193420  -0.0177997  -0.0168513  -0.0114839
    2  -0.0047662   0.0000712  -0.0026189  -0.0008828   0.0009278   0.0086832
    3   0.0030110   0.0102568   0.0144758  -0.0093636  -0.0121033  -0.0051913
            7           8           9          10          11          12
    1  -0.0059473   0.0005912   0.0023469   0.0000370  -0.0000193  -0.0017611
    2  -0.0063494   0.0068560  -0.0062486   0.0024327   0.0004329   0.0014621
    3   0.0043813  -0.0033400  -0.0042105   0.0009251  -0.0003904   0.0015490
 Max gradient component =       2.165E-02
 RMS gradient           =       8.491E-03
 Computing fast CPCM-SWIG gradient
 Updating gradient with PCM contributions...
 -- total gradient after adding PCM contribution --
---------------------------------------------------
  Atom         X              Y              Z     
---------------------------------------------------
   1      -0.000058       0.001188      -0.000068
   2      -0.000135      -0.000443       0.000207
   3       0.000099      -0.000185      -0.000205
   4       0.000020      -0.000053       0.000009
   5       0.000025       0.000001      -0.000010
   6       0.000227      -0.000315       0.000078
   7      -0.000118      -0.000209      -0.000058
   8      -0.000054       0.000017      -0.000001
   9       0.000045       0.000038       0.000046
  10       0.000003      -0.000004      -0.000001
  11      -0.000032      -0.000028      -0.000009
  12      -0.000023      -0.000008       0.000012
---------------------------------------------------
 Number of fixed atoms: 0
 Gradient time:  CPU 99.84 s  wall 14.74 s
 ----------------------------------------------------------------
             Standard Nuclear Orientation (Angstroms)
    I     Atom           X                Y                Z
 ----------------------------------------------------------------
    1      C       0.6642922021    -0.0557177182    -2.3665670228
    2      O       0.1304266244    -1.0853847930    -1.5784577202
    3      O       1.2742548623    -0.5408228672    -3.5417681276
    4      H      -0.7411558880    -1.3085706675    -1.9237641629
    5      H       0.5985796815    -0.6251143924    -4.2237176451
    6      H      -0.1018716528     0.6794560493    -2.6172841762
    7      C       1.7877148741     0.6103282194    -1.5909520804
    8      H       2.1918397173     1.4998475857    -2.0795177746
    9      O       2.5355092476    -0.0818580588    -0.8238757351
   10      H       2.0469072535     0.3613948197     0.3221973599
   11      O       0.7898115089     1.5022374482    -0.3526865446
   12      O       1.2778900692     1.0629547747     0.7462767297
 ----------------------------------------------------------------
 Nuclear Repulsion Energy =         338.47197789 hartrees
 There are       29 alpha and       28 beta electrons
 Discretize the solute cavity surface with Lebedev spheres
	Using 110 Lebedev grid points for each H atom
	Using 194 Lebedev grid points for other atoms
	Atomic van der Waals radii will be scaled by 1.20
 Remove points where switching function is < 1.0e-08
 Keep 1007 surface tesserae and discard 901 interior tesserae
 Molecular Surface Area = 115.616 Angst**2

                       Distance Matrix (Angstroms)
             C (  1)   O (  2)   O (  3)   H (  4)   H (  5)   H (  6)
   O (  2)  1.402264
   O (  3)  1.410134  2.336553
   H (  4)  1.934166  0.963693  2.696155
   H (  5)  1.943589  2.725512  0.963689  2.748052
   H (  6)  1.091030  2.061016  2.058513  2.200433  2.184757
   C (  7)  1.518971  2.371119  2.322601  3.191884  3.141945  2.151435
   H (  8)  2.198996  3.344236  2.672915  4.063734  3.413434  2.494664
   O (  9)  2.425290  2.713095  3.031229  3.667576  3.950411  3.278977
   H ( 10)  3.052059  3.062443  4.042427  3.950497  4.871981  3.654992
   O ( 11)  2.549254  2.938212  3.818249  3.565500  4.421208  2.569138
   O ( 12)  3.364183  3.366961  4.578149  4.102414  5.292625  3.655729
             C (  7)   H (  8)   O (  9)   H ( 10)   O ( 11)
   H (  8)  1.092364
   O (  9)  1.275431  2.048545
   H ( 10)  1.946610  2.661826  1.322380
   O ( 11)  1.823353  2.224328  2.403921  1.826822
   O ( 12)  2.434632  3.001882  2.314645  1.124018  1.280199
 
 Requested basis set is 6-311++G(2df,2p)
 There are 86 shells and 288 basis functions
 A cutoff of  1.0D-12 yielded   3479 shell pairs
 There are     39335 function pairs (     49457 Cartesian)
 Smallest overlap matrix eigenvalue = 5.09E-05
 Guess MOs from SCF MO coefficient file

 -----------------------------------------------------------------------
  General SCF calculation program by
  Eric Jon Sundstrom, Paul Horn, Yuezhi Mao, Dmitri Zuev, Alec White,
  David Stuck, Shaama M.S., Shane Yost, Joonho Lee, David Small,
  Daniel Levine, Susi Lehtola, Hugh Burton, Evgeny Epifanovsky,
  Bang C. Huynh
 -----------------------------------------------------------------------
 Exchange:     0.1500 Hartree-Fock + 1.0000 wB97M-V + LR-HF
 Correlation:  1.0000 wB97M-V
 Using SG-2 standard quadrature grid
 Nonlocal Correlation:  VV10 with C = 0.0100 and b = 6.00 and scale = 1.00000
 Grid used for NLC:  SG-1 standard quadrature
 
 Citation of the SMD model:
 Marenich, A.V.; Cramer, C.J.; Truhlar, D.G.
 J. Phys. Chem. B 2009, 113, 6378-6396.
 iSolventCode=           1
 Solvent: water                                                           
 
 vradii
            1           2           3           4           5           6
    1   1.8500000   1.5200000   1.5200000   1.2000000   1.2000000   1.2000000
            7           8           9          10          11          12
    1   1.8500000   1.2000000   1.5200000   1.2000000   1.5200000   1.5200000
 -------------------------------------------------------
 OpenMP BLAS3 based DFT computing Module                
 Release: version 1.0, May 2013, Q-Chem Inc. Pittsburgh 
 -------------------------------------------------------
 A unrestricted SCF calculation will be
 performed using Roothaan-Hall, DIIS, GDM
 SCF converges when RMS gradient is below 1.0e-07
 ---------------------------------------
  Cycle       Energy         DIIS error
 ---------------------------------------
    1    -455.1838570127      3.71e-04  Roothaan Step
 ---------------------------------------
  Cycle       Energy         DIIS error
 ---------------------------------------
    1    -455.2157490676      4.36e-04  
    2    -455.2225645871      3.87e-04  Done DIIS. Switching to GDM
 ---------------------------------------
  Cycle       Energy        RMS Gradient
 ---------------------------------------
    1    -455.2225645871      1.79e-02   Normal BFGS step
[...]
   4       0.001151       0.000996      -0.000166
   5      -0.000273       0.000959       0.001592
   6      -0.001321       0.001850      -0.000622
   7       0.021088      -0.013440       0.023048
   8       0.001356       0.003645      -0.003109
   9      -0.014217       0.012622       0.004147
  10       0.000987       0.000171      -0.014347
  11      -0.003913       0.002340      -0.001505
  12       0.002001      -0.001884      -0.001541
---------------------------------------------------
 Number of fixed atoms: 0
 Gradient time:  CPU 82.52 s  wall 12.18 s
rPathMan2.  file_steps = 952
 IRC --- Status = 3.  Assess initial corrector step
 IRC --- bisector search: b =  0.000000 E =     -455.245760 G.B =  -0.010805
 IRC --- bisector search: b =  0.106066 E =     -455.244275 G.B =   0.039058
 IRC --- performed gradient/energy interpolation
 IRC --- bisector search:  estimate b(min) =   2.309536607488010E-002
 ----------------------------------------------------------------
             Standard Nuclear Orientation (Angstroms)
    I     Atom           X                Y                Z
 ----------------------------------------------------------------
    1      C       0.6368537235    -0.0245943276    -2.3295081049
    2      O       0.1099773194    -1.0758573665    -1.5624746087
    3      O       1.3204780857    -0.4844649276    -3.4695597590
    4      H      -0.7503757922    -1.3146278856    -1.9257558375
    5      H       0.6715489782    -0.6291401485    -4.1678158109
    6      H      -0.1507019211     0.6711654129    -2.6187019051
    7      C       1.6475552797     0.7205959517    -1.4685780097
    8      H       2.1646237108     1.4788543725    -2.0562573872
    9      O       2.5297058614    -0.1003070249    -0.7997664418
   10      H       2.3697143935     0.0355115712     0.1539532887
   11      O       0.8191580225     1.4993105909    -0.5132995759
   12      O       1.0856616093     1.2433036767     0.7276462875
 ----------------------------------------------------------------
 Nuclear Repulsion Energy =         340.97179159 hartrees
 There are       29 alpha and       28 beta electrons
 Discretize the solute cavity surface with Lebedev spheres
	Using 110 Lebedev grid points for each H atom
	Using 194 Lebedev grid points for other atoms
	Atomic van der Waals radii will be scaled by 1.20
 Remove points where switching function is < 1.0e-08
 Keep 1009 surface tesserae and discard 899 interior tesserae
 Molecular Surface Area = 115.723 Angst**2

                       Distance Matrix (Angstroms)
             C (  1)   O (  2)   O (  3)   H (  4)   H (  5)   H (  6)
   O (  2)  1.403956
   O (  3)  1.406606  2.334958
   H (  4)  1.936907  0.963946  2.713105
   H (  5)  1.935473  2.702355  0.964158  2.742006
   H (  6)  1.089935  2.058072  2.055191  2.187043  2.183265
   C (  7)  1.522507  2.366476  2.358618  3.178242  3.171791  2.135171
   H (  8)  2.160811  3.315410  2.562153  4.039529  3.336404  2.515837
   O (  9)  2.434899  2.718181  2.955944  3.674420  3.882804  3.329907
   H ( 10)  3.028861  3.047569  3.808034  3.985352  4.690759  3.800549
   O ( 11)  2.377842  2.869703  3.595297  3.518056  4.231735  2.461538
   O ( 12)  3.339938  3.402223  4.544982  4.117595  5.257669  3.613030
             C (  7)   H (  8)   O (  9)   H ( 10)   O ( 11)
   H (  8)  1.089809
   O (  9)  1.378180  2.050806
   H ( 10)  1.903539  2.647703  0.976537
   O ( 11)  1.484990  2.047295  2.359410  2.234314
   O ( 12)  2.326446  2.994956  2.494703  1.853828  1.294801
 
 Applying Cartesian multipole field
    Component          Value
    ---------          -----
     (2,0,0)        1.00000E-11
     (0,2,0)        2.00000E-11
     (0,0,2)       -3.00000E-11
 Nucleus-field energy     =    -0.0000000145 hartrees
 Requested basis set is 6-311++G(2df,2p)
 There are 86 shells and 288 basis functions
 A cutoff of  1.0D-12 yielded   3489 shell pairs
 There are     39412 function pairs (     49565 Cartesian)
 Smallest overlap matrix eigenvalue = 5.47E-05
 Guess MOs from SCF MO coefficient file

 -----------------------------------------------------------------------
  General SCF calculation program by
  Eric Jon Sundstrom, Paul Horn, Yuezhi Mao, Dmitri Zuev, Alec White,
  David Stuck, Shaama M.S., Shane Yost, Joonho Lee, David Small,
  Daniel Levine, Susi Lehtola, Hugh Burton, Evgeny Epifanovsky,
  Bang C. Huynh
 -----------------------------------------------------------------------
 Exchange:     0.1500 Hartree-Fock + 1.0000 wB97M-V + LR-HF
 Correlation:  1.0000 wB97M-V
 Using SG-2 standard quadrature grid
 Nonlocal Correlation:  VV10 with C = 0.0100 and b = 6.00 and scale = 1.00000
 Grid used for NLC:  SG-1 standard quadrature
 
 Citation of the SMD model:
 Marenich, A.V.; Cramer, C.J.; Truhlar, D.G.
 J. Phys. Chem. B 2009, 113, 6378-6396.
 iSolventCode=           1
 Solvent: water                                                           
 
 vradii
            1           2           3           4           5           6
    1   1.8500000   1.5200000   1.5200000   1.2000000   1.2000000   1.2000000
            7           8           9          10          11          12
    1   1.8500000   1.2000000   1.5200000   1.2000000   1.5200000   1.5200000
 -------------------------------------------------------
 OpenMP BLAS3 based DFT computing Module                
 Release: version 1.0, May 2013, Q-Chem Inc. Pittsburgh 
 -------------------------------------------------------
 A unrestricted SCF calculation will be
 performed using Roothaan-Hall, DIIS, GDM
 SCF converges when RMS gradient is below 1.0e-07
 ---------------------------------------
  Cycle       Energy         DIIS error
 ---------------------------------------
    1    -455.2077247764      3.80e-04  Roothaan Step
 ---------------------------------------
  Cycle       Energy         DIIS error
 ---------------------------------------
    1    -455.2399073729      4.17e-04  
    2    -455.2460993072      3.62e-04  Done DIIS. Switching to GDM
 ---------------------------------------
  Cycle       Energy        RMS Gradient
 ---------------------------------------
    1    -455.2460993072      2.09e-02   Normal BFGS step
    2    -455.2452071421      3.29e-02  Line search: overstep
    3    -455.2494854777      4.34e-03   Normal BFGS step
    4    -455.2496600711      2.68e-03   Normal BFGS step
    5    -455.2497159852      1.21e-03   Normal BFGS step
    6    -455.2497255783      3.23e-04   Normal BFGS step
    7    -455.2497265025      3.00e-04   Normal BFGS step
    8    -455.2497267174      2.52e-04   Normal BFGS step
    9    -455.2497268959      1.68e-04   Normal BFGS step
   10    -455.2497269925      6.83e-05   Normal BFGS step
   11    -455.2497270206      5.69e-05   Normal BFGS step
   12    -455.2497270338      3.58e-05   Normal BFGS step
   13    -455.2497270391      5.99e-06   Normal BFGS step
   14    -455.2497270401      2.09e-06   Normal BFGS step
   15    -455.2497270403      1.12e-06   Normal BFGS step
   16    -455.2497270403      6.79e-07   Normal BFGS step
   17    -455.2497270403      1.87e-07   Normal BFGS step
   18    -455.2497270403      1.12e-07   Normal BFGS step
   19    -455.2497270403      4.13e-08  Convergence criterion met
 ---------------------------------------
 SCF time:   CPU 619.70s  wall 79.00s 
<S^2> =          0.754090274
(3)  G-ENP(liq) elect-nuc-pol free energy of system     -455.249727040 a.u.
(4)  G-CDS(liq) cavity-dispersion-solvent structure 
     free energy                                                2.4113 kcal/mol
(6)  G-S(liq) free energy of system                     -455.245884388 a.u.
 SCF   energy in the final basis set =     -455.2458843882
 Total energy in the final basis set =     -455.2458843882
 
 --------------------------------------------------------------
 
                    Orbital Energies (a.u.)
 --------------------------------------------------------------
 
 Alpha MOs
 -- Occupied --
-19.4757 -19.4299 -19.3582 -19.3507 -19.3502 -10.4643 -10.4548  -1.3634
 -1.2130  -1.1829  -1.1421  -1.0229  -0.8543  -0.7452  -0.7066  -0.6749
 -0.6494  -0.6363  -0.6283  -0.5826  -0.5596  -0.5125  -0.5083  -0.4882
 -0.4321  -0.4252  -0.4222  -0.4155  -0.3853
 -- Virtual --
  0.0253   0.0449   0.0473   0.0564   0.0699   0.0995   0.1053   0.1186
  0.1257   0.1307   0.1480   0.1584   0.1665   0.1755   0.2045   0.2065
  0.2240   0.2392   0.2468   0.2531   0.2597   0.2677   0.2756   0.2854
  0.2909   0.2935   0.3051   0.3186   0.3216   0.3387   0.3517   0.3527
  0.3628   0.3670   0.3723   0.3773   0.3852   0.3945   0.3987   0.4289
  0.4350   0.4589   0.4832   0.4971   0.5605   0.5898   0.6000   0.6228
  0.6273   0.6336   0.6729   0.6811   0.6874   0.7186   0.7401   0.7554
  0.8036   0.8302   0.8674   0.8937   0.9129   0.9319   0.9855   0.9954
  1.0063   1.0493   1.0694   1.0735   1.0923   1.1087   1.1383   1.1408
  1.1604   1.1675   1.1794   1.1950   1.2021   1.2147   1.2248   1.2347
  1.2408   1.2693   1.2787   1.3034   1.3138   1.3295   1.3788   1.3867
  1.4155   1.4475   1.4730   1.5185   1.5363   1.5404   1.5572   1.5681
  1.5850   1.6100   1.6347   1.6659   1.6978   1.7079   1.7300   1.7826
  1.7930   1.8668   1.8959   1.9335   1.9747   2.0073   2.0631   2.0905
  2.1598   2.2078   2.2234   2.2649   2.2802   2.3052   2.3363   2.3735
  2.4119   2.4241   2.4401   2.4638   2.4977   2.5846   2.6266   2.7004
  2.7054   2.8082   2.8303   2.8645   2.9343   3.0080   3.0573   3.1827
  3.2220   3.2330   3.3377   3.3562   3.3920   3.3940   3.4256   3.4757
  3.5070   3.5500   3.5765   3.6272   3.6377   3.6840   3.7139   3.7413
  3.7770   3.7945   3.8406   3.8537   3.8660   3.8873   3.9220   3.9948
  4.0433   4.1077   4.1383   4.1713   4.2084   4.2378   4.2706   4.2976
  4.3047   4.3228   4.4101   4.4210   4.5074   4.5666   4.6256   4.6677
  4.7409   4.8095   4.8863   4.9742   5.0571   5.0815   5.1270   5.1597
  5.1848   5.2090   5.2205   5.2256   5.2285   5.2525   5.2684   5.2715
  5.2933   5.3095   5.3291   5.3330   5.3775   5.3963   5.4146   5.4492
  5.4640   5.5129   5.5367   5.5686   5.6014   5.6274   5.6484   5.6665
  5.6692   5.7123   5.7973   5.8355   5.9717   6.0294   6.0587   6.1101
  6.1858   6.3476   6.4976   6.5122   6.6443   6.7042   6.7272   6.7949
  6.9313   6.9504   7.0576   7.0833   7.0914   7.1336   7.1610   7.1990
  7.2436   7.2514   7.2728   7.2994   7.3275   7.3662   7.3877   7.4274
  7.4623   7.4874   7.5569   7.6226   7.6698   7.7084   7.7338   7.7894
  7.8771   7.8905   8.0434   8.1084  24.6803  24.8319  50.4404  50.5010
 50.5841  50.6005  50.6379
 
 Beta MOs
 -- Occupied --
-19.4644 -19.4118 -19.3581 -19.3506 -19.3503 -10.4647 -10.4544  -1.3375
 -1.2121  -1.1818  -1.1420  -0.9924  -0.8453  -0.7396  -0.6982  -0.6692
 -0.6422  -0.6198  -0.6064  -0.5707  -0.5159  -0.5109  -0.5052  -0.4862
 -0.4255  -0.4176  -0.4077  -0.4016
 -- Virtual --
 -0.0360   0.0254   0.0454   0.0476   0.0567   0.0700   0.1003   0.1062
  0.1193   0.1278   0.1323   0.1501   0.1589   0.1668   0.1781   0.2069
  0.2095   0.2256   0.2399   0.2511   0.2576   0.2617   0.2689   0.2771
  0.2869   0.2925   0.2984   0.3060   0.3200   0.3222   0.3400   0.3529
  0.3555   0.3645   0.3685   0.3750   0.3795   0.3864   0.3956   0.3998
  0.4302   0.4357   0.4594   0.4841   0.4983   0.5611   0.5908   0.6004
  0.6239   0.6278   0.6344   0.6737   0.6816   0.6882   0.7192   0.7406
  0.7562   0.8042   0.8340   0.8680   0.8942   0.9131   0.9328   0.9865
  0.9979   1.0073   1.0511   1.0729   1.0749   1.0999   1.1155   1.1415
  1.1605   1.1660   1.1743   1.1806   1.1977   1.2050   1.2167   1.2304
  1.2416   1.2526   1.2712   1.2810   1.3057   1.3157   1.3318   1.3806
  1.3899   1.4207   1.4483   1.4799   1.5207   1.5454   1.5458   1.5644
  1.5700   1.5927   1.6139   1.6426   1.6771   1.7046   1.7171   1.7321
  1.7892   1.8010   1.8747   1.8989   1.9387   1.9778   2.0127   2.0662
  2.0956   2.1666   2.2160   2.2273   2.2741   2.2872   2.3067   2.3484
  2.3753   2.4133   2.4259   2.4422   2.4664   2.4989   2.5870   2.6347
  2.7048   2.7076   2.8105   2.8310   2.8653   2.9351   3.0084   3.0593
  3.1837   3.2227   3.2335   3.3380   3.3565   3.3925   3.3947   3.4262
  3.4765   3.5074   3.5507   3.5766   3.6273   3.6390   3.6853   3.7139
  3.7423   3.7779   3.7949   3.8409   3.8537   3.8666   3.8877   3.9226
  3.9957   4.0440   4.1083   4.1389   4.1718   4.2094   4.2386   4.2716
  4.2978   4.3053   4.3231   4.4116   4.4228   4.5086   4.5992   4.6316
  4.6785   4.7533   4.8354   4.8978   4.9894   5.1220   5.1552   5.1596
  5.1910   5.2082   5.2130   5.2271   5.2474   5.2550   5.2602   5.2752
  5.2789   5.3130   5.3179   5.3344   5.3377   5.3808   5.4058   5.4173
  5.4509   5.4760   5.5248   5.5422   5.5717   5.6055   5.6297   5.6528
  5.6680   5.6761   5.7224   5.8109   5.8388   5.9732   6.0315   6.0605
  6.1117   6.1865   6.3578   6.5127   6.5454   6.6550   6.7081   6.7290
  6.8682   6.9896   7.0206   7.0582   7.0986   7.1256   7.1389   7.1795
  7.2135   7.2511   7.2664   7.2784   7.3028   7.3476   7.3720   7.3906
  7.4515   7.4757   7.5079   7.5629   7.6285   7.6729   7.7107   7.7351
  7.7902   7.8773   7.8962   8.0560   8.1286  24.6802  24.8320  50.4529
 50.5103  50.5844  50.6008  50.6385
 --------------------------------------------------------------
 
          Ground-State Mulliken Net Atomic Charges

     Atom                 Charge (a.u.)    Spin (a.u.)
  --------------------------------------------------------
      1 C                    -0.006567       0.017107
      2 O                    -0.441883      -0.000985
      3 O                    -0.441816       0.000954
      4 H                     0.349674       0.000241
      5 H                     0.342071       0.000215
      6 H                     0.257797      -0.000427
      7 C                    -0.116662      -0.012737
      8 H                     0.267736       0.012354
      9 O                    -0.397791       0.002765
     10 H                     0.332194      -0.004296
     11 O                     0.030386       0.339886
     12 O                    -0.175140       0.644923
  --------------------------------------------------------
  Sum of atomic charges =     0.000000
  Sum of spin   charges =     1.000000

 -----------------------------------------------------------------
                    Cartesian Multipole Moments
 -----------------------------------------------------------------
    Charge (ESU x 10^10)
                 0.0000
    Dipole Moment (Debye)
         X      -3.7343      Y       1.2696      Z      -3.7208
       Tot       5.4223
    Quadrupole Moments (Debye-Ang)
        XX     -45.8044     XY       7.0007     YY     -42.7159
        XZ      10.3732     YZ      -3.9947     ZZ     -26.6448
    Octopole Moments (Debye-Ang^2)
       XXX    -162.2703    XXY       0.4326    XYY     -50.4591
       YYY     -27.0528    XXZ      74.6342    XYZ     -16.1979
       YYZ      52.3801    XZZ     -72.9294    YZZ     -11.3034
       ZZZ     109.9138
    Hexadecapole Moments (Debye-Ang^3)
      XXXX    -574.9951   XXXY     -22.1054   XXYY    -118.9782
      XYYY     -35.3576   YYYY    -247.3841   XXXZ     232.1762
      XXYZ     -36.6656   XYYZ      63.1292   YYYZ     -54.0632
      XXZZ    -279.4925   XYZZ      13.3260   YYZZ    -182.7918
      XZZZ     256.9905   YZZZ     -16.0172   ZZZZ    -641.2425
 -----------------------------------------------------------------
 Calculating analytic gradient of the SCF energy
 Gradient of CDS energy
            1           2           3           4           5           6
    1  -0.0000030   0.0013948  -0.0012266  -0.0004005   0.0000131  -0.0001025
    2  -0.0029175   0.0022918   0.0007611  -0.0003067  -0.0001099   0.0001075
    3  -0.0006721  -0.0016266   0.0023626   0.0001393  -0.0005135   0.0000864
            7           8           9          10          11          12
    1   0.0040818  -0.0000819  -0.0036601   0.0002015  -0.0000579  -0.0001587
    2  -0.0028121   0.0001099   0.0030373  -0.0001749  -0.0000980   0.0001115
    3   0.0026686  -0.0001618  -0.0027220   0.0003573   0.0001178  -0.0000360
 Gradient of SCF Energy
            1           2           3           4           5           6
    1   0.0104563   0.0220711   0.0182739  -0.0177830  -0.0173030  -0.0109596
    2  -0.0055294   0.0015111  -0.0011398  -0.0014791   0.0000587   0.0076710
    3   0.0023936   0.0108056   0.0149640  -0.0103043  -0.0127858  -0.0054492
            7           8           9          10          11          12
    1  -0.0079958   0.0022931   0.0027760  -0.0001978  -0.0001852  -0.0014460
    2  -0.0053337   0.0062080  -0.0063096   0.0033731   0.0002943   0.0006754
    3   0.0046893  -0.0037131  -0.0046825   0.0037464   0.0004926  -0.0001567
 Max gradient component =       2.207E-02
 RMS gradient           =       8.623E-03
 Computing fast CPCM-SWIG gradient
 Updating gradient with PCM contributions...
 -- total gradient after adding PCM contribution --
---------------------------------------------------
  Atom         X              Y              Z     
---------------------------------------------------
   1       0.000018      -0.000296      -0.000393
   2       0.000954       0.000149      -0.000085
   3      -0.000561      -0.000022      -0.000314
   4      -0.000271      -0.000084      -0.000212
   5      -0.000835       0.000471      -0.000132
   6       0.000611      -0.000134       0.000389
   7      -0.000756       0.000018      -0.000210
   8       0.000630      -0.000051       0.000040
   9       0.000554      -0.000654       0.000510
  10      -0.000148       0.001118       0.000835
  11      -0.000116      -0.000541      -0.000441
  12      -0.000078       0.000026       0.000014
---------------------------------------------------
 Number of fixed atoms: 0
 Gradient time:  CPU 82.30 s  wall 12.15 s
rPathMan2.  file_steps = 952
 IRC --- Status = 4.  Checking bisector search.
 IRC --- Bisector search finished successfully.
 ------------------------------------------------------------------------
 Reaction path following.  The coordinates are cartesian              
 Step  12 E=    -455.245884 |G|=  0.002773 S_lin= 1.2101 S_tot= 1.3319
 ------------------------------------------------------------------------
  IRC -- convergence criterion reached.
 ----------------------------------------------------------------
             Standard Nuclear Orientation (Angstroms)
    I     Atom           X                Y                Z
 ----------------------------------------------------------------
    1      C       0.6642922021    -0.0547177182    -2.3665670228
    2      O       0.1304266244    -1.0853847930    -1.5784577202
    3      O       1.2742548623    -0.5408228672    -3.5417681276
    4      H      -0.7411558880    -1.3085706675    -1.9237641629
    5      H       0.5985796815    -0.6251143924    -4.2237176451
    6      H      -0.1018716528     0.6794560493    -2.6172841762
    7      C       1.7877148741     0.6103282194    -1.5909520804
    8      H       2.1918397173     1.4998475857    -2.0795177746
    9      O       2.5355092476    -0.0818580588    -0.8238757351
   10      H       2.0469072535     0.3613948197     0.3221973599
   11      O       0.7898115089     1.5022374482    -0.3526865446
   12      O       1.2778900692     1.0629547747     0.7462767297
 ----------------------------------------------------------------
 Nuclear Repulsion Energy =         338.46631762 hartrees
 There are       29 alpha and       28 beta electrons
 Here is where we should summarize the reaction path
 Total job time:  7193.61s(wall), 55738.64s(cpu) 
 Mon Oct  2 22:30:41 2023

        *************************************************************
        *                                                           *
        *  Thank you very much for using Q-Chem.  Have a nice day.  *
        *                                                           *
        *************************************************************


