
Running Job 1 of 2 Q_in.in
qchem Q_in.in_166531.0 /scratch/ari.fischer/qChem1789024.hpc-mn1/qchem166531/ 0
/usr/local/qchem-5.4.1/exe/qcprog.exe_s Q_in.in_166531.0 /scratch/ari.fischer/qChem1789024.hpc-mn1/qchem166531/
                  Welcome to Q-Chem
     A Quantum Leap Into The Future Of Chemistry


 Q-Chem 5.4, Q-Chem, Inc., Pleasanton, CA (2021)

 License issued to: Nanyang Technological University (site)

 E. Epifanovsky,  A. T. B. Gilbert,  Xintian Feng,  Joonho Lee,  Yuezhi Mao,  
 N. Mardirossian,  P. Pokhilko,  A. White,  M. Wormit,  M. P. Coons,  
 A. L. Dempwolff,  Zhengting Gan,  D. Hait,  P. R. Horn,  L. D. Jacobson,  
 I. Kaliman,  J. Kussmann,  A. W. Lange,  Ka Un Lao,  D. S. Levine,  Jie Liu,  
 S. C. McKenzie,  A. F. Morrison,  K. Nanda,  F. Plasser,  D. R. Rehn,  
 M. L. Vidal,  Zhi-Qiang You,  Ying Zhu,  B. Alam,  B. Albrecht,  
 A. Aldossary,  E. Alguire,  J. H. Andersen,  D. Barton,  K. Begam,  A. Behn,  
 Y. A. Bernard,  E. J. Berquist,  H. Burton,  A. Carreras,  K. Carter-Fenk,  
 R. Chakraborty,  A. D. Chien,  K. D. Closser,  V. Cofer-Shabica,  
 S. Dasgupta,  Jia Deng,  M. de Wergifosse,  M. Diedenhofen,  Hainam Do,  
 S. Ehlert,  Po-Tung Fang,  S. Fatehi,  Qingguo Feng,  T. Friedhoff,  
 J. Gayvert,  Qinghui Ge,  G. Gidofalvi,  M. Goldey,  J. Gomes,  
 C. Gonzalez-Espinoza,  S. Gulania,  A. Gunina,  M. W. D. Hanson-Heine,  
 P. H. P. Harbach,  A. W. Hauser,  M. F. Herbst,  M. Hernandez Vera,  
 M. Hodecker,  Z. C. Holden,  S. Houck,  Xunkun Huang,  Kerwin Hui,  
 B. C. Huynh,  M. Ivanov,  Hyunjun Ji,  Hanjie Jiang,  B. Kaduk,  S. Kaehler,  
 K. Khistyaev,  Jaehoon Kim,  P. Klunzinger,  Z. Koczor-Benda,  
 Joong Hoon Koh,  D. Kosenkov,  L. Koulias,  T. Kowalczyk,  C. M. Krauter,  
 K. Kue,  A. Kunitsa,  T. Kus,  A. Landau,  K. V. Lawler,  D. Lefrancois,  
 S. Lehtola,  Rain Li,  Yi-Pei Li,  Jiashu Liang,  M. Liebenthal,  
 Hung-Hsuan Lin,  You-Sheng Lin,  Fenglai Liu,  Kuan-Yu Liu,  
 M. Loipersberger,  A. Luenser,  A. Manjanath,  P. Manohar,  E. Mansoor,  
 S. F. Manzer,  Shan-Ping Mao,  A. V. Marenich,  T. Markovich,  S. Mason,  
 S. A. Maurer,  P. F. McLaughlin,  M. F. S. J. Menger,  J.-M. Mewes,  
 S. A. Mewes,  P. Morgante,  J. W. Mullinax,  K. J. Oosterbaan,  G. Paran,  
 Alexander C. Paul,  Suranjan K. Paul,  F. Pavosevic,  Zheng Pei,  S. Prager,  
 E. I. Proynov,  E. Ramos,  B. Rana,  A. E. Rask,  A. Rettig,  R. M. Richard,  
 F. Rob,  E. Rossomme,  T. Scheele,  M. Scheurer,  M. Schneider,  
 N. Sergueev,  S. M. Sharada,  W. Skomorowski,  D. W. Small,  C. J. Stein,  
 Yu-Chuan Su,  E. J. Sundstrom,  Zhen Tao,  J. Thirman,  T. Tsuchimochi,  
 N. M. Tubman,  S. P. Veccham,  O. Vydrov,  J. Wenzel,  J. Witte,  A. Yamada,  
 Kun Yao,  S. Yeganeh,  S. R. Yost,  A. Zech,  Igor Ying Zhang,  Xing Zhang,  
 Yu Zhang,  D. Zuev,  A. Aspuru-Guzik,  A. T. Bell,  N. A. Besley,  
 K. B. Bravaya,  B. R. Brooks,  D. Casanova,  Jeng-Da Chai,  S. Coriani,  
 C. J. Cramer,  A. E. DePrince, III,  R. A. DiStasio Jr.,  A. Dreuw,  
 B. D. Dunietz,  T. R. Furlani,  W. A. Goddard III,  S. Grimme,  
 S. Hammes-Schiffer,  T. Head-Gordon,  W. J. Hehre,  Chao-Ping Hsu,  
 T.-C. Jagau,  Yousung Jung,  A. Klamt,  Jing Kong,  D. S. Lambrecht,  
 WanZhen Liang,  N. J. Mayhall,  C. W. McCurdy,  J. B. Neaton,  
 C. Ochsenfeld,  J. A. Parkhill,  R. Peverati,  V. A. Rassolov,  Yihan Shao,  
 L. V. Slipchenko,  T. Stauch,  R. P. Steele,  J. E. Subotnik,  
 A. J. W. Thom,  A. Tkatchenko,  D. G. Truhlar,  T. Van Voorhis,  
 T. A. Wesolowski,  K. B. Whaley,  H. L. Woodcock III,  P. M. Zimmerman,  
 S. Faraji,  P. M. W. Gill,  M. Head-Gordon,  J. M. Herbert,  A. I. Krylov

 Additional authors for Version 5.4.1: 
 S. Kotaru,  Shaozhi Li,  Xiangyuan Li,  F. Matz,  A. Molle,  Haisheng Ren,  
 Yingli Su,  Hung-Yi Tsai,  C. Utku,  Fang Wang

 Contributors to earlier versions of Q-Chem not listed above: 
 R. D. Adamson,  B. Austin,  R. Baer,  J. Baker,  G. J. O. Beran,  
 K. Brandhorst,  S. T. Brown,  E. F. C. Byrd,  A. K. Chakraborty,  
 G. K. L. Chan,  Chun-Min Chang,  Yunqing Chen,  C.-L. Cheng,  
 Siu Hung Chien,  D. M. Chipman,  D. L. Crittenden,  H. Dachsel,  
 R. J. Doerksen,  A. D. Dutoi,  R. G. Edgar,  J. Fosso-Tande,  
 L. Fusti-Molnar,  D. Ghosh,  A. Ghysels,  A. Golubeva-Zadorozhnaya,  
 J. Gonthier,  M. S. Gordon,  S. R. Gwaltney,  G. Hawkins,  J. E. Herr,  
 A. Heyden,  S. Hirata,  E. G. Hohenstein,  G. Kedziora,  F. J. Keil,  
 C. Kelley,  Jihan Kim,  R. A. King,  R. Z. Khaliullin,  P. P. Korambath,  
 W. Kurlancheek,  A. Laurent,  A. M. Lee,  M. S. Lee,  S. V. Levchenko,  
 Ching Yeh Lin,  D. Liotard,  E. Livshits,  R. C. Lochan,  I. Lotan,  
 L. A. Martinez-Martinez,  P. E. Maslen,  N. Nair,  D. P. O'Neill,  
 D. Neuhauser,  E. Neuscamman,  C. M. Oana,  R. Olivares-Amaya,  R. Olson,  
 T. M. Perrine,  B. Peters,  P. A. Pieniazek,  A. Prociuk,  Y. M. Rhee,  
 J. Ritchie,  M. A. Rohrdanz,  E. Rosta,  N. J. Russ,  H. F. Schaefer III,  
 M. W. Schmidt,  N. E. Schultz,  S. Sharma,  N. Shenvi,  C. D. Sherrill,  
 A. C. Simmonett,  A. Sodt,  T. Stein,  D. Stuck,  K. S. Thanthiriwatte,  
 V. Vanovschi,  L. Vogt,  Tao Wang,  A. Warshel,  M. A. Watson,  
 C. F. Williams,  Q. Wu,  X. Xu,  Jun Yang,  W. Zhang,  Yan Zhao

 Please cite Q-Chem as follows:
 Y. Shao et al., Mol. Phys. 113, 184-215 (2015)
 DOI: 10.1080/00268976.2014.952696

 Q-Chem 5.4.1 for Intel X86 EM64T Linux

 Parts of Q-Chem use Armadillo 9.800.1 (Horizon Scraper).
 http://arma.sourceforge.net/

 Q-Chem begins on Mon Oct  2 12:23:36 2023  

 Host: 
0

     Scratch files written to /scratch/ari.fischer/qChem1789024.hpc-mn1/qchem166531//
 Aug1521 |scratch|qcdevops|jenkins|workspace|build_RNUM 8249   
 Processing $rem in /usr/local/qchem-5.4.1/config/preferences:
 Processing $rem in /home/ari.fischer/.qchemrc:
 Symmetry turned off for PCM/SM12/SMD calculation


!!********************************************.
!!******************Warning*******************.
!!Desired Analytical derivatives not available.
!!Finite difference job might take a long time.
!!********************************************.
!!********************************************.


 2-order derivative to be evaluated numerically with 1-order analytical derivatives

 Checking the input file for inconsistencies... 	...done.

--------------------------------------------------------------
User input:
--------------------------------------------------------------
$molecule
0 2
C    0.6367210   -0.0979375   -2.3596865
O    0.3791925   -1.3708903   -1.8154062
O    1.0499029   -0.1652195   -3.6990846
H   -0.4750214   -1.6733017   -2.1451719
H    0.2741256   -0.3608150   -4.2369820
H   -0.2539934    0.5267268   -2.2753110
C    1.8522431    0.4607773   -1.4889623
H    2.5335504    1.1073850   -2.0458371
O    2.2936050   -0.2282567   -0.5106019
H    1.8575217    0.5156047    0.4408663
O    1.0371518    1.8284494   -0.5511236
O    1.2691993    1.4772279    0.6571839
$end

$rem
BASIS = 6-311++G(2df,2p)
GUI = 2
JOB_TYPE = Frequency
METHOD = wB97M-V
SCF_ALGORITHM = DIIS_GDM
MAX_SCF_CYCLES = 400
SCF_CONVERGENCE = 6
THRESH = 11
solvent_method = SMD
$end

--------------------------------------------------------------
 ----------------------------------------------------------------
             Standard Nuclear Orientation (Angstroms)
    I     Atom           X                Y                Z
 ----------------------------------------------------------------
    1      C       0.6367210000    -0.0979375000    -2.3596865000
    2      O       0.3791925000    -1.3708903000    -1.8154062000
    3      O       1.0499029000    -0.1652195000    -3.6990846000
    4      H      -0.4750214000    -1.6733017000    -2.1451719000
    5      H       0.2741256000    -0.3608150000    -4.2369820000
    6      H      -0.2539934000     0.5267268000    -2.2753110000
    7      C       1.8522431000     0.4607773000    -1.4889623000
    8      H       2.5335504000     1.1073850000    -2.0458371000
    9      O       2.2936050000    -0.2282567000    -0.5106019000
   10      H       1.8575217000     0.5156047000     0.4408663000
   11      O       1.0371518000     1.8284494000    -0.5511236000
   12      O       1.2691993000     1.4772279000     0.6571839000
 ----------------------------------------------------------------
 Nuclear Repulsion Energy =         332.21298253 hartrees
 There are       29 alpha and       28 beta electrons
 Requested basis set is 6-311++G(2df,2p)
 There are 86 shells and 288 basis functions

 Total QAlloc Memory Limit 288000 MB
 Mega-Array Size       188 MB
 MEM_STATIC part       192 MB
 
 Citation of the SMD model:
 Marenich, A.V.; Cramer, C.J.; Truhlar, D.G.
 J. Phys. Chem. B 2009, 113, 6378-6396.
 iSolventCode=           1
 Solvent: water                                                           
 
 vradii
            1           2           3           4           5           6
    1   1.8500000   1.5200000   1.5200000   1.2000000   1.2000000   1.2000000
            7           8           9          10          11          12
    1   1.8500000   1.2000000   1.5200000   1.2000000   1.5200000   1.5200000
 Changing PCM_VDW_RADII to SMD_RADIUS
 Discretize the solute cavity surface with Lebedev spheres
	Using 110 Lebedev grid points for each H atom
	Using 194 Lebedev grid points for other atoms
	Atomic van der Waals radii will be scaled by 1.20
 Remove points where switching function is < 1.0e-08
 Keep 1002 surface tesserae and discard 906 interior tesserae
 Molecular Surface Area = 116.319 Angst**2

                       Distance Matrix (Angstroms)
             C (  1)   O (  2)   O (  3)   H (  4)   H (  5)   H (  6)
   O (  2)  1.408180
   O (  3)  1.403294  2.334896
   H (  4)  1.940041  0.964303  2.648462
   H (  5)  1.929979  2.625894  0.964065  2.580603
   H (  6)  1.091191  2.052654  2.050870  2.214930  2.216933
   C (  7)  1.596188  2.373068  2.433159  3.225068  3.273695  2.249206
   H (  8)  2.269199  3.291839  2.560070  4.097998  3.473000  2.856610
   O (  9)  2.486234  2.583235  3.423038  3.524949  4.240493  3.189742
   H ( 10)  3.116069  3.291669  4.272583  4.113352  5.015727  3.440384
   O ( 11)  2.672492  3.502441  3.726196  4.133995  4.354382  2.516815
   O ( 12)  3.461601  3.875254  4.660772  4.563041  5.321789  3.438473
             C (  7)   H (  8)   O (  9)   H ( 10)   O ( 11)
   H (  8)  1.091966
   O (  9)  1.275444  2.049014
   H ( 10)  1.930614  2.644033  1.284052
   O ( 11)  1.847821  2.234572  2.410468  1.838644
   O ( 12)  2.445211  3.006940  2.306905  1.147883  1.279535
 
 A cutoff of  1.0D-11 yielded   3401 shell pairs
 There are     38142 function pairs (     47778 Cartesian)
 Smallest overlap matrix eigenvalue = 5.06E-05
 Guess from superposition of atomic densities
 Warning:  Energy on first SCF cycle will be non-variational
 SAD guess density has 57.000000 electrons

 -----------------------------------------------------------------------
  General SCF calculation program by
  Eric Jon Sundstrom, Paul Horn, Yuezhi Mao, Dmitri Zuev, Alec White,
  David Stuck, Shaama M.S., Shane Yost, Joonho Lee, David Small,
  Daniel Levine, Susi Lehtola, Hugh Burton, Evgeny Epifanovsky,
  Bang C. Huynh
 -----------------------------------------------------------------------
 Exchange:     0.1500 Hartree-Fock + 1.0000 wB97M-V + LR-HF
 Correlation:  1.0000 wB97M-V
 Using SG-2 standard quadrature grid
 Nonlocal Correlation:  VV10 with C = 0.0100 and b = 6.00 and scale = 1.00000
 Grid used for NLC:  SG-1 standard quadrature
 using 32 threads for integral computing
 -------------------------------------------------------
 OpenMP Integral computing Module                
 Release: version 1.0, May 2013, Q-Chem Inc. Pittsburgh 
 -------------------------------------------------------
 
 Citation of the SMD model:
 Marenich, A.V.; Cramer, C.J.; Truhlar, D.G.
 J. Phys. Chem. B 2009, 113, 6378-6396.
 iSolventCode=           1
 Solvent: water                                                           
 
 vradii
            1           2           3           4           5           6
    1   1.8500000   1.5200000   1.5200000   1.2000000   1.2000000   1.2000000
            7           8           9          10          11          12
    1   1.8500000   1.2000000   1.5200000   1.2000000   1.5200000   1.5200000
 -------------------------------------------------------
 OpenMP BLAS3 based DFT computing Module                
 Release: version 1.0, May 2013, Q-Chem Inc. Pittsburgh 
 -------------------------------------------------------
 A unrestricted SCF calculation will be
 performed using DIIS, GDM
 SCF converges when RMS gradient is below 1.0e-06
 ---------------------------------------
  Cycle       Energy         DIIS error
 ---------------------------------------
    1    -456.2640347953      1.42e-02  
    2    -455.0676137589      2.18e-03  Done DIIS. Switching to GDM
 ---------------------------------------
  Cycle       Energy        RMS Gradient
 ---------------------------------------
    1    -455.0676137589      8.58e-02   Descent step
    2    -455.2038312790      3.47e-02   Normal BFGS step
    3    -455.2178976313      1.66e-02   Normal BFGS step
    4    -455.2195168857      1.73e-02   Normal BFGS step
    5    -455.2203736638      7.42e-03   Normal BFGS step
    6    -455.2204885218      3.54e-03   Normal BFGS step
    7    -455.2205380122      1.54e-03   Normal BFGS step
    8    -455.2205470177      3.33e-04   Normal BFGS step
    9    -455.2205479776      1.59e-04   Normal BFGS step
   10    -455.2205481171      8.08e-05   Normal BFGS step
   11    -455.2205481473      4.60e-05   Normal BFGS step
   12    -455.2205481579      1.25e-05   Normal BFGS step
   13    -455.2205481593      7.66e-06   Normal BFGS step
   14    -455.2205481598      4.98e-06   Normal BFGS step
   15    -455.2205481598      3.56e-06   Normal BFGS step
   16    -455.2205481598      2.22e-06   Normal BFGS step
   17    -455.2205481597      6.90e-07  Convergence criterion met
 ---------------------------------------
 SCF time:   CPU 1131.45s  wall 41.00s 
<S^2> =          0.755047366
(3)  G-ENP(liq) elect-nuc-pol free energy of system     -455.220548160 a.u.
(4)  G-CDS(liq) cavity-dispersion-solvent structure 
     free energy                                                2.9610 kcal/mol
(6)  G-S(liq) free energy of system                     -455.215829566 a.u.
 SCF   energy in the final basis set =     -455.2158295664
 Total energy in the final basis set =     -455.2158295664
 
 --------------------------------------------------------------
 
                    Orbital Energies (a.u.)
 --------------------------------------------------------------
 
 Alpha MOs
 -- Occupied --
-19.4667 -19.4631 -19.3516 -19.3476 -19.3400 -10.4628 -10.4583  -1.3806
 -1.2101  -1.1790  -1.1391  -0.9967  -0.8371  -0.7324  -0.7134  -0.6594
 -0.6480  -0.6418  -0.6329  -0.5840  -0.5675  -0.5078  -0.4946  -0.4702
 -0.4449  -0.4314  -0.4160  -0.4128  -0.3795
 -- Virtual --
  0.0259   0.0448   0.0480   0.0568   0.0654   0.0769   0.1016   0.1106
  0.1265   0.1330   0.1419   0.1506   0.1604   0.1716   0.1930   0.1983
  0.2297   0.2339   0.2358   0.2493   0.2637   0.2654   0.2722   0.2821
  0.2893   0.2963   0.3005   0.3209   0.3300   0.3325   0.3384   0.3489
  0.3592   0.3617   0.3683   0.3796   0.3930   0.4016   0.4114   0.4308
  0.4397   0.4463   0.4720   0.5036   0.5526   0.5863   0.5991   0.6088
  0.6249   0.6380   0.6728   0.6856   0.7035   0.7151   0.7302   0.7551
  0.7853   0.8104   0.8619   0.8917   0.9237   0.9367   0.9632   0.9975
  1.0015   1.0209   1.0669   1.0690   1.0960   1.1092   1.1265   1.1381
  1.1550   1.1664   1.1727   1.1803   1.2095   1.2166   1.2246   1.2423
  1.2550   1.2711   1.2849   1.3003   1.3373   1.3590   1.3790   1.3980
  1.4174   1.4421   1.4615   1.4837   1.4960   1.5166   1.5510   1.5578
  1.5692   1.5948   1.6164   1.6447   1.6864   1.7032   1.7387   1.7700
  1.8384   1.8773   1.9269   1.9355   1.9693   2.0245   2.0379   2.0983
  2.1224   2.1622   2.2148   2.2550   2.2640   2.2809   2.3266   2.3776
  2.4162   2.4363   2.4886   2.5336   2.5652   2.6485   2.6572   2.7198
  2.7253   2.7524   2.8332   2.8621   2.9223   2.9670   3.0334   3.0897
  3.1786   3.2208   3.2445   3.3086   3.3473   3.3520   3.3935   3.4117
  3.4332   3.5211   3.5486   3.5970   3.6114   3.6430   3.6974   3.7347
  3.7738   3.7899   3.8186   3.8214   3.8480   3.8723   3.8979   3.9419
  3.9671   4.0137   4.0203   4.0869   4.1271   4.1522   4.2098   4.2565
  4.3063   4.3367   4.3614   4.4523   4.5098   4.5269   4.5669   4.6781
  4.6855   4.7085   4.7869   4.9009   5.0316   5.0557   5.1191   5.1276
  5.1728   5.1957   5.2078   5.2160   5.2216   5.2402   5.2540   5.2615
  5.2760   5.3029   5.3262   5.3394   5.3482   5.3603   5.3892   5.4192
  5.4510   5.5000   5.5246   5.5274   5.5412   5.5907   5.6100   5.6179
  5.6373   5.6666   5.7350   5.7599   5.8349   5.9984   6.0518   6.1340
  6.2121   6.3901   6.4294   6.4938   6.5279   6.7085   6.7206   6.8074
  6.9211   6.9699   7.0374   7.0606   7.0674   7.0986   7.1071   7.1337
  7.2214   7.2499   7.2672   7.2847   7.3228   7.3441   7.3701   7.3910
  7.4666   7.4903   7.5336   7.5414   7.6118   7.6798   7.7930   7.8043
  7.8700   7.9854   8.0158   8.1239  24.7104  24.7924  50.4562  50.4864
 50.5773  50.5959  50.7240
 
 Beta MOs
 -- Occupied --
-19.4502 -19.4491 -19.3516 -19.3476 -19.3400 -10.4632 -10.4581  -1.3524
 -1.2099  -1.1784  -1.1391  -0.9581  -0.8345  -0.7247  -0.7088  -0.6563
 -0.6445  -0.6140  -0.5977  -0.5688  -0.5404  -0.5075  -0.4932  -0.4649
 -0.4293  -0.4198  -0.4154  -0.3840
 -- Virtual --
 -0.0447   0.0262   0.0450   0.0483   0.0576   0.0662   0.0791   0.1024
  0.1112   0.1271   0.1343   0.1424   0.1515   0.1615   0.1724   0.1966
  0.2026   0.2310   0.2350   0.2367   0.2518   0.2652   0.2672   0.2742
  0.2835   0.2907   0.3000   0.3081   0.3215   0.3310   0.3349   0.3387
  0.3495   0.3603   0.3623   0.3692   0.3808   0.3965   0.4032   0.4121
  0.4322   0.4410   0.4466   0.4723   0.5040   0.5534   0.5874   0.6000
  0.6103   0.6260   0.6384   0.6730   0.6858   0.7044   0.7151   0.7303
  0.7552   0.7873   0.8115   0.8624   0.8936   0.9248   0.9371   0.9643
  0.9998   1.0022   1.0245   1.0693   1.0724   1.1060   1.1196   1.1364
  1.1438   1.1590   1.1722   1.1752   1.1873   1.2128   1.2192   1.2280
  1.2452   1.2576   1.2813   1.2879   1.3019   1.3379   1.3612   1.3799
  1.4016   1.4291   1.4504   1.4639   1.4861   1.5018   1.5178   1.5530
  1.5683   1.5718   1.6002   1.6232   1.6488   1.7002   1.7105   1.7400
  1.7764   1.8415   1.8815   1.9269   1.9374   1.9830   2.0302   2.0442
  2.1022   2.1293   2.1646   2.2239   2.2569   2.2739   2.2955   2.3325
  2.3791   2.4184   2.4374   2.4920   2.5352   2.5714   2.6512   2.6635
  2.7206   2.7275   2.7527   2.8336   2.8619   2.9219   2.9661   3.0337
  3.0888   3.1783   3.2205   3.2440   3.3088   3.3472   3.3529   3.3933
  3.4123   3.4325   3.5214   3.5478   3.5962   3.6109   3.6437   3.6978
  3.7346   3.7739   3.7894   3.8185   3.8214   3.8485   3.8728   3.8984
  3.9418   3.9680   4.0132   4.0199   4.0867   4.1265   4.1523   4.2099
  4.2567   4.3064   4.3368   4.3619   4.4528   4.5142   4.5568   4.5736
  4.6942   4.7047   4.7196   4.8046   4.9125   5.0738   5.1077   5.1540
  5.1701   5.1976   5.2061   5.2225   5.2332   5.2361   5.2481   5.2701
  5.2754   5.3007   5.3095   5.3308   5.3445   5.3506   5.3778   5.3961
  5.4217   5.4593   5.5019   5.5255   5.5362   5.5466   5.5966   5.6124
  5.6353   5.6457   5.6682   5.7367   5.7787   5.8354   5.9985   6.0520
  6.1342   6.2139   6.3903   6.4389   6.4943   6.5781   6.7204   6.7223
  6.8566   6.9744   6.9845   7.0619   7.0907   7.1171   7.1230   7.1358
  7.1488   7.2223   7.2512   7.2681   7.3142   7.3355   7.3590   7.3949
  7.4098   7.4721   7.5089   7.5413   7.5457   7.6144   7.6802   7.7970
  7.8079   7.8702   7.9892   8.0279   8.1437  24.7105  24.7922  50.4676
 50.4985  50.5773  50.5959  50.7243
 --------------------------------------------------------------
 
          Ground-State Mulliken Net Atomic Charges

     Atom                 Charge (a.u.)    Spin (a.u.)
  --------------------------------------------------------
      1 C                     0.008861       0.009660
      2 O                    -0.424998       0.000744
      3 O                    -0.422402       0.000496
      4 H                     0.342882      -0.000009
      5 H                     0.343679      -0.000241
      6 H                     0.248262      -0.000606
      7 C                    -0.167778      -0.025789
      8 H                     0.276171       0.004821
      9 O                    -0.483861      -0.000355
     10 H                     0.376025      -0.008829
     11 O                    -0.043242       0.552274
     12 O                    -0.053598       0.467835
  --------------------------------------------------------
  Sum of atomic charges =    -0.000000
  Sum of spin   charges =     1.000000

 -----------------------------------------------------------------
                    Cartesian Multipole Moments
 -----------------------------------------------------------------
    Charge (ESU x 10^10)
                -0.0000
    Dipole Moment (Debye)
         X      -4.2328      Y       1.2802      Z      -2.6912
       Tot       5.1767
    Quadrupole Moments (Debye-Ang)
        XX     -45.0629     XY       7.6801     YY     -44.4336
        XZ       9.9924     YZ      -0.7690     ZZ     -30.6590
    Octopole Moments (Debye-Ang^2)
       XXX    -158.9129    XXY       2.4111    XYY     -56.8146
       YYY     -34.1555    XXZ      65.1451    XYZ     -13.3799
       YYZ      57.2745    XZZ     -81.5336    YZZ     -17.0943
       ZZZ     141.0893
    Hexadecapole Moments (Debye-Ang^3)
      XXXX    -538.5210   XXXY     -26.9919   XXYY    -132.6961
      XYYY     -48.6230   YYYY    -318.9582   XXXZ     174.7234
      XXYZ     -31.5669   XYYZ      66.7883   YYYZ     -48.5270
      XXZZ    -273.5841   XYZZ       6.9806   YYZZ    -213.4069
      XZZZ     302.4076   YZZZ     -10.7327   ZZZZ    -830.0104
 -----------------------------------------------------------------
 Calculating analytic gradient of the SCF energy
 Gradient of CDS energy
            1           2           3           4           5           6
    1   0.0003260   0.0005334  -0.0009763  -0.0003165  -0.0000816  -0.0000669
    2  -0.0018922   0.0019394   0.0000618  -0.0004042   0.0000060   0.0001087
    3  -0.0026001  -0.0009495   0.0034371   0.0001375  -0.0005212   0.0000981
            7           8           9          10          11          12
    1   0.0015850  -0.0001128  -0.0007837   0.0000632  -0.0000227  -0.0001473
    2  -0.0011291   0.0001937   0.0009392  -0.0000899   0.0000294   0.0002373
    3   0.0017676  -0.0001672  -0.0015391   0.0003168   0.0001251  -0.0001051
 Gradient of SCF Energy
            1           2           3           4           5           6
    1  -0.0017275   0.0244853   0.0136987  -0.0180176  -0.0184712  -0.0149096
    2  -0.0035551   0.0012633   0.0001284  -0.0024531  -0.0040923   0.0039462
    3  -0.0244609   0.0133005   0.0070965  -0.0091342  -0.0081795  -0.0021220
            7           8           9          10          11          12
    1   0.0089529   0.0032789   0.0042797   0.0003663   0.0000700  -0.0020059
    2   0.0039316   0.0034665  -0.0112335   0.0012766   0.0055153   0.0018061
    3   0.0219825  -0.0022384   0.0010320   0.0001038   0.0007971   0.0018226
 Max gradient component =       2.449E-02
 RMS gradient           =       9.870E-03
 Computing fast CPCM-SWIG gradient
 Updating gradient with PCM contributions...
 -- total gradient after adding PCM contribution --
---------------------------------------------------
  Atom         X              Y              Z     
---------------------------------------------------
   1      -0.013247       0.000149      -0.022307
   2       0.003362      -0.000253       0.003171
   3      -0.005879      -0.001858      -0.002282
   4       0.000265      -0.000478       0.000117
   5       0.000009      -0.001034       0.000632
   6      -0.002542      -0.002090      -0.001332
   7       0.015599       0.006588       0.017369
   8       0.000949      -0.000613      -0.000084
   9       0.001427      -0.003763       0.003364
  10       0.000653      -0.000712      -0.000376
  11      -0.000136       0.004423       0.001693
  12      -0.000461      -0.000362       0.000035
---------------------------------------------------
 Number of fixed atoms: 0
 Gradient time:  CPU 134.60 s  wall 7.17 s
 ######################################################
 ######################################################
 # Starting finite difference calculation for IDERIV  #
 Finite diff step size:  1.88973e-03 a.u.
 ----------------------------------------------------------------
             Standard Nuclear Orientation (Angstroms)
    I     Atom           X                Y                Z
 ----------------------------------------------------------------
    1      C       0.6377210000    -0.0979375000    -2.3596865000
    2      O       0.3791925000    -1.3708903000    -1.8154062000
    3      O       1.0499029000    -0.1652195000    -3.6990846000
    4      H      -0.4750214000    -1.6733017000    -2.1451719000
    5      H       0.2741256000    -0.3608150000    -4.2369820000
    6      H      -0.2539934000     0.5267268000    -2.2753110000
    7      C       1.8522431000     0.4607773000    -1.4889623000
    8      H       2.5335504000     1.1073850000    -2.0458371000
    9      O       2.2936050000    -0.2282567000    -0.5106019000
   10      H       1.8575217000     0.5156047000     0.4408663000
   11      O       1.0371518000     1.8284494000    -0.5511236000
   12      O       1.2691993000     1.4772279000     0.6571839000
 ----------------------------------------------------------------
 Nuclear Repulsion Energy =         332.22160848 hartrees
 There are       29 alpha and       28 beta electrons
 Discretize the solute cavity surface with Lebedev spheres
	Using 110 Lebedev grid points for each H atom
	Using 194 Lebedev grid points for other atoms
	Atomic van der Waals radii will be scaled by 1.20
 Remove points where switching function is < 1.0e-08
 Keep 1002 surface tesserae and discard 906 interior tesserae
 Molecular Surface Area = 116.318 Angst**2

                       Distance Matrix (Angstroms)
             C (  1)   O (  2)   O (  3)   H (  4)   H (  5)   H (  6)
   O (  2)  1.408363
   O (  3)  1.403000  2.334896
   H (  4)  1.940614  0.964303  2.648462
   H (  5)  1.930167  2.625894  0.964065  2.580603
   H (  6)  1.092007  2.052654  2.050870  2.214930  2.216933
   C (  7)  1.595427  2.373068  2.433159  3.225068  3.273695  2.249206
   H (  8)  2.268363  3.291839  2.560070  4.097998  3.473000  2.856610
   O (  9)  2.485568  2.583235  3.423038  3.524949  4.240493  3.189742
   H ( 10)  3.115677  3.291669  4.272583  4.113352  5.015727  3.440384
   O ( 11)  2.672342  3.502441  3.726196  4.133995  4.354382  2.516815
   O ( 12)  3.461418  3.875254  4.660772  4.563041  5.321789  3.438473
             C (  7)   H (  8)   O (  9)   H ( 10)   O ( 11)
   H (  8)  1.091966
   O (  9)  1.275444  2.049014
   H ( 10)  1.930614  2.644033  1.284052
   O ( 11)  1.847821  2.234572  2.410468  1.838644
   O ( 12)  2.445211  3.006940  2.306905  1.147883  1.279535
 
 Requested basis set is 6-311++G(2df,2p)
 There are 86 shells and 288 basis functions
 A cutoff of  1.0D-11 yielded   3401 shell pairs
 There are     38142 function pairs (     47778 Cartesian)
 Smallest overlap matrix eigenvalue = 5.05E-05
 Guess MOs from SCF MO coefficient file

 -----------------------------------------------------------------------
  General SCF calculation program by
  Eric Jon Sundstrom, Paul Horn, Yuezhi Mao, Dmitri Zuev, Alec White,
  David Stuck, Shaama M.S., Shane Yost, Joonho Lee, David Small,
  Daniel Levine, Susi Lehtola, Hugh Burton, Evgeny Epifanovsky,
  Bang C. Huynh
 -----------------------------------------------------------------------
 Exchange:     0.1500 Hartree-Fock + 1.0000 wB97M-V + LR-HF
 Correlation:  1.0000 wB97M-V
 Using SG-2 standard quadrature grid
 Nonlocal Correlation:  VV10 with C = 0.0100 and b = 6.00 and scale = 1.00000
 Grid used for NLC:  SG-1 standard quadrature
 
 Citation of the SMD model:
 Marenich, A.V.; Cramer, C.J.; Truhlar, D.G.
 J. Phys. Chem. B 2009, 113, 6378-6396.
 iSolventCode=           1
 Solvent: water                                                           
 
 vradii
            1           2           3           4           5           6
    1   1.8500000   1.5200000   1.5200000   1.2000000   1.2000000   1.2000000
            7           8           9          10          11          12
    1   1.8500000   1.2000000   1.5200000   1.2000000   1.5200000   1.5200000
 -------------------------------------------------------
 OpenMP BLAS3 based DFT computing Module                
 Release: version 1.0, May 2013, Q-Chem Inc. Pittsburgh 
 -------------------------------------------------------
 A unrestricted SCF calculation will be
 performed using Roothaan-Hall, DIIS, GDM
 SCF converges when RMS gradient is below 1.0e-06
 ---------------------------------------
  Cycle       Energy         DIIS error
 ---------------------------------------
    1    -455.1797927459      3.48e-04  Roothaan Step
 ---------------------------------------
  Cycle       Energy         DIIS error
 ---------------------------------------
    1    -455.2109858719      4.09e-04  
    2    -455.2170030010      3.57e-04  Done DIIS. Switching to GDM
 ---------------------------------------
  Cycle       Energy        RMS Gradient
 ---------------------------------------
    1    -455.2170030010      1.49e-02   Normal BFGS step
    2    -455.2160863939      2.29e-02  Line search: overstep
    3    -455.2203443359      3.72e-03   Normal BFGS step
    4    -455.2205171357      3.59e-03   Normal BFGS step
    5    -455.2205588471      2.10e-03   Normal BFGS step
    6    -455.2205715167      2.16e-04   Normal BFGS step
    7    -455.2205724471      9.88e-05   Normal BFGS step
    8    -455.2205727750      5.48e-05   Normal BFGS step
    9    -455.2205728070      4.02e-05   Normal BFGS step
   10    -455.2205728134      2.11e-05   Normal BFGS step
   11    -455.2205728155      1.04e-05   Normal BFGS step
   12    -455.2205728160      3.68e-06   Normal BFGS step
   13    -455.2205728161      3.41e-06   Normal BFGS step
   14    -455.2205728162      1.87e-06   Normal BFGS step
   15    -455.2205728163      8.35e-07  Convergence criterion met
 ---------------------------------------
 SCF time:   CPU 1081.24s  wall 39.00s 
<S^2> =          0.755048125
(3)  G-ENP(liq) elect-nuc-pol free energy of system     -455.220572816 a.u.
(4)  G-CDS(liq) cavity-dispersion-solvent structure 
     free energy                                                2.9614 kcal/mol
(6)  G-S(liq) free energy of system                     -455.215853581 a.u.
 SCF   energy in the final basis set =     -455.2158535807
 Total energy in the final basis set =     -455.2158535807
 
 --------------------------------------------------------------
 
                    Orbital Energies (a.u.)
 --------------------------------------------------------------
 
 Alpha MOs
 -- Occupied --
-19.4668 -19.4632 -19.3516 -19.3475 -19.3400 -10.4628 -10.4584  -1.3806
 -1.2101  -1.1790  -1.1391  -0.9967  -0.8373  -0.7324  -0.7134  -0.6595
 -0.6480  -0.6418  -0.6329  -0.5840  -0.5675  -0.5077  -0.4946  -0.4702
 -0.4449  -0.4314  -0.4160  -0.4126  -0.3795
 -- Virtual --
  0.0259   0.0448   0.0480   0.0568   0.0654   0.0769   0.1016   0.1106
  0.1265   0.1330   0.1419   0.1506   0.1604   0.1716   0.1930   0.1983
  0.2297   0.2339   0.2358   0.2493   0.2637   0.2654   0.2722   0.2822
  0.2894   0.2963   0.3004   0.3209   0.3300   0.3325   0.3384   0.3489
  0.3592   0.3617   0.3683   0.3796   0.3930   0.4017   0.4114   0.4308
  0.4397   0.4462   0.4720   0.5037   0.5526   0.5863   0.5991   0.6087
  0.6249   0.6381   0.6728   0.6856   0.7035   0.7151   0.7302   0.7551
  0.7854   0.8104   0.8619   0.8917   0.9237   0.9368   0.9631   0.9975
  1.0015   1.0209   1.0669   1.0690   1.0961   1.1093   1.1265   1.1381
  1.1550   1.1664   1.1727   1.1803   1.2095   1.2166   1.2245   1.2423
  1.2549   1.2711   1.2849   1.3003   1.3373   1.3591   1.3790   1.3980
  1.4174   1.4422   1.4615   1.4837   1.4960   1.5166   1.5510   1.5577
  1.5690   1.5947   1.6164   1.6449   1.6864   1.7030   1.7386   1.7700
  1.8385   1.8773   1.9270   1.9356   1.9695   2.0245   2.0380   2.0983
  2.1224   2.1623   2.2146   2.2550   2.2641   2.2810   2.3266   2.3776
  2.4164   2.4365   2.4886   2.5337   2.5652   2.6486   2.6574   2.7199
  2.7259   2.7524   2.8330   2.8622   2.9223   2.9671   3.0338   3.0897
  3.1786   3.2208   3.2444   3.3090   3.3474   3.3521   3.3936   3.4120
  3.4330   3.5208   3.5486   3.5968   3.6115   3.6432   3.6977   3.7347
  3.7737   3.7899   3.8186   3.8215   3.8481   3.8721   3.8976   3.9423
  3.9670   4.0138   4.0206   4.0871   4.1271   4.1525   4.2099   4.2569
  4.3064   4.3366   4.3616   4.4515   4.5096   4.5268   4.5670   4.6781
  4.6855   4.7087   4.7870   4.9009   5.0316   5.0557   5.1191   5.1276
  5.1725   5.1956   5.2078   5.2157   5.2216   5.2402   5.2541   5.2614
  5.2760   5.3028   5.3262   5.3394   5.3481   5.3603   5.3889   5.4192
  5.4512   5.5002   5.5244   5.5274   5.5411   5.5906   5.6097   5.6178
  5.6372   5.6666   5.7350   5.7599   5.8348   5.9988   6.0523   6.1338
  6.2123   6.3906   6.4294   6.4934   6.5278   6.7085   6.7208   6.8074
  6.9211   6.9700   7.0374   7.0607   7.0674   7.0986   7.1071   7.1338
  7.2214   7.2499   7.2672   7.2847   7.3227   7.3440   7.3699   7.3910
  7.4665   7.4903   7.5337   7.5414   7.6119   7.6802   7.7930   7.8044
  7.8699   7.9855   8.0158   8.1238  24.7097  24.7931  50.4562  50.4864
 50.5773  50.5958  50.7240
 
 Beta MOs
 -- Occupied --
-19.4502 -19.4491 -19.3516 -19.3475 -19.3400 -10.4632 -10.4581  -1.3524
 -1.2099  -1.1784  -1.1390  -0.9582  -0.8346  -0.7247  -0.7087  -0.6564
 -0.6444  -0.6140  -0.5978  -0.5688  -0.5405  -0.5074  -0.4932  -0.4649
 -0.4293  -0.4197  -0.4154  -0.3840
 -- Virtual --
 -0.0447   0.0262   0.0450   0.0483   0.0576   0.0662   0.0791   0.1024
  0.1112   0.1271   0.1343   0.1425   0.1515   0.1615   0.1724   0.1966
  0.2025   0.2310   0.2349   0.2367   0.2518   0.2652   0.2672   0.2743
  0.2837   0.2907   0.2999   0.3081   0.3215   0.3310   0.3349   0.3387
  0.3495   0.3603   0.3623   0.3692   0.3808   0.3965   0.4033   0.4121
  0.4322   0.4410   0.4465   0.4723   0.5041   0.5534   0.5875   0.6000
  0.6102   0.6260   0.6384   0.6730   0.6857   0.7044   0.7151   0.7303
  0.7553   0.7874   0.8115   0.8624   0.8936   0.9248   0.9372   0.9642
  0.9998   1.0022   1.0245   1.0693   1.0724   1.1061   1.1196   1.1364
  1.1438   1.1590   1.1722   1.1752   1.1873   1.2128   1.2192   1.2280
  1.2452   1.2576   1.2813   1.2879   1.3019   1.3380   1.3614   1.3799
  1.4016   1.4291   1.4504   1.4640   1.4861   1.5018   1.5179   1.5529
  1.5681   1.5718   1.6001   1.6232   1.6490   1.7001   1.7104   1.7399
  1.7764   1.8416   1.8815   1.9271   1.9376   1.9832   2.0302   2.0442
  2.1021   2.1293   2.1647   2.2237   2.2569   2.2740   2.2954   2.3325
  2.3791   2.4185   2.4375   2.4920   2.5354   2.5715   2.6513   2.6636
  2.7207   2.7281   2.7527   2.8335   2.8619   2.9218   2.9662   3.0341
  3.0888   3.1783   3.2205   3.2439   3.3093   3.3474   3.3530   3.3934
  3.4125   3.4323   3.5211   3.5478   3.5959   3.6111   3.6438   3.6980
  3.7346   3.7738   3.7894   3.8186   3.8216   3.8485   3.8726   3.8981
  3.9423   3.9678   4.0132   4.0202   4.0869   4.1265   4.1525   4.2100
  4.2570   4.3065   4.3368   4.3620   4.4520   4.5139   4.5569   4.5737
  4.6943   4.7047   4.7197   4.8046   4.9125   5.0738   5.1077   5.1540
  5.1699   5.1974   5.2061   5.2224   5.2330   5.2361   5.2481   5.2700
  5.2754   5.3007   5.3095   5.3307   5.3446   5.3506   5.3777   5.3959
  5.4217   5.4594   5.5021   5.5254   5.5362   5.5464   5.5966   5.6120
  5.6352   5.6457   5.6682   5.7366   5.7787   5.8353   5.9990   6.0525
  6.1341   6.2141   6.3909   6.4389   6.4938   6.5781   6.7206   6.7223
  6.8566   6.9746   6.9845   7.0620   7.0907   7.1171   7.1230   7.1358
  7.1488   7.2223   7.2512   7.2681   7.3142   7.3354   7.3589   7.3948
  7.4098   7.4720   7.5089   7.5415   7.5457   7.6145   7.6806   7.7970
  7.8080   7.8701   7.9893   8.0279   8.1437  24.7098  24.7928  50.4676
 50.4985  50.5773  50.5959  50.7243
 --------------------------------------------------------------
 
          Ground-State Mulliken Net Atomic Charges

     Atom                 Charge (a.u.)    Spin (a.u.)
  --------------------------------------------------------
      1 C                     0.009024       0.009648
      2 O                    -0.425224       0.000745
      3 O                    -0.422347       0.000494
      4 H                     0.342915      -0.000009
      5 H                     0.343770      -0.000242
      6 H                     0.247952      -0.000611
      7 C                    -0.167595      -0.025793
      8 H                     0.276140       0.004820
      9 O                    -0.483902      -0.000363
     10 H                     0.376020      -0.008828
     11 O                    -0.043207       0.552268
     12 O                    -0.053546       0.467870
  --------------------------------------------------------
  Sum of atomic charges =    -0.000000
  Sum of spin   charges =     1.000000

 -----------------------------------------------------------------
                    Cartesian Multipole Moments
 -----------------------------------------------------------------
    Charge (ESU x 10^10)
                -0.0000
    Dipole Moment (Debye)
         X      -4.2302      Y       1.2816      Z      -2.6922
       Tot       5.1754
    Quadrupole Moments (Debye-Ang)
        XX     -45.0601     XY       7.6816     YY     -44.4359
        XZ       9.9866     YZ      -0.7690     ZZ     -30.6501
    Octopole Moments (Debye-Ang^2)
       XXX    -158.9215    XXY       2.4116    XYY     -56.8193
       YYY     -34.1465    XXZ      65.1397    XYZ     -13.3808
       YYZ      57.2804    XZZ     -81.5226    YZZ     -17.0950
       ZZZ     141.0468
    Hexadecapole Moments (Debye-Ang^3)
      XXXX    -538.5480   XXXY     -26.9899   XXYY    -132.7021
      XYYY     -48.6104   YYYY    -318.9727   XXXZ     174.7479
      XXYZ     -31.5653   XYYZ      66.8013   YYYZ     -48.5341
      XXZZ    -273.5769   XYZZ       6.9845   YYZZ    -213.4138
      XZZZ     302.4040   YZZZ     -10.7246   ZZZZ    -829.8069
 -----------------------------------------------------------------
 Calculating analytic gradient of the SCF energy
 Gradient of CDS energy
            1           2           3           4           5           6
    1   0.0003538   0.0005259  -0.0009932  -0.0003166  -0.0000820  -0.0000688
    2  -0.0018574   0.0019010   0.0000655  -0.0004042   0.0000060   0.0001086
    3  -0.0026791  -0.0009323   0.0034986   0.0001375  -0.0005208   0.0000981
            7           8           9          10          11          12
    1   0.0015839  -0.0001127  -0.0007836   0.0000632  -0.0000227  -0.0001473
    2  -0.0011291   0.0001937   0.0009392  -0.0000899   0.0000293   0.0002373
    3   0.0017676  -0.0001671  -0.0015392   0.0003168   0.0001251  -0.0001051
 Gradient of SCF Energy
            1           2           3           4           5           6
    1  -0.0006392   0.0243022   0.0134541  -0.0180259  -0.0184528  -0.0153494
    2  -0.0036477   0.0012558   0.0001469  -0.0025254  -0.0041004   0.0041331
    3  -0.0245364   0.0132708   0.0072942  -0.0091020  -0.0082513  -0.0021246
            7           8           9          10          11          12
    1   0.0087327   0.0032739   0.0042719   0.0003596   0.0000769  -0.0020041
    2   0.0039034   0.0034505  -0.0112319   0.0012856   0.0055317   0.0017986
    3   0.0219856  -0.0022640   0.0009877   0.0001084   0.0007937   0.0018381
 Max gradient component =       2.454E-02
 RMS gradient           =       9.870E-03
 Computing fast CPCM-SWIG gradient
 Updating gradient with PCM contributions...
 -- total gradient after adding PCM contribution --
---------------------------------------------------
  Atom         X              Y              Z     
---------------------------------------------------
   1      -0.012168       0.000038      -0.022382
   2       0.003186      -0.000265       0.003143
   3      -0.006112      -0.001841      -0.002098
   4       0.000252      -0.000551       0.000149
   5       0.000029      -0.001041       0.000570
   6      -0.002989      -0.001879      -0.001327
   7       0.015385       0.006562       0.017365
   8       0.000939      -0.000631      -0.000105
   9       0.001419      -0.003759       0.003316
  10       0.000645      -0.000703      -0.000371
  11      -0.000129       0.004439       0.001692
  12      -0.000459      -0.000369       0.000049
---------------------------------------------------
 Number of fixed atoms: 0
 Gradient time:  CPU 134.75 s  wall 6.57 s
 ----------------------------------------------------------------
             Standard Nuclear Orientation (Angstroms)
    I     Atom           X                Y                Z
 ----------------------------------------------------------------
    1      C       0.6357210000    -0.0979375000    -2.3596865000
    2      O       0.3791925000    -1.3708903000    -1.8154062000
    3      O       1.0499029000    -0.1652195000    -3.6990846000
    4      H      -0.4750214000    -1.6733017000    -2.1451719000
    5      H       0.2741256000    -0.3608150000    -4.2369820000
    6      H      -0.2539934000     0.5267268000    -2.2753110000
    7      C       1.8522431000     0.4607773000    -1.4889623000
    8      H       2.5335504000     1.1073850000    -2.0458371000
    9      O       2.2936050000    -0.2282567000    -0.5106019000
   10      H       1.8575217000     0.5156047000     0.4408663000
   11      O       1.0371518000     1.8284494000    -0.5511236000
   12      O       1.2691993000     1.4772279000     0.6571839000
 ----------------------------------------------------------------
 Nuclear Repulsion Energy =         332.20434609 hartrees
 There are       29 alpha and       28 beta electrons
 Discretize the solute cavity surface with Lebedev spheres
	Using 110 Lebedev grid points for each H atom
	Using 194 Lebedev grid points for other atoms
	Atomic van der Waals radii will be scaled by 1.20
 Remove points where switching function is < 1.0e-08
 Keep 1002 surface tesserae and discard 906 interior tesserae
 Molecular Surface Area = 116.319 Angst**2

                       Distance Matrix (Angstroms)
             C (  1)   O (  2)   O (  3)   H (  4)   H (  5)   H (  6)
   O (  2)  1.407997
   O (  3)  1.403589  2.334896
   H (  4)  1.939468  0.964303  2.648462
   H (  5)  1.929791  2.625894  0.964065  2.580603
   H (  6)  1.090374  2.052654  2.050870  2.214930  2.216933
   C (  7)  1.596950  2.373068  2.433159  3.225068  3.273695  2.249206
   H (  8)  2.270035  3.291839  2.560070  4.097998  3.473000  2.856610
   O (  9)  2.486901  2.583235  3.423038  3.524949  4.240493  3.189742
   H ( 10)  3.116461  3.291669  4.272583  4.113352  5.015727  3.440384
   O ( 11)  2.672642  3.502441  3.726196  4.133995  4.354382  2.516815
   O ( 12)  3.461784  3.875254  4.660772  4.563041  5.321789  3.438473
             C (  7)   H (  8)   O (  9)   H ( 10)   O ( 11)
   H (  8)  1.091966
   O (  9)  1.275444  2.049014
   H ( 10)  1.930614  2.644033  1.284052
   O ( 11)  1.847821  2.234572  2.410468  1.838644
   O ( 12)  2.445211  3.006940  2.306905  1.147883  1.279535
 
 Requested basis set is 6-311++G(2df,2p)
 There are 86 shells and 288 basis functions
 A cutoff of  1.0D-11 yielded   3401 shell pairs
 There are     38142 function pairs (     47778 Cartesian)
 Smallest overlap matrix eigenvalue = 5.07E-05
 Guess MOs from SCF MO coefficient file

 -----------------------------------------------------------------------
  General SCF calculation program by
  Eric Jon Sundstrom, Paul Horn, Yuezhi Mao, Dmitri Zuev, Alec White,
  David Stuck, Shaama M.S., Shane Yost, Joonho Lee, David Small,
  Daniel Levine, Susi Lehtola, Hugh Burton, Evgeny Epifanovsky,
  Bang C. Huynh
 -----------------------------------------------------------------------
 Exchange:     0.1500 Hartree-Fock + 1.0000 wB97M-V + LR-HF
 Correlation:  1.0000 wB97M-V
 Using SG-2 standard quadrature grid
 Nonlocal Correlation:  VV10 with C = 0.0100 and b = 6.00 and scale = 1.00000
 Grid used for NLC:  SG-1 standard quadrature
 
 Citation of the SMD model:
 Marenich, A.V.; Cramer, C.J.; Truhlar, D.G.
 J. Phys. Chem. B 2009, 113, 6378-6396.
 iSolventCode=           1
 Solvent: water                                                           
 
 vradii
            1           2           3           4           5           6
    1   1.8500000   1.5200000   1.5200000   1.2000000   1.2000000   1.2000000
            7           8           9          10          11          12
    1   1.8500000   1.2000000   1.5200000   1.2000000   1.5200000   1.5200000
 -------------------------------------------------------
 OpenMP BLAS3 based DFT computing Module                
 Release: version 1.0, May 2013, Q-Chem Inc. Pittsburgh 
 -------------------------------------------------------
 A unrestricted SCF calculation will be
 performed using Roothaan-Hall, DIIS, GDM
 SCF converges when RMS gradient is below 1.0e-06
 ---------------------------------------
  Cycle       Energy         DIIS error
 ---------------------------------------
    1    -455.1797282985      3.48e-04  Roothaan Step
 ---------------------------------------
  Cycle       Energy         DIIS error
 ---------------------------------------
    1    -455.2109201295      4.10e-04  
    2    -455.2169471921      3.58e-04  Done DIIS. Switching to GDM
 ---------------------------------------
  Cycle       Energy        RMS Gradient
 ---------------------------------------
    1    -455.2169471921      1.49e-02   Normal BFGS step
    2    -455.2160314417      2.29e-02  Line search: overstep
    3    -455.2202927924      3.73e-03   Normal BFGS step
    4    -455.2204657514      3.58e-03   Normal BFGS step
    5    -455.2205075289      2.10e-03   Normal BFGS step
    6    -455.2205202210      2.17e-04   Normal BFGS step
    7    -455.2205211462      1.01e-04   Normal BFGS step
    8    -455.2205214748      5.40e-05   Normal BFGS step
    9    -455.2205215067      4.13e-05   Normal BFGS step
   10    -455.2205215130      2.18e-05   Normal BFGS step
   11    -455.2205215150      1.08e-05   Normal BFGS step
   12    -455.2205215155      2.54e-06   Normal BFGS step
   13    -455.2205215156      2.94e-06   Normal BFGS step
   14    -455.2205215156      1.59e-06   Normal BFGS step
   15    -455.2205215158      6.53e-07  Convergence criterion met
 ---------------------------------------
 SCF time:   CPU 1070.16s  wall 39.00s 
<S^2> =          0.755046771
(3)  G-ENP(liq) elect-nuc-pol free energy of system     -455.220521516 a.u.
(4)  G-CDS(liq) cavity-dispersion-solvent structure 
     free energy                                                2.9606 kcal/mol
(6)  G-S(liq) free energy of system                     -455.215803512 a.u.
 SCF   energy in the final basis set =     -455.2158035121
 Total energy in the final basis set =     -455.2158035121
 
 --------------------------------------------------------------
 
                    Orbital Energies (a.u.)
 --------------------------------------------------------------
 
 Alpha MOs
 -- Occupied --
-19.4667 -19.4631 -19.3516 -19.3476 -19.3400 -10.4628 -10.4583  -1.3805
 -1.2101  -1.1790  -1.1391  -0.9967  -0.8370  -0.7324  -0.7134  -0.6593
 -0.6481  -0.6418  -0.6329  -0.5839  -0.5675  -0.5078  -0.4946  -0.4702
 -0.4448  -0.4314  -0.4160  -0.4129  -0.3794
 -- Virtual --
  0.0259   0.0448   0.0480   0.0568   0.0654   0.0770   0.1016   0.1106
  0.1265   0.1329   0.1419   0.1506   0.1604   0.1716   0.1930   0.1983
  0.2297   0.2339   0.2357   0.2493   0.2637   0.2654   0.2722   0.2819
  0.2893   0.2963   0.3006   0.3209   0.3300   0.3325   0.3384   0.3488
  0.3592   0.3616   0.3683   0.3796   0.3930   0.4016   0.4115   0.4308
  0.4396   0.4463   0.4719   0.5035   0.5526   0.5862   0.5991   0.6089
  0.6249   0.6380   0.6728   0.6857   0.7035   0.7151   0.7303   0.7551
  0.7852   0.8103   0.8619   0.8917   0.9237   0.9366   0.9632   0.9975
  1.0015   1.0209   1.0669   1.0689   1.0960   1.1092   1.1265   1.1381
  1.1550   1.1664   1.1727   1.1803   1.2095   1.2166   1.2246   1.2422
  1.2550   1.2711   1.2849   1.3003   1.3372   1.3589   1.3790   1.3979
  1.4175   1.4421   1.4615   1.4837   1.4960   1.5165   1.5510   1.5580
  1.5693   1.5949   1.6164   1.6446   1.6863   1.7033   1.7388   1.7701
  1.8383   1.8774   1.9267   1.9353   1.9691   2.0245   2.0378   2.0983
  2.1224   2.1622   2.2150   2.2550   2.2639   2.2809   2.3266   2.3775
  2.4161   2.4361   2.4887   2.5334   2.5651   2.6484   2.6571   2.7197
  2.7247   2.7524   2.8334   2.8621   2.9224   2.9669   3.0330   3.0897
  3.1786   3.2207   3.2445   3.3082   3.3471   3.3519   3.3933   3.4114
  3.4334   3.5214   3.5486   3.5972   3.6112   3.6429   3.6971   3.7347
  3.7740   3.7898   3.8185   3.8213   3.8480   3.8725   3.8983   3.9415
  3.9673   4.0136   4.0200   4.0868   4.1270   4.1520   4.2097   4.2562
  4.3062   4.3367   4.3612   4.4531   4.5100   4.5270   4.5668   4.6780
  4.6855   4.7083   4.7869   4.9009   5.0316   5.0558   5.1191   5.1276
  5.1731   5.1957   5.2078   5.2164   5.2215   5.2402   5.2540   5.2615
  5.2761   5.3029   5.3263   5.3394   5.3483   5.3603   5.3895   5.4192
  5.4509   5.4998   5.5247   5.5274   5.5414   5.5908   5.6104   5.6179
  5.6375   5.6666   5.7350   5.7599   5.8350   5.9979   6.0514   6.1341
  6.2119   6.3895   6.4293   6.4943   6.5279   6.7085   6.7203   6.8074
  6.9211   6.9698   7.0374   7.0606   7.0673   7.0986   7.1070   7.1336
  7.2214   7.2499   7.2672   7.2847   7.3229   7.3442   7.3702   7.3910
  7.4668   7.4902   7.5334   7.5414   7.6117   7.6794   7.7930   7.8043
  7.8701   7.9854   8.0158   8.1239  24.7111  24.7918  50.4562  50.4864
 50.5772  50.5960  50.7240
 
 Beta MOs
 -- Occupied --
-19.4502 -19.4490 -19.3516 -19.3476 -19.3400 -10.4632 -10.4581  -1.3523
 -1.2099  -1.1784  -1.1391  -0.9581  -0.8344  -0.7246  -0.7088  -0.6562
 -0.6446  -0.6140  -0.5977  -0.5688  -0.5404  -0.5075  -0.4931  -0.4649
 -0.4293  -0.4198  -0.4154  -0.3840
 -- Virtual --
 -0.0447   0.0263   0.0450   0.0483   0.0576   0.0662   0.0792   0.1024
  0.1112   0.1271   0.1342   0.1424   0.1515   0.1615   0.1724   0.1966
  0.2026   0.2310   0.2350   0.2367   0.2518   0.2652   0.2672   0.2742
  0.2834   0.2906   0.3001   0.3081   0.3215   0.3310   0.3349   0.3387
  0.3495   0.3603   0.3622   0.3692   0.3807   0.3965   0.4032   0.4122
  0.4321   0.4410   0.4466   0.4722   0.5039   0.5534   0.5874   0.6000
  0.6104   0.6260   0.6384   0.6730   0.6859   0.7044   0.7151   0.7303
  0.7552   0.7872   0.8114   0.8624   0.8936   0.9248   0.9370   0.9643
  0.9998   1.0022   1.0245   1.0693   1.0724   1.1059   1.1196   1.1364
  1.1438   1.1590   1.1722   1.1751   1.1873   1.2128   1.2193   1.2281
  1.2451   1.2577   1.2814   1.2879   1.3019   1.3379   1.3611   1.3798
  1.4015   1.4290   1.4504   1.4639   1.4861   1.5018   1.5178   1.5531
  1.5686   1.5718   1.6003   1.6231   1.6487   1.7003   1.7105   1.7401
  1.7765   1.8414   1.8816   1.9268   1.9373   1.9827   2.0302   2.0441
  2.1022   2.1293   2.1646   2.2241   2.2568   2.2738   2.2955   2.3324
  2.3790   2.4182   2.4372   2.4921   2.5351   2.5714   2.6510   2.6633
  2.7205   2.7270   2.7527   2.8338   2.8618   2.9219   2.9660   3.0333
  3.0888   3.1783   3.2205   3.2440   3.3084   3.3470   3.3528   3.3932
  3.4120   3.4327   3.5217   3.5478   3.5964   3.6108   3.6436   3.6975
  3.7346   3.7740   3.7893   3.8184   3.8213   3.8485   3.8730   3.8988
  3.9414   3.9681   4.0131   4.0197   4.0866   4.1264   4.1520   4.2098
  4.2564   4.3063   4.3369   4.3617   4.4536   4.5145   4.5568   4.5736
  4.6940   4.7047   4.7195   4.8046   4.9126   5.0738   5.1077   5.1540
  5.1703   5.1978   5.2061   5.2225   5.2333   5.2361   5.2481   5.2701
  5.2755   5.3007   5.3095   5.3309   5.3444   5.3507   5.3779   5.3963
  5.4217   5.4592   5.5017   5.5257   5.5361   5.5468   5.5967   5.6127
  5.6354   5.6458   5.6681   5.7367   5.7787   5.8355   5.9980   6.0516
  6.1344   6.2137   6.3898   6.4389   6.4947   6.5781   6.7202   6.7223
  6.8566   6.9743   6.9844   7.0618   7.0907   7.1171   7.1230   7.1358
  7.1487   7.2224   7.2512   7.2681   7.3142   7.3356   7.3591   7.3950
  7.4098   7.4723   7.5088   7.5412   7.5457   7.6142   7.6797   7.7970
  7.8078   7.8703   7.9892   8.0280   8.1437  24.7112  24.7916  50.4676
 50.4985  50.5773  50.5960  50.7242
 --------------------------------------------------------------
 
          Ground-State Mulliken Net Atomic Charges

     Atom                 Charge (a.u.)    Spin (a.u.)
  --------------------------------------------------------
      1 C                     0.008697       0.009671
      2 O                    -0.424773       0.000742
      3 O                    -0.422458       0.000497
      4 H                     0.342848      -0.000008
      5 H                     0.343588      -0.000241
      6 H                     0.248573      -0.000602
      7 C                    -0.167961      -0.025785
      8 H                     0.276202       0.004823
      9 O                    -0.483819      -0.000348
     10 H                     0.376030      -0.008829
     11 O                    -0.043279       0.552280
     12 O                    -0.053648       0.467800
  --------------------------------------------------------
  Sum of atomic charges =    -0.000000
  Sum of spin   charges =     1.000000

 -----------------------------------------------------------------
                    Cartesian Multipole Moments
 -----------------------------------------------------------------
    Charge (ESU x 10^10)
                -0.0000
    Dipole Moment (Debye)
         X      -4.2354      Y       1.2789      Z      -2.6902
       Tot       5.1780
    Quadrupole Moments (Debye-Ang)
        XX     -45.0656     XY       7.6785     YY     -44.4313
        XZ       9.9981     YZ      -0.7689     ZZ     -30.6679
    Octopole Moments (Debye-Ang^2)
       XXX    -158.9043    XXY       2.4106    XYY     -56.8098
       YYY     -34.1644    XXZ      65.1505    XYZ     -13.3790
       YYZ      57.2685    XZZ     -81.5446    YZZ     -17.0937
       ZZZ     141.1317
    Hexadecapole Moments (Debye-Ang^3)
      XXXX    -538.4941   XXXY     -26.9938   XXYY    -132.6902
      XYYY     -48.6355   YYYY    -318.9436   XXXZ     174.6989
      XXYZ     -31.5684   XYYZ      66.7754   YYYZ     -48.5197
      XXZZ    -273.5913   XYZZ       6.9766   YYZZ    -213.4000
      XZZZ     302.4112   YZZZ     -10.7407   ZZZZ    -830.2137
 -----------------------------------------------------------------
 Calculating analytic gradient of the SCF energy
 Gradient of CDS energy
            1           2           3           4           5           6
    1   0.0002979   0.0005408  -0.0009589  -0.0003163  -0.0000813  -0.0000649
    2  -0.0019267   0.0019775   0.0000580  -0.0004043   0.0000060   0.0001087
    3  -0.0025201  -0.0009667   0.0033745   0.0001376  -0.0005216   0.0000982
            7           8           9          10          11          12
    1   0.0015861  -0.0001129  -0.0007838   0.0000632  -0.0000227  -0.0001473
    2  -0.0011290   0.0001937   0.0009393  -0.0000899   0.0000294   0.0002373
    3   0.0017676  -0.0001673  -0.0015390   0.0003168   0.0001252  -0.0001051
 Gradient of SCF Energy
            1           2           3           4           5           6
    1  -0.0028175   0.0246685   0.0139438  -0.0180093  -0.0184896  -0.0144679
    2  -0.0034600   0.0012704   0.0001098  -0.0023807  -0.0040841   0.0037575
    3  -0.0243839   0.0133304   0.0068979  -0.0091664  -0.0081077  -0.0021196
            7           8           9          10          11          12
    1   0.0091721   0.0032839   0.0042876   0.0003728   0.0000631  -0.0020074
    2   0.0039595   0.0034827  -0.0112353   0.0012676   0.0054989   0.0018137
    3   0.0219789  -0.0022128   0.0010764   0.0000993   0.0008006   0.0018069
 Max gradient component =       2.467E-02
 RMS gradient           =       9.875E-03
 Computing fast CPCM-SWIG gradient
 Updating gradient with PCM contributions...
 -- total gradient after adding PCM contribution --
---------------------------------------------------
  Atom         X              Y              Z     
---------------------------------------------------
   1      -0.014328       0.000263      -0.022230
   2       0.003538      -0.000241       0.003199
   3      -0.005645      -0.001875      -0.002467
   4       0.000279      -0.000404       0.000084
   5      -0.000010      -0.001027       0.000695
   6      -0.002093      -0.002302      -0.001336
   7       0.015812       0.006614       0.017373
   8       0.000958      -0.000595      -0.000064
   9       0.001434      -0.003766       0.003411
  10       0.000661      -0.000720      -0.000380
  11      -0.000144       0.004407       0.001694
  12      -0.000462      -0.000354       0.000020
---------------------------------------------------
 Number of fixed atoms: 0
 Gradient time:  CPU 134.34 s  wall 6.38 s
 ----------------------------------------------------------------
             Standard Nuclear Orientation (Angstroms)
    I     Atom           X                Y                Z
 ----------------------------------------------------------------
    1      C       0.6367210000    -0.0969375000    -2.3596865000
    2      O       0.3791925000    -1.3708903000    -1.8154062000
    3      O       1.0499029000    -0.1652195000    -3.6990846000
    4      H      -0.4750214000    -1.6733017000    -2.1451719000
    5      H       0.2741256000    -0.3608150000    -4.2369820000
    6      H      -0.2539934000     0.5267268000    -2.2753110000
    7      C       1.8522431000     0.4607773000    -1.4889623000
    8      H       2.5335504000     1.1073850000    -2.0458371000
    9      O       2.2936050000    -0.2282567000    -0.5106019000
   10      H       1.8575217000     0.5156047000     0.4408663000
   11      O       1.0371518000     1.8284494000    -0.5511236000
   12      O       1.2691993000     1.4772279000     0.6571839000
 ----------------------------------------------------------------
 Nuclear Repulsion Energy =         332.20783197 hartrees
 There are       29 alpha and       28 beta electrons
 Discretize the solute cavity surface with Lebedev spheres
	Using 110 Lebedev grid points for each H atom
	Using 194 Lebedev grid points for other atoms
	Atomic van der Waals radii will be scaled by 1.20
 Remove points where switching function is < 1.0e-08
 Keep 1002 surface tesserae and discard 906 interior tesserae
 Molecular Surface Area = 116.319 Angst**2

                       Distance Matrix (Angstroms)
             C (  1)   O (  2)   O (  3)   H (  4)   H (  5)   H (  6)
   O (  2)  1.409084
   O (  3)  1.403342  2.334896
   H (  4)  1.940853  0.964303  2.648462
   H (  5)  1.930115  2.625894  0.964065  2.580603
   H (  6)  1.090618  2.052654  2.050870  2.214930  2.216933
   C (  7)  1.595838  2.373068  2.433159  3.225068  3.273695  2.249206
   H (  8)  2.268668  3.291839  2.560070  4.097998  3.473000  2.856610
   O (  9)  2.486287  2.583235  3.423038  3.524949  4.240493  3.189742
   H ( 10)  3.115872  3.291669  4.272583  4.113352  5.015727  3.440384
   O ( 11)  2.671771  3.502441  3.726196  4.133995  4.354382  2.516815
   O ( 12)  3.461146  3.875254  4.660772  4.563041  5.321789  3.438473
             C (  7)   H (  8)   O (  9)   H ( 10)   O ( 11)
   H (  8)  1.091966
   O (  9)  1.275444  2.049014
   H ( 10)  1.930614  2.644033  1.284052
   O ( 11)  1.847821  2.234572  2.410468  1.838644
   O ( 12)  2.445211  3.006940  2.306905  1.147883  1.279535
 
 Requested basis set is 6-311++G(2df,2p)
 There are 86 shells and 288 basis functions
 A cutoff of  1.0D-11 yielded   3401 shell pairs
 There are     38142 function pairs (     47778 Cartesian)
 Smallest overlap matrix eigenvalue = 5.05E-05
 Guess MOs from SCF MO coefficient file

 -----------------------------------------------------------------------
  General SCF calculation program by
  Eric Jon Sundstrom, Paul Horn, Yuezhi Mao, Dmitri Zuev, Alec White,
  David Stuck, Shaama M.S., Shane Yost, Joonho Lee, David Small,
  Daniel Levine, Susi Lehtola, Hugh Burton, Evgeny Epifanovsky,
  Bang C. Huynh
 -----------------------------------------------------------------------
 Exchange:     0.1500 Hartree-Fock + 1.0000 wB97M-V + LR-HF
 Correlation:  1.0000 wB97M-V
 Using SG-2 standard quadrature grid
 Nonlocal Correlation:  VV10 with C = 0.0100 and b = 6.00 and scale = 1.00000
 Grid used for NLC:  SG-1 standard quadrature
 
 Citation of the SMD model:
 Marenich, A.V.; Cramer, C.J.; Truhlar, D.G.
 J. Phys. Chem. B 2009, 113, 6378-6396.
 iSolventCode=           1
 Solvent: water                                                           
 
 vradii
            1           2           3           4           5           6
    1   1.8500000   1.5200000   1.5200000   1.2000000   1.2000000   1.2000000
            7           8           9          10          11          12
    1   1.8500000   1.2000000   1.5200000   1.2000000   1.5200000   1.5200000
 -------------------------------------------------------
 OpenMP BLAS3 based DFT computing Module                
 Release: version 1.0, May 2013, Q-Chem Inc. Pittsburgh 
 -------------------------------------------------------
 A unrestricted SCF calculation will be
 performed using Roothaan-Hall, DIIS, GDM
 SCF converges when RMS gradient is below 1.0e-06
 ---------------------------------------
  Cycle       Energy         DIIS error
 ---------------------------------------
    1    -455.1797475319      3.48e-04  Roothaan Step
 ---------------------------------------
  Cycle       Energy         DIIS error
 ---------------------------------------
    1    -455.2109393502      4.10e-04  
    2    -455.2169594492      3.58e-04  Done DIIS. Switching to GDM
 ---------------------------------------
  Cycle       Energy        RMS Gradient
 ---------------------------------------
    1    -455.2169594492      1.49e-02   Normal BFGS step
    2    -455.2160381445      2.29e-02  Line search: overstep
    3    -455.2203147285      3.72e-03   Normal BFGS step
    4    -455.2204876579      3.59e-03   Normal BFGS step
    5    -455.2205294248      2.10e-03   Normal BFGS step
    6    -455.2205421235      2.16e-04   Normal BFGS step
    7    -455.2205430508      9.90e-05   Normal BFGS step
    8    -455.2205433791      5.52e-05   Normal BFGS step
    9    -455.2205434109      4.02e-05   Normal BFGS step
   10    -455.2205434174      2.11e-05   Normal BFGS step
   11    -455.2205434194      1.05e-05   Normal BFGS step
   12    -455.2205434199      3.42e-06   Normal BFGS step
   13    -455.2205434200      3.31e-06   Normal BFGS step
   14    -455.2205434201      1.82e-06   Normal BFGS step
   15    -455.2205434202      8.01e-07  Convergence criterion met
 ---------------------------------------
 SCF time:   CPU 1065.64s  wall 38.00s 
<S^2> =          0.755047695
(3)  G-ENP(liq) elect-nuc-pol free energy of system     -455.220543420 a.u.
(4)  G-CDS(liq) cavity-dispersion-solvent structure 
     free energy                                                2.9588 kcal/mol
(6)  G-S(liq) free energy of system                     -455.215828220 a.u.
 SCF   energy in the final basis set =     -455.2158282203
 Total energy in the final basis set =     -455.2158282203
 
 --------------------------------------------------------------
 
                    Orbital Energies (a.u.)
 --------------------------------------------------------------
 
 Alpha MOs
 -- Occupied --
-19.4668 -19.4631 -19.3516 -19.3475 -19.3400 -10.4629 -10.4583  -1.3806
 -1.2100  -1.1790  -1.1390  -0.9967  -0.8373  -0.7324  -0.7134  -0.6594
 -0.6480  -0.6418  -0.6329  -0.5839  -0.5675  -0.5077  -0.4946  -0.4703
 -0.4449  -0.4314  -0.4159  -0.4128  -0.3795
 -- Virtual --
  0.0259   0.0448   0.0480   0.0568   0.0654   0.0769   0.1016   0.1106
  0.1264   0.1330   0.1420   0.1506   0.1604   0.1716   0.1930   0.1983
  0.2296   0.2339   0.2357   0.2493   0.2637   0.2653   0.2722   0.2821
  0.2893   0.2963   0.3004   0.3209   0.3300   0.3325   0.3385   0.3489
  0.3592   0.3617   0.3683   0.3796   0.3930   0.4016   0.4115   0.4308
  0.4396   0.4462   0.4719   0.5035   0.5526   0.5863   0.5991   0.6088
  0.6249   0.6380   0.6728   0.6857   0.7034   0.7150   0.7302   0.7551
  0.7854   0.8103   0.8619   0.8917   0.9237   0.9368   0.9631   0.9975
  1.0015   1.0209   1.0669   1.0689   1.0960   1.1092   1.1265   1.1381
  1.1549   1.1664   1.1726   1.1803   1.2095   1.2166   1.2246   1.2424
  1.2550   1.2711   1.2850   1.3003   1.3373   1.3591   1.3790   1.3979
  1.4175   1.4422   1.4614   1.4837   1.4960   1.5166   1.5510   1.5579
  1.5694   1.5948   1.6166   1.6448   1.6864   1.7032   1.7387   1.7701
  1.8384   1.8774   1.9269   1.9353   1.9692   2.0244   2.0379   2.0983
  2.1223   2.1621   2.2148   2.2546   2.2639   2.2809   2.3266   2.3774
  2.4160   2.4363   2.4885   2.5334   2.5651   2.6485   2.6571   2.7199
  2.7252   2.7524   2.8334   2.8621   2.9223   2.9670   3.0337   3.0896
  3.1785   3.2207   3.2443   3.3082   3.3471   3.3518   3.3933   3.4114
  3.4332   3.5212   3.5487   3.5969   3.6114   3.6430   3.6970   3.7344
  3.7740   3.7900   3.8186   3.8215   3.8480   3.8722   3.8980   3.9421
  3.9676   4.0134   4.0205   4.0868   4.1271   4.1523   4.2098   4.2570
  4.3064   4.3366   4.3613   4.4530   4.5103   4.5273   4.5671   4.6781
  4.6855   4.7087   4.7870   4.9009   5.0316   5.0557   5.1191   5.1276
  5.1730   5.1956   5.2078   5.2164   5.2216   5.2402   5.2540   5.2615
  5.2761   5.3029   5.3262   5.3394   5.3480   5.3603   5.3895   5.4193
  5.4511   5.4998   5.5245   5.5273   5.5410   5.5906   5.6097   5.6179
  5.6374   5.6665   5.7350   5.7599   5.8347   5.9980   6.0508   6.1322
  6.2117   6.3901   6.4293   6.4935   6.5279   6.7085   6.7191   6.8074
  6.9211   6.9700   7.0375   7.0606   7.0674   7.0986   7.1070   7.1336
  7.2213   7.2498   7.2672   7.2847   7.3226   7.3440   7.3700   7.3909
  7.4666   7.4902   7.5335   7.5413   7.6117   7.6797   7.7929   7.8041
  7.8699   7.9854   8.0158   8.1239  24.7097  24.7926  50.4562  50.4864
 50.5772  50.5957  50.7240
 
 Beta MOs
 -- Occupied --
-19.4502 -19.4491 -19.3516 -19.3475 -19.3401 -10.4632 -10.4581  -1.3524
 -1.2098  -1.1784  -1.1389  -0.9582  -0.8346  -0.7246  -0.7088  -0.6562
 -0.6445  -0.6140  -0.5976  -0.5688  -0.5404  -0.5074  -0.4932  -0.4649
 -0.4293  -0.4198  -0.4153  -0.3841
 -- Virtual --
 -0.0447   0.0262   0.0450   0.0483   0.0576   0.0662   0.0791   0.1024
  0.1112   0.1271   0.1343   0.1425   0.1515   0.1615   0.1724   0.1966
  0.2025   0.2310   0.2350   0.2367   0.2518   0.2652   0.2672   0.2743
  0.2836   0.2907   0.3000   0.3081   0.3215   0.3310   0.3349   0.3387
  0.3495   0.3603   0.3623   0.3692   0.3808   0.3965   0.4032   0.4122
  0.4322   0.4410   0.4465   0.4722   0.5039   0.5534   0.5874   0.6000
  0.6103   0.6260   0.6384   0.6730   0.6858   0.7044   0.7150   0.7303
  0.7553   0.7873   0.8114   0.8624   0.8936   0.9248   0.9371   0.9642
  0.9998   1.0022   1.0245   1.0692   1.0724   1.1060   1.1196   1.1364
  1.1439   1.1590   1.1722   1.1751   1.1872   1.2128   1.2192   1.2281
  1.2453   1.2576   1.2813   1.2880   1.3018   1.3380   1.3613   1.3799
  1.4015   1.4291   1.4505   1.4639   1.4860   1.5018   1.5179   1.5530
  1.5686   1.5718   1.6002   1.6233   1.6489   1.7003   1.7105   1.7401
  1.7765   1.8415   1.8816   1.9270   1.9372   1.9829   2.0301   2.0441
  2.1021   2.1292   2.1645   2.2239   2.2565   2.2738   2.2955   2.3325
  2.3789   2.4182   2.4374   2.4919   2.5350   2.5713   2.6511   2.6633
  2.7206   2.7274   2.7527   2.8338   2.8618   2.9218   2.9661   3.0340
  3.0887   3.1782   3.2205   3.2437   3.3085   3.3471   3.3527   3.3931
  3.4119   3.4325   3.5215   3.5479   3.5961   3.6109   3.6437   3.6974
  3.7344   3.7741   3.7895   3.8185   3.8216   3.8485   3.8727   3.8986
  3.9420   3.9684   4.0129   4.0202   4.0866   4.1264   4.1524   4.2099
  4.2571   4.3066   4.3367   4.3618   4.4535   4.5150   4.5570   4.5737
  4.6943   4.7047   4.7197   4.8046   4.9125   5.0738   5.1077   5.1540
  5.1703   5.1977   5.2060   5.2225   5.2334   5.2361   5.2482   5.2701
  5.2755   5.3007   5.3095   5.3307   5.3444   5.3506   5.3779   5.3964
  5.4218   5.4593   5.5017   5.5255   5.5360   5.5465   5.5966   5.6120
  5.6353   5.6458   5.6681   5.7367   5.7787   5.8353   5.9981   6.0510
  6.1325   6.2135   6.3903   6.4388   6.4940   6.5781   6.7192   6.7221
  6.8566   6.9746   6.9845   7.0619   7.0907   7.1171   7.1230   7.1358
  7.1488   7.2222   7.2510   7.2681   7.3141   7.3353   7.3589   7.3948
  7.4098   7.4721   7.5088   7.5413   7.5457   7.6142   7.6801   7.7968
  7.8077   7.8701   7.9892   8.0279   8.1437  24.7099  24.7923  50.4676
 50.4985  50.5772  50.5958  50.7242
 --------------------------------------------------------------
 
          Ground-State Mulliken Net Atomic Charges

     Atom                 Charge (a.u.)    Spin (a.u.)
  --------------------------------------------------------
      1 C                     0.008898       0.009657
      2 O                    -0.425485       0.000745
      3 O                    -0.422384       0.000494
      4 H                     0.342811      -0.000009
      5 H                     0.343702      -0.000241
      6 H                     0.248596      -0.000604
      7 C                    -0.167728      -0.025799
      8 H                     0.276201       0.004826
      9 O                    -0.483841      -0.000352
     10 H                     0.376032      -0.008829
     11 O                    -0.043180       0.552273
     12 O                    -0.053620       0.467841
  --------------------------------------------------------
  Sum of atomic charges =    -0.000000
  Sum of spin   charges =     1.000000

 -----------------------------------------------------------------
                    Cartesian Multipole Moments
 -----------------------------------------------------------------
    Charge (ESU x 10^10)
                -0.0000
    Dipole Moment (Debye)
         X      -4.2319      Y       1.2864      Z      -2.6923
       Tot       5.1780
    Quadrupole Moments (Debye-Ang)
        XX     -45.0599     XY       7.6815     YY     -44.4385
        XZ       9.9916     YZ      -0.7806     ZZ     -30.6511
    Octopole Moments (Debye-Ang^2)
       XXX    -158.9056    XXY       2.4104    XYY     -56.8145
       YYY     -34.1533    XXZ      65.1417    XYZ     -13.3823
       YYZ      57.2842    XZZ     -81.5273    YZZ     -17.0743
       ZZZ     141.0526
    Hexadecapole Moments (Debye-Ang^3)
      XXXX    -538.4973   XXXY     -27.0005   XXYY    -132.6962
      XYYY     -48.6276   YYYY    -318.9710   XXXZ     174.7193
      XXYZ     -31.5623   XYYZ      66.7901   YYYZ     -48.5208
      XXZZ    -273.5669   XYZZ       6.9802   YYZZ    -213.4225
      XZZZ     302.3788   YZZZ     -10.7420   ZZZZ    -829.8419
 -----------------------------------------------------------------
 Calculating analytic gradient of the SCF energy
 Gradient of CDS energy
            1           2           3           4           5           6
    1   0.0003607   0.0004946  -0.0009723  -0.0003165  -0.0000816  -0.0000665
    2  -0.0016991   0.0017479   0.0000626  -0.0004047   0.0000060   0.0001076
    3  -0.0026734  -0.0008672   0.0034269   0.0001378  -0.0005212   0.0000991
            7           8           9          10          11          12
    1   0.0015849  -0.0001127  -0.0007838   0.0000632  -0.0000226  -0.0001473
    2  -0.0011296   0.0001937   0.0009389  -0.0000899   0.0000293   0.0002373
    3   0.0017677  -0.0001672  -0.0015392   0.0003168   0.0001252  -0.0001051
 Gradient of SCF Energy
            1           2           3           4           5           6
    1  -0.0018148   0.0243798   0.0137108  -0.0180047  -0.0184621  -0.0146998
    2  -0.0024032   0.0006761  -0.0000098  -0.0024801  -0.0040908   0.0037019
    3  -0.0244811   0.0134432   0.0070070  -0.0091091  -0.0082016  -0.0021443
            7           8           9          10          11          12
    1   0.0088979   0.0032624   0.0043039   0.0003725   0.0000622  -0.0020080
    2   0.0037617   0.0034784  -0.0112213   0.0012730   0.0055053   0.0018088
    3   0.0219587  -0.0022509   0.0010692   0.0000993   0.0007805   0.0018291
 Max gradient component =       2.448E-02
 RMS gradient           =       9.840E-03
 Computing fast CPCM-SWIG gradient
 Updating gradient with PCM contributions...
 -- total gradient after adding PCM contribution --
---------------------------------------------------
  Atom         X              Y              Z     
---------------------------------------------------
   1      -0.013360       0.001276      -0.022333
   2       0.003269      -0.000813       0.003315
   3      -0.005869      -0.001983      -0.002372
   4       0.000264      -0.000518       0.000138
   5       0.000019      -0.001037       0.000616
   6      -0.002307      -0.002331      -0.001352
   7       0.015549       0.006426       0.017335
   8       0.000930      -0.000606      -0.000092
   9       0.001454      -0.003749       0.003406
  10       0.000658      -0.000717      -0.000380
  11      -0.000144       0.004412       0.001677
  12      -0.000462      -0.000359       0.000040
---------------------------------------------------
 Number of fixed atoms: 0
 Gradient time:  CPU 134.88 s  wall 6.37 s
 ----------------------------------------------------------------
             Standard Nuclear Orientation (Angstroms)
    I     Atom           X                Y                Z
 ----------------------------------------------------------------
    1      C       0.6367210000    -0.0989375000    -2.3596865000
    2      O       0.3791925000    -1.3708903000    -1.8154062000
    3      O       1.0499029000    -0.1652195000    -3.6990846000
    4      H      -0.4750214000    -1.6733017000    -2.1451719000
    5      H       0.2741256000    -0.3608150000    -4.2369820000
    6      H      -0.2539934000     0.5267268000    -2.2753110000
    7      C       1.8522431000     0.4607773000    -1.4889623000
    8      H       2.5335504000     1.1073850000    -2.0458371000
    9      O       2.2936050000    -0.2282567000    -0.5106019000
   10      H       1.8575217000     0.5156047000     0.4408663000
   11      O       1.0371518000     1.8284494000    -0.5511236000
   12      O       1.2691993000     1.4772279000     0.6571839000
 ----------------------------------------------------------------
 Nuclear Repulsion Energy =         332.21813290 hartrees
 There are       29 alpha and       28 beta electrons
 Discretize the solute cavity surface with Lebedev spheres
	Using 110 Lebedev grid points for each H atom
	Using 194 Lebedev grid points for other atoms
	Atomic van der Waals radii will be scaled by 1.20
 Remove points where switching function is < 1.0e-08
 Keep 1002 surface tesserae and discard 906 interior tesserae
 Molecular Surface Area = 116.319 Angst**2

                       Distance Matrix (Angstroms)
             C (  1)   O (  2)   O (  3)   H (  4)   H (  5)   H (  6)
   O (  2)  1.407276
   O (  3)  1.403246  2.334896
   H (  4)  1.939229  0.964303  2.648462
   H (  5)  1.929843  2.625894  0.964065  2.580603
   H (  6)  1.091763  2.052654  2.050870  2.214930  2.216933
   C (  7)  1.596539  2.373068  2.433159  3.225068  3.273695  2.249206
   H (  8)  2.269731  3.291839  2.560070  4.097998  3.473000  2.856610
   O (  9)  2.486182  2.583235  3.423038  3.524949  4.240493  3.189742
   H ( 10)  3.116266  3.291669  4.272583  4.113352  5.015727  3.440384
   O ( 11)  2.673212  3.502441  3.726196  4.133995  4.354382  2.516815
   O ( 12)  3.462056  3.875254  4.660772  4.563041  5.321789  3.438473
             C (  7)   H (  8)   O (  9)   H ( 10)   O ( 11)
   H (  8)  1.091966
   O (  9)  1.275444  2.049014
   H ( 10)  1.930614  2.644033  1.284052
   O ( 11)  1.847821  2.234572  2.410468  1.838644
   O ( 12)  2.445211  3.006940  2.306905  1.147883  1.279535
 
 Requested basis set is 6-311++G(2df,2p)
 There are 86 shells and 288 basis functions
 A cutoff of  1.0D-11 yielded   3401 shell pairs
 There are     38142 function pairs (     47778 Cartesian)
 Smallest overlap matrix eigenvalue = 5.06E-05
 Guess MOs from SCF MO coefficient file

 -----------------------------------------------------------------------
  General SCF calculation program by
  Eric Jon Sundstrom, Paul Horn, Yuezhi Mao, Dmitri Zuev, Alec White,
  David Stuck, Shaama M.S., Shane Yost, Joonho Lee, David Small,
  Daniel Levine, Susi Lehtola, Hugh Burton, Evgeny Epifanovsky,
  Bang C. Huynh
 -----------------------------------------------------------------------
 Exchange:     0.1500 Hartree-Fock + 1.0000 wB97M-V + LR-HF
 Correlation:  1.0000 wB97M-V
 Using SG-2 standard quadrature grid
 Nonlocal Correlation:  VV10 with C = 0.0100 and b = 6.00 and scale = 1.00000
 Grid used for NLC:  SG-1 standard quadrature
 
 Citation of the SMD model:
 Marenich, A.V.; Cramer, C.J.; Truhlar, D.G.
 J. Phys. Chem. B 2009, 113, 6378-6396.
 iSolventCode=           1
 Solvent: water                                                           
 
 vradii
            1           2           3           4           5           6
    1   1.8500000   1.5200000   1.5200000   1.2000000   1.2000000   1.2000000
            7           8           9          10          11          12
    1   1.8500000   1.2000000   1.5200000   1.2000000   1.5200000   1.5200000
 -------------------------------------------------------
 OpenMP BLAS3 based DFT computing Module                
 Release: version 1.0, May 2013, Q-Chem Inc. Pittsburgh 
 -------------------------------------------------------
 A unrestricted SCF calculation will be
 performed using Roothaan-Hall, DIIS, GDM
 SCF converges when RMS gradient is below 1.0e-06
 ---------------------------------------
  Cycle       Energy         DIIS error
 ---------------------------------------
    1    -455.1797685892      3.48e-04  Roothaan Step
 ---------------------------------------
  Cycle       Energy         DIIS error
 ---------------------------------------
    1    -455.2109746822      4.09e-04  
    2    -455.2169930210      3.57e-04  Done DIIS. Switching to GDM
 ---------------------------------------
  Cycle       Energy        RMS Gradient
 ---------------------------------------
    1    -455.2169930210      1.49e-02   Normal BFGS step
    2    -455.2160792746      2.29e-02  Line search: overstep
    3    -455.2203227778      3.72e-03   Normal BFGS step
    4    -455.2204954807      3.58e-03   Normal BFGS step
    5    -455.2205371903      2.10e-03   Normal BFGS step
    6    -455.2205498335      2.17e-04   Normal BFGS step
    7    -455.2205507646      9.96e-05   Normal BFGS step
    8    -455.2205510924      5.40e-05   Normal BFGS step
    9    -455.2205511245      4.06e-05   Normal BFGS step
   10    -455.2205511310      2.14e-05   Normal BFGS step
   11    -455.2205511332      1.04e-05   Normal BFGS step
   12    -455.2205511337      3.92e-06   Normal BFGS step
   13    -455.2205511338      3.49e-06   Normal BFGS step
   14    -455.2205511339      1.91e-06   Normal BFGS step
   15    -455.2205511340      8.56e-07  Convergence criterion met
 ---------------------------------------
 SCF time:   CPU 1057.40s  wall 38.00s 
<S^2> =          0.755047205
[...]
  0.1093   0.1252   0.1344   0.1438   0.1591   0.1599   0.1714   0.1866
  0.2023   0.2282   0.2360   0.2420   0.2620   0.2654   0.2699   0.2757
  0.2897   0.2933   0.3026   0.3061   0.3194   0.3244   0.3396   0.3436
  0.3499   0.3587   0.3675   0.3713   0.3840   0.3865   0.3943   0.4042
  0.4345   0.4512   0.4604   0.4922   0.5174   0.5607   0.5783   0.5972
  0.6157   0.6194   0.6333   0.6728   0.6837   0.6953   0.7341   0.7480
  0.7526   0.8202   0.8266   0.8743   0.8949   0.8993   0.9149   0.9623
  0.9977   1.0044   1.0218   1.0687   1.0790   1.0900   1.1312   1.1419
  1.1475   1.1597   1.1703   1.1735   1.1936   1.1955   1.2176   1.2241
  1.2498   1.2564   1.2677   1.2885   1.3053   1.3224   1.3465   1.3804
  1.4118   1.4224   1.4634   1.4684   1.4999   1.5088   1.5269   1.5509
  1.5966   1.5988   1.6052   1.6346   1.6892   1.7151   1.7476   1.7612
  1.8003   1.8573   1.8890   1.9306   1.9482   2.0123   2.0520   2.0827
  2.0966   2.1495   2.2057   2.2471   2.2625   2.2896   2.3208   2.3276
  2.3941   2.4213   2.4454   2.4848   2.5266   2.5459   2.6494   2.6659
  2.6719   2.7066   2.8095   2.8436   2.8900   2.9583   2.9859   3.0286
  3.1417   3.2191   3.2354   3.2732   3.2955   3.3460   3.3708   3.4072
  3.4271   3.4859   3.5003   3.5623   3.6025   3.6465   3.6583   3.6909
  3.7259   3.7707   3.7956   3.8070   3.8485   3.8630   3.8880   3.9190
  3.9746   4.0086   4.0484   4.0820   4.1137   4.1662   4.2059   4.2222
  4.2969   4.3079   4.3202   4.3772   4.4615   4.5308   4.5695   4.6137
  4.7048   4.7191   4.7583   4.8185   4.9207   5.0928   5.1134   5.1591
  5.1760   5.2134   5.2154   5.2323   5.2414   5.2475   5.2567   5.2739
  5.2767   5.3041   5.3260   5.3394   5.3450   5.3700   5.3906   5.4107
  5.4428   5.4577   5.4877   5.5360   5.5595   5.5668   5.5905   5.6392
  5.6433   5.6700   5.6814   5.7345   5.8010   5.8393   6.0396   6.0626
  6.1648   6.2170   6.4146   6.4397   6.5013   6.5738   6.7121   6.7416
  6.8666   6.9911   7.0058   7.0592   7.1184   7.1294   7.1327   7.1367
  7.1448   7.2331   7.2564   7.2748   7.3238   7.3469   7.3791   7.3996
  7.4289   7.4936   7.5243   7.5340   7.5587   7.6427   7.6989   7.7729
  7.7830   7.8791   7.9802   8.0383   8.1523  24.7298  24.9008  50.4617
 50.5089  50.5882  50.6093  50.7207
 --------------------------------------------------------------
 
          Ground-State Mulliken Net Atomic Charges

     Atom                 Charge (a.u.)    Spin (a.u.)
  --------------------------------------------------------
      1 C                    -0.030143       0.012902
      2 O                    -0.434167      -0.000148
      3 O                    -0.436557       0.000017
      4 H                     0.347305      -0.000080
      5 H                     0.341154      -0.000011
      6 H                     0.259436      -0.000039
      7 C                    -0.108470      -0.026065
      8 H                     0.274478       0.006300
      9 O                    -0.499573       0.001218
     10 H                     0.368127      -0.008733
     11 O                    -0.025704       0.553131
     12 O                    -0.055885       0.461509
  --------------------------------------------------------
  Sum of atomic charges =    -0.000000
  Sum of spin   charges =     1.000000

 -----------------------------------------------------------------
                    Cartesian Multipole Moments
 -----------------------------------------------------------------
    Charge (ESU x 10^10)
                 0.0000
    Dipole Moment (Debye)
         X      -4.5655      Y       2.2279      Z      -3.2192
       Tot       6.0142
    Quadrupole Moments (Debye-Ang)
        XX     -48.8055     XY       8.2128     YY     -42.2242
        XZ      10.8401     YZ      -4.0092     ZZ     -26.5346
    Octopole Moments (Debye-Ang^2)
       XXX    -176.6026    XXY       4.2179    XYY     -51.8704
       YYY     -19.4784    XXZ      74.8680    XYZ     -16.2774
       YYZ      54.9132    XZZ     -75.5139    YZZ      -6.2345
       ZZZ     113.3345
    Hexadecapole Moments (Debye-Ang^3)
      XXXX    -628.9186   XXXY     -16.7321   XXYY    -120.8325
      XYYY     -32.3363   YYYY    -231.0821   XXXZ     232.9774
      XXYZ     -38.7583   XYYZ      66.1073   YYYZ     -62.8554
      XXZZ    -288.1177   XYZZ      18.1165   YYZZ    -188.8488
      XZZZ     271.5648   YZZZ     -33.9342   ZZZZ    -681.7344
 -----------------------------------------------------------------
 Calculating analytic gradient of the SCF energy
 Gradient of CDS energy
            1           2           3           4           5           6
    1  -0.0006320   0.0014079  -0.0007659  -0.0004014  -0.0000124  -0.0000981
    2  -0.0027239   0.0023772   0.0004596  -0.0002997  -0.0000982   0.0001076
    3   0.0001698  -0.0017909   0.0015833   0.0001503  -0.0005176   0.0000992
            7           8           9          10          11          12
    1   0.0020390  -0.0001302  -0.0012920   0.0001482  -0.0000281  -0.0002350
    2  -0.0010046   0.0001854   0.0009864  -0.0001068  -0.0000463   0.0001633
    3   0.0013477  -0.0000589  -0.0012973   0.0002945   0.0000897  -0.0000698
 Gradient of SCF Energy
            1           2           3           4           5           6
    1   0.0099471   0.0218185   0.0192454  -0.0178055  -0.0168650  -0.0116887
    2  -0.0059846   0.0005166  -0.0023936  -0.0008640   0.0009338   0.0089874
    3   0.0030330   0.0100515   0.0146921  -0.0093877  -0.0120944  -0.0052565
            7           8           9          10          11          12
    1  -0.0058397   0.0006204   0.0023112   0.0000300  -0.0000141  -0.0017597
    2  -0.0061193   0.0068587  -0.0062712   0.0024327   0.0004415   0.0014620
    3   0.0044370  -0.0033193  -0.0042506   0.0009290  -0.0003736   0.0015396
 Max gradient component =       2.182E-02
 RMS gradient           =       8.536E-03
 Computing fast CPCM-SWIG gradient
 Updating gradient with PCM contributions...
 -- total gradient after adding PCM contribution --
---------------------------------------------------
  Atom         X              Y              Z     
---------------------------------------------------
   1       0.000026      -0.000005      -0.000036
   2       0.000017      -0.000019       0.000007
   3       0.000006       0.000027       0.000008
   4       0.000025      -0.000025      -0.000013
   5       0.000013       0.000011      -0.000002
   6      -0.000005      -0.000008       0.000001
   7      -0.000010       0.000009       0.000007
   8      -0.000024       0.000026       0.000015
   9       0.000002       0.000013      -0.000001
  10      -0.000002      -0.000001       0.000004
  11      -0.000026      -0.000020       0.000008
  12      -0.000022      -0.000008       0.000003
---------------------------------------------------
 Number of fixed atoms: 0
 Gradient time:  CPU 151.63 s  wall 7.11 s
 Geometry Optimization Parameters
   NAtoms,    NIC,     NZ,  NCons,   NDum,   NFix, NCnnct, MaxDiis
       12      78       0       0       0       0       0       0

 Cartesian Hessian Update
 Hessian updated using Powell/Murtagh-Sargent update
  Mixing factors:     0.999128 Powell                      0.000872 Murtagh-Sargent


** GEOMETRY OPTIMIZATION IN DELOCALIZED INTERNAL COORDINATES **
   Searching for a Transition State

   Optimization Cycle:  37

                       Coordinates (Angstroms)
     ATOM                X               Y               Z
      1  C         0.6642922021   -0.0547177182   -2.3665670228
      2  O         0.1304266244   -1.0853847930   -1.5784577202
      3  O         1.2742548623   -0.5408228672   -3.5417681276
      4  H        -0.7411558880   -1.3085706675   -1.9237641629
      5  H         0.5985796815   -0.6251143924   -4.2237176451
      6  H        -0.1018716528    0.6794560493   -2.6172841762
      7  C         1.7877148741    0.6103282194   -1.5909520804
      8  H         2.1918397173    1.4998475857   -2.0795177746
      9  O         2.5355092476   -0.0818580588   -0.8238757351
     10  H         2.0469072535    0.3613948197    0.3221973599
     11  O         0.7898115089    1.5022374482   -0.3526865446
     12  O         1.2778900692    1.0629547747    0.7462767297
   Point Group: c1    Number of degrees of freedom:    30


   Energy is   -455.222222522

 Hessian updated using Powell/Murtagh-Sargent update
  Mixing factors:     0.998543 Powell                      0.001457 Murtagh-Sargent

 30 Hessian modes will be used to form the next step
  Hessian Eigenvalues:
    -0.033349    0.001817    0.003517    0.003932    0.004528    0.013120
     0.019208    0.045710    0.057537    0.068630    0.076199    0.090552
     0.095225    0.103964    0.143989    0.161208    0.167221    0.181743
     0.191059    0.206533    0.258403    0.302640    0.334534    0.334868
     0.424716    0.476534    0.524528    0.525229    0.529876    0.587355

 Transition state search - taking P-RFO step
 Searching for Lamda that Maximizes Along the Lowest mode
 Value Taken    Lamda =   0.00000000
 Searching for Lamda that Minimizes Along All other modes
 Value Taken    Lamda =  -0.00000002
 Step Taken.  Stepsize is  0.001271

                             Maximum     Tolerance    Cnvgd?
         Gradient           0.000032      0.000300     YES
         Displacement       0.000476      0.001200     YES
         Energy change     -0.000003      0.000001      NO


                       Distance Matrix (Angstroms)
             C (  1)   O (  2)   O (  3)   H (  4)   H (  5)   H (  6)
   O (  2)  1.402998
   O (  3)  1.410479  2.336553
   H (  4)  1.934814  0.963693  2.696155
   H (  5)  1.943882  2.725512  0.963689  2.748052
   H (  6)  1.090356  2.061016  2.058513  2.200433  2.184757
   C (  7)  1.518533  2.371119  2.322601  3.191884  3.141945  2.151435
   H (  8)  2.198288  3.344236  2.672915  4.063734  3.413434  2.494664
   O (  9)  2.425301  2.713095  3.031229  3.667576  3.950411  3.278977
   H ( 10)  3.051922  3.062443  4.042427  3.950497  4.871981  3.654992
   O ( 11)  2.548643  2.938212  3.818249  3.565500  4.421208  2.569138
   O ( 12)  3.363851  3.366961  4.578149  4.102414  5.292625  3.655729
             C (  7)   H (  8)   O (  9)   H ( 10)   O ( 11)
   H (  8)  1.092364
   O (  9)  1.275431  2.048545
   H ( 10)  1.946610  2.661826  1.322380
   O ( 11)  1.823353  2.224328  2.403921  1.826822
   O ( 12)  2.434632  3.001882  2.314645  1.124018  1.280199
 
 Final energy is   -455.222222521875     


 ******************************
 **  OPTIMIZATION CONVERGED  **
 ******************************

                       Coordinates (Angstroms)
     ATOM                X               Y               Z
      1  C         0.6642922021   -0.0547177182   -2.3665670228
      2  O         0.1304266244   -1.0853847930   -1.5784577202
      3  O         1.2742548623   -0.5408228672   -3.5417681276
      4  H        -0.7411558880   -1.3085706675   -1.9237641629
      5  H         0.5985796815   -0.6251143924   -4.2237176451
      6  H        -0.1018716528    0.6794560493   -2.6172841762
      7  C         1.7877148741    0.6103282194   -1.5909520804
      8  H         2.1918397173    1.4998475857   -2.0795177746
      9  O         2.5355092476   -0.0818580588   -0.8238757351
     10  H         2.0469072535    0.3613948197    0.3221973599
     11  O         0.7898115089    1.5022374482   -0.3526865446
     12  O         1.2778900692    1.0629547747    0.7462767297

Z-matrix Print:
$molecule
0 2
O 
O  1 1.280199
H  2 1.124018 1 98.692624
O  3 1.322380 2 142.091191 1 0.329794 0
C  4 1.275431 3 97.047673 2 0.221800 0
H  5 1.092364 4 119.604788 3 102.771689 0
C  5 1.518533 4 120.216026 3 -107.253786 0
H  7 1.090356 5 110.023173 4 156.291827 0
O  7 1.402998 5 108.440770 4 34.864925 0
H  9 0.963693 7 108.240312 5 161.521008 0
O  7 1.410479 5 104.866723 4 -85.288258 0
H  11 0.963689 7 108.454008 5 -155.950051 0
$end

 
 --------------------------------------------------------------
 
                    Orbital Energies (a.u.)
 --------------------------------------------------------------
 
 Alpha MOs
 -- Occupied --
-19.4694 -19.4674 -19.3511 -19.3497 -19.3347 -10.4568 -10.4535  -1.3848
 -1.2114  -1.1730  -1.1416  -1.0042  -0.8516  -0.7371  -0.7101  -0.6637
 -0.6536  -0.6416  -0.6348  -0.5842  -0.5655  -0.5106  -0.4931  -0.4667
 -0.4501  -0.4282  -0.4240  -0.4149  -0.3798
 -- Virtual --
  0.0256   0.0459   0.0484   0.0543   0.0688   0.0865   0.0995   0.1086
  0.1243   0.1336   0.1431   0.1584   0.1596   0.1703   0.1832   0.1982
  0.2261   0.2352   0.2399   0.2595   0.2635   0.2684   0.2734   0.2885
  0.2910   0.2971   0.3056   0.3174   0.3239   0.3383   0.3424   0.3479
  0.3582   0.3658   0.3681   0.3833   0.3851   0.3933   0.4013   0.4334
  0.4509   0.4597   0.4915   0.5163   0.5604   0.5777   0.5964   0.6148
  0.6179   0.6329   0.6726   0.6832   0.6944   0.7339   0.7478   0.7525
  0.8195   0.8220   0.8741   0.8943   0.8992   0.9145   0.9609   0.9939
  1.0021   1.0199   1.0661   1.0763   1.0866   1.1095   1.1374   1.1445
  1.1566   1.1653   1.1706   1.1860   1.1950   1.2147   1.2192   1.2403
  1.2486   1.2628   1.2869   1.3028   1.3203   1.3458   1.3788   1.4073
  1.4179   1.4586   1.4623   1.4977   1.5021   1.5207   1.5497   1.5856
  1.5931   1.6022   1.6300   1.6761   1.7118   1.7461   1.7578   1.7927
  1.8521   1.8850   1.9248   1.9454   2.0064   2.0435   2.0744   2.0949
  2.1407   2.2033   2.2397   2.2561   2.2808   2.3039   2.3262   2.3937
  2.4199   2.4440   2.4835   2.5255   2.5388   2.6466   2.6631   2.6652
  2.7055   2.8085   2.8430   2.8901   2.9586   2.9863   3.0286   3.1424
  3.2192   3.2354   3.2735   3.2956   3.3449   3.3705   3.4076   3.4270
  3.4852   3.5003   3.5637   3.6013   3.6460   3.6589   3.6910   3.7257
  3.7708   3.7955   3.8063   3.8484   3.8626   3.8878   3.9170   3.9743
  4.0090   4.0481   4.0821   4.1139   4.1660   4.2057   4.2221   4.2964
  4.3077   4.3202   4.3764   4.4613   4.5229   4.5379   4.6104   4.6853
  4.6951   4.7530   4.8038   4.9089   5.0377   5.0771   5.1249   5.1541
  5.1691   5.2047   5.2139   5.2266   5.2326   5.2448   5.2560   5.2679
  5.2955   5.3086   5.3301   5.3412   5.3609   5.3755   5.4076   5.4375
  5.4563   5.4769   5.5331   5.5498   5.5648   5.5870   5.6192   5.6390
  5.6684   5.6786   5.7320   5.7840   5.8387   6.0392   6.0624   6.1647
  6.2153   6.4095   6.4334   6.5004   6.5240   6.7085   6.7307   6.8179
  6.9336   6.9949   7.0488   7.0660   7.0846   7.1033   7.1241   7.1318
  7.2280   7.2560   7.2723   7.2927   7.3289   7.3633   7.3806   7.4112
  7.4858   7.5029   7.5315   7.5521   7.6425   7.6967   7.7668   7.7811
  7.8789   7.9758   8.0260   8.1329  24.7297  24.9009  50.4506  50.4969
 50.5881  50.6088  50.7205
 
 Beta MOs
 -- Occupied --
-19.4535 -19.4528 -19.3511 -19.3497 -19.3346 -10.4570 -10.4533  -1.3567
 -1.2112  -1.1724  -1.1415  -0.9664  -0.8484  -0.7285  -0.7059  -0.6607
 -0.6465  -0.6162  -0.5990  -0.5687  -0.5393  -0.5104  -0.4925  -0.4614
 -0.4358  -0.4226  -0.4145  -0.3852
 -- Virtual --
 -0.0483   0.0258   0.0461   0.0487   0.0551   0.0691   0.0893   0.1000
  0.1093   0.1252   0.1344   0.1438   0.1591   0.1599   0.1714   0.1866
  0.2023   0.2282   0.2360   0.2420   0.2620   0.2654   0.2699   0.2757
  0.2897   0.2933   0.3026   0.3061   0.3194   0.3244   0.3396   0.3436
  0.3499   0.3587   0.3675   0.3713   0.3840   0.3865   0.3943   0.4042
  0.4345   0.4512   0.4604   0.4922   0.5174   0.5607   0.5783   0.5972
  0.6157   0.6194   0.6333   0.6728   0.6837   0.6953   0.7341   0.7480
  0.7526   0.8202   0.8266   0.8743   0.8949   0.8993   0.9149   0.9623
  0.9977   1.0044   1.0218   1.0687   1.0790   1.0900   1.1312   1.1419
  1.1475   1.1597   1.1703   1.1735   1.1936   1.1955   1.2176   1.2241
  1.2498   1.2564   1.2677   1.2885   1.3053   1.3224   1.3465   1.3804
  1.4118   1.4224   1.4634   1.4684   1.4999   1.5088   1.5269   1.5509
  1.5966   1.5988   1.6052   1.6346   1.6892   1.7151   1.7476   1.7612
  1.8003   1.8573   1.8890   1.9306   1.9482   2.0123   2.0520   2.0827
  2.0966   2.1495   2.2057   2.2471   2.2625   2.2896   2.3208   2.3276
  2.3941   2.4213   2.4454   2.4848   2.5266   2.5459   2.6494   2.6659
  2.6719   2.7066   2.8095   2.8436   2.8900   2.9583   2.9859   3.0286
  3.1417   3.2191   3.2354   3.2732   3.2955   3.3460   3.3708   3.4072
  3.4271   3.4859   3.5003   3.5623   3.6025   3.6465   3.6583   3.6909
  3.7259   3.7707   3.7956   3.8070   3.8485   3.8630   3.8880   3.9190
  3.9746   4.0086   4.0484   4.0820   4.1137   4.1662   4.2059   4.2222
  4.2969   4.3079   4.3202   4.3772   4.4615   4.5308   4.5695   4.6137
  4.7048   4.7191   4.7583   4.8185   4.9207   5.0928   5.1134   5.1591
  5.1760   5.2134   5.2154   5.2323   5.2414   5.2475   5.2567   5.2739
  5.2767   5.3041   5.3260   5.3394   5.3450   5.3700   5.3906   5.4107
  5.4428   5.4577   5.4877   5.5360   5.5595   5.5668   5.5905   5.6392
  5.6433   5.6700   5.6814   5.7345   5.8010   5.8393   6.0396   6.0626
  6.1648   6.2170   6.4146   6.4397   6.5013   6.5738   6.7121   6.7416
  6.8666   6.9911   7.0058   7.0592   7.1184   7.1294   7.1327   7.1367
  7.1448   7.2331   7.2564   7.2748   7.3238   7.3469   7.3791   7.3996
  7.4289   7.4936   7.5243   7.5340   7.5587   7.6427   7.6989   7.7729
  7.7830   7.8791   7.9802   8.0383   8.1523  24.7298  24.9008  50.4617
 50.5089  50.5882  50.6093  50.7207
 --------------------------------------------------------------
 
          Ground-State Mulliken Net Atomic Charges

     Atom                 Charge (a.u.)    Spin (a.u.)
  --------------------------------------------------------
      1 C                    -0.030143       0.012902
      2 O                    -0.434167      -0.000148
      3 O                    -0.436557       0.000017
      4 H                     0.347305      -0.000080
      5 H                     0.341154      -0.000011
      6 H                     0.259436      -0.000039
      7 C                    -0.108470      -0.026065
      8 H                     0.274478       0.006300
      9 O                    -0.499573       0.001218
     10 H                     0.368127      -0.008733
     11 O                    -0.025704       0.553131
     12 O                    -0.055885       0.461509
  --------------------------------------------------------
  Sum of atomic charges =    -0.000000
  Sum of spin   charges =     1.000000

 -----------------------------------------------------------------
                    Cartesian Multipole Moments
 -----------------------------------------------------------------
    Charge (ESU x 10^10)
                 0.0000
    Dipole Moment (Debye)
         X      -4.5655      Y       2.2279      Z      -3.2192
       Tot       6.0142
    Quadrupole Moments (Debye-Ang)
        XX     -48.8055     XY       8.2128     YY     -42.2242
        XZ      10.8401     YZ      -4.0092     ZZ     -26.5346
    Octopole Moments (Debye-Ang^2)
       XXX    -176.6026    XXY       4.2179    XYY     -51.8704
       YYY     -19.4784    XXZ      74.8680    XYZ     -16.2774
       YYZ      54.9132    XZZ     -75.5139    YZZ      -6.2345
       ZZZ     113.3345
    Hexadecapole Moments (Debye-Ang^3)
      XXXX    -628.9186   XXXY     -16.7321   XXYY    -120.8325
      XYYY     -32.3363   YYYY    -231.0821   XXXZ     232.9774
      XXYZ     -38.7583   XYYZ      66.1073   YYYZ     -62.8554
      XXZZ    -288.1177   XYZZ      18.1165   YYZZ    -188.8488
      XZZZ     271.5648   YZZZ     -33.9342   ZZZZ    -681.7344
 -----------------------------------------------------------------
 Total job time:  2084.59s(wall), 56688.98s(cpu) 
 Mon Oct  2 13:53:35 2023

        *************************************************************
        *                                                           *
        *  Thank you very much for using Q-Chem.  Have a nice day.  *
        *                                                           *
        *************************************************************


